<event>
 7    1  0.2594791E-009  0.1125827E+03  0.7561462E-02  0.1255861E+00
          1   -1    0    0  501    0  0.00000000000E+00  0.00000000000E+00  0.55365605229E+03  0.55365605229E+03  0.00000000000E+00 0. -1.
         -1   -1    0    0    0  501 -0.00000000000E+00 -0.00000000000E+00 -0.29487837413E+02  0.29487837413E+02  0.00000000000E+00 0.  1.
         25    2    1    2    0    0 -0.25029346905E+02 -0.60802896509E+02  0.23001766288E+03  0.26996119497E+03  0.12508981223E+03 0.  0.
          5    1    3    3  502    0 -0.55899890541E+02  0.16018915871E+02  0.89513130982E+02  0.10682451238E+03  0.41800000000E+01 0. -1.
         -5    1    3    3    0  502  0.30870543635E+02 -0.76821812379E+02  0.14050453189E+03  0.16313668258E+03  0.41800000000E+01 0. -1.
        -11    1    1    2    0    0 -0.99073290384E+01  0.44181390434E+02  0.25172652370E+03  0.25576628622E+03  0.00000000000E+00 0. -1.
         11    1    1    2    0    0  0.34936675944E+02  0.16621506074E+02  0.42424028304E+02  0.57416408523E+02  0.00000000000E+00 0.  1.
</event>
<event>
 7    1  0.2594791E-009  0.1099412E+03  0.7561462E-02  0.1260679E+00
          1   -1    0    0  501    0  0.00000000000E+00  0.00000000000E+00  0.16837716592E+02  0.16837716592E+02  0.00000000000E+00 0. -1.
         -1   -1    0    0    0  501 -0.00000000000E+00 -0.00000000000E+00 -0.74432928752E+03  0.74432928752E+03  0.00000000000E+00 0.  1.
         25    2    1    2    0    0  0.22126657180E+02 -0.10795968406E+02 -0.47308812799E+03  0.48996303587E+03  0.12508100488E+03 0.  0.
          5    1    3    3  502    0  0.45487257744E+02  0.45794260730E+02 -0.27926786885E+03  0.28666046101E+03  0.41800000000E+01 0. -1.
         -5    1    3    3    0  502 -0.23360600564E+02 -0.56590229136E+02 -0.19382025914E+03  0.20330257486E+03  0.41800000000E+01 0. -1.
        -11    1    1    2    0    0  0.34697533079E+01  0.48302965261E+02 -0.12403331715E+03  0.13315209125E+03  0.00000000000E+00 0. -1.
         11    1    1    2    0    0 -0.25596410488E+02 -0.37506996856E+02 -0.13037012579E+03  0.13805187699E+03  0.00000000000E+00 0.  1.
</event>
<event>
 7    1  0.2594791E-009  0.1347347E+03  0.7561462E-02  0.1220595E+00
         -1   -1    0    0    0  501 -0.00000000000E+00  0.00000000000E+00  0.42007202237E+03  0.42007202237E+03  0.00000000000E+00 0.  1.
          1   -1    0    0  501    0  0.00000000000E+00 -0.00000000000E+00 -0.74696466609E+02  0.74696466609E+02  0.00000000000E+00 0. -1.
         25    2    1    2    0    0  0.76800382701E+02  0.41616669340E+02  0.33863192438E+03  0.37140423444E+03  0.12505710375E+03 0.  0.
          5    1    3    3  502    0  0.10153662750E+03 -0.18991282964E+01  0.20971183712E+03  0.23304467477E+03  0.41800000000E+01 0.  1.
         -5    1    3    3    0  502 -0.24736244803E+02  0.43515797636E+02  0.12892008726E+03  0.13835955966E+03  0.41800000000E+01 0.  1.
        -11    1    1    2    0    0 -0.30134964548E+02  0.22989358724E+02 -0.14986305463E+02  0.40758018282E+02  0.00000000000E+00 0. -1.
         11    1    1    2    0    0 -0.46665418153E+02 -0.64606028063E+02  0.21729936845E+02  0.82606236259E+02  0.00000000000E+00 0.  1.
</event>
<event>
 7    1  0.2594791E-009  0.9414375E+02  0.7561462E-02  0.1293116E+00
         -2   -1    0    0    0  501 -0.00000000000E+00  0.00000000000E+00  0.10442442754E+03  0.10442442754E+03  0.00000000000E+00 0.  1.
          2   -1    0    0  501    0  0.00000000000E+00 -0.00000000000E+00 -0.15512950151E+03  0.15512950151E+03  0.00000000000E+00 0. -1.
         25    2    1    2    0    0  0.38544241882E+02  0.46166539141E+02 -0.33006357785E+01  0.13883671095E+03  0.12509088773E+03 0.  0.
          5    1    3    3  502    0  0.85064010442E+01 -0.12278961462E+02  0.51114597411E+02  0.53416347889E+02  0.41800000000E+01 0. -1.
         -5    1    3    3    0  502  0.30037840838E+02  0.58445500602E+02 -0.54415233190E+02  0.85420363064E+02  0.41800000000E+01 0. -1.
        -11    1    1    2    0    0 -0.57239647271E+02 -0.12673804141E+00 -0.41448128062E+02  0.70670648802E+02  0.00000000000E+00 0.  1.
         11    1    1    2    0    0  0.18695405389E+02 -0.46039801099E+02 -0.59563101210E+01  0.50046569295E+02  0.00000000000E+00 0. -1.
</event>
<event>
 7    1  0.2594791E-009  0.1057923E+03  0.7561462E-02  0.1268566E+00
          2   -1    0    0  501    0  0.00000000000E+00  0.00000000000E+00  0.11219561356E+03  0.11219561356E+03  0.00000000000E+00 0. -1.
         -2   -1    0    0    0  501 -0.00000000000E+00 -0.00000000000E+00 -0.20100696975E+03  0.20100696975E+03  0.00000000000E+00 0.  1.
         25    2    1    2    0    0  0.69755107024E+02 -0.41670037014E+02  0.19771289759E+02  0.15045594911E+03  0.12507566423E+03 0.  0.
          5    1    3    3  502    0  0.27310078461E+02 -0.41269046836E+02 -0.48848386953E+02  0.69660691356E+02  0.41800000000E+01 0.  1.
         -5    1    3    3    0  502  0.42445028563E+02 -0.40099017839E+00  0.68619676712E+02  0.80795257750E+02  0.41800000000E+01 0.  1.
        -11    1    1    2    0    0  0.20964764952E+02  0.62097652404E+01 -0.96125145036E+01  0.23884785721E+02  0.00000000000E+00 0. -1.
         11    1    1    2    0    0 -0.90719871976E+02  0.35460271774E+02 -0.98970131441E+02  0.13886184848E+03  0.00000000000E+00 0.  1.
</event>
<event>
 7    1  0.2594791E-009  0.1491696E+03  0.7561462E-02  0.1201497E+00
         -2   -1    0    0    0  501 -0.00000000000E+00  0.00000000000E+00  0.30549846610E+02  0.30549846610E+02  0.00000000000E+00 0.  1.
          2   -1    0    0  501    0  0.00000000000E+00 -0.00000000000E+00 -0.79133054308E+03  0.79133054308E+03  0.00000000000E+00 0. -1.
         25    2    1    2    0    0 -0.42298205140E+02 -0.10147006573E+03 -0.44288945110E+03  0.47316390432E+03  0.12509077529E+03 0.  0.
          5    1    3    3  502    0  0.30425907723E+02 -0.71247350067E+02 -0.30091281074E+03  0.31075378166E+03  0.41800000000E+01 0. -1.
         -5    1    3    3    0  502 -0.72724112863E+02 -0.30222715660E+02 -0.14197664036E+03  0.16241012266E+03  0.41800000000E+01 0. -1.
        -11    1    1    2    0    0  0.11996174638E+02 -0.16325359290E+02 -0.65220739535E+02  0.68294732062E+02  0.00000000000E+00 0. -1.
         11    1    1    2    0    0  0.30302030502E+02  0.11779542502E+03 -0.25267050584E+03  0.28042175331E+03  0.00000000000E+00 0.  1.
</event>
<event>
 7    1  0.2594791E-009  0.1114302E+03  0.7561462E-02  0.1257944E+00
          2   -1    0    0  501    0  0.00000000000E+00  0.00000000000E+00  0.10257569732E+04  0.10257569732E+04  0.00000000000E+00 0.  1.
         -2   -1    0    0    0  501 -0.00000000000E+00 -0.00000000000E+00 -0.23147892106E+02  0.23147892106E+02  0.00000000000E+00 0. -1.
         25    2    1    2    0    0  0.79262585037E+01  0.21376925662E+02  0.89583116024E+03  0.90480953631E+03  0.12508809220E+03 0.  0.
          5    1    3    3  502    0  0.60583092546E+01 -0.52556050518E+02  0.36985031462E+03  0.37363828656E+03  0.41800000000E+01 0.  1.
         -5    1    3    3    0  502  0.18679492492E+01  0.73932976180E+02  0.52598084562E+03  0.53117124975E+03  0.41800000000E+01 0.  1.
        -11    1    1    2    0    0  0.24896062510E+02  0.27338533028E+02  0.31241541696E+02  0.48407057793E+02  0.00000000000E+00 0.  1.
         11    1    1    2    0    0 -0.32822321014E+02 -0.48715458690E+02  0.75536379208E+02  0.95688271256E+02  0.00000000000E+00 0. -1.
</event>
<event>
 7    1  0.2594791E-009  0.6470250E+02  0.7561462E-02  0.1379094E+00
         -1   -1    0    0    0  501 -0.00000000000E+00  0.00000000000E+00  0.17579994762E+03  0.17579994762E+03  0.00000000000E+00 0.  1.
          1   -1    0    0  501    0  0.00000000000E+00 -0.00000000000E+00 -0.72854943778E+02  0.72854943778E+02  0.00000000000E+00 0. -1.
         25    2    1    2    0    0  0.96608942951E+01  0.27550082959E+02  0.75411359373E+02  0.14896751233E+03  0.12510837965E+03 0.  0.
          5    1    3    3  502    0  0.46112467230E+01 -0.58112309490E+01 -0.33659787041E+02  0.34720133426E+02  0.41800000000E+01 0.  1.
         -5    1    3    3    0  502  0.50496475721E+01  0.33361313908E+02  0.10907114641E+03  0.11424737890E+03  0.41800000000E+01 0.  1.
        -11    1    1    2    0    0 -0.19908885242E+01 -0.56706933634E+02 -0.29429195352E+01  0.56818137375E+02  0.00000000000E+00 0.  1.
         11    1    1    2    0    0 -0.76700057710E+01  0.29156850675E+02  0.30476564001E+02  0.42869241691E+02  0.00000000000E+00 0. -1.
</event>
<event>
 7    1  0.2594791E-009  0.1999149E+03  0.7561462E-02  0.1149811E+00
         -1   -1    0    0    0  501 -0.00000000000E+00  0.00000000000E+00  0.26624459777E+03  0.26624459777E+03  0.00000000000E+00 0.  1.
          1   -1    0    0  501    0  0.00000000000E+00 -0.00000000000E+00 -0.20345122630E+03  0.20345122630E+03  0.00000000000E+00 0. -1.
         25    2    1    2    0    0 -0.89534233705E+02  0.16040895554E+03 -0.56670308747E+02  0.22936586701E+03  0.12509902091E+03 0.  0.
          5    1    3    3  502    0 -0.47695310740E+02  0.14018496800E+03 -0.88802598411E+02  0.17271375685E+03  0.41800000000E+01 0.  1.
         -5    1    3    3    0  502 -0.41838922965E+02  0.20223987536E+02  0.32132289663E+02  0.56652110161E+02  0.41800000000E+01 0.  1.
        -11    1    1    2    0    0  0.79795169021E+02 -0.49930657012E+02  0.33157455764E+02  0.99798579056E+02  0.00000000000E+00 0. -1.
         11    1    1    2    0    0  0.97390646834E+01 -0.11047829852E+03  0.86306224456E+02  0.14053137801E+03  0.00000000000E+00 0.  1.
</event>
<event>
 7    1  0.4368919E-009  0.1756585E+03  0.7561462E-02  0.1172072E+00
          2   -1    0    0  501    0  0.00000000000E+00  0.00000000000E+00  0.11924718052E+03  0.11924718052E+03  0.00000000000E+00 0. -1.
         -2   -1    0    0    0  501 -0.00000000000E+00 -0.00000000000E+00 -0.36901512905E+03  0.36901512905E+03  0.00000000000E+00 0.  1.
         25    2    1    2    0    0  0.15183475665E+03  0.73331894481E+02 -0.20068249060E+03  0.29043821441E+03  0.12509809863E+03 0.  0.
          5    1    3    3  502    0  0.91762937865E+02  0.79728115710E+02 -0.56618461061E+02  0.13416456959E+03  0.41800000000E+01 0. -1.
         -5    1    3    3    0  502  0.60071818785E+02 -0.63962212286E+01 -0.14406402954E+03  0.15627364482E+03  0.41800000000E+01 0. -1.
        -11    1    1    2    0    0 -0.60178434046E+02 -0.21977174356E+02 -0.65343606441E+02  0.91510802748E+02  0.00000000000E+00 0.  1.
         11    1    1    2    0    0 -0.91656322604E+02 -0.51354720125E+02  0.16258148507E+02  0.10631329242E+03  0.00000000000E+00 0. -1.
</event>
<event>
 7    1  0.2594791E-009  0.1108745E+03  0.7561462E-02  0.1258959E+00
         -1   -1    0    0    0  501 -0.00000000000E+00  0.00000000000E+00  0.15501771560E+03  0.15501771560E+03  0.00000000000E+00 0.  1.
          1   -1    0    0  501    0  0.00000000000E+00 -0.00000000000E+00 -0.12498926760E+03  0.12498926760E+03  0.00000000000E+00 0. -1.
         25    2    1    2    0    0 -0.36371498987E+02  0.34914603095E+02  0.87319149385E+02  0.16066544599E+03  0.12508731445E+03 0.  0.
          5    1    3    3  502    0 -0.67987873031E+02  0.62204182962E+02  0.52564068107E+02  0.10617045217E+03  0.41800000000E+01 0.  1.
         -5    1    3    3    0  502  0.31616374044E+02 -0.27289579867E+02  0.34755081277E+02  0.54494993821E+02  0.41800000000E+01 0.  1.
        -11    1    1    2    0    0  0.25992778710E+01  0.21566330435E+02 -0.48251766076E+02  0.52915931281E+02  0.00000000000E+00 0. -1.
         11    1    1    2    0    0  0.33772221116E+02 -0.56480933530E+02 -0.90389353052E+01  0.66425605928E+02  0.00000000000E+00 0.  1.
</event>
<event>
 7    1  0.2594791E-009  0.1941026E+03  0.7561462E-02  0.1154812E+00
          1   -1    0    0  501    0  0.00000000000E+00  0.00000000000E+00  0.11119228004E+03  0.11119228004E+03  0.00000000000E+00 0. -1.
         -1   -1    0    0    0  501 -0.00000000000E+00 -0.00000000000E+00 -0.61268962526E+03  0.61268962526E+03  0.00000000000E+00 0.  1.
         25    2    1    2    0    0 -0.98294276096E+02  0.15741067571E+03 -0.46240240736E+03  0.51371168864E+03  0.12507528604E+03 0.  0.
          5    1    3    3  502    0 -0.83259213165E+02  0.11412258182E+03 -0.44075492055E+03  0.46285897706E+03  0.41800000000E+01 0.  1.
         -5    1    3    3    0  502 -0.15035062930E+02  0.43288093891E+02 -0.21647486808E+02  0.50852711581E+02  0.41800000000E+01 0.  1.
        -11    1    1    2    0    0  0.64824995065E+02 -0.34414245498E+02 -0.38108529732E+02  0.82697523038E+02  0.00000000000E+00 0.  1.
         11    1    1    2    0    0  0.33469281031E+02 -0.12299643021E+03 -0.98640813054E+00  0.12747269362E+03  0.00000000000E+00 0. -1.
</event>
<event>
 7    1  0.2594791E-009  0.3198805E+03  0.7561462E-02  0.1075704E+00
         -2   -1    0    0    0  501 -0.00000000000E+00  0.00000000000E+00  0.95627613876E+02  0.95627613876E+02  0.00000000000E+00 0.  1.
          2   -1    0    0  501    0  0.00000000000E+00 -0.00000000000E+00 -0.14417144296E+04  0.14417144296E+04  0.00000000000E+00 0. -1.
         25    2    1    2    0    0  0.22310749011E+03  0.21269391058E+03 -0.10467794942E+04  0.10983664805E+04  0.12508382913E+03 0.  0.
          5    1    3    3  502    0  0.78143128225E+02  0.15826327632E+03 -0.60388338017E+03  0.62916311268E+03  0.41800000000E+01 0.  1.
         -5    1    3    3    0  502  0.14496436188E+03  0.54430634264E+02 -0.44289611399E+03  0.46920336780E+03  0.41800000000E+01 0.  1.
        -11    1    1    2    0    0 -0.23935489170E+02 -0.20302415672E+02 -0.79344056992E+02  0.85326286125E+02  0.00000000000E+00 0. -1.
         11    1    1    2    0    0 -0.19917200094E+03 -0.19239149491E+03 -0.21996326457E+03  0.35364927687E+03  0.00000000000E+00 0.  1.
</event>
<event>
 7    1  0.2594791E-009  0.1121483E+03  0.7561462E-02  0.1256642E+00
         -2   -1    0    0    0  501 -0.00000000000E+00  0.00000000000E+00  0.19210279514E+02  0.19210279514E+02  0.00000000000E+00 0.  1.
          2   -1    0    0  501    0  0.00000000000E+00 -0.00000000000E+00 -0.11752660995E+04  0.11752660995E+04  0.00000000000E+00 0. -1.
         25    2    1    2    0    0  0.66079376086E+02  0.40738282869E+02 -0.88531576643E+03  0.89747247986E+03  0.12508698648E+03 0.  0.
          5    1    3    3  502    0  0.10169854500E+03  0.43433836326E+02 -0.63184294453E+03  0.64146088824E+03  0.41800000000E+01 0. -1.
         -5    1    3    3    0  502 -0.35619168909E+02 -0.26955534564E+01 -0.25347282190E+03  0.25601159162E+03  0.41800000000E+01 0. -1.
        -11    1    1    2    0    0 -0.96938327280E+01 -0.70298986665E+01  0.54154846452E+01  0.13142197007E+02  0.00000000000E+00 0.  1.
         11    1    1    2    0    0 -0.56385543358E+02 -0.33708384203E+02 -0.27615553819E+03  0.28386170213E+03  0.00000000000E+00 0. -1.
</event>
<event>
 7    1  0.2594791E-009  0.8727635E+02  0.7561462E-02  0.1309585E+00
         -2   -1    0    0    0  501 -0.00000000000E+00  0.00000000000E+00  0.63390350538E+02  0.63390350538E+02  0.00000000000E+00 0.  1.
          2   -1    0    0  501    0  0.00000000000E+00 -0.00000000000E+00 -0.22198973070E+03  0.22198973070E+03  0.00000000000E+00 0. -1.
         25    2    1    2    0    0 -0.41813902989E+02  0.19480225675E+02 -0.10639752290E+03  0.17056501915E+03  0.12507642145E+03 0.  0.
          5    1    3    3  502    0 -0.56230378492E+02  0.13936095076E+02  0.47457707737E+01  0.58275766418E+02  0.41800000000E+01 0.  1.
         -5    1    3    3    0  502  0.14416475503E+02  0.55441305985E+01 -0.11114329367E+03  0.11228925273E+03  0.41800000000E+01 0.  1.
        -11    1    1    2    0    0  0.40523930131E+02 -0.53115540581E+02 -0.24289362071E+02  0.71087429791E+02  0.00000000000E+00 0.  1.
         11    1    1    2    0    0  0.12899728580E+01  0.33635314906E+02 -0.27912495194E+02  0.43727632302E+02  0.00000000000E+00 0. -1.
</event>
<event>
 7    1  0.2594791E-009  0.1135629E+03  0.7561462E-02  0.1254111E+00
          2   -1    0    0  501    0  0.00000000000E+00  0.00000000000E+00  0.12668781013E+03  0.12668781013E+03  0.00000000000E+00 0. -1.
         -2   -1    0    0    0  501 -0.00000000000E+00 -0.00000000000E+00 -0.10364224926E+03  0.10364224926E+03  0.00000000000E+00 0.  1.
         25    2    1    2    0    0  0.60972400163E+00 -0.36109746278E+02  0.27136741293E+02  0.13299705413E+03  0.12509008010E+03 0.  0.
          5    1    3    3  502    0  0.19727385900E+02  0.43522264597E+02  0.62072367028E+01  0.48366925244E+02  0.41800000000E+01 0. -1.
         -5    1    3    3    0  502 -0.19117661899E+02 -0.79632010875E+02  0.20929504590E+02  0.84630128884E+02  0.41800000000E+01 0. -1.
        -11    1    1    2    0    0  0.31540788631E+02 -0.16428451668E+02  0.51121961892E+00  0.35566511175E+02  0.00000000000E+00 0.  1.
         11    1    1    2    0    0 -0.32150512633E+02  0.52538197946E+02 -0.46024000434E+01  0.61766494090E+02  0.00000000000E+00 0. -1.
</event>
<event>
 7    1  0.2594791E-009  0.1003718E+03  0.7561462E-02  0.1279516E+00
          2   -1    0    0  501    0  0.00000000000E+00  0.00000000000E+00  0.29023724285E+03  0.29023724285E+03  0.00000000000E+00 0. -1.
         -2   -1    0    0    0  501 -0.00000000000E+00 -0.00000000000E+00 -0.80298408731E+02  0.80298408731E+02  0.00000000000E+00 0.  1.
         25    2    1    2    0    0 -0.38684053748E+02  0.78145946182E+02  0.18842436840E+03  0.24239340668E+03  0.12509027171E+03 0.  0.
          5    1    3    3  502    0 -0.21595584210E+02  0.27382046850E+02  0.18527565856E+03  0.18857541675E+03  0.41800000000E+01 0. -1.
         -5    1    3    3    0  502 -0.17088469538E+02  0.50763899332E+02  0.31487098403E+01  0.53817989931E+02  0.41800000000E+01 0. -1.
        -11    1    1    2    0    0  0.12761005961E+02 -0.84292649405E+02  0.41519312136E+02  0.94825878837E+02  0.00000000000E+00 0. -1.
         11    1    1    2    0    0  0.25923047787E+02  0.61467032232E+01 -0.20004846422E+02  0.33316366060E+02  0.00000000000E+00 0.  1.
</event>
<event>
 7    1  0.2594791E-009  0.1552574E+03  0.7561462E-02  0.1194158E+00
          2   -1    0    0  501    0  0.00000000000E+00  0.00000000000E+00  0.49816562103E+03  0.49816562103E+03  0.00000000000E+00 0. -1.
         -2   -1    0    0    0  501 -0.00000000000E+00 -0.00000000000E+00 -0.53309811419E+02  0.53309811419E+02  0.00000000000E+00 0.  1.
         25    2    1    2    0    0 -0.58175332852E+02  0.10084938830E+03  0.30042161810E+03  0.34563279779E+03  0.12511560178E+03 0.  0.
          5    1    3    3  502    0 -0.70436610557E+02  0.61044452572E+01  0.16776831483E+03  0.18210508015E+03  0.41800000000E+01 0. -1.
         -5    1    3    3    0  502  0.12261277706E+02  0.94744943044E+02  0.13265330328E+03  0.16352771763E+03  0.41800000000E+01 0. -1.
        -11    1    1    2    0    0 -0.54814335469E+01 -0.75255810508E+02  0.94795098654E+02  0.12115937379E+03  0.00000000000E+00 0. -1.
         11    1    1    2    0    0  0.63656766399E+02 -0.25593577793E+02  0.49639092856E+02  0.84683260873E+02  0.00000000000E+00 0.  1.
</event>
<event>
 7    1  0.2594791E-009  0.1378934E+03  0.7561462E-02  0.1216192E+00
          1   -1    0    0  501    0  0.00000000000E+00  0.00000000000E+00  0.14679566237E+03  0.14679566237E+03  0.00000000000E+00 0. -1.
         -1   -1    0    0    0  501 -0.00000000000E+00 -0.00000000000E+00 -0.20127826974E+03  0.20127826974E+03  0.00000000000E+00 0.  1.
         25    2    1    2    0    0  0.10702028127E+03  0.32040866627E+02  0.65054591905E+02  0.17989049949E+03  0.12509410115E+03 0.  0.
          5    1    3    3  502    0  0.21423191075E+02 -0.43512202959E+02  0.53453154221E+00  0.48682882475E+02  0.41800000000E+01 0. -1.
         -5    1    3    3    0  502  0.85597090193E+02  0.75553069585E+02  0.64520060363E+02  0.13120761701E+03  0.41800000000E+01 0. -1.
        -11    1    1    2    0    0 -0.41257449204E+02 -0.20577741828E+02 -0.24979249858E+02  0.52436471058E+02  0.00000000000E+00 0. -1.
         11    1    1    2    0    0 -0.65762832064E+02 -0.11463124799E+02 -0.94557949418E+02  0.11574696156E+03  0.00000000000E+00 0.  1.
</event>
<event>
 7    1  0.2594791E-009  0.1119704E+03  0.7561462E-02  0.1256964E+00
         -1   -1    0    0    0  501 -0.00000000000E+00  0.00000000000E+00  0.42726484861E+02  0.42726484861E+02  0.00000000000E+00 0.  1.
          1   -1    0    0  501    0  0.00000000000E+00 -0.00000000000E+00 -0.36188760968E+03  0.36188760968E+03  0.00000000000E+00 0. -1.
         25    2    1    2    0    0  0.40401525032E+02  0.24532082775E+02 -0.23201046633E+03  0.26778802638E+03  0.12508982483E+03 0.  0.
          5    1    3    3  502    0  0.53609406438E+02 -0.31657513161E+02 -0.61045647869E+02  0.87293814912E+02  0.41800000000E+01 0.  1.
         -5    1    3    3    0  502 -0.13207881406E+02  0.56189595937E+02 -0.17096481846E+03  0.18049421147E+03  0.41800000000E+01 0.  1.
        -11    1    1    2    0    0  0.24097195288E+02 -0.30528249443E+02 -0.20829480400E+02  0.44119339167E+02  0.00000000000E+00 0.  1.
         11    1    1    2    0    0 -0.64498720320E+02  0.59961666671E+01 -0.66321178096E+02  0.92706728999E+02  0.00000000000E+00 0. -1.
</event>
<event>
 7    1  0.2594791E-009  0.2096338E+03  0.7561462E-02  0.1141856E+00
         -4   -1    0    0    0  501 -0.00000000000E+00  0.00000000000E+00  0.10804669199E+03  0.10804669199E+03  0.00000000000E+00 0. -1.
          4   -1    0    0  501    0  0.00000000000E+00 -0.00000000000E+00 -0.49748788407E+03  0.49748788407E+03  0.00000000000E+00 0.  1.
         25    2    1    2    0    0  0.65561728772E+02 -0.17660355364E+03 -0.96823950400E+02  0.24598820334E+03  0.12509261917E+03 0.  0.
          5    1    3    3  502    0 -0.19611943507E+00 -0.15230817797E+03 -0.45528716402E+02  0.15902250141E+03  0.41800000000E+01 0.  1.
         -5    1    3    3    0  502  0.65757848207E+02 -0.24295375671E+02 -0.51295233999E+02  0.86965701922E+02  0.41800000000E+01 0.  1.
        -11    1    1    2    0    0 -0.44833540951E+02  0.45262433239E+02 -0.15786903023E+03  0.17023914052E+03  0.00000000000E+00 0.  1.
         11    1    1    2    0    0 -0.20728187821E+02  0.13134112040E+03 -0.13474821144E+03  0.18930723221E+03  0.00000000000E+00 0. -1.
</event>
<event>
 7    1  0.2594791E-009  0.1492204E+03  0.7561462E-02  0.1201434E+00
          2   -1    0    0  501    0  0.00000000000E+00  0.00000000000E+00  0.96568066272E+03  0.96568066272E+03  0.00000000000E+00 0. -1.
         -2   -1    0    0    0  501 -0.00000000000E+00 -0.00000000000E+00 -0.26452318468E+02  0.26452318468E+02  0.00000000000E+00 0.  1.
         25    2    1    2    0    0 -0.66584768160E+02  0.87685221267E+02  0.63307926158E+03  0.65464514824E+03  0.12509472130E+03 0.  0.
          5    1    3    3  502    0 -0.10189720042E+03  0.52238826061E+02  0.48236850464E+03  0.49579106594E+03  0.41800000000E+01 0. -1.
         -5    1    3    3    0  502  0.35312432262E+02  0.35446395206E+02  0.15071075694E+03  0.15885408229E+03  0.41800000000E+01 0. -1.
        -11    1    1    2    0    0  0.38679255617E+02 -0.96840818809E+02  0.18054947017E+03  0.20850021626E+03  0.00000000000E+00 0.  1.
         11    1    1    2    0    0  0.27905512543E+02  0.91555975415E+01  0.12559961251E+03  0.12898761669E+03  0.00000000000E+00 0. -1.
</event>
<event>
 7    1  0.2594791E-009  0.1247130E+03  0.7561462E-02  0.1235519E+00
          2   -1    0    0  501    0  0.00000000000E+00  0.00000000000E+00  0.42704822216E+03  0.42704822216E+03  0.00000000000E+00 0. -1.
         -2   -1    0    0    0  501 -0.00000000000E+00 -0.00000000000E+00 -0.53699990043E+02  0.53699990043E+02  0.00000000000E+00 0.  1.
         25    2    1    2    0    0  0.25873065789E+02  0.77275912444E+02  0.94633996275E+02  0.17675663097E+03  0.12508529556E+03 0.  0.
          5    1    3    3  502    0  0.58091080744E+02  0.53989676155E+01  0.70902794334E+01  0.58919156271E+02  0.41800000000E+01 0.  1.
         -5    1    3    3    0  502 -0.32218014955E+02  0.71876944828E+02  0.87543716842E+02  0.11783747470E+03  0.41800000000E+01 0.  1.
        -11    1    1    2    0    0  0.15727964525E+02  0.76495050220E+01  0.12549011301E+02  0.21525832848E+02  0.00000000000E+00 0.  1.
         11    1    1    2    0    0 -0.41601030313E+02 -0.84925417466E+02  0.26616522454E+03  0.28246574839E+03  0.00000000000E+00 0. -1.
</event>
<event>
 6    1  0.2594791E-009  0.1000634E+03  0.7561462E-02  0.1280163E+00
         -2   -1    0    0    0  501 -0.00000000000E+00  0.00000000000E+00  0.32492462042E+02  0.32492462042E+02  0.00000000000E+00 0.  1.
          2   -1    0    0  501    0  0.00000000000E+00 -0.00000000000E+00 -0.71850032888E+03  0.71850032888E+03  0.00000000000E+00 0. -1.
          5    1    1    2  502    0  0.22497558173E+02  0.77241100734E+02 -0.38296507017E+02  0.89198781471E+02  0.41800000000E+01 0. -1.
         -5    1    1    2    0  502  0.23423885424E+01 -0.57088614125E+01 -0.14437948641E+03  0.14457173437E+03  0.41800000000E+01 0. -1.
        -11    1    1    2    0    0 -0.29639251835E+02  0.93583158621E+01 -0.73223254385E+02  0.79546893766E+02  0.00000000000E+00 0.  1.
         11    1    1    2    0    0  0.47993051197E+01 -0.80890555183E+02 -0.43010861903E+03  0.43767538132E+03  0.00000000000E+00 0. -1.
</event>
<event>
 7    1  0.2594791E-009  0.1034632E+03  0.7561462E-02  0.1273177E+00
         -1   -1    0    0    0  501 -0.00000000000E+00  0.00000000000E+00  0.17559490740E+03  0.17559490740E+03  0.00000000000E+00 0.  1.
          1   -1    0    0  501    0  0.00000000000E+00 -0.00000000000E+00 -0.70708839013E+02  0.70708839013E+02  0.00000000000E+00 0. -1.
         25    2    1    2    0    0  0.56401049987E+01 -0.21575662322E+02  0.48321110435E+02  0.13594395148E+03  0.12509399762E+03 0.  0.
          5    1    3    3  502    0 -0.47757808693E+02  0.22958383218E+02  0.38422902339E+02  0.65587250860E+02  0.41800000000E+01 0. -1.
         -5    1    3    3    0  502  0.53397913692E+02 -0.44534045540E+02  0.98982080963E+01  0.70356700621E+02  0.41800000000E+01 0. -1.
        -11    1    1    2    0    0  0.34522358471E+02 -0.64782267890E+01  0.49746618038E+02  0.60897345286E+02  0.00000000000E+00 0.  1.
         11    1    1    2    0    0 -0.40162463470E+02  0.28053889111E+02  0.68183399183E+01  0.49462449650E+02  0.00000000000E+00 0. -1.
</event>
<event>
 7    1  0.2594791E-009  0.1424799E+03  0.7561462E-02  0.1210030E+00
         -2   -1    0    0    0  501 -0.00000000000E+00  0.00000000000E+00  0.20004171620E+03  0.20004171620E+03  0.00000000000E+00 0.  1.
          2   -1    0    0  501    0  0.00000000000E+00 -0.00000000000E+00 -0.12452716166E+03  0.12452716166E+03  0.00000000000E+00 0. -1.
         25    2    1    2    0    0  0.11579621689E+03 -0.16879861302E+02  0.51721984250E+02  0.17892736547E+03  0.12508455098E+03 0.  0.
          5    1    3    3  502    0  0.10838061736E+03 -0.42413454917E+02  0.78905989920E+02  0.14067297900E+03  0.41800000000E+01 0. -1.
         -5    1    3    3    0  502  0.74155995283E+01  0.25533593615E+02 -0.27184005669E+02  0.38254386461E+02  0.41800000000E+01 0. -1.
        -11    1    1    2    0    0 -0.76672624195E+02  0.48976929771E+02  0.27093487121E+02  0.94928857546E+02  0.00000000000E+00 0.  1.
         11    1    1    2    0    0 -0.39123592691E+02 -0.32097068468E+02 -0.33009168301E+01  0.50712654843E+02  0.00000000000E+00 0. -1.
</event>
<event>
 7    1  0.2594791E-009  0.1008358E+03  0.7561462E-02  0.1278548E+00
          1   -1    0    0  501    0  0.00000000000E+00  0.00000000000E+00  0.79426945651E+02  0.79426945651E+02  0.00000000000E+00 0. -1.
         -1   -1    0    0    0  501 -0.00000000000E+00 -0.00000000000E+00 -0.15597550853E+03  0.15597550853E+03  0.00000000000E+00 0.  1.
         25    2    1    2    0    0 -0.25746374993E+02  0.85201434647E+01 -0.45707729201E+02  0.13590641440E+03  0.12508352528E+03 0.  0.
          5    1    3    3  502    0 -0.67943551478E+02 -0.10408107958E+02 -0.55505306004E+02  0.88447534128E+02  0.41800000000E+01 0.  1.
         -5    1    3    3    0  502  0.42197176485E+02  0.18928251422E+02  0.97975768027E+01  0.47458880270E+02  0.41800000000E+01 0.  1.
        -11    1    1    2    0    0  0.28558374693E+02 -0.43086392394E+02 -0.37909392092E+02  0.64102573922E+02  0.00000000000E+00 0.  1.
         11    1    1    2    0    0 -0.28119997003E+01  0.34566248930E+02  0.70685584169E+01  0.35393465858E+02  0.00000000000E+00 0. -1.
</event>
<event>
 7    1  0.2594791E-009  0.1655079E+03  0.7561462E-02  0.1182615E+00
          1   -1    0    0  501    0  0.00000000000E+00  0.00000000000E+00  0.11527938354E+04  0.11527938354E+04  0.00000000000E+00 0. -1.
         -1   -1    0    0    0  501 -0.00000000000E+00 -0.00000000000E+00 -0.40296921538E+02  0.40296921538E+02  0.00000000000E+00 0.  1.
         25    2    1    2    0    0 -0.14029716844E+03 -0.36503255960E+02  0.25629504228E+03  0.31992303988E+03  0.12509124504E+03 0.  0.
          5    1    3    3  502    0 -0.15276653640E+03 -0.43309653478E+02  0.17115799990E+03  0.23350776017E+03  0.41800000000E+01 0. -1.
         -5    1    3    3    0  502  0.12469367958E+02  0.68063975176E+01  0.85137042376E+02  0.86415279719E+02  0.41800000000E+01 0. -1.
        -11    1    1    2    0    0  0.10152357059E+02 -0.14400684928E+02  0.26785626178E+02  0.32061189154E+02  0.00000000000E+00 0.  1.
         11    1    1    2    0    0  0.13014481138E+03  0.50903940888E+02  0.82941624545E+03  0.84110652794E+03  0.00000000000E+00 0. -1.
</event>
<event>
 7    1  0.2594791E-009  0.1360458E+03  0.7561462E-02  0.1218751E+00
          1   -1    0    0  501    0  0.00000000000E+00  0.00000000000E+00  0.64217238849E+03  0.64217238849E+03  0.00000000000E+00 0. -1.
         -1   -1    0    0    0  501 -0.00000000000E+00 -0.00000000000E+00 -0.38781854097E+02  0.38781854097E+02  0.00000000000E+00 0.  1.
         25    2    1    2    0    0 -0.99487300322E+02  0.34045974323E+02  0.22617143909E+03  0.27902680392E+03  0.12508231750E+03 0.  0.
          5    1    3    3  502    0 -0.19157011758E+01 -0.23566161946E+02 -0.21435791693E+01  0.24106041390E+02  0.41800000000E+01 0.  1.
         -5    1    3    3    0  502 -0.97571599146E+02  0.57612136269E+02  0.22831501826E+03  0.25492076253E+03  0.41800000000E+01 0.  1.
        -11    1    1    2    0    0  0.33518003008E+02 -0.55916511746E+02  0.23114083228E+03  0.24015869162E+03  0.00000000000E+00 0. -1.
         11    1    1    2    0    0  0.65969297314E+02  0.21870537423E+02  0.14607826302E+03  0.16176874705E+03  0.00000000000E+00 0.  1.
</event>
<event>
 7    1  0.2594791E-009  0.1117534E+03  0.7561462E-02  0.1257357E+00
         -2   -1    0    0    0  501 -0.00000000000E+00  0.00000000000E+00  0.11988950343E+03  0.11988950343E+03  0.00000000000E+00 0.  1.
          2   -1    0    0  501    0  0.00000000000E+00 -0.00000000000E+00 -0.19423261253E+03  0.19423261253E+03  0.00000000000E+00 0. -1.
         25    2    1    2    0    0 -0.93148276499E+02  0.65819484162E+01 -0.92854634627E+02  0.18162995409E+03  0.12509010189E+03 0.  0.
          5    1    3    3  502    0 -0.10951281317E+03  0.42166548577E+01 -0.26107269224E+02  0.11273818489E+03  0.41800000000E+01 0. -1.
         -5    1    3    3    0  502  0.16364536672E+02  0.23652935585E+01 -0.66747365403E+02  0.68891769191E+02  0.41800000000E+01 0. -1.
        -11    1    1    2    0    0  0.60559900737E+02 -0.16403367648E+02 -0.32892459056E+02  0.70841272646E+02  0.00000000000E+00 0. -1.
         11    1    1    2    0    0  0.32588375762E+02  0.98214192316E+01  0.51403984586E+02  0.61650889222E+02  0.00000000000E+00 0.  1.
</event>
<event>
 7    1  0.2594791E-009  0.1336880E+03  0.7561462E-02  0.1222084E+00
         -2   -1    0    0    0  501 -0.00000000000E+00  0.00000000000E+00  0.45742827389E+02  0.45742827389E+02  0.00000000000E+00 0.  1.
          2   -1    0    0  501    0  0.00000000000E+00 -0.00000000000E+00 -0.49300079157E+03  0.49300079157E+03  0.00000000000E+00 0. -1.
         25    2    1    2    0    0 -0.79647527355E+02  0.11820942897E+02 -0.12482237061E+03  0.19419540919E+03  0.12509104461E+03 0.  0.
          5    1    3    3  502    0  0.20473300309E+01  0.55721715448E+02 -0.45706770399E+02  0.72219681480E+02  0.41800000000E+01 0.  1.
         -5    1    3    3    0  502 -0.81694857385E+02 -0.43900772551E+02 -0.79115600215E+02  0.12197572771E+03  0.41800000000E+01 0.  1.
        -11    1    1    2    0    0  0.54105735933E+02  0.35595455547E+02 -0.21213045675E+03  0.22179674884E+03  0.00000000000E+00 0. -1.
         11    1    1    2    0    0  0.25541791422E+02 -0.47416398444E+02 -0.11030513681E+03  0.12275146092E+03  0.00000000000E+00 0.  1.
</event>
<event>
 7    1  0.2594791E-009  0.1153959E+03  0.7561462E-02  0.1250892E+00
          2   -1    0    0  501    0  0.00000000000E+00  0.00000000000E+00  0.15909114047E+03  0.15909114047E+03  0.00000000000E+00 0. -1.
         -2   -1    0    0    0  501 -0.00000000000E+00 -0.00000000000E+00 -0.11733192516E+03  0.11733192516E+03  0.00000000000E+00 0.  1.
         25    2    1    2    0    0  0.67369880161E+02 -0.37258366185E+02 -0.12593776645E+02  0.14742690016E+03  0.12509676685E+03 0.  0.
          5    1    3    3  502    0  0.74195636024E+02  0.22641524709E+02  0.17922902533E+02  0.79726619654E+02  0.41800000000E+01 0.  1.
         -5    1    3    3    0  502 -0.68257558634E+01 -0.59899890895E+02 -0.30516679178E+02  0.67700280504E+02  0.41800000000E+01 0.  1.
        -11    1    1    2    0    0 -0.25973718597E+02 -0.11761854190E+02 -0.16874391892E+02  0.33131863417E+02  0.00000000000E+00 0.  1.
         11    1    1    2    0    0 -0.41396161564E+02  0.49020220375E+02  0.71227383855E+02  0.95864302055E+02  0.00000000000E+00 0. -1.
</event>
<event>
 7    1  0.2594791E-009  0.3365576E+03  0.7561462E-02  0.1068272E+00
         -1   -1    0    0    0  501 -0.00000000000E+00  0.00000000000E+00  0.32641127493E+02  0.32641127493E+02  0.00000000000E+00 0.  1.
          1   -1    0    0  501    0  0.00000000000E+00 -0.00000000000E+00 -0.37584579930E+04  0.37584579930E+04  0.00000000000E+00 0. -1.
         25    2    1    2    0    0  0.11147227735E+03 -0.29896737014E+03 -0.24026567844E+04  0.24269765457E+04  0.12509185748E+03 0.  0.
          5    1    3    3  502    0 -0.27248006281E+02 -0.35720984537E+02 -0.32174374836E+03  0.32489221996E+03  0.41800000000E+01 0.  1.
         -5    1    3    3    0  502  0.13872028363E+03 -0.26324638561E+03 -0.20809130360E+04  0.21020843258E+04  0.41800000000E+01 0.  1.
        -11    1    1    2    0    0 -0.10269272378E+03  0.15356554457E+03 -0.67756723617E+03  0.70230017195E+03  0.00000000000E+00 0.  1.
         11    1    1    2    0    0 -0.87795535705E+01  0.14540182558E+03 -0.64559284491E+03  0.66182240279E+03  0.00000000000E+00 0. -1.
</event>
<event>
 7    1  0.2594791E-009  0.9688621E+02  0.7561462E-02  0.1286983E+00
         -1   -1    0    0    0  501 -0.00000000000E+00  0.00000000000E+00  0.29749365330E+02  0.29749365330E+02  0.00000000000E+00 0.  1.
          1   -1    0    0  501    0  0.00000000000E+00 -0.00000000000E+00 -0.39068033942E+03  0.39068033942E+03  0.00000000000E+00 0. -1.
         25    2    1    2    0    0  0.29725305898E+02  0.31370124616E+02 -0.21740508152E+03  0.25454783393E+03  0.12514771975E+03 0.  0.
          5    1    3    3  502    0  0.78071773406E+02  0.18187989224E+02 -0.11236763212E+03  0.13809403283E+03  0.41800000000E+01 0. -1.
         -5    1    3    3    0  502 -0.48346467508E+02  0.13182135392E+02 -0.10503744940E+03  0.11645380110E+03  0.41800000000E+01 0. -1.
        -11    1    1    2    0    0 -0.59204745294E+01 -0.38036961233E+02 -0.13394924036E+03  0.13937094903E+03  0.00000000000E+00 0. -1.
         11    1    1    2    0    0 -0.23804831368E+02  0.66668366166E+01 -0.95766522031E+01  0.26510921794E+02  0.00000000000E+00 0.  1.
</event>
<event>
 7    1  0.2594791E-009  0.9618981E+02  0.7561462E-02  0.1288519E+00
          1   -1    0    0  501    0  0.00000000000E+00  0.00000000000E+00  0.10717826987E+03  0.10717826987E+03  0.00000000000E+00 0. -1.
         -1   -1    0    0    0  501 -0.00000000000E+00 -0.00000000000E+00 -0.11178577049E+03  0.11178577049E+03  0.00000000000E+00 0.  1.
         25    2    1    2    0    0 -0.15879188661E+02  0.17614733714E+01 -0.14706614765E+02  0.12696569821E+03  0.12509497425E+03 0.  0.
          5    1    3    3  502    0 -0.64473772078E+02  0.15935723504E+02  0.14874697156E+02  0.68187561806E+02  0.41800000000E+01 0. -1.
         -5    1    3    3    0  502  0.48594583417E+02 -0.14174250133E+02 -0.29581311921E+02  0.58778136405E+02  0.41800000000E+01 0. -1.
        -11    1    1    2    0    0  0.32799730524E+02 -0.28465230661E+02 -0.20479815499E+02  0.48015773678E+02  0.00000000000E+00 0.  1.
         11    1    1    2    0    0 -0.16920541863E+02  0.26703757290E+02  0.30578929645E+02  0.43982568462E+02  0.00000000000E+00 0. -1.
</event>
<event>
 7    1  0.2594791E-009  0.1204907E+03  0.7561462E-02  0.1242290E+00
          2   -1    0    0  501    0  0.00000000000E+00  0.00000000000E+00  0.13724496442E+03  0.13724496442E+03  0.00000000000E+00 0. -1.
         -2   -1    0    0    0  501 -0.00000000000E+00 -0.00000000000E+00 -0.18141463139E+03  0.18141463139E+03  0.00000000000E+00 0.  1.
         25    2    1    2    0    0 -0.70093050893E+02  0.75308527334E+02 -0.72342745147E+02  0.17738790495E+03  0.12509430832E+03 0.  0.
          5    1    3    3  502    0 -0.49288064539E+02  0.55584642385E+02 -0.10818375140E+03  0.13130179832E+03  0.41800000000E+01 0.  1.
         -5    1    3    3    0  502 -0.20804986354E+02  0.19723884949E+02  0.35841006256E+02  0.46086106627E+02  0.41800000000E+01 0.  1.
        -11    1    1    2    0    0 -0.56619668566E+01 -0.60062292320E+02  0.20044378468E+02  0.63571329509E+02  0.00000000000E+00 0.  1.
         11    1    1    2    0    0  0.75755017750E+02 -0.15246235015E+02  0.81286997098E+01  0.77700361359E+02  0.00000000000E+00 0. -1.
</event>
<event>
 7    1  0.2594791E-009  0.1076762E+03  0.7561462E-02  0.1264935E+00
          2   -1    0    0  501    0  0.00000000000E+00  0.00000000000E+00  0.21801241015E+02  0.21801241015E+02  0.00000000000E+00 0. -1.
         -2   -1    0    0    0  501 -0.00000000000E+00 -0.00000000000E+00 -0.73290247117E+03  0.73290247117E+03  0.00000000000E+00 0.  1.
         25    2    1    2    0    0 -0.42935495280E+02 -0.44283503227E+02 -0.43786355336E+03  0.45954254539E+03  0.12510145583E+03 0.  0.
          5    1    3    3  502    0 -0.20189499726E+02  0.26406019858E+02 -0.30056220988E+02  0.45008250399E+02  0.41800000000E+01 0.  1.
         -5    1    3    3    0  502 -0.22745995555E+02 -0.70689523085E+02 -0.40780733237E+03  0.41453429499E+03  0.41800000000E+01 0.  1.
        -11    1    1    2    0    0 -0.27084013861E+02  0.62656510766E+01 -0.11081900051E+03  0.11425258450E+03  0.00000000000E+00 0.  1.
         11    1    1    2    0    0  0.70019509141E+02  0.38017852150E+02 -0.16241867629E+03  0.18090858230E+03  0.00000000000E+00 0. -1.
</event>
<event>
 7    1  0.2594791E-009  0.6992614E+02  0.7561462E-02  0.1360344E+00
         -1   -1    0    0    0  501 -0.00000000000E+00  0.00000000000E+00  0.48809837563E+02  0.48809837563E+02  0.00000000000E+00 0.  1.
          1   -1    0    0  501    0  0.00000000000E+00 -0.00000000000E+00 -0.19248356072E+03  0.19248356072E+03  0.00000000000E+00 0. -1.
         25    2    1    2    0    0 -0.24199681253E+02 -0.15702210156E+02 -0.66613391507E+02  0.14462761778E+03  0.12509044696E+03 0.  0.
          5    1    3    3  502    0  0.79494002479E+00  0.41992028101E+02 -0.69759983172E+02  0.81534593921E+02  0.41800000000E+01 0. -1.
         -5    1    3    3    0  502 -0.24994621277E+02 -0.57694238257E+02  0.31465916648E+01  0.63093023862E+02  0.41800000000E+01 0. -1.
        -11    1    1    2    0    0  0.52736975333E+01  0.14768363589E+02 -0.76093005976E+02  0.77692097456E+02  0.00000000000E+00 0. -1.
         11    1    1    2    0    0  0.18925983719E+02  0.93384656689E+00 -0.96732567115E+00  0.18973683040E+02  0.00000000000E+00 0.  1.
</event>
<event>
 7    1  0.2594791E-009  0.1063718E+03  0.7561462E-02  0.1267440E+00
         -2   -1    0    0    0  501 -0.00000000000E+00  0.00000000000E+00  0.66722831862E+02  0.66722831862E+02  0.00000000000E+00 0.  1.
          2   -1    0    0  501    0  0.00000000000E+00 -0.00000000000E+00 -0.25777585732E+03  0.25777585732E+03  0.00000000000E+00 0. -1.
         25    2    1    2    0    0 -0.45411403313E+01 -0.69115712615E+02 -0.11879881385E+03  0.18590366719E+03  0.12509760836E+03 0.  0.
          5    1    3    3  502    0 -0.64654975562E+02 -0.36777025095E+02 -0.65489270306E+02  0.99192400742E+02  0.41800000000E+01 0. -1.
         -5    1    3    3    0  502  0.60113835230E+02 -0.32338687520E+02 -0.53309543540E+02  0.86711266448E+02  0.41800000000E+01 0. -1.
        -11    1    1    2    0    0 -0.27926265240E+01  0.17604153810E+02 -0.83484315204E+02  0.85365894122E+02  0.00000000000E+00 0. -1.
         11    1    1    2    0    0  0.73337668553E+01  0.51511558805E+02  0.11230103593E+02  0.53229127868E+02  0.00000000000E+00 0.  1.
</event>
<event>
 7    1  0.2594791E-009  0.1044052E+03  0.7561462E-02  0.1271296E+00
          1   -1    0    0  501    0  0.00000000000E+00  0.00000000000E+00  0.22742921031E+03  0.22742921031E+03  0.00000000000E+00 0. -1.
         -1   -1    0    0    0  501 -0.00000000000E+00 -0.00000000000E+00 -0.59408784030E+02  0.59408784030E+02  0.00000000000E+00 0.  1.
         25    2    1    2    0    0  0.24521680121E+01 -0.42046523054E+01  0.64932612487E+02  0.14102250192E+03  0.12508960650E+03 0.  0.
          5    1    3    3  502    0  0.16513294175E+02 -0.55406385332E+02  0.12184772380E+01  0.57978560752E+02  0.41800000000E+01 0.  1.
         -5    1    3    3    0  502 -0.14061126163E+02  0.51201733027E+02  0.63714135249E+02  0.83043941166E+02  0.41800000000E+01 0.  1.
        -11    1    1    2    0    0 -0.48518937931E+02 -0.96677637270E+01  0.28608477719E+02  0.57148910671E+02  0.00000000000E+00 0.  1.
         11    1    1    2    0    0  0.46066769919E+02  0.13872416032E+02  0.74479336071E+02  0.88666581748E+02  0.00000000000E+00 0. -1.
</event>
<event>
 7    1  0.2594791E-009  0.1569788E+03  0.7561462E-02  0.1192151E+00
          1   -1    0    0  501    0  0.00000000000E+00  0.00000000000E+00  0.12080074765E+04  0.12080074765E+04  0.00000000000E+00 0. -1.
         -1   -1    0    0    0  501 -0.00000000000E+00 -0.00000000000E+00 -0.29678099148E+02  0.29678099148E+02  0.00000000000E+00 0.  1.
         25    2    1    2    0    0  0.12044551826E+03 -0.75270233060E+02  0.81763046862E+03  0.83924970544E+03  0.12509098289E+03 0.  0.
          5    1    3    3  502    0  0.20853945142E+02 -0.25475533273E+01  0.46792230149E+03  0.46841235006E+03  0.41800000000E+01 0. -1.
         -5    1    3    3    0  502  0.99591573117E+02 -0.72722679733E+02  0.34970816713E+03  0.37083735538E+03  0.41800000000E+01 0. -1.
        -11    1    1    2    0    0 -0.13502694684E+03  0.59155867219E+02  0.31892160161E+03  0.35134410622E+03  0.00000000000E+00 0. -1.
         11    1    1    2    0    0  0.14581428584E+02  0.16114365841E+02  0.41777307121E+02  0.47091763996E+02  0.00000000000E+00 0.  1.
</event>
<event>
 7    1  0.2594791E-009  0.1917550E+03  0.7561462E-02  0.1156888E+00
          2   -1    0    0  501    0  0.00000000000E+00  0.00000000000E+00  0.61766503002E+03  0.61766503002E+03  0.00000000000E+00 0. -1.
         -2   -1    0    0    0  501 -0.00000000000E+00 -0.00000000000E+00 -0.66746950265E+02  0.66746950265E+02  0.00000000000E+00 0.  1.
         25    2    1    2    0    0  0.14289402881E+03  0.92876765566E+02  0.29298515353E+03  0.36129282798E+03  0.12508960909E+03 0.  0.
          5    1    3    3  502    0  0.16512151218E+03  0.90438184281E+02  0.26744293447E+03  0.32708924556E+03  0.41800000000E+01 0.  1.
         -5    1    3    3    0  502 -0.22227483369E+02  0.24385812854E+01  0.25542219063E+02  0.34203582419E+02  0.41800000000E+01 0.  1.
        -11    1    1    2    0    0 -0.82176852211E+02 -0.37722891934E+02  0.59078381335E+02  0.10801067890E+03  0.00000000000E+00 0.  1.
         11    1    1    2    0    0 -0.60717176600E+02 -0.55153873633E+02  0.19885454488E+03  0.21510847341E+03  0.00000000000E+00 0. -1.
</event>
<event>
 7    1  0.2594791E-009  0.1507141E+03  0.7561462E-02  0.1199598E+00
          4   -1    0    0  501    0  0.00000000000E+00  0.00000000000E+00  0.11757143148E+03  0.11757143148E+03  0.00000000000E+00 0.  1.
         -4   -1    0    0    0  501 -0.00000000000E+00 -0.00000000000E+00 -0.20280349989E+03  0.20280349989E+03  0.00000000000E+00 0. -1.
         25    2    1    2    0    0 -0.10472855004E+03  0.21706567050E+02 -0.18065658046E+02  0.16557278881E+03  0.12509490856E+03 0.  0.
          5    1    3    3  502    0 -0.11009399678E+03  0.59240734356E+02 -0.47862949887E+01  0.12518200252E+03  0.41800000000E+01 0.  1.
         -5    1    3    3    0  502  0.53654467482E+01 -0.37534167306E+02 -0.13279363057E+02  0.40390786293E+02  0.41800000000E+01 0.  1.
        -11    1    1    2    0    0  0.93890481356E+02  0.19234975317E+02 -0.36684264839E+02  0.10262135280E+03  0.00000000000E+00 0.  1.
         11    1    1    2    0    0  0.10838068680E+02 -0.40941542366E+02 -0.30482145517E+02  0.52180789754E+02  0.00000000000E+00 0. -1.
</event>
<event>
 7    1  0.2594791E-009  0.1664259E+03  0.7561462E-02  0.1181627E+00
          1   -1    0    0  501    0  0.00000000000E+00  0.00000000000E+00  0.24556498992E+02  0.24556498992E+02  0.00000000000E+00 0. -1.
         -1   -1    0    0    0  501 -0.00000000000E+00 -0.00000000000E+00 -0.12734846589E+04  0.12734846589E+04  0.00000000000E+00 0.  1.
         25    2    1    2    0    0 -0.98560090283E+02  0.98322844395E+02 -0.68280609567E+03  0.70799088936E+03  0.12508182124E+03 0.  0.
          5    1    3    3  502    0 -0.93301581156E+02  0.29849870089E+02 -0.54735557007E+03  0.55606815434E+03  0.41800000000E+01 0. -1.
         -5    1    3    3    0  502 -0.52585091275E+01  0.68472974306E+02 -0.13545052560E+03  0.15192273501E+03  0.41800000000E+01 0. -1.
        -11    1    1    2    0    0  0.67031580841E+01 -0.69363979261E+02 -0.21956661407E+03  0.23036013535E+03  0.00000000000E+00 0. -1.
         11    1    1    2    0    0  0.91856932199E+02 -0.28958865134E+02 -0.34655545013E+03  0.35969013314E+03  0.00000000000E+00 0.  1.
</event>
<event>
 7    1  0.2594791E-009  0.9892285E+02  0.7561462E-02  0.1282577E+00
         -2   -1    0    0    0  501 -0.00000000000E+00  0.00000000000E+00  0.13591797152E+03  0.13591797152E+03  0.00000000000E+00 0. -1.
          2   -1    0    0  501    0  0.00000000000E+00 -0.00000000000E+00 -0.11176825939E+03  0.11176825939E+03  0.00000000000E+00 0.  1.
         25    2    1    2    0    0  0.50277050993E+02 -0.10958271204E+02 -0.14907940476E+02  0.13608095057E+03  0.12509161784E+03 0.  0.
          5    1    3    3  502    0  0.38050377948E+02  0.43860837776E+02 -0.43732410323E+02  0.72812090102E+02  0.41800000000E+01 0. -1.
         -5    1    3    3    0  502  0.12226673045E+02 -0.54819108979E+02  0.28824469846E+02  0.63268860468E+02  0.41800000000E+01 0. -1.
        -11    1    1    2    0    0  0.95872266010E+01  0.20554090055E+02  0.45295890404E+02  0.50656719390E+02  0.00000000000E+00 0. -1.
         11    1    1    2    0    0 -0.59864277594E+02 -0.95958188512E+01 -0.62382377999E+01  0.60948560952E+02  0.00000000000E+00 0.  1.
</event>
<event>
 7    1  0.2594791E-009  0.9804800E+02  0.7561462E-02  0.1284455E+00
         -3   -1    0    0    0  501 -0.00000000000E+00  0.00000000000E+00  0.29879349533E+02  0.29879349533E+02  0.00000000000E+00 0.  1.
          3   -1    0    0  501    0  0.00000000000E+00 -0.00000000000E+00 -0.39447408559E+03  0.39447408559E+03  0.00000000000E+00 0. -1.
         25    2    1    2    0    0  0.13076975711E+02 -0.13714365290E+01 -0.21307029126E+03  0.24742475801E+03  0.12508866345E+03 0.  0.
          5    1    3    3  502    0 -0.42617075654E+02  0.38087046358E+02 -0.92614370097E+02  0.10891157967E+03  0.41800000000E+01 0.  1.
         -5    1    3    3    0  502  0.55694051365E+02 -0.39458482887E+02 -0.12045592117E+03  0.13851317834E+03  0.41800000000E+01 0.  1.
        -11    1    1    2    0    0  0.37535537797E+01 -0.32428681334E+02 -0.12877036995E+03  0.13284395626E+03  0.00000000000E+00 0. -1.
         11    1    1    2    0    0 -0.16830529490E+02  0.33800117863E+02 -0.22754074841E+02  0.44084720849E+02  0.00000000000E+00 0.  1.
</event>
<event>
 7    1  0.2594791E-009  0.1023535E+03  0.7561462E-02  0.1275423E+00
          4   -1    0    0  501    0  0.00000000000E+00  0.00000000000E+00  0.66674661065E+03  0.66674661065E+03  0.00000000000E+00 0. -1.
         -4   -1    0    0    0  501 -0.00000000000E+00 -0.00000000000E+00 -0.33236177330E+02  0.33236177330E+02  0.00000000000E+00 0.  1.
         25    2    1    2    0    0 -0.29886126693E+02  0.63014882460E+02  0.16802090092E+03  0.22077670856E+03  0.12508907193E+03 0.  0.
          5    1    3    3  502    0 -0.24272490222E+02  0.82549602015E+02  0.47283232183E+02  0.98268850711E+02  0.41800000000E+01 0. -1.
         -5    1    3    3    0  502 -0.56136364708E+01 -0.19534719555E+02  0.12073766874E+03  0.12250785785E+03  0.41800000000E+01 0. -1.
        -11    1    1    2    0    0  0.22392873246E+02 -0.77949208151E+02  0.44694807570E+03  0.45424674154E+03  0.00000000000E+00 0. -1.
         11    1    1    2    0    0  0.74932534477E+01  0.14934325691E+02  0.18541456696E+02  0.24959337882E+02  0.00000000000E+00 0.  1.
</event>
<event>
 7    1  0.2594791E-009  0.6946631E+02  0.7561462E-02  0.1361917E+00
         -3   -1    0    0    0  501 -0.00000000000E+00  0.00000000000E+00  0.46390602319E+03  0.46390602319E+03  0.00000000000E+00 0.  1.
          3   -1    0    0  501    0  0.00000000000E+00 -0.00000000000E+00 -0.28162839392E+02  0.28162839392E+02  0.00000000000E+00 0. -1.
         25    2    1    2    0    0  0.13457069635E+02 -0.20706182729E+01  0.31895393250E+03  0.34287616642E+03  0.12508826587E+03 0.  0.
          5    1    3    3  502    0 -0.43487840317E+01  0.33249422370E+02  0.29396972514E+03  0.29590557229E+03  0.41800000000E+01 0. -1.
         -5    1    3    3    0  502  0.17805853667E+02 -0.35320040643E+02  0.24984207355E+02  0.46970594131E+02  0.41800000000E+01 0. -1.
        -11    1    1    2    0    0 -0.10852590153E+01 -0.30502755752E+02  0.35665079012E+01  0.30729722977E+02  0.00000000000E+00 0. -1.
         11    1    1    2    0    0 -0.12371810620E+02  0.32573374025E+02  0.11322274339E+03  0.11846297318E+03  0.00000000000E+00 0.  1.
</event>
<event>
 7    1  0.2594791E-009  0.3131918E+03  0.7561462E-02  0.1078826E+00
          1   -1    0    0  501    0  0.00000000000E+00  0.00000000000E+00  0.15898012027E+04  0.15898012027E+04  0.00000000000E+00 0. -1.
         -1   -1    0    0    0  501 -0.00000000000E+00 -0.00000000000E+00 -0.12885246236E+03  0.12885246236E+03  0.00000000000E+00 0.  1.
         25    2    1    2    0    0  0.29951130234E+03  0.14658463775E+02  0.13458201701E+04  0.13844860427E+04  0.12509109280E+03 0.  0.
          5    1    3    3  502    0  0.10247084164E+03 -0.36930001838E+02  0.30443719031E+03  0.32336291325E+03  0.41800000000E+01 0.  1.
         -5    1    3    3    0  502  0.19704046071E+03  0.51588465614E+02  0.10413829797E+04  0.10611231294E+04  0.41800000000E+01 0.  1.
        -11    1    1    2    0    0 -0.81546339395E+02  0.37163605062E+02  0.30130282154E+02  0.94545084021E+02  0.00000000000E+00 0.  1.
         11    1    1    2    0    0 -0.21796496295E+03 -0.51822068837E+02  0.84998288121E+02  0.23962253833E+03  0.00000000000E+00 0. -1.
</event>
<event>
 7    1  0.2594791E-009  0.7743420E+02  0.7561462E-02  0.1336495E+00
         -1   -1    0    0    0  501 -0.00000000000E+00  0.00000000000E+00  0.35210669261E+02  0.35210669261E+02  0.00000000000E+00 0.  1.
          1   -1    0    0  501    0  0.00000000000E+00 -0.00000000000E+00 -0.37548800036E+03  0.37548800036E+03  0.00000000000E+00 0. -1.
         25    2    1    2    0    0 -0.75756031691E+00 -0.11414171130E+02 -0.26905026711E+03  0.29692713928E+03  0.12508725998E+03 0.  0.
          5    1    3    3  502    0  0.43433077937E+02 -0.49331001108E+01 -0.23884284223E+03  0.24284592527E+03  0.41800000000E+01 0.  1.
         -5    1    3    3    0  502 -0.44190638254E+02 -0.64810710193E+01 -0.30207424876E+02  0.54081214007E+02  0.41800000000E+01 0.  1.
        -11    1    1    2    0    0 -0.13893175250E+02  0.35379341270E+02 -0.87513797994E+00  0.38019520956E+02  0.00000000000E+00 0. -1.
         11    1    1    2    0    0  0.14650735567E+02 -0.23965170140E+02 -0.70351926010E+02  0.75752009385E+02  0.00000000000E+00 0.  1.
</event>
<event>
 7    1  0.2594791E-009  0.1085383E+03  0.7561462E-02  0.1263301E+00
          2   -1    0    0  501    0  0.00000000000E+00  0.00000000000E+00  0.29777481972E+03  0.29777481972E+03  0.00000000000E+00 0. -1.
         -2   -1    0    0    0  501 -0.00000000000E+00 -0.00000000000E+00 -0.41913277540E+02  0.41913277540E+02  0.00000000000E+00 0.  1.
         25    2    1    2    0    0  0.25109603039E+02  0.75199772354E+01  0.14323131779E+03  0.19196082082E+03  0.12508678632E+03 0.  0.
          5    1    3    3  502    0 -0.83688178980E+01  0.62550718733E+02  0.69844297104E+02  0.94224878694E+02  0.41800000000E+01 0. -1.
         -5    1    3    3    0  502  0.33478420937E+02 -0.55030741498E+02  0.73387020690E+02  0.97735942130E+02  0.41800000000E+01 0. -1.
        -11    1    1    2    0    0 -0.36042008633E+02 -0.40688938430E+02  0.92849916595E+02  0.10759053447E+03  0.00000000000E+00 0. -1.
         11    1    1    2    0    0  0.10932405594E+02  0.33168961195E+02  0.19780307790E+02  0.40136741959E+02  0.00000000000E+00 0.  1.
</event>
<event>
 7    1  0.2594791E-009  0.2648188E+03  0.7561462E-02  0.1104282E+00
          2   -1    0    0  501    0  0.00000000000E+00  0.00000000000E+00  0.38183346161E+03  0.38183346161E+03  0.00000000000E+00 0. -1.
         -2   -1    0    0    0  501 -0.00000000000E+00 -0.00000000000E+00 -0.21583386942E+03  0.21583386942E+03  0.00000000000E+00 0.  1.
         25    2    1    2    0    0 -0.12742140547E+03  0.21402406638E+03  0.18313122134E+03  0.33350791151E+03  0.12509183526E+03 0.  0.
          5    1    3    3  502    0  0.12456414102E+02  0.43832545293E+02 -0.18784341844E+01  0.45797982424E+02  0.41800000000E+01 0. -1.
         -5    1    3    3    0  502 -0.13987781957E+03  0.17019152109E+03  0.18500965552E+03  0.28770992908E+03  0.41800000000E+01 0. -1.
        -11    1    1    2    0    0  0.13996372952E+03 -0.18548301376E+03 -0.13246249318E+02  0.23274289913E+03  0.00000000000E+00 0.  1.
         11    1    1    2    0    0 -0.12542324050E+02 -0.28541052614E+02 -0.38853798283E+01  0.31416520388E+02  0.00000000000E+00 0. -1.
</event>
<event>
 7    1  0.2594791E-009  0.1255724E+03  0.7561462E-02  0.1234177E+00
          4   -1    0    0  501    0  0.00000000000E+00  0.00000000000E+00  0.46794512394E+03  0.46794512394E+03  0.00000000000E+00 0.  1.
         -4   -1    0    0    0  501 -0.00000000000E+00 -0.00000000000E+00 -0.56655143718E+02  0.56655143718E+02  0.00000000000E+00 0. -1.
         25    2    1    2    0    0  0.99810166329E+02 -0.67903596702E+02  0.23096460870E+03  0.28907012871E+03  0.12507566146E+03 0.  0.
          5    1    3    3  502    0  0.57325715059E+02 -0.55650774253E+02  0.23120547724E+03  0.24465627191E+03  0.41800000000E+01 0.  1.
         -5    1    3    3    0  502  0.42484451270E+02 -0.12252822450E+02 -0.24086853505E+00  0.44413856794E+02  0.41800000000E+01 0.  1.
        -11    1    1    2    0    0  0.88589485451E+00  0.11058297951E+02 -0.85929667239E+01  0.14032456677E+02  0.00000000000E+00 0. -1.
         11    1    1    2    0    0 -0.10069606118E+03  0.56845298751E+02  0.18891833825E+03  0.22149768228E+03  0.00000000000E+00 0.  1.
</event>
<event>
 7    1  0.2594791E-009  0.9390438E+02  0.7561462E-02  0.1293663E+00
          1   -1    0    0  501    0  0.00000000000E+00  0.00000000000E+00  0.17798057627E+03  0.17798057627E+03  0.00000000000E+00 0. -1.
         -1   -1    0    0    0  501 -0.00000000000E+00 -0.00000000000E+00 -0.68506068278E+02  0.68506068278E+02  0.00000000000E+00 0.  1.
         25    2    1    2    0    0  0.67163672211E+01 -0.51147444200E+01  0.53260807307E+02  0.13621825470E+03  0.12508968431E+03 0.  0.
          5    1    3    3  502    0 -0.57744266392E+02 -0.13179776028E+02  0.17285743968E+02  0.61841540584E+02  0.41800000000E+01 0. -1.
         -5    1    3    3    0  502  0.64460633613E+02  0.80650316076E+01  0.35975063339E+02  0.74376714117E+02  0.41800000000E+01 0. -1.
        -11    1    1    2    0    0  0.16548004288E+02 -0.22050350274E+02 -0.14407669996E+02  0.31106837638E+02  0.00000000000E+00 0.  1.
         11    1    1    2    0    0 -0.23264371509E+02  0.27165094694E+02  0.70621370677E+02  0.79161552206E+02  0.00000000000E+00 0. -1.
</event>
<event>
 7    1  0.3533915E-009  0.1623695E+03  0.7561462E-02  0.1186047E+00
          2   -1    0    0  501    0  0.00000000000E+00  0.00000000000E+00  0.77932846412E+03  0.77932846412E+03  0.00000000000E+00 0.  1.
         -2   -1    0    0    0  501 -0.00000000000E+00 -0.00000000000E+00 -0.38274047176E+02  0.38274047176E+02  0.00000000000E+00 0. -1.
         25    2    1    2    0    0  0.62421838549E+02  0.11698799928E+03  0.44046455053E+03  0.47669585913E+03  0.12508894410E+03 0.  0.
          5    1    3    3  502    0 -0.67953342302E+01 -0.20491444800E+02  0.23379163773E+02  0.32095694042E+02  0.41800000000E+01 0.  1.
         -5    1    3    3    0  502  0.69217172779E+02  0.13747944408E+03  0.41708538676E+03  0.44460016509E+03  0.41800000000E+01 0.  1.
        -11    1    1    2    0    0 -0.63439888066E+02 -0.47439351954E+02  0.94030193607E+02  0.12295035104E+03  0.00000000000E+00 0. -1.
         11    1    1    2    0    0  0.10180495176E+01 -0.69548647323E+02  0.20655967281E+03  0.21795630112E+03  0.00000000000E+00 0.  1.
</event>
<event>
 7    1  0.2594791E-009  0.1629278E+03  0.7561462E-02  0.1185430E+00
         -2   -1    0    0    0  501 -0.00000000000E+00  0.00000000000E+00  0.86688655872E+02  0.86688655872E+02  0.00000000000E+00 0.  1.
          2   -1    0    0  501    0  0.00000000000E+00 -0.00000000000E+00 -0.35658978168E+03  0.35658978168E+03  0.00000000000E+00 0. -1.
         25    2    1    2    0    0  0.70296520027E+01  0.13221667987E+03 -0.94314327517E+02  0.20511914749E+03  0.12509198955E+03 0.  0.
          5    1    3    3  502    0  0.27363295430E+02 -0.15549172827E+02 -0.80198373376E+01  0.32746250218E+02  0.41800000000E+01 0. -1.
         -5    1    3    3    0  502 -0.20333643427E+02  0.14776585270E+03 -0.86294490180E+02  0.17237289728E+03  0.41800000000E+01 0. -1.
        -11    1    1    2    0    0 -0.30532492469E+02 -0.43725797824E+02 -0.18708228293E+02  0.56517044310E+02  0.00000000000E+00 0.  1.
         11    1    1    2    0    0  0.23502840466E+02 -0.88490882051E+02 -0.15687857000E+03  0.18164224575E+03  0.00000000000E+00 0. -1.
</event>
<event>
 7    1  0.2594791E-009  0.1502566E+03  0.7561462E-02  0.1200158E+00
          3   -1    0    0  501    0  0.00000000000E+00  0.00000000000E+00  0.54955026419E+02  0.54955026419E+02  0.00000000000E+00 0. -1.
         -3   -1    0    0    0  501 -0.00000000000E+00 -0.00000000000E+00 -0.49250493229E+03  0.49250493229E+03  0.00000000000E+00 0.  1.
         25    2    1    2    0    0  0.36948102009E+02 -0.11520466758E+03 -0.27442029681E+03  0.32494978114E+03  0.12509429757E+03 0.  0.
          5    1    3    3  502    0 -0.17559762111E+02  0.20742856902E+02 -0.42575520932E+02  0.50682923559E+02  0.41800000000E+01 0. -1.
         -5    1    3    3    0  502  0.54507864119E+02 -0.13594752448E+03 -0.23184477588E+03  0.27426685758E+03  0.41800000000E+01 0. -1.
        -11    1    1    2    0    0 -0.22362411403E+01  0.67261856541E+02 -0.14620149132E+03  0.16094730251E+03  0.00000000000E+00 0.  1.
         11    1    1    2    0    0 -0.34711860868E+02  0.47942811041E+02 -0.16928117735E+02  0.61562875059E+02  0.00000000000E+00 0. -1.
</event>
<event>
 7    1  0.2594791E-009  0.2303829E+03  0.7561462E-02  0.1126371E+00
          1   -1    0    0  501    0  0.00000000000E+00  0.00000000000E+00  0.79541860954E+02  0.79541860954E+02  0.00000000000E+00 0. -1.
         -1   -1    0    0    0  501 -0.00000000000E+00 -0.00000000000E+00 -0.70208749464E+03  0.70208749464E+03  0.00000000000E+00 0.  1.
         25    2    1    2    0    0 -0.15029189214E+03 -0.14153131664E+03 -0.37803338048E+03  0.44852486774E+03  0.12508618546E+03 0.  0.
          5    1    3    3  502    0  0.17316181694E+02 -0.29032652647E+02 -0.26587662010E+02  0.43210198326E+02  0.41800000000E+01 0.  1.
         -5    1    3    3    0  502 -0.16760807383E+03 -0.11249866399E+03 -0.35144571846E+03  0.40531466941E+03  0.41800000000E+01 0.  1.
        -11    1    1    2    0    0  0.10999293917E+03  0.42564944590E+02 -0.10963343020E+03  0.16102704802E+03  0.00000000000E+00 0. -1.
         11    1    1    2    0    0  0.40298952967E+02  0.98966372047E+02 -0.13487882301E+03  0.17207743984E+03  0.00000000000E+00 0.  1.
</event>
<event>
 7    1  0.2594791E-009  0.1233523E+03  0.7561462E-02  0.1237667E+00
          2   -1    0    0  501    0  0.00000000000E+00  0.00000000000E+00  0.75652687621E+02  0.75652687621E+02  0.00000000000E+00 0. -1.
         -2   -1    0    0    0  501 -0.00000000000E+00 -0.00000000000E+00 -0.20357531616E+03  0.20357531616E+03  0.00000000000E+00 0.  1.
         25    2    1    2    0    0 -0.34776693493E+02  0.50038334249E+02 -0.80033056576E+02  0.16051895427E+03  0.12509113170E+03 0.  0.
          5    1    3    3  502    0 -0.73224602481E+02  0.63667190389E+02 -0.64894875051E+02  0.11680826490E+03  0.41800000000E+01 0.  1.
         -5    1    3    3    0  502  0.38447908989E+02 -0.13628856140E+02 -0.15138181525E+02  0.43710689370E+02  0.41800000000E+01 0.  1.
        -11    1    1    2    0    0  0.59299189683E+02 -0.79017843968E+01 -0.28071571649E+02  0.66082109746E+02  0.00000000000E+00 0. -1.
         11    1    1    2    0    0 -0.24522496190E+02 -0.42136549852E+02 -0.19818000316E+02  0.52626939768E+02  0.00000000000E+00 0.  1.
</event>
<event>
 7    1  0.2594791E-009  0.2526971E+03  0.7561462E-02  0.1111612E+00
          1   -1    0    0  501    0  0.00000000000E+00  0.00000000000E+00  0.52614455887E+03  0.52614455887E+03  0.00000000000E+00 0. -1.
         -1   -1    0    0    0  501 -0.00000000000E+00 -0.00000000000E+00 -0.12764875195E+03  0.12764875195E+03  0.00000000000E+00 0.  1.
         25    2    1    2    0    0  0.73332632746E+02  0.21736531231E+03  0.14047905821E+03  0.29664996278E+03  0.12506590503E+03 0.  0.
          5    1    3    3  502    0  0.84111957276E+02  0.22793236351E+03  0.12040355351E+03  0.27118715270E+03  0.41800000000E+01 0. -1.
         -5    1    3    3    0  502 -0.10779324530E+02 -0.10567051199E+02  0.20075504698E+02  0.25462810082E+02  0.41800000000E+01 0. -1.
        -11    1    1    2    0    0 -0.25087941870E+02 -0.18923691328E+03  0.19348492625E+03  0.27180219069E+03  0.00000000000E+00 0. -1.
         11    1    1    2    0    0 -0.48244690875E+02 -0.28128399027E+02  0.64531822451E+02  0.85341157353E+02  0.00000000000E+00 0.  1.
</event>
<event>
 7    1  0.2594791E-009  0.1291130E+03  0.7561462E-02  0.1228778E+00
         -2   -1    0    0    0  501 -0.00000000000E+00  0.00000000000E+00  0.30786760943E+03  0.30786760943E+03  0.00000000000E+00 0.  1.
          2   -1    0    0  501    0  0.00000000000E+00 -0.00000000000E+00 -0.62622556386E+02  0.62622556386E+02  0.00000000000E+00 0. -1.
         25    2    1    2    0    0  0.74913728590E+02  0.37411926338E+01  0.75023667112E+02  0.16401563902E+03  0.12508603425E+03 0.  0.
          5    1    3    3  502    0  0.32458473271E+02  0.63067664284E+02  0.49575801700E+02  0.86638993990E+02  0.41800000000E+01 0.  1.
         -5    1    3    3    0  502  0.42455255319E+02 -0.59326471650E+02  0.25447865411E+02  0.77376645034E+02  0.41800000000E+01 0.  1.
        -11    1    1    2    0    0 -0.14374166062E+02 -0.40704988082E+02  0.87034145839E+02  0.97151712526E+02  0.00000000000E+00 0.  1.
         11    1    1    2    0    0 -0.60539562528E+02  0.36963795448E+02  0.83187240092E+02  0.10932281427E+03  0.00000000000E+00 0. -1.
</event>
<event>
 6    1  0.2594791E-009  0.1439159E+03  0.7561462E-02  0.1208155E+00
         -1   -1    0    0    0  501 -0.00000000000E+00  0.00000000000E+00  0.17835244668E+03  0.17835244668E+03  0.00000000000E+00 0.  1.
          1   -1    0    0  501    0  0.00000000000E+00 -0.00000000000E+00 -0.16525335837E+03  0.16525335837E+03  0.00000000000E+00 0. -1.
          5    1    1    2  502    0 -0.97699575263E+02  0.45677848766E+02 -0.69433134559E+02  0.12833590865E+03  0.41800000000E+01 0. -1.
         -5    1    1    2    0  502 -0.64328762000E+01 -0.46791640051E+02 -0.10700035911E+02  0.48608668397E+02  0.41800000000E+01 0. -1.
        -11    1    1    2    0    0  0.15544822723E+02  0.34479425387E+02  0.49737487725E+02  0.62484317822E+02  0.00000000000E+00 0.  1.
         11    1    1    2    0    0  0.88587628739E+02 -0.33365634102E+02  0.43494771055E+02  0.10417691018E+03  0.00000000000E+00 0. -1.
</event>
<event>
 7    1  0.2594791E-009  0.8342094E+02  0.7561462E-02  0.1319614E+00
          2   -1    0    0  501    0  0.00000000000E+00  0.00000000000E+00  0.98445858824E+02  0.98445858824E+02  0.00000000000E+00 0. -1.
         -2   -1    0    0    0  501 -0.00000000000E+00 -0.00000000000E+00 -0.14310993434E+03  0.14310993434E+03  0.00000000000E+00 0.  1.
         25    2    1    2    0    0  0.17487205751E+02  0.87494674028E+01 -0.79794920815E+02  0.14965646842E+03  0.12508986213E+03 0.  0.
          5    1    3    3  502    0  0.44273590407E+02  0.26318264011E+02  0.11392499148E+02  0.52915624015E+02  0.41800000000E+01 0.  1.
         -5    1    3    3    0  502 -0.26786384656E+02 -0.17568796608E+02 -0.91187419963E+02  0.96740844408E+02  0.41800000000E+01 0.  1.
        -11    1    1    2    0    0 -0.11838495495E+02 -0.44817145163E+02  0.29539156006E+02  0.54966246130E+02  0.00000000000E+00 0.  1.
         11    1    1    2    0    0 -0.56487102568E+01  0.36067677760E+02  0.55916892931E+01  0.36933078611E+02  0.00000000000E+00 0. -1.
</event>
<event>
 7    1  0.2594791E-009  0.1344696E+03  0.7561462E-02  0.1220970E+00
         -1   -1    0    0    0  501 -0.00000000000E+00  0.00000000000E+00  0.74970742102E+02  0.74970742102E+02  0.00000000000E+00 0.  1.
          1   -1    0    0  501    0  0.00000000000E+00 -0.00000000000E+00 -0.24504507389E+03  0.24504507389E+03  0.00000000000E+00 0. -1.
         25    2    1    2    0    0  0.75593406945E+02 -0.17835489400E+02 -0.87835893179E+02  0.17145067951E+03  0.12509086105E+03 0.  0.
          5    1    3    3  502    0  0.10045386980E+03 -0.43397164909E+02 -0.77279427707E+02  0.13402938568E+03  0.41800000000E+01 0.  1.
         -5    1    3    3    0  502 -0.24860462855E+02  0.25561675509E+02 -0.10556465471E+02  0.37421293824E+02  0.41800000000E+01 0.  1.
        -11    1    1    2    0    0 -0.34115215842E+02  0.57035688350E+02 -0.40062763624E+02  0.77601177354E+02  0.00000000000E+00 0.  1.
         11    1    1    2    0    0 -0.41478191104E+02 -0.39200198950E+02 -0.42175674983E+02  0.70963959129E+02  0.00000000000E+00 0. -1.
</event>
<event>
 7    1  0.2594791E-009  0.9676888E+02  0.7561462E-02  0.1287241E+00
          4   -1    0    0  501    0  0.00000000000E+00  0.00000000000E+00  0.10920646976E+03  0.10920646976E+03  0.00000000000E+00 0. -1.
         -4   -1    0    0    0  501 -0.00000000000E+00 -0.00000000000E+00 -0.23235513356E+03  0.23235513356E+03  0.00000000000E+00 0.  1.
         25    2    1    2    0    0 -0.81966105275E+02 -0.50000067253E+02 -0.72049159579E+02  0.17336863924E+03  0.12508858676E+03 0.  0.
          5    1    3    3  502    0 -0.66742202515E+02 -0.40159346337E+02 -0.10780284680E+03  0.13306472438E+03  0.41800000000E+01 0.  1.
         -5    1    3    3    0  502 -0.15223902759E+02 -0.98407209157E+01  0.35753687224E+02  0.40303914865E+02  0.41800000000E+01 0.  1.
        -11    1    1    2    0    0  0.13913015602E+02  0.30247365542E+01 -0.79496380343E+02  0.80761349184E+02  0.00000000000E+00 0.  1.
         11    1    1    2    0    0  0.68053089673E+02  0.46975330699E+02  0.28396876127E+02  0.87431614889E+02  0.00000000000E+00 0. -1.
</event>
<event>
 7    1  0.2594791E-009  0.8972905E+02  0.7561462E-02  0.1303509E+00
         -4   -1    0    0    0  501 -0.00000000000E+00  0.00000000000E+00  0.22230922603E+03  0.22230922603E+03  0.00000000000E+00 0.  1.
          4   -1    0    0  501    0  0.00000000000E+00 -0.00000000000E+00 -0.57721796611E+02  0.57721796611E+02  0.00000000000E+00 0. -1.
         25    2    1    2    0    0  0.36723886081E+02  0.20371914019E+02  0.15479642136E+03  0.20340602042E+03  0.12509363848E+03 0.  0.
          5    1    3    3  502    0  0.78694186322E+02  0.35865883609E+02  0.93888960749E+02  0.12771744563E+03  0.41800000000E+01 0. -1.
         -5    1    3    3    0  502 -0.41970300241E+02 -0.15493969591E+02  0.60907460609E+02  0.75688574791E+02  0.41800000000E+01 0. -1.
        -11    1    1    2    0    0 -0.10065019032E+02 -0.18692060587E+02 -0.24977191882E+02  0.32780449226E+02  0.00000000000E+00 0. -1.
         11    1    1    2    0    0 -0.26658867049E+02 -0.16798534312E+01  0.34768199946E+02  0.43844552996E+02  0.00000000000E+00 0.  1.
</event>
<event>
 7    1  0.2594791E-009  0.1361665E+03  0.7561462E-02  0.1218582E+00
         -2   -1    0    0    0  501 -0.00000000000E+00  0.00000000000E+00  0.16380313917E+02  0.16380313917E+02  0.00000000000E+00 0.  1.
          2   -1    0    0  501    0  0.00000000000E+00 -0.00000000000E+00 -0.15201534190E+04  0.15201534190E+04  0.00000000000E+00 0. -1.
         25    2    1    2    0    0 -0.17616848571E+02  0.98612793248E+02 -0.10779551068E+04  0.10898024373E+04  0.12508918259E+03 0.  0.
          5    1    3    3  502    0  0.96204190108E+01  0.11855080298E+03 -0.94914056170E+03  0.95657311462E+03  0.41800000000E+01 0. -1.
         -5    1    3    3    0  502 -0.27237267582E+02 -0.19938009736E+02 -0.12881454511E+03  0.13322932264E+03  0.41800000000E+01 0. -1.
        -11    1    1    2    0    0 -0.16813149216E+02 -0.76639737706E+02 -0.36588933951E+03  0.37420761637E+03  0.00000000000E+00 0. -1.
         11    1    1    2    0    0  0.34429997787E+02 -0.21973055542E+02 -0.59928658778E+02  0.72523679308E+02  0.00000000000E+00 0.  1.
</event>
<event>
 7    1  0.2594791E-009  0.1421713E+03  0.7561462E-02  0.1210437E+00
         -1   -1    0    0    0  501 -0.00000000000E+00  0.00000000000E+00  0.38094026277E+02  0.38094026277E+02  0.00000000000E+00 0.  1.
          1   -1    0    0  501    0  0.00000000000E+00 -0.00000000000E+00 -0.81375487852E+03  0.81375487852E+03  0.00000000000E+00 0. -1.
         25    2    1    2    0    0  0.72299658661E+02  0.92400679830E+02 -0.58933848162E+03  0.61378489274E+03  0.12508765871E+03 0.  0.
          5    1    3    3  502    0 -0.62073862726E+01 -0.23179849064E+02 -0.17061955983E+03  0.17234948112E+03  0.41800000000E+01 0. -1.
         -5    1    3    3    0  502  0.78507044934E+02  0.11558052889E+03 -0.41871892179E+03  0.44143541162E+03  0.41800000000E+01 0. -1.
        -11    1    1    2    0    0 -0.66098523297E+02 -0.67245675426E+02 -0.66276818775E+02  0.11525455458E+03  0.00000000000E+00 0.  1.
         11    1    1    2    0    0 -0.62011353642E+01 -0.25155004403E+02 -0.12004555185E+03  0.12280945748E+03  0.00000000000E+00 0. -1.
</event>
<event>
 7    1  0.2594791E-009  0.1218589E+03  0.7561462E-02  0.1240062E+00
          1   -1    0    0  501    0  0.00000000000E+00  0.00000000000E+00  0.37517806266E+03  0.37517806266E+03  0.00000000000E+00 0. -1.
         -1   -1    0    0    0  501 -0.00000000000E+00 -0.00000000000E+00 -0.45427287350E+02  0.45427287350E+02  0.00000000000E+00 0.  1.
         25    2    1    2    0    0 -0.31255682341E+02  0.61040544148E+02  0.21490213937E+03  0.25793373921E+03  0.12507605130E+03 0.  0.
          5    1    3    3  502    0  0.46107375777E+01 -0.36742491089E+02  0.43041165051E+02  0.56932274163E+02  0.41800000000E+01 0.  1.
         -5    1    3    3    0  502 -0.35866419919E+02  0.97783035237E+02  0.17186097432E+03  0.20100146505E+03  0.41800000000E+01 0.  1.
        -11    1    1    2    0    0 -0.25095432967E+02 -0.24379067500E+02  0.79185463347E+02  0.86570533632E+02  0.00000000000E+00 0. -1.
         11    1    1    2    0    0  0.56351115309E+02 -0.36661476648E+02  0.35663172594E+02  0.76101077167E+02  0.00000000000E+00 0.  1.
</event>
<event>
 7    1  0.2594791E-009  0.1406648E+03  0.7561462E-02  0.1212437E+00
         -2   -1    0    0    0  501 -0.00000000000E+00  0.00000000000E+00  0.14757158479E+03  0.14757158479E+03  0.00000000000E+00 0.  1.
          2   -1    0    0  501    0  0.00000000000E+00 -0.00000000000E+00 -0.42606600008E+03  0.42606600008E+03  0.00000000000E+00 0. -1.
         25    2    1    2    0    0 -0.10887319748E+03 -0.61784185570E+02 -0.35832036122E+03  0.39963979268E+03  0.12509126236E+03 0.  0.
          5    1    3    3  502    0 -0.16712108252E+01 -0.30870803780E+02 -0.83553803876E+01  0.32296814906E+02  0.41800000000E+01 0. -1.
         -5    1    3    3    0  502 -0.10720198666E+03 -0.30913381790E+02 -0.34996498083E+03  0.36734297778E+03  0.41800000000E+01 0. -1.
        -11    1    1    2    0    0  0.88131364460E+02  0.73415056749E+02  0.92222990279E+02  0.14718012058E+03  0.00000000000E+00 0.  1.
         11    1    1    2    0    0  0.20741833021E+02 -0.11630871180E+02 -0.12397044349E+02  0.26817671601E+02  0.00000000000E+00 0. -1.
</event>
<event>
 7    1  0.2594791E-009  0.1153915E+03  0.7561462E-02  0.1250899E+00
         -1   -1    0    0    0  501 -0.00000000000E+00  0.00000000000E+00  0.23538413154E+03  0.23538413154E+03  0.00000000000E+00 0.  1.
          1   -1    0    0  501    0  0.00000000000E+00 -0.00000000000E+00 -0.62984181056E+02  0.62984181056E+02  0.00000000000E+00 0. -1.
         25    2    1    2    0    0  0.10831499639E+02 -0.26498348931E+02  0.13794833917E+03  0.18840748279E+03  0.12509257137E+03 0.  0.
          5    1    3    3  502    0  0.29542142714E+02  0.44432848418E+02  0.71716769880E+02  0.89486220709E+02  0.41800000000E+01 0. -1.
         -5    1    3    3    0  502 -0.18710643075E+02 -0.70931197349E+02  0.66231569286E+02  0.98921262081E+02  0.41800000000E+01 0. -1.
        -11    1    1    2    0    0  0.15578101133E+02  0.59506948340E+02  0.26348710970E+02  0.66917925143E+02  0.00000000000E+00 0.  1.
         11    1    1    2    0    0 -0.26409600772E+02 -0.33008599409E+02  0.81029003487E+01  0.43042904664E+02  0.00000000000E+00 0. -1.
</event>
<event>
 7    1  0.2594791E-009  0.1725572E+03  0.7561462E-02  0.1175207E+00
         -2   -1    0    0    0  501 -0.00000000000E+00  0.00000000000E+00  0.47620034253E+02  0.47620034253E+02  0.00000000000E+00 0.  1.
          2   -1    0    0  501    0  0.00000000000E+00 -0.00000000000E+00 -0.77787981609E+03  0.77787981609E+03  0.00000000000E+00 0. -1.
         25    2    1    2    0    0 -0.14261687171E+03 -0.27935045088E+02 -0.24807843316E+03  0.31354653213E+03  0.12509428430E+03 0.  0.
          5    1    3    3  502    0 -0.11318826268E+03  0.33884753551E+02 -0.12119662174E+03  0.16930993135E+03  0.41800000000E+01 0. -1.
         -5    1    3    3    0  502 -0.29428609032E+02 -0.61819798639E+02 -0.12688181142E+03  0.14423660078E+03  0.41800000000E+01 0. -1.
        -11    1    1    2    0    0  0.42597463115E+02  0.38886235680E+02 -0.28280642368E+03  0.28862805904E+03  0.00000000000E+00 0. -1.
         11    1    1    2    0    0  0.10001940860E+03 -0.10951190591E+02 -0.19937492499E+03  0.22332525918E+03  0.00000000000E+00 0.  1.
</event>
<event>
 7    1  0.2594791E-009  0.1073016E+03  0.7561462E-02  0.1265650E+00
         -1   -1    0    0    0  501 -0.00000000000E+00  0.00000000000E+00  0.28833415147E+03  0.28833415147E+03  0.00000000000E+00 0.  1.
          1   -1    0    0  501    0  0.00000000000E+00 -0.00000000000E+00 -0.60491857568E+02  0.60491857568E+02  0.00000000000E+00 0. -1.
         25    2    1    2    0    0  0.90695611364E+01  0.61174465399E+02  0.86082849606E+02  0.16395913495E+03  0.12509104197E+03 0.  0.
          5    1    3    3  502    0  0.25428975269E+02 -0.71586195148E+01  0.89576457626E+02  0.93484184638E+02  0.41800000000E+01 0.  1.
         -5    1    3    3    0  502 -0.16359414133E+02  0.68333084914E+02 -0.34936080201E+01  0.70474950313E+02  0.41800000000E+01 0.  1.
        -11    1    1    2    0    0 -0.54523358240E+02 -0.28783420717E+02  0.61288480733E+02  0.86934226703E+02  0.00000000000E+00 0.  1.
         11    1    1    2    0    0  0.45453797103E+02 -0.32391044682E+02  0.80470963562E+02  0.97932647383E+02  0.00000000000E+00 0. -1.
</event>
<event>
 7    1  0.2594791E-009  0.1837976E+03  0.7561462E-02  0.1164178E+00
          1   -1    0    0  501    0  0.00000000000E+00  0.00000000000E+00  0.12467737236E+03  0.12467737236E+03  0.00000000000E+00 0. -1.
         -1   -1    0    0    0  501 -0.00000000000E+00 -0.00000000000E+00 -0.39533146535E+03  0.39533146535E+03  0.00000000000E+00 0.  1.
         25    2    1    2    0    0  0.10841285774E+03 -0.13834096948E+03 -0.23397588347E+03  0.31825298893E+03  0.12509468158E+03 0.  0.
          5    1    3    3  502    0  0.11068716437E+03 -0.88797305160E+02 -0.22736178044E+03  0.26804376763E+03  0.41800000000E+01 0.  1.
         -5    1    3    3    0  502 -0.22743066358E+01 -0.49543664320E+02 -0.66141030312E+01  0.50209221303E+02  0.41800000000E+01 0.  1.
        -11    1    1    2    0    0 -0.50630467964E+02  0.59867170166E+02  0.29702230756E+02  0.83843573766E+02  0.00000000000E+00 0. -1.
         11    1    1    2    0    0 -0.57782389774E+02  0.78473799315E+02 -0.66380440280E+02  0.11791227501E+03  0.00000000000E+00 0.  1.
</event>
<event>
 7    1  0.2594791E-009  0.2291077E+03  0.7561462E-02  0.1127269E+00
         -1   -1    0    0    0  501 -0.00000000000E+00  0.00000000000E+00  0.48353080161E+02  0.48353080161E+02  0.00000000000E+00 0.  1.
          1   -1    0    0  501    0  0.00000000000E+00 -0.00000000000E+00 -0.11718167408E+04  0.11718167408E+04  0.00000000000E+00 0. -1.
         25    2    1    2    0    0 -0.10382719010E+03  0.18179772146E+03 -0.65145651891E+03  0.69560938935E+03  0.12508528925E+03 0.  0.
          5    1    3    3  502    0  0.23898544241E+02  0.10998080407E+02 -0.40420067438E+02  0.48408185684E+02  0.41800000000E+01 0.  1.
         -5    1    3    3    0  502 -0.12772573434E+03  0.17079964105E+03 -0.61103645147E+03  0.64720120366E+03  0.41800000000E+01 0.  1.
        -11    1    1    2    0    0  0.19320746352E+02 -0.95662066436E+02 -0.29176953523E+03  0.30765887584E+03  0.00000000000E+00 0. -1.
         11    1    1    2    0    0  0.84506443750E+02 -0.86135655024E+02 -0.18023760651E+03  0.21690155578E+03  0.00000000000E+00 0.  1.
</event>
<event>
 7    1  0.2594791E-009  0.3386555E+03  0.7561462E-02  0.1067370E+00
         -3   -1    0    0    0  501 -0.00000000000E+00  0.00000000000E+00  0.31818884279E+03  0.31818884279E+03  0.00000000000E+00 0.  1.
          3   -1    0    0  501    0  0.00000000000E+00 -0.00000000000E+00 -0.38398921490E+03  0.38398921490E+03  0.00000000000E+00 0. -1.
         25    2    1    2    0    0  0.23753374958E+03 -0.23026655888E+03 -0.63732849928E+02  0.35938252529E+03  0.12509577531E+03 0.  0.
          5    1    3    3  502    0  0.48062113967E+02 -0.95710188326E+02 -0.67970409172E+02  0.12691672810E+03  0.41800000000E+01 0.  1.
         -5    1    3    3    0  502  0.18947163561E+03 -0.13455637055E+03  0.42375592442E+01  0.23246579719E+03  0.41800000000E+01 0.  1.
        -11    1    1    2    0    0 -0.63915371038E+02  0.24438605756E+02 -0.24277148865E+02  0.72607162617E+02  0.00000000000E+00 0.  1.
         11    1    1    2    0    0 -0.17361837854E+03  0.20582795312E+03  0.22209626682E+02  0.27018836979E+03  0.00000000000E+00 0. -1.
</event>
<event>
 7    1  0.2594791E-009  0.8504868E+02  0.7561462E-02  0.1315305E+00
         -1   -1    0    0    0  501 -0.00000000000E+00  0.00000000000E+00  0.88895739950E+02  0.88895739950E+02  0.00000000000E+00 0.  1.
          1   -1    0    0  501    0  0.00000000000E+00 -0.00000000000E+00 -0.21271892845E+03  0.21271892845E+03  0.00000000000E+00 0. -1.
         25    2    1    2    0    0 -0.36498124037E+02  0.10833643541E+02  0.15022137709E+02  0.13161550037E+03  0.12508994534E+03 0.  0.
          5    1    3    3  502    0 -0.55806350513E+01  0.42153850696E+02  0.56607521085E+02  0.70922312846E+02  0.41800000000E+01 0.  1.
         -5    1    3    3    0  502 -0.30917488986E+02 -0.31320207155E+02 -0.41585383376E+02  0.60693187525E+02  0.41800000000E+01 0.  1.
        -11    1    1    2    0    0  0.36162587719E+02 -0.40040987431E+02 -0.40654500004E+02  0.67555916066E+02  0.00000000000E+00 0.  1.
         11    1    1    2    0    0  0.33553631844E+00  0.29207343890E+02 -0.98190826201E+02  0.10244325196E+03  0.00000000000E+00 0. -1.
</event>
<event>
 7    1  0.2594791E-009  0.1039050E+03  0.7561462E-02  0.1272292E+00
          1   -1    0    0  501    0  0.00000000000E+00  0.00000000000E+00  0.31585640567E+03  0.31585640567E+03  0.00000000000E+00 0. -1.
         -1   -1    0    0    0  501 -0.00000000000E+00 -0.00000000000E+00 -0.56817824818E+02  0.56817824818E+02  0.00000000000E+00 0.  1.
         25    2    1    2    0    0  0.22784976994E+02  0.71803915708E+02  0.19954557412E+03  0.24726908322E+03  0.12509438786E+03 0.  0.
          5    1    3    3  502    0  0.90199983638E+01  0.87436101267E+02  0.20686096803E+03  0.22480072213E+03  0.41800000000E+01 0. -1.
         -5    1    3    3    0  502  0.13764978630E+02 -0.15632185560E+02 -0.73153939052E+01  0.22468361090E+02  0.41800000000E+01 0. -1.
        -11    1    1    2    0    0  0.46230823944E+01 -0.70996130858E+02  0.14338025214E+02  0.72576872726E+02  0.00000000000E+00 0.  1.
         11    1    1    2    0    0 -0.27408059388E+02 -0.80778484971E+00  0.45154981515E+02  0.52828274545E+02  0.00000000000E+00 0. -1.
</event>
<event>
 7    1  0.2594791E-009  0.1289795E+03  0.7561462E-02  0.1228978E+00
         -2   -1    0    0    0  501 -0.00000000000E+00  0.00000000000E+00  0.18464173252E+02  0.18464173252E+02  0.00000000000E+00 0.  1.
          2   -1    0    0  501    0  0.00000000000E+00 -0.00000000000E+00 -0.10922770424E+04  0.10922770424E+04  0.00000000000E+00 0. -1.
         25    2    1    2    0    0  0.57419048786E+02 -0.71216500893E+02 -0.56377914236E+03  0.58469080245E+03  0.12509067093E+03 0.  0.
          5    1    3    3  502    0  0.79278190534E+02 -0.13492840484E+02 -0.42761915357E+03  0.43513526763E+03  0.41800000000E+01 0.  1.
         -5    1    3    3    0  502 -0.21859141748E+02 -0.57723660409E+02 -0.13615998879E+03  0.14955553482E+03  0.41800000000E+01 0.  1.
        -11    1    1    2    0    0 -0.10460072014E+02  0.67670572899E+02 -0.40758012304E+03  0.41329199876E+03  0.00000000000E+00 0. -1.
         11    1    1    2    0    0 -0.46958976772E+02  0.35459279941E+01 -0.10245360375E+03  0.11275841444E+03  0.00000000000E+00 0.  1.
</event>
<event>
 7    1  0.2594791E-009  0.1425569E+03  0.7561462E-02  0.1209929E+00
         -1   -1    0    0    0  501 -0.00000000000E+00  0.00000000000E+00  0.32739911060E+02  0.32739911060E+02  0.00000000000E+00 0.  1.
          1   -1    0    0  501    0  0.00000000000E+00 -0.00000000000E+00 -0.91278017410E+03  0.91278017410E+03  0.00000000000E+00 0. -1.
         25    2    1    2    0    0  0.11359935949E+03  0.62888844290E+02 -0.35798541368E+03  0.40082395531E+03  0.12508583265E+03 0.  0.
          5    1    3    3  502    0  0.90132017364E+02  0.43570378398E+02 -0.10191020564E+03  0.14291718175E+03  0.41800000000E+01 0.  1.
         -5    1    3    3    0  502  0.23467342122E+02  0.19318465892E+02 -0.25607520804E+03  0.25790677355E+03  0.41800000000E+01 0.  1.
        -11    1    1    2    0    0 -0.20997697735E+02  0.20699845671E+02 -0.75798840928E+02  0.81331735546E+02  0.00000000000E+00 0.  1.
         11    1    1    2    0    0 -0.92601661751E+02 -0.83588689961E+02 -0.44625600843E+03  0.46336439430E+03  0.00000000000E+00 0. -1.
</event>
<event>
 7    1  0.2594791E-009  0.9151264E+02  0.7561462E-02  0.1299229E+00
          2   -1    0    0  501    0  0.00000000000E+00  0.00000000000E+00  0.95704808332E+02  0.95704808332E+02  0.00000000000E+00 0. -1.
         -2   -1    0    0    0  501 -0.00000000000E+00 -0.00000000000E+00 -0.19787035717E+03  0.19787035717E+03  0.00000000000E+00 0.  1.
         25    2    1    2    0    0 -0.45328195424E+02 -0.53507279511E+02 -0.10953350070E+03  0.18045151634E+03  0.12508991852E+03 0.  0.
          5    1    3    3  502    0 -0.23892667794E+02 -0.23510284785E+02 -0.13255071675E+03  0.13678727271E+03  0.41800000000E+01 0. -1.
         -5    1    3    3    0  502 -0.21435527629E+02 -0.29996994726E+02  0.23017216052E+02  0.43664243634E+02  0.41800000000E+01 0. -1.
        -11    1    1    2    0    0  0.32042205893E+02 -0.19782107926E+02 -0.36333555238E+01  0.37831680174E+02  0.00000000000E+00 0.  1.
         11    1    1    2    0    0  0.13285989531E+02  0.73289387437E+02  0.11001307385E+02  0.75291968980E+02  0.00000000000E+00 0. -1.
</event>
<event>
 7    1  0.2594791E-009  0.1591204E+03  0.7561462E-02  0.1189693E+00
          1   -1    0    0  501    0  0.00000000000E+00  0.00000000000E+00  0.18711874080E+03  0.18711874080E+03  0.00000000000E+00 0. -1.
         -1   -1    0    0    0  501 -0.00000000000E+00 -0.00000000000E+00 -0.18303995285E+03  0.18303995285E+03  0.00000000000E+00 0.  1.
         25    2    1    2    0    0  0.12689293499E+03  0.73700994862E+02  0.24426536825E+02  0.19436935160E+03  0.12509650494E+03 0.  0.
          5    1    3    3  502    0  0.33078827934E+02  0.69962778830E+02  0.55566617947E+02  0.95363099306E+02  0.41800000000E+01 0.  1.
         -5    1    3    3    0  502  0.93814107051E+02  0.37382160316E+01 -0.31140081123E+02  0.99006252294E+02  0.41800000000E+01 0.  1.
        -11    1    1    2    0    0 -0.94094022888E+01 -0.48531919800E+01  0.29063042857E+02  0.30931388329E+02  0.00000000000E+00 0. -1.
         11    1    1    2    0    0 -0.11748353270E+03 -0.68847802882E+02 -0.49410791736E+02  0.14485795372E+03  0.00000000000E+00 0.  1.
</event>
<event>
 7    1  0.2594791E-009  0.1381487E+03  0.7561462E-02  0.1215842E+00
          1   -1    0    0  501    0  0.00000000000E+00  0.00000000000E+00  0.31945496415E+03  0.31945496415E+03  0.00000000000E+00 0. -1.
         -1   -1    0    0    0  501 -0.00000000000E+00 -0.00000000000E+00 -0.67780624691E+02  0.67780624691E+02  0.00000000000E+00 0.  1.
         25    2    1    2    0    0 -0.47500353436E+02 -0.79305627526E+02  0.18273105995E+03  0.23996543743E+03  0.12508838777E+03 0.  0.
          5    1    3    3  502    0  0.25304208820E+02 -0.71676578142E+02  0.12619052030E+03  0.14737487795E+03  0.41800000000E+01 0. -1.
         -5    1    3    3    0  502 -0.72804562257E+02 -0.76290493834E+01  0.56540539650E+02  0.92590559474E+02  0.41800000000E+01 0. -1.
        -11    1    1    2    0    0 -0.24291114386E+02  0.34598101140E+02  0.79958493796E+01  0.43023487165E+02  0.00000000000E+00 0.  1.
         11    1    1    2    0    0  0.71791467822E+02  0.44707526386E+02  0.60947430132E+02  0.10424666425E+03  0.00000000000E+00 0. -1.
</event>
<event>
 7    1  0.2594791E-009  0.1197482E+03  0.7561462E-02  0.1243513E+00
          1   -1    0    0  501    0  0.00000000000E+00  0.00000000000E+00  0.92077226488E+03  0.92077226488E+03  0.00000000000E+00 0. -1.
         -1   -1    0    0    0  501 -0.00000000000E+00 -0.00000000000E+00 -0.24106442409E+02  0.24106442409E+02  0.00000000000E+00 0.  1.
         25    2    1    2    0    0 -0.71675133976E+01  0.93809500782E+02  0.35900125650E+03  0.39163884632E+03  0.12508992005E+03 0.  0.
          5    1    3    3  502    0 -0.19708880414E+01 -0.12725494584E+02 -0.33041956213E+01  0.13936022416E+02  0.41800000000E+01 0.  1.
         -5    1    3    3    0  502 -0.51966253562E+01  0.10653499537E+03  0.36230545212E+03  0.37770282391E+03  0.41800000000E+01 0.  1.
        -11    1    1    2    0    0  0.69496393910E+01  0.11751726820E+02  0.16143667851E+02  0.21142813971E+02  0.00000000000E+00 0.  1.
         11    1    1    2    0    0  0.21787400661E+00 -0.10556122760E+03  0.52152089812E+03  0.53209704699E+03  0.00000000000E+00 0. -1.
</event>
<event>
 7    1  0.2594791E-009  0.1165630E+03  0.7561462E-02  0.1248877E+00
         -1   -1    0    0    0  501 -0.00000000000E+00  0.00000000000E+00  0.34703397903E+03  0.34703397903E+03  0.00000000000E+00 0.  1.
          1   -1    0    0  501    0  0.00000000000E+00 -0.00000000000E+00 -0.42478713366E+02  0.42478713366E+02  0.00000000000E+00 0. -1.
         25    2    1    2    0    0  0.46997170830E+02 -0.23469549392E+02  0.19170348402E+03  0.23485869813E+03  0.12509527764E+03 0.  0.
          5    1    3    3  502    0 -0.39014959810E+02 -0.76238849264E+01  0.26720395681E+02  0.48080585018E+02  0.41800000000E+01 0.  1.
         -5    1    3    3    0  502  0.86012130640E+02 -0.15845664466E+02  0.16498308834E+03  0.18677811311E+03  0.41800000000E+01 0.  1.
        -11    1    1    2    0    0 -0.71850759745E+02  0.64961721953E+00  0.80598581021E+02  0.10797724270E+03  0.00000000000E+00 0.  1.
         11    1    1    2    0    0  0.24853588915E+02  0.22819932172E+02  0.32253200618E+02  0.46676751562E+02  0.00000000000E+00 0. -1.
</event>
<event>
 7    1  0.2594791E-009  0.2006916E+03  0.7561462E-02  0.1149157E+00
          1   -1    0    0  501    0  0.00000000000E+00  0.00000000000E+00  0.15024710748E+03  0.15024710748E+03  0.00000000000E+00 0. -1.
         -1   -1    0    0    0  501 -0.00000000000E+00 -0.00000000000E+00 -0.28655296745E+03  0.28655296745E+03  0.00000000000E+00 0.  1.
         25    2    1    2    0    0  0.62286002885E+02 -0.16469187795E+03 -0.86150123001E+02  0.23253453852E+03  0.12508999597E+03 0.  0.
          5    1    3    3  502    0  0.69664392880E+02 -0.29799750045E+02 -0.77419931288E+01  0.76279509671E+02  0.41800000000E+01 0. -1.
         -5    1    3    3    0  502 -0.73783899951E+01 -0.13489212790E+03 -0.78408129872E+02  0.15625502885E+03  0.41800000000E+01 0. -1.
        -11    1    1    2    0    0 -0.78831191108E+02  0.13380786859E+03 -0.62086577868E+02  0.16725323776E+03  0.00000000000E+00 0.  1.
         11    1    1    2    0    0  0.16545188224E+02  0.30884009359E+02  0.11930840896E+02  0.37012298658E+02  0.00000000000E+00 0. -1.
</event>
<event>
 7    1  0.2594791E-009  0.1034744E+03  0.7561462E-02  0.1273155E+00
         -1   -1    0    0    0  501 -0.00000000000E+00  0.00000000000E+00  0.43318632172E+02  0.43318632172E+02  0.00000000000E+00 0.  1.
          1   -1    0    0  501    0  0.00000000000E+00 -0.00000000000E+00 -0.40935251637E+03  0.40935251637E+03  0.00000000000E+00 0. -1.
         25    2    1    2    0    0 -0.18823265928E+02  0.45387820352E+02 -0.10195222788E+03  0.16868877878E+03  0.12508907922E+03 0.  0.
          5    1    3    3  502    0 -0.20593326254E+01  0.80677082734E+02 -0.10104657781E+03  0.12938669103E+03  0.41800000000E+01 0.  1.
         -5    1    3    3    0  502 -0.16763933303E+02 -0.35289262382E+02 -0.90565007583E+00  0.39302087748E+02  0.41800000000E+01 0.  1.
        -11    1    1    2    0    0  0.42634002639E+02 -0.93420479069E+01 -0.53644781772E+02  0.69157028937E+02  0.00000000000E+00 0.  1.
         11    1    1    2    0    0 -0.23810736710E+02 -0.36045772445E+02 -0.21043687454E+03  0.21482534082E+03  0.00000000000E+00 0. -1.
</event>
<event>
 7    1  0.2594791E-009  0.2319487E+03  0.7561462E-02  0.1125276E+00
          1   -1    0    0  501    0  0.00000000000E+00  0.00000000000E+00  0.11682394227E+04  0.11682394227E+04  0.00000000000E+00 0. -1.
         -1   -1    0    0    0  501 -0.00000000000E+00 -0.00000000000E+00 -0.78598318991E+02  0.78598318991E+02  0.00000000000E+00 0.  1.
         25    2    1    2    0    0 -0.16244365719E+03  0.13831594027E+03  0.93824298345E+03  0.97029319727E+03  0.12509896715E+03 0.  0.
          5    1    3    3  502    0 -0.42293919241E+02 -0.93419394972E+01  0.33230445377E+03  0.33514141767E+03  0.41800000000E+01 0.  1.
         -5    1    3    3    0  502 -0.12014973795E+03  0.14765787977E+03  0.60593852968E+03  0.63515177961E+03  0.41800000000E+01 0.  1.
        -11    1    1    2    0    0  0.15620444848E+03 -0.88032473565E+02  0.13035335147E+03  0.22167891728E+03  0.00000000000E+00 0.  1.
         11    1    1    2    0    0  0.62392087152E+01 -0.50283466704E+02  0.21044768799E+02  0.54865627153E+02  0.00000000000E+00 0. -1.
</event>
<event>
 7    1  0.2594791E-009  0.8257094E+02  0.7561462E-02  0.1321910E+00
          2   -1    0    0  501    0  0.00000000000E+00  0.00000000000E+00  0.37712006102E+03  0.37712006102E+03  0.00000000000E+00 0. -1.
         -2   -1    0    0    0  501 -0.00000000000E+00 -0.00000000000E+00 -0.39423483220E+02  0.39423483220E+02  0.00000000000E+00 0.  1.
         25    2    1    2    0    0  0.10986579485E+02 -0.49929413405E+02  0.22590812330E+03  0.26324063437E+03  0.12508996827E+03 0.  0.
          5    1    3    3  502    0  0.41656003309E+02 -0.41261195413E+02  0.32475297578E+02  0.67155239642E+02  0.41800000000E+01 0.  1.
         -5    1    3    3    0  502 -0.30669423824E+02 -0.86682179921E+01  0.19343282572E+03  0.19608539473E+03  0.41800000000E+01 0.  1.
        -11    1    1    2    0    0  0.21928749134E+02  0.21775411962E+02 -0.25761872496E+01  0.31010890756E+02  0.00000000000E+00 0.  1.
         11    1    1    2    0    0 -0.32915328619E+02  0.28154001443E+02  0.11436464175E+03  0.12229201911E+03  0.00000000000E+00 0. -1.
</event>
<event>
 7    1  0.2594791E-009  0.1142425E+03  0.7561462E-02  0.1252909E+00
          3   -1    0    0  501    0  0.00000000000E+00  0.00000000000E+00  0.60567808701E+02  0.60567808701E+02  0.00000000000E+00 0. -1.
         -3   -1    0    0    0  501 -0.00000000000E+00 -0.00000000000E+00 -0.31061951379E+03  0.31061951379E+03  0.00000000000E+00 0.  1.
         25    2    1    2    0    0 -0.40447944372E+02  0.56113942156E+02 -0.73134741717E+02  0.16056553501E+03  0.12509112630E+03 0.  0.
          5    1    3    3  502    0  0.17068778069E+02  0.78043554082E+02 -0.30710452439E+02  0.85689811573E+02  0.41800000000E+01 0.  1.
         -5    1    3    3    0  502 -0.57516722441E+02 -0.21929611926E+02 -0.42424289278E+02  0.74875723437E+02  0.41800000000E+01 0.  1.
        -11    1    1    2    0    0  0.53167472182E+02 -0.41724226258E+02 -0.17897093836E+03  0.19130679008E+03  0.00000000000E+00 0.  1.
         11    1    1    2    0    0 -0.12719527810E+02 -0.14389715898E+02  0.20539749841E+01  0.19314997400E+02  0.00000000000E+00 0. -1.
</event>
<event>
 7    1  0.2594791E-009  0.1121242E+03  0.7561462E-02  0.1256686E+00
         -1   -1    0    0    0  501 -0.00000000000E+00  0.00000000000E+00  0.18454571555E+03  0.18454571555E+03  0.00000000000E+00 0.  1.
          1   -1    0    0  501    0  0.00000000000E+00 -0.00000000000E+00 -0.12484211184E+03  0.12484211184E+03  0.00000000000E+00 0. -1.
         25    2    1    2    0    0 -0.34849323981E+02  0.92578697195E+02 -0.16318118604E+01  0.15948580854E+03  0.12509104587E+03 0.  0.
          5    1    3    3  502    0  0.21426692245E+02  0.12663914779E+02  0.44627519842E+02  0.51269540717E+02  0.41800000000E+01 0.  1.
         -5    1    3    3    0  502 -0.56276016225E+02  0.79914782416E+02 -0.46259331703E+02  0.10821626782E+03  0.41800000000E+01 0.  1.
        -11    1    1    2    0    0  0.96838860728E+01 -0.55684106495E+02  0.82879598241E+02  0.10031712302E+03  0.00000000000E+00 0.  1.
         11    1    1    2    0    0  0.25165437908E+02 -0.36894590700E+02 -0.21544182678E+02  0.49584895838E+02  0.00000000000E+00 0. -1.
</event>
<event>
 7    1  0.2594791E-009  0.2175038E+03  0.7561462E-02  0.1135758E+00
          4   -1    0    0  501    0  0.00000000000E+00  0.00000000000E+00  0.88651118750E+02  0.88651118750E+02  0.00000000000E+00 0. -1.
         -4   -1    0    0    0  501 -0.00000000000E+00 -0.00000000000E+00 -0.59728455563E+03  0.59728455563E+03  0.00000000000E+00 0.  1.
         25    2    1    2    0    0  0.13173002474E+03  0.14170856315E+03 -0.34841259834E+03  0.41769837080E+03  0.12508586651E+03 0.  0.
          5    1    3    3  502    0 -0.20184372182E+02  0.37779183252E+02 -0.96653165418E+02  0.10580161791E+03  0.41800000000E+01 0.  1.
         -5    1    3    3    0  502  0.15191439692E+03  0.10392937989E+03 -0.25175943292E+03  0.31189675289E+03  0.41800000000E+01 0.  1.
        -11    1    1    2    0    0 -0.10771392963E+03 -0.61286332557E+02 -0.12846787157E+03  0.17850013787E+03  0.00000000000E+00 0. -1.
         11    1    1    2    0    0 -0.24016095109E+02 -0.80422230589E+02 -0.31752966967E+02  0.89737165703E+02  0.00000000000E+00 0.  1.
</event>
<event>
 7    1  0.2594791E-009  0.1937751E+03  0.7561462E-02  0.1155100E+00
         -2   -1    0    0    0  501 -0.00000000000E+00  0.00000000000E+00  0.27024844889E+03  0.27024844889E+03  0.00000000000E+00 0.  1.
          2   -1    0    0  501    0  0.00000000000E+00 -0.00000000000E+00 -0.16292717922E+03  0.16292717922E+03  0.00000000000E+00 0. -1.
         25    2    1    2    0    0  0.10210001982E+03 -0.13654445583E+03  0.42993054893E+01  0.21150761722E+03  0.12509270821E+03 0.  0.
          5    1    3    3  502    0  0.87555749029E+02 -0.15966688817E+03 -0.53861221493E+01  0.18222515490E+03  0.41800000000E+01 0. -1.
         -5    1    3    3    0  502  0.14544270794E+02  0.23122432348E+02  0.96854276386E+01  0.29282462314E+02  0.41800000000E+01 0. -1.
        -11    1    1    2    0    0 -0.54411188005E+02  0.11112235724E+03  0.24158677750E+02  0.12606505214E+03  0.00000000000E+00 0. -1.
         11    1    1    2    0    0 -0.47688831818E+02  0.25422098584E+02  0.78863286434E+02  0.95602958760E+02  0.00000000000E+00 0.  1.
</event>
<event>
 7    1  0.2594791E-009  0.1303502E+03  0.7561462E-02  0.1226937E+00
         -2   -1    0    0    0  501 -0.00000000000E+00  0.00000000000E+00  0.66897225319E+02  0.66897225319E+02  0.00000000000E+00 0.  1.
          2   -1    0    0  501    0  0.00000000000E+00 -0.00000000000E+00 -0.26194481387E+03  0.26194481387E+03  0.00000000000E+00 0. -1.
         25    2    1    2    0    0 -0.13384540297E+02  0.70824675361E+02 -0.13381770994E+03  0.19685044994E+03  0.12509052557E+03 0.  0.
          5    1    3    3  502    0  0.51625004743E+02  0.54506262809E+01 -0.47997569673E+02  0.70824356941E+02  0.41800000000E+01 0.  1.
         -5    1    3    3    0  502 -0.65009545041E+02  0.65374049080E+02 -0.85820140270E+02  0.12602609299E+03  0.41800000000E+01 0.  1.
        -11    1    1    2    0    0  0.52057137796E+02 -0.29939571402E+02 -0.24924533744E+02  0.65019657901E+02  0.00000000000E+00 0.  1.
         11    1    1    2    0    0 -0.38672597499E+02 -0.40885103959E+02 -0.36305344860E+02  0.66971931347E+02  0.00000000000E+00 0. -1.
</event>
<event>
 7    1  0.2594791E-009  0.2107220E+03  0.7561462E-02  0.1140995E+00
          2   -1    0    0  501    0  0.00000000000E+00  0.00000000000E+00  0.37020196655E+03  0.37020196655E+03  0.00000000000E+00 0. -1.
         -2   -1    0    0    0  501 -0.00000000000E+00 -0.00000000000E+00 -0.12951302827E+03  0.12951302827E+03  0.00000000000E+00 0.  1.
         25    2    1    2    0    0 -0.18587596200E+03 -0.41299315021E+02  0.11367510900E+03  0.25460767738E+03  0.12509009673E+03 0.  0.
          5    1    3    3  502    0  0.17987109821E+02  0.39419385698E+01  0.76488650208E+01  0.20372838180E+02  0.41800000000E+01 0.  1.
         -5    1    3    3    0  502 -0.20386307182E+03 -0.45241253590E+02  0.10602624398E+03  0.23423483919E+03  0.41800000000E+01 0.  1.
        -11    1    1    2    0    0  0.98960025595E+02  0.37894565463E+01  0.11158561132E+03  0.14919381791E+03  0.00000000000E+00 0. -1.
         11    1    1    2    0    0  0.86915936407E+02  0.37509858474E+02  0.15428217958E+02  0.95913499539E+02  0.00000000000E+00 0.  1.
</event>
<event>
 7    1  0.2594791E-009  0.1360041E+03  0.7561462E-02  0.1218809E+00
          2   -1    0    0  501    0  0.00000000000E+00  0.00000000000E+00  0.14292396061E+03  0.14292396061E+03  0.00000000000E+00 0. -1.
         -2   -1    0    0    0  501 -0.00000000000E+00 -0.00000000000E+00 -0.16504955070E+03  0.16504955070E+03  0.00000000000E+00 0.  1.
         25    2    1    2    0    0 -0.96370204086E+02  0.19531740232E+01 -0.61724427145E+02  0.16954735072E+03  0.12508144589E+03 0.  0.
          5    1    3    3  502    0 -0.11828214350E+03 -0.19981533016E+02 -0.27426338518E+02  0.12312434193E+03  0.41800000000E+01 0. -1.
         -5    1    3    3    0  502  0.21911939410E+02  0.21934707039E+02 -0.34298088627E+02  0.46423008789E+02  0.41800000000E+01 0. -1.
        -11    1    1    2    0    0  0.18539616574E+02  0.31041970758E+02 -0.13502846781E+02  0.38595960961E+02  0.00000000000E+00 0.  1.
         11    1    1    2    0    0  0.77830587512E+02 -0.32995144781E+02  0.53101683838E+02  0.99830199629E+02  0.00000000000E+00 0. -1.
</event>
<event>
 7    1  0.2594791E-009  0.1089308E+03  0.7561462E-02  0.1262563E+00
         -2   -1    0    0    0  501 -0.00000000000E+00  0.00000000000E+00  0.20456452955E+02  0.20456452955E+02  0.00000000000E+00 0.  1.
          2   -1    0    0  501    0  0.00000000000E+00 -0.00000000000E+00 -0.76004303272E+03  0.76004303272E+03  0.00000000000E+00 0. -1.
         25    2    1    2    0    0 -0.46891404844E+02  0.36266074376E+02 -0.43634472914E+03  0.45777584806E+03  0.12509185596E+03 0.  0.
          5    1    3    3  502    0 -0.49511469403E+02  0.75993896875E+02 -0.36336552176E+03  0.37453762531E+03  0.41800000000E+01 0. -1.
         -5    1    3    3    0  502  0.26200645589E+01 -0.39727822499E+02 -0.72979207372E+02  0.83238222755E+02  0.41800000000E+01 0. -1.
        -11    1    1    2    0    0 -0.11705427274E+02  0.74940905707E+01 -0.36996903789E+01  0.14382841515E+02  0.00000000000E+00 0.  1.
         11    1    1    2    0    0  0.58596832118E+02 -0.43760164947E+02 -0.29954216025E+03  0.30834079610E+03  0.00000000000E+00 0. -1.
</event>
<event>
 7    1  0.2594791E-009  0.2995919E+03  0.7561462E-02  0.1085445E+00
          2   -1    0    0  501    0  0.00000000000E+00  0.00000000000E+00  0.72913037943E+03  0.72913037943E+03  0.00000000000E+00 0. -1.
         -2   -1    0    0    0  501 -0.00000000000E+00 -0.00000000000E+00 -0.12633014992E+03  0.12633014992E+03  0.00000000000E+00 0.  1.
         25    2    1    2    0    0 -0.29219481066E+02  0.28029834679E+03  0.34707309592E+03  0.46425011998E+03  0.12508996245E+03 0.  0.
          5    1    3    3  502    0 -0.62042671623E+02  0.25538787981E+03  0.27037635570E+03  0.37708501479E+03  0.41800000000E+01 0.  1.
         -5    1    3    3    0  502  0.32823190558E+02  0.24910466984E+02  0.76696740219E+02  0.87165105197E+02  0.41800000000E+01 0.  1.
        -11    1    1    2    0    0 -0.31010417313E+02 -0.10971625008E+03  0.82390489641E+02  0.14066802870E+03  0.00000000000E+00 0.  1.
         11    1    1    2    0    0  0.60229898379E+02 -0.17058209671E+03  0.17333664396E+03  0.25054238067E+03  0.00000000000E+00 0. -1.
</event>
<event>
 7    1  0.2594791E-009  0.7592516E+02  0.7561462E-02  0.1341030E+00
         -2   -1    0    0    0  501 -0.00000000000E+00  0.00000000000E+00  0.33789580695E+03  0.33789580695E+03  0.00000000000E+00 0. -1.
          2   -1    0    0  501    0  0.00000000000E+00 -0.00000000000E+00 -0.51053157877E+02  0.51053157877E+02  0.00000000000E+00 0.  1.
         25    2    1    2    0    0 -0.16153101944E+02 -0.67042363215E+02  0.20448604432E+03  0.24943555952E+03  0.12509178576E+03 0.  0.
          5    1    3    3  502    0 -0.23172897648E+01 -0.65162819691E+02  0.25945069701E+02  0.70300653935E+02  0.41800000000E+01 0. -1.
         -5    1    3    3    0  502 -0.13835812179E+02 -0.18795435238E+01  0.17854097462E+03  0.17913490559E+03  0.41800000000E+01 0. -1.
        -11    1    1    2    0    0  0.12435044598E+02  0.13842374954E+02 -0.17986028298E+02  0.25879313988E+02  0.00000000000E+00 0.  1.
         11    1    1    2    0    0  0.37180573462E+01  0.53199988260E+02  0.10034263306E+03  0.11363409132E+03  0.00000000000E+00 0. -1.
</event>
<event>
 7    1  0.2594791E-009  0.8352189E+02  0.7561462E-02  0.1319344E+00
         -1   -1    0    0    0  501 -0.00000000000E+00  0.00000000000E+00  0.14484197203E+03  0.14484197203E+03  0.00000000000E+00 0.  1.
          1   -1    0    0  501    0  0.00000000000E+00 -0.00000000000E+00 -0.90025256003E+02  0.90025256003E+02  0.00000000000E+00 0. -1.
         25    2    1    2    0    0 -0.21663005405E+02  0.14132583294E+02  0.55346524294E+02  0.13921082918E+03  0.12508957388E+03 0.  0.
          5    1    3    3  502    0 -0.68596724479E+01  0.40316662415E+02 -0.28508064946E+02  0.50026698286E+02  0.41800000000E+01 0.  1.
         -5    1    3    3    0  502 -0.14803332957E+02 -0.26184079121E+02  0.83854589240E+02  0.89184130890E+02  0.41800000000E+01 0.  1.
        -11    1    1    2    0    0 -0.24237513927E+02  0.25312783788E+02 -0.21748563451E+01  0.35113019018E+02  0.00000000000E+00 0.  1.
         11    1    1    2    0    0  0.45900519332E+02 -0.39445367082E+02  0.16450480787E+01  0.60543379839E+02  0.00000000000E+00 0. -1.
</event>
<event>
 7    1  0.2594791E-009  0.9375305E+02  0.7561462E-02  0.1294009E+00
          3   -1    0    0  501    0  0.00000000000E+00  0.00000000000E+00  0.12151765912E+03  0.12151765912E+03  0.00000000000E+00 0. -1.
         -3   -1    0    0    0  501 -0.00000000000E+00 -0.00000000000E+00 -0.13035005367E+03  0.13035005367E+03  0.00000000000E+00 0.  1.
         25    2    1    2    0    0  0.56598126038E+01 -0.42508511884E+02  0.42273408251E+02  0.13883014594E+03  0.12509101213E+03 0.  0.
          5    1    3    3  502    0 -0.86751832258E+01  0.22876303465E+02 -0.30857993982E+02  0.39601417358E+02  0.41800000000E+01 0. -1.
         -5    1    3    3    0  502  0.14334995830E+02 -0.65384815348E+02  0.73131402233E+02  0.99228728583E+02  0.41800000000E+01 0. -1.
        -11    1    1    2    0    0  0.35919638565E+02  0.40292826234E+02 -0.46313320264E+02  0.71124228744E+02  0.00000000000E+00 0.  1.
         11    1    1    2    0    0 -0.41579451169E+02  0.22156856495E+01 -0.47924825366E+01  0.41913338107E+02  0.00000000000E+00 0. -1.
</event>
<event>
 7    1  0.2594791E-009  0.1039874E+03  0.7561462E-02  0.1272128E+00
          2   -1    0    0  501    0  0.00000000000E+00  0.00000000000E+00  0.94943913766E+03  0.94943913766E+03  0.00000000000E+00 0. -1.
         -2   -1    0    0    0  501 -0.00000000000E+00 -0.00000000000E+00 -0.22690357471E+02  0.22690357471E+02  0.00000000000E+00 0.  1.
         25    2    1    2    0    0 -0.39206696511E+02 -0.45552237767E+02  0.71658114066E+03  0.72989545446E+03  0.12508665746E+03 0.  0.
          5    1    3    3  502    0 -0.73017434771E+02  0.73900415958E+01  0.45120486811E+03  0.45715365458E+03  0.41800000000E+01 0.  1.
         -5    1    3    3    0  502  0.33810738259E+02 -0.52942279363E+02  0.26537627256E+03  0.27274179988E+03  0.41800000000E+01 0.  1.
        -11    1    1    2    0    0  0.31329232753E+02  0.69234300035E+01  0.40030370806E+01  0.32333867906E+02  0.00000000000E+00 0.  1.
         11    1    1    2    0    0  0.78774637582E+01  0.38628807764E+02  0.20616460245E+03  0.20990017276E+03  0.00000000000E+00 0. -1.
</event>
<event>
 7    1  0.2594791E-009  0.8691548E+02  0.7561462E-02  0.1310498E+00
         -3   -1    0    0    0  501 -0.00000000000E+00  0.00000000000E+00  0.29989700144E+03  0.29989700144E+03  0.00000000000E+00 0.  1.
          3   -1    0    0  501    0  0.00000000000E+00 -0.00000000000E+00 -0.54157626082E+02  0.54157626082E+02  0.00000000000E+00 0. -1.
         25    2    1    2    0    0  0.61556160727E+02 -0.27972554217E+02  0.13793757715E+03  0.19810475859E+03  0.12508835067E+03 0.  0.
          5    1    3    3  502    0  0.18668067930E+02 -0.33903832344E+02 -0.12986401788E+02  0.41037612495E+02  0.41800000000E+01 0.  1.
         -5    1    3    3    0  502  0.42888092798E+02  0.59312781276E+01  0.15092397893E+03  0.15706714609E+03  0.41800000000E+01 0.  1.
        -11    1    1    2    0    0 -0.31263398946E+01  0.32639444803E+02 -0.51179256785E+00  0.32792823755E+02  0.00000000000E+00 0. -1.
         11    1    1    2    0    0 -0.58429820833E+02 -0.46668905859E+01  0.10831359078E+03  0.12315704518E+03  0.00000000000E+00 0.  1.
</event>
<event>
 7    1  0.2594791E-009  0.1403126E+03  0.7561462E-02  0.1212909E+00
          1   -1    0    0  501    0  0.00000000000E+00  0.00000000000E+00  0.24745981518E+03  0.24745981518E+03  0.00000000000E+00 0.  1.
         -1   -1    0    0    0  501 -0.00000000000E+00 -0.00000000000E+00 -0.16333625920E+03  0.16333625920E+03  0.00000000000E+00 0. -1.
         25    2    1    2    0    0  0.97143007580E+02 -0.57271502572E+02 -0.85237610983E+02  0.18875824304E+03  0.12508970806E+03 0.  0.
          5    1    3    3  502    0  0.28667656842E+01 -0.62820306602E+02 -0.67914292574E+02  0.92652214236E+02  0.41800000000E+01 0. -1.
         -5    1    3    3    0  502  0.94276241896E+02  0.55488040298E+01 -0.17323318409E+02  0.96106028806E+02  0.41800000000E+01 0. -1.
        -11    1    1    2    0    0 -0.31509758591E+02 -0.58043043486E+01  0.10700646014E+03  0.11170021194E+03  0.00000000000E+00 0. -1.
         11    1    1    2    0    0 -0.65633248989E+02  0.63075806921E+02  0.62354706818E+02  0.11033761940E+03  0.00000000000E+00 0.  1.
</event>
<event>
 7    1  0.2594791E-009  0.2077918E+03  0.7561462E-02  0.1143327E+00
         -2   -1    0    0    0  501 -0.00000000000E+00  0.00000000000E+00  0.11705299660E+03  0.11705299660E+03  0.00000000000E+00 0.  1.
          2   -1    0    0  501    0  0.00000000000E+00 -0.00000000000E+00 -0.42036428000E+03  0.42036428000E+03  0.00000000000E+00 0. -1.
         25    2    1    2    0    0  0.16878058287E+03 -0.65574658357E+02 -0.77572865898E+02  0.23334927266E+03  0.12508961809E+03 0.  0.
          5    1    3    3  502    0  0.35635435802E+02 -0.70559314034E+02 -0.80823609853E-01  0.79157943468E+02  0.41800000000E+01 0.  1.
         -5    1    3    3    0  502  0.13314514706E+03  0.49846556768E+01 -0.77492042288E+02  0.15419132919E+03  0.41800000000E+01 0.  1.
        -11    1    1    2    0    0 -0.13688687332E+03  0.89240138986E+02 -0.19040977119E+03  0.25091372912E+03  0.00000000000E+00 0.  1.
         11    1    1    2    0    0 -0.31893709544E+02 -0.23665480630E+02 -0.35328646310E+02  0.53154274824E+02  0.00000000000E+00 0. -1.
</event>
<event>
 7    1  0.3102145E-009  0.9684475E+02  0.7561462E-02  0.1287074E+00
         -1   -1    0    0    0  501 -0.00000000000E+00  0.00000000000E+00  0.16412477461E+03  0.16412477461E+03  0.00000000000E+00 0.  1.
          1   -1    0    0  501    0  0.00000000000E+00 -0.00000000000E+00 -0.12889151211E+03  0.12889151211E+03  0.00000000000E+00 0. -1.
         25    2    1    2    0    0 -0.30593718602E+02 -0.61564296626E+02 -0.49083651743E+02  0.15094239751E+03  0.12509302243E+03 0.  0.
          5    1    3    3  502    0  0.31923152669E+02 -0.27755641720E+02  0.24080487706E+02  0.48854944599E+02  0.41800000000E+01 0. -1.
         -5    1    3    3    0  502 -0.62516871271E+02 -0.33808654906E+02 -0.73164139449E+02  0.10208745291E+03  0.41800000000E+01 0. -1.
        -11    1    1    2    0    0 -0.20432223948E+01  0.41759839615E+02 -0.76449177278E+01  0.42502984948E+02  0.00000000000E+00 0. -1.
         11    1    1    2    0    0  0.32636940997E+02  0.19804457012E+02  0.91961831971E+02  0.99570904257E+02  0.00000000000E+00 0.  1.
</event>
<event>
 7    1  0.2594791E-009  0.1491942E+03  0.7561462E-02  0.1201467E+00
          2   -1    0    0  501    0  0.00000000000E+00  0.00000000000E+00  0.85482564620E+03  0.85482564620E+03  0.00000000000E+00 0. -1.
         -2   -1    0    0    0  501 -0.00000000000E+00 -0.00000000000E+00 -0.32793941544E+02  0.32793941544E+02  0.00000000000E+00 0.  1.
         25    2    1    2    0    0 -0.40762271929E+02 -0.12034592699E+03  0.45136643726E+03  0.48530798945E+03  0.12508988361E+03 0.  0.
          5    1    3    3  502    0 -0.57770216419E+02 -0.91533817107E+02  0.16767713186E+03  0.19962196905E+03  0.41800000000E+01 0.  1.
         -5    1    3    3    0  502  0.17007944490E+02 -0.28812109882E+02  0.28368930540E+03  0.28568602039E+03  0.41800000000E+01 0.  1.
        -11    1    1    2    0    0 -0.23648803827E+02  0.72084205884E+02  0.17463883472E+03  0.19040515028E+03  0.00000000000E+00 0. -1.
         11    1    1    2    0    0  0.64411075756E+02  0.48261721105E+02  0.19602643268E+03  0.21190644802E+03  0.00000000000E+00 0.  1.
</event>
<event>
 7    1  0.2594791E-009  0.1027842E+03  0.7561462E-02  0.1274548E+00
          1   -1    0    0  501    0  0.00000000000E+00  0.00000000000E+00  0.49125404828E+03  0.49125404828E+03  0.00000000000E+00 0. -1.
         -1   -1    0    0    0  501 -0.00000000000E+00 -0.00000000000E+00 -0.36060219007E+02  0.36060219007E+02  0.00000000000E+00 0.  1.
         25    2    1    2    0    0 -0.69105171523E+02 -0.35838389163E+02  0.24040230344E+03  0.28195859997E+03  0.12508984663E+03 0.  0.
          5    1    3    3  502    0 -0.24064981671E+02 -0.38192313228E+02  0.23137282423E+03  0.23577241638E+03  0.41800000000E+01 0. -1.
         -5    1    3    3    0  502 -0.45040189852E+02  0.23539240648E+01  0.90294792141E+01  0.46186183597E+02  0.41800000000E+01 0. -1.
        -11    1    1    2    0    0  0.77125264388E+02 -0.11065795583E+01  0.17041819283E+03  0.18706119686E+03  0.00000000000E+00 0. -1.
         11    1    1    2    0    0 -0.80200928648E+01  0.36944968721E+02  0.44373333007E+02  0.58294470454E+02  0.00000000000E+00 0.  1.
</event>
<event>
 7    1  0.2594791E-009  0.1445054E+03  0.7561462E-02  0.1207392E+00
          1   -1    0    0  501    0  0.00000000000E+00  0.00000000000E+00  0.10689146885E+04  0.10689146885E+04  0.00000000000E+00 0. -1.
         -1   -1    0    0    0  501 -0.00000000000E+00 -0.00000000000E+00 -0.23326986364E+02  0.23326986364E+02  0.00000000000E+00 0.  1.
         25    2    1    2    0    0  0.11016832789E+03  0.32647425568E+02  0.58446046896E+03  0.60864156953E+03  0.12509038935E+03 0.  0.
          5    1    3    3  502    0  0.63591834686E+02  0.72432529223E+02  0.45816748841E+03  0.46821502813E+03  0.41800000000E+01 0. -1.
         -5    1    3    3    0  502  0.46576493205E+02 -0.39785103655E+02  0.12629298055E+03  0.14042654140E+03  0.41800000000E+01 0. -1.
        -11    1    1    2    0    0 -0.50598144876E+02  0.17219870158E+02  0.29997775126E+03  0.30470206341E+03  0.00000000000E+00 0.  1.
         11    1    1    2    0    0 -0.59570183015E+02 -0.49867295726E+02  0.16114948194E+03  0.17889804196E+03  0.00000000000E+00 0. -1.
</event>
<event>
 7    1  0.2594791E-009  0.1010636E+03  0.7561462E-02  0.1278075E+00
          2   -1    0    0  501    0  0.00000000000E+00  0.00000000000E+00  0.47690341454E+03  0.47690341454E+03  0.00000000000E+00 0. -1.
         -2   -1    0    0    0  501 -0.00000000000E+00 -0.00000000000E+00 -0.29169739026E+02  0.29169739026E+02  0.00000000000E+00 0.  1.
         25    2    1    2    0    0  0.33723121381E+02  0.16562289635E+02  0.30966569140E+03  0.33608272035E+03  0.12508875301E+03 0.  0.
          5    1    3    3  502    0  0.58031641865E+02  0.55869050357E+02  0.15683739752E+03  0.17636457668E+03  0.41800000000E+01 0.  1.
         -5    1    3    3    0  502 -0.24308520484E+02 -0.39306760722E+02  0.15282829388E+03  0.15971814367E+03  0.41800000000E+01 0.  1.
        -11    1    1    2    0    0  0.80107773385E+01  0.18750860681E+02 -0.11503377428E+01  0.20422796253E+02  0.00000000000E+00 0.  1.
         11    1    1    2    0    0 -0.41733898720E+02 -0.35313150317E+02  0.13921832186E+03  0.14956763697E+03  0.00000000000E+00 0. -1.
</event>
<event>
 7    1  0.2594791E-009  0.1586837E+03  0.7561462E-02  0.1190191E+00
         -2   -1    0    0    0  501 -0.00000000000E+00  0.00000000000E+00  0.38152239429E+02  0.38152239429E+02  0.00000000000E+00 0.  1.
          2   -1    0    0  501    0  0.00000000000E+00 -0.00000000000E+00 -0.75762379735E+03  0.75762379735E+03  0.00000000000E+00 0. -1.
         25    2    1    2    0    0  0.72871127441E+02  0.10685990316E+03 -0.35479886265E+03  0.39781902007E+03  0.12509396338E+03 0.  0.
          5    1    3    3  502    0  0.14252991550E+02  0.11601437245E+03 -0.19597053853E+03  0.22822008403E+03  0.41800000000E+01 0. -1.
         -5    1    3    3    0  502  0.58618135890E+02 -0.91544692926E+01 -0.15882832412E+03  0.16959893604E+03  0.41800000000E+01 0. -1.
        -11    1    1    2    0    0 -0.38587189967E+02 -0.98287889553E+02 -0.17015597680E+03  0.20025617819E+03  0.00000000000E+00 0.  1.
         11    1    1    2    0    0 -0.34283937474E+02 -0.85720136063E+01 -0.19451671847E+03  0.19770083852E+03  0.00000000000E+00 0. -1.
</event>
<event>
 7    1  0.2594791E-009  0.1594338E+03  0.7561462E-02  0.1189337E+00
         -2   -1    0    0    0  501 -0.00000000000E+00  0.00000000000E+00  0.11674147932E+03  0.11674147932E+03  0.00000000000E+00 0.  1.
          2   -1    0    0  501    0  0.00000000000E+00 -0.00000000000E+00 -0.28619708290E+03  0.28619708290E+03  0.00000000000E+00 0. -1.
         25    2    1    2    0    0 -0.11419414934E+02 -0.12867426537E+03 -0.16566590989E+03  0.24449264981E+03  0.12507594695E+03 0.  0.
          5    1    3    3  502    0  0.52735985584E+02 -0.69866493106E+02 -0.54307190440E+02  0.10309779032E+03  0.41800000000E+01 0.  1.
         -5    1    3    3    0  502 -0.64155400518E+02 -0.58807772262E+02 -0.11135871945E+03  0.14139485950E+03  0.41800000000E+01 0.  1.
        -11    1    1    2    0    0  0.36779213036E+02  0.54816617392E+02 -0.34560717588E+02  0.74511846400E+02  0.00000000000E+00 0. -1.
         11    1    1    2    0    0 -0.25359798101E+02  0.73857647976E+02  0.30771023898E+02  0.83934066004E+02  0.00000000000E+00 0.  1.
</event>
<event>
 7    1  0.2594791E-009  0.1180817E+03  0.7561462E-02  0.1246296E+00
          2   -1    0    0  501    0  0.00000000000E+00  0.00000000000E+00  0.47122506651E+03  0.47122506651E+03  0.00000000000E+00 0. -1.
         -2   -1    0    0    0  501 -0.00000000000E+00 -0.00000000000E+00 -0.84518271726E+02  0.84518271726E+02  0.00000000000E+00 0.  1.
         25    2    1    2    0    0 -0.28103822859E+02 -0.74237964039E+02  0.40823622410E+03  0.43428726213E+03  0.12509001247E+03 0.  0.
          5    1    3    3  502    0 -0.48621821746E+02 -0.81311886164E+02  0.16705285188E+03  0.19209329010E+03  0.41800000000E+01 0.  1.
         -5    1    3    3    0  502  0.20517998887E+02  0.70739221244E+01  0.24118337222E+03  0.24219397203E+03  0.41800000000E+01 0.  1.
        -11    1    1    2    0    0 -0.25516462823E+02  0.57741881286E+02 -0.70771956186E+01  0.63524022443E+02  0.00000000000E+00 0. -1.
         11    1    1    2    0    0  0.53620285682E+02  0.16496082753E+02 -0.14452233695E+02  0.57932053663E+02  0.00000000000E+00 0.  1.
</event>
<event>
 7    1  0.2594791E-009  0.1047749E+03  0.7561462E-02  0.1270564E+00
          2   -1    0    0  501    0  0.00000000000E+00  0.00000000000E+00  0.71683482543E+02  0.71683482543E+02  0.00000000000E+00 0. -1.
         -2   -1    0    0    0  501 -0.00000000000E+00 -0.00000000000E+00 -0.23917328656E+03  0.23917328656E+03  0.00000000000E+00 0.  1.
         25    2    1    2    0    0  0.66023226122E+02 -0.12813060012E+02 -0.12877910615E+03  0.19171559975E+03  0.12509025586E+03 0.  0.
          5    1    3    3  502    0  0.41006639386E+02 -0.68678134521E+02 -0.64328726012E+02  0.10273211779E+03  0.41800000000E+01 0.  1.
         -5    1    3    3    0  502  0.25016586736E+02  0.55865074509E+02 -0.64450380134E+02  0.88983481957E+02  0.41800000000E+01 0.  1.
        -11    1    1    2    0    0 -0.20710532928E+02  0.91384953395E+01 -0.63462022285E+02  0.67378531772E+02  0.00000000000E+00 0.  1.
         11    1    1    2    0    0 -0.45312693193E+02  0.36745646720E+01  0.24751324412E+02  0.51762637589E+02  0.00000000000E+00 0. -1.
</event>
<event>
 7    1  0.2594791E-009  0.1560802E+03  0.7561462E-02  0.1193195E+00
          2   -1    0    0  501    0  0.00000000000E+00  0.00000000000E+00  0.82208336449E+03  0.82208336449E+03  0.00000000000E+00 0. -1.
         -2   -1    0    0    0  501 -0.00000000000E+00 -0.00000000000E+00 -0.38226043922E+02  0.38226043922E+02  0.00000000000E+00 0.  1.
         25    2    1    2    0    0  0.12100915823E+03 -0.41829724329E+02  0.53805186255E+03  0.56704556554E+03  0.12509166396E+03 0.  0.
          5    1    3    3  502    0  0.25206929241E-01 -0.48112162438E+02  0.24840867146E+03  0.25305952119E+03  0.41800000000E+01 0. -1.
         -5    1    3    3    0  502  0.12098395130E+03  0.62824381096E+01  0.28964319109E+03  0.31398604435E+03  0.41800000000E+01 0. -1.
        -11    1    1    2    0    0 -0.51306625269E+02 -0.14180118956E+02  0.33494623300E+02  0.62891456972E+02  0.00000000000E+00 0. -1.
         11    1    1    2    0    0 -0.69702532958E+02  0.56009843285E+02  0.21231083472E+03  0.23037238590E+03  0.00000000000E+00 0.  1.
</event>
<event>
 7    1  0.2594791E-009  0.1151394E+03  0.7561462E-02  0.1251338E+00
         -1   -1    0    0    0  501 -0.00000000000E+00  0.00000000000E+00  0.52250820008E+02  0.52250820008E+02  0.00000000000E+00 0.  1.
          1   -1    0    0  501    0  0.00000000000E+00 -0.00000000000E+00 -0.31453035560E+03  0.31453035560E+03  0.00000000000E+00 0. -1.
         25    2    1    2    0    0  0.31879831272E+02  0.58215493000E+02 -0.12833276050E+03  0.19110751789E+03  0.12508964269E+03 0.  0.
          5    1    3    3  502    0  0.64774708419E+02  0.77717404658E+02 -0.78328359158E+02  0.12801781941E+03  0.41800000000E+01 0.  1.
         -5    1    3    3    0  502 -0.32894877147E+02 -0.19501911658E+02 -0.50004401347E+02  0.63089698485E+02  0.41800000000E+01 0.  1.
        -11    1    1    2    0    0 -0.38663669141E+02 -0.75000215647E+01 -0.11424737993E+03  0.12084532864E+03  0.00000000000E+00 0. -1.
         11    1    1    2    0    0  0.67838378691E+01 -0.50715471435E+02 -0.19699395163E+02  0.54828329073E+02  0.00000000000E+00 0.  1.
</event>
<event>
 7    1  0.2594791E-009  0.1447934E+03  0.7561462E-02  0.1207021E+00
          1   -1    0    0  501    0  0.00000000000E+00  0.00000000000E+00  0.36766442661E+03  0.36766442661E+03  0.00000000000E+00 0. -1.
         -1   -1    0    0    0  501 -0.00000000000E+00 -0.00000000000E+00 -0.86162615341E+02  0.86162615341E+02  0.00000000000E+00 0.  1.
         25    2    1    2    0    0 -0.13193314855E+03 -0.18195663570E+02  0.90262178193E+02  0.20379370281E+03  0.12508866708E+03 0.  0.
          5    1    3    3  502    0 -0.94982529862E+02 -0.42882888952E+02  0.13501163874E+01  0.10430684713E+03  0.41800000000E+01 0.  1.
         -5    1    3    3    0  502 -0.36950618692E+02  0.24687225382E+02  0.88912061805E+02  0.99486855681E+02  0.41800000000E+01 0.  1.
        -11    1    1    2    0    0  0.36700341238E+02  0.26188650361E+02  0.12730113680E+03  0.13504939795E+03  0.00000000000E+00 0. -1.
         11    1    1    2    0    0  0.95232807315E+02 -0.79929867905E+01  0.63938496279E+02  0.11498394120E+03  0.00000000000E+00 0.  1.
</event>
<event>
 7    1  0.2594791E-009  0.1231503E+03  0.7561462E-02  0.1237989E+00
         -2   -1    0    0    0  501 -0.00000000000E+00  0.00000000000E+00  0.42434282018E+02  0.42434282018E+02  0.00000000000E+00 0.  1.
          2   -1    0    0  501    0  0.00000000000E+00 -0.00000000000E+00 -0.45786790883E+03  0.45786790883E+03  0.00000000000E+00 0. -1.
         25    2    1    2    0    0  0.41452327972E+02  0.57778023837E+02 -0.13708366686E+03  0.19873114997E+03  0.12508214387E+03 0.  0.
          5    1    3    3  502    0  0.37282947866E+02  0.92146138979E+02 -0.12904544222E+03  0.16294516774E+03  0.41800000000E+01 0.  1.
         -5    1    3    3    0  502  0.41693801060E+01 -0.34368115143E+02 -0.80382246334E+01  0.35785982230E+02  0.41800000000E+01 0.  1.
        -11    1    1    2    0    0 -0.27941544467E+02 -0.80661534269E+02 -0.17290985495E+03  0.19283368730E+03  0.00000000000E+00 0. -1.
         11    1    1    2    0    0 -0.13510783506E+02  0.22883510432E+02 -0.10544010500E+03  0.10873735358E+03  0.00000000000E+00 0.  1.
</event>
<event>
 7    1  0.2594791E-009  0.2057215E+03  0.7561462E-02  0.1145000E+00
          2   -1    0    0  501    0  0.00000000000E+00  0.00000000000E+00  0.11577819559E+03  0.11577819559E+03  0.00000000000E+00 0. -1.
         -2   -1    0    0    0  501 -0.00000000000E+00 -0.00000000000E+00 -0.44071924656E+03  0.44071924656E+03  0.00000000000E+00 0.  1.
         25    2    1    2    0    0  0.18819585030E+03  0.36874717650E+02 -0.23220261325E+03  0.32610259979E+03  0.12508968431E+03 0.  0.
          5    1    3    3  502    0  0.16213970482E+03 -0.10003711749E+02 -0.21524300420E+03  0.26969683236E+03  0.41800000000E+01 0.  1.
         -5    1    3    3    0  502  0.26056145478E+02  0.46878429399E+02 -0.16959609042E+02  0.56405767426E+02  0.41800000000E+01 0.  1.
        -11    1    1    2    0    0 -0.12678408029E+03 -0.73283120560E+01 -0.16380533632E+02  0.12804776083E+03  0.00000000000E+00 0.  1.
         11    1    1    2    0    0 -0.61411770006E+02 -0.29546405594E+02 -0.76357904095E+02  0.10234708152E+03  0.00000000000E+00 0. -1.
</event>
<event>
 7    1  0.2955083E-009  0.1148158E+03  0.7561462E-02  0.1251903E+00
          4   -1    0    0  501    0  0.00000000000E+00  0.00000000000E+00  0.96842750483E+03  0.96842750483E+03  0.00000000000E+00 0. -1.
         -4   -1    0    0    0  501 -0.00000000000E+00 -0.00000000000E+00 -0.23578904351E+02  0.23578904351E+02  0.00000000000E+00 0.  1.
         25    2    1    2    0    0 -0.81434778046E+02  0.29392437817E+02  0.70381517422E+03  0.72006930243E+03  0.12509381429E+03 0.  0.
          5    1    3    3  502    0 -0.32427040449E+02  0.71249079555E+02  0.50442217277E+03  0.51047736980E+03  0.41800000000E+01 0. -1.
         -5    1    3    3    0  502 -0.49007737597E+02 -0.41856641738E+02  0.19939300144E+03  0.20959193264E+03  0.41800000000E+01 0. -1.
        -11    1    1    2    0    0  0.18580350482E+02 -0.50906771204E+01 -0.23395013469E+01  0.19406640207E+02  0.00000000000E+00 0.  1.
         11    1    1    2    0    0  0.62854427564E+02 -0.24301760697E+02  0.24337292761E+03  0.25253046654E+03  0.00000000000E+00 0. -1.
</event>
<event>
 7    1  0.2594791E-009  0.2372216E+03  0.7561462E-02  0.1121658E+00
         -2   -1    0    0    0  501 -0.00000000000E+00  0.00000000000E+00  0.10822139218E+03  0.10822139218E+03  0.00000000000E+00 0. -1.
          2   -1    0    0  501    0  0.00000000000E+00 -0.00000000000E+00 -0.10237859429E+04  0.10237859429E+04  0.00000000000E+00 0.  1.
         25    2    1    2    0    0 -0.20628065822E+03 -0.10041855551E+03 -0.99378834887E+02  0.27956971728E+03  0.12508987868E+03 0.  0.
          5    1    3    3  502    0 -0.13277468132E+03 -0.17283873186E+02 -0.10218521056E+03  0.16848482997E+03  0.41800000000E+01 0.  1.
         -5    1    3    3    0  502 -0.73505976901E+02 -0.83134682321E+02  0.28063756698E+01  0.11108488731E+03  0.41800000000E+01 0.  1.
        -11    1    1    2    0    0  0.66912008290E+02  0.31509439547E+02 -0.42679378867E+03  0.43315470640E+03  0.00000000000E+00 0.  1.
         11    1    1    2    0    0  0.13936864993E+03  0.68909115959E+02 -0.38939192720E+03  0.41928291143E+03  0.00000000000E+00 0. -1.
</event>
<event>
 7    1  0.2594791E-009  0.2294151E+03  0.7561462E-02  0.1127052E+00
         -2   -1    0    0    0  501 -0.00000000000E+00  0.00000000000E+00  0.24272890034E+03  0.24272890034E+03  0.00000000000E+00 0.  1.
          2   -1    0    0  501    0  0.00000000000E+00 -0.00000000000E+00 -0.23105248061E+03  0.23105248061E+03  0.00000000000E+00 0. -1.
         25    2    1    2    0    0 -0.18196046036E+03  0.10211873633E+03 -0.21625238984E+02  0.24424025609E+03  0.12509119189E+03 0.  0.
          5    1    3    3  502    0 -0.17959519018E+03  0.48128248904E+02 -0.32925484410E+02  0.18887117462E+03  0.41800000000E+01 0. -1.
         -5    1    3    3    0  502 -0.23652701750E+01  0.53990487427E+02  0.11300245427E+02  0.55369081466E+02  0.41800000000E+01 0. -1.
        -11    1    1    2    0    0  0.63044192594E+02 -0.18027920520E+01  0.38472005395E+02  0.73877706232E+02  0.00000000000E+00 0.  1.
         11    1    1    2    0    0  0.11891626776E+03 -0.10031594428E+03 -0.51703466782E+01  0.15566341863E+03  0.00000000000E+00 0. -1.
</event>
<event>
 7    1  0.2594791E-009  0.1039664E+03  0.7561462E-02  0.1272169E+00
         -1   -1    0    0    0  501 -0.00000000000E+00  0.00000000000E+00  0.30309434215E+03  0.30309434215E+03  0.00000000000E+00 0.  1.
          1   -1    0    0  501    0  0.00000000000E+00 -0.00000000000E+00 -0.42791908533E+02  0.42791908533E+02  0.00000000000E+00 0. -1.
         25    2    1    2    0    0 -0.32201843538E+02 -0.10654288050E+02  0.13920388179E+03  0.19019883658E+03  0.12508958450E+03 0.  0.
          5    1    3    3  502    0  0.35530400284E+02 -0.40269713869E+02  0.43748810619E+02  0.69393731922E+02  0.41800000000E+01 0.  1.
         -5    1    3    3    0  502 -0.67732243822E+02  0.29615425818E+02  0.95455071175E+02  0.12080510466E+03  0.41800000000E+01 0.  1.
        -11    1    1    2    0    0  0.41095119857E+02  0.35079481244E+02  0.31826804081E+02  0.62708247770E+02  0.00000000000E+00 0. -1.
         11    1    1    2    0    0 -0.88932763188E+01 -0.24425193193E+02  0.89271747742E+02  0.92979166328E+02  0.00000000000E+00 0.  1.
</event>
<event>
 7    1  0.2594791E-009  0.6965953E+02  0.7561462E-02  0.1361255E+00
         -2   -1    0    0    0  501 -0.00000000000E+00  0.00000000000E+00  0.38614760398E+02  0.38614760398E+02  0.00000000000E+00 0.  1.
          2   -1    0    0  501    0  0.00000000000E+00 -0.00000000000E+00 -0.45015916365E+03  0.45015916365E+03  0.00000000000E+00 0. -1.
         25    2    1    2    0    0 -0.20592435481E+01 -0.41717645663E+02 -0.33789699310E+03  0.36272094053E+03  0.12508996886E+03 0.  0.
          5    1    3    3  502    0 -0.10554477858E+02 -0.56754311093E+02 -0.33994245809E+03  0.34483444729E+03  0.41800000000E+01 0.  1.
         -5    1    3    3    0  502  0.84952343100E+01  0.15036665430E+02  0.20454649867E+01  0.17886493235E+02  0.41800000000E+01 0.  1.
        -11    1    1    2    0    0 -0.19807057612E+02  0.35969112831E+02  0.75640931660E+01  0.41752989288E+02  0.00000000000E+00 0.  1.
         11    1    1    2    0    0  0.21866301160E+02  0.57485328320E+01 -0.81211503320E+02  0.84299994232E+02  0.00000000000E+00 0. -1.
</event>
<event>
 7    1  0.2594791E-009  0.1451127E+03  0.7561462E-02  0.1206610E+00
          3   -1    0    0  501    0  0.00000000000E+00  0.00000000000E+00  0.19035793842E+03  0.19035793842E+03  0.00000000000E+00 0. -1.
         -3   -1    0    0    0  501 -0.00000000000E+00 -0.00000000000E+00 -0.12363363420E+03  0.12363363420E+03  0.00000000000E+00 0.  1.
         25    2    1    2    0    0  0.89666976786E+02 -0.74437958225E+02  0.17495958522E+02  0.17185688858E+03  0.12508998856E+03 0.  0.
          5    1    3    3  502    0  0.48205875476E+02 -0.10213754452E+03 -0.12191956666E+02  0.11367497807E+03  0.41800000000E+01 0.  1.
         -5    1    3    3    0  502  0.41461101311E+02  0.27699586298E+02  0.29687915187E+02  0.58181910515E+02  0.41800000000E+01 0.  1.
        -11    1    1    2    0    0  0.38015400442E+01  0.17093444241E+02 -0.70522217327E+01  0.18877801092E+02  0.00000000000E+00 0.  1.
         11    1    1    2    0    0 -0.93468516830E+02  0.57344513985E+02  0.56280567425E+02  0.12325688294E+03  0.00000000000E+00 0. -1.
</event>
<event>
 7    1  0.2594791E-009  0.1290387E+03  0.7561462E-02  0.1228889E+00
          1   -1    0    0  501    0  0.00000000000E+00  0.00000000000E+00  0.32766521861E+02  0.32766521861E+02  0.00000000000E+00 0. -1.
         -1   -1    0    0    0  501 -0.00000000000E+00 -0.00000000000E+00 -0.60378599646E+03  0.60378599646E+03  0.00000000000E+00 0.  1.
         25    2    1    2    0    0  0.26341883104E+02  0.82133853827E+02 -0.35707553051E+03  0.38805954678E+03  0.12508961831E+03 0.  0.
          5    1    3    3  502    0 -0.21329643796E+02  0.80945179475E+02 -0.30919959545E+03  0.32035751592E+03  0.41800000000E+01 0.  1.
         -5    1    3    3    0  502  0.47671526900E+02  0.11886743519E+01 -0.47875935059E+02  0.67702030852E+02  0.41800000000E+01 0.  1.
        -11    1    1    2    0    0  0.34864940071E+02 -0.29615915475E+02 -0.78329955109E+02  0.90709692773E+02  0.00000000000E+00 0. -1.
         11    1    1    2    0    0 -0.61206823175E+02 -0.52517938352E+02 -0.13561398898E+03  0.15778327877E+03  0.00000000000E+00 0.  1.
</event>
<event>
 7    1  0.2594791E-009  0.1020410E+03  0.7561462E-02  0.1276062E+00
          2   -1    0    0  501    0  0.00000000000E+00  0.00000000000E+00  0.68257727061E+02  0.68257727061E+02  0.00000000000E+00 0. -1.
         -2   -1    0    0    0  501 -0.00000000000E+00 -0.00000000000E+00 -0.18210379680E+03  0.18210379680E+03  0.00000000000E+00 0.  1.
         25    2    1    2    0    0 -0.85516966552E+01 -0.15646397677E+02 -0.41446408727E+02  0.13297991282E+03  0.12509161099E+03 0.  0.
          5    1    3    3  502    0  0.55371445568E+02  0.81215649557E+01 -0.30212966547E+02  0.63735802726E+02  0.41800000000E+01 0. -1.
         -5    1    3    3    0  502 -0.63923142223E+02 -0.23767962633E+02 -0.11233442179E+02  0.69244110093E+02  0.41800000000E+01 0. -1.
        -11    1    1    2    0    0  0.35421752618E+02 -0.15357870649E+02 -0.56327958452E+01  0.39016575175E+02  0.00000000000E+00 0.  1.
         11    1    1    2    0    0 -0.26870055962E+02  0.31004268327E+02 -0.66766865164E+02  0.78365035863E+02  0.00000000000E+00 0. -1.
</event>
<event>
 7    1  0.2594791E-009  0.1513363E+03  0.7561462E-02  0.1198840E+00
         -1   -1    0    0    0  501 -0.00000000000E+00  0.00000000000E+00  0.43384931562E+02  0.43384931562E+02  0.00000000000E+00 0.  1.
          1   -1    0    0  501    0  0.00000000000E+00 -0.00000000000E+00 -0.10704459360E+04  0.10704459360E+04  0.00000000000E+00 0. -1.
         25    2    1    2    0    0 -0.93853355781E+02  0.88066269311E+02 -0.88064834206E+03  0.89875094244E+03  0.12509050320E+03 0.  0.
          5    1    3    3  502    0 -0.64135291481E+02 -0.12753934247E+02 -0.48300173766E+03  0.48742604509E+03  0.41800000000E+01 0. -1.
         -5    1    3    3    0  502 -0.29718064300E+02  0.10082020356E+03 -0.39764660440E+03  0.41132489735E+03  0.41800000000E+01 0. -1.
        -11    1    1    2    0    0  0.29454457578E+02 -0.47355338564E+02 -0.69979277143E+01  0.56205552697E+02  0.00000000000E+00 0.  1.
         11    1    1    2    0    0  0.64398898203E+02 -0.40710930747E+02 -0.13941473470E+03  0.15887437246E+03  0.00000000000E+00 0. -1.
</event>
<event>
 7    1  0.2594791E-009  0.1251352E+03  0.7561462E-02  0.1234858E+00
         -1   -1    0    0    0  501 -0.00000000000E+00  0.00000000000E+00  0.15522662138E+03  0.15522662138E+03  0.00000000000E+00 0.  1.
          1   -1    0    0  501    0  0.00000000000E+00 -0.00000000000E+00 -0.10920194430E+03  0.10920194430E+03  0.00000000000E+00 0. -1.
         25    2    1    2    0    0 -0.54140755709E+02 -0.42337248241E+02  0.44815969936E+02  0.14959941575E+03  0.12509136666E+03 0.  0.
          5    1    3    3  502    0 -0.31072233124E+02  0.42472868457E+02  0.50250043701E+01  0.53029720867E+02  0.41800000000E+01 0. -1.
         -5    1    3    3    0  502 -0.23068522585E+02 -0.84810116698E+02  0.39790965566E+02  0.96569694880E+02  0.41800000000E+01 0. -1.
        -11    1    1    2    0    0  0.68183960946E+02  0.57230078949E+02  0.14824468053E+02  0.90244663664E+02  0.00000000000E+00 0.  1.
         11    1    1    2    0    0 -0.14043205237E+02 -0.14892830708E+02 -0.13615760913E+02  0.24584486268E+02  0.00000000000E+00 0. -1.
</event>
<event>
 7    1  0.2594791E-009  0.1184588E+03  0.7561462E-02  0.1245661E+00
          2   -1    0    0  501    0  0.00000000000E+00  0.00000000000E+00  0.43080337555E+02  0.43080337555E+02  0.00000000000E+00 0. -1.
         -2   -1    0    0    0  501 -0.00000000000E+00 -0.00000000000E+00 -0.53570626000E+03  0.53570626000E+03  0.00000000000E+00 0.  1.
         25    2    1    2    0    0  0.97045341717E+02  0.63183050914E+01 -0.34501929275E+03  0.37965699412E+03  0.12507358427E+03 0.  0.
          5    1    3    3  502    0  0.10200635201E+02  0.28676091743E+02 -0.92364778828E+01  0.32080463211E+02  0.41800000000E+01 0. -1.
         -5    1    3    3    0  502  0.86844706516E+02 -0.22357786651E+02 -0.33578281487E+03  0.34757653091E+03  0.41800000000E+01 0. -1.
        -11    1    1    2    0    0 -0.41555373090E+02  0.28974350328E+02 -0.17943673257E+02  0.53743254643E+02  0.00000000000E+00 0. -1.
         11    1    1    2    0    0 -0.55489968627E+02 -0.35292655420E+02 -0.12966295643E+03  0.14538634879E+03  0.00000000000E+00 0.  1.
</event>
<event>
 7    1  0.2594791E-009  0.1211643E+03  0.7561462E-02  0.1241189E+00
          1   -1    0    0  501    0  0.00000000000E+00  0.00000000000E+00  0.72439478579E+02  0.72439478579E+02  0.00000000000E+00 0. -1.
         -1   -1    0    0    0  501 -0.00000000000E+00 -0.00000000000E+00 -0.78057533672E+03  0.78057533672E+03  0.00000000000E+00 0.  1.
         25    2    1    2    0    0  0.68828935888E+02  0.94334176508E+02 -0.68141798558E+03  0.70257712914E+03  0.12509113495E+03 0.  0.
          5    1    3    3  502    0  0.46748895910E+02  0.27945538683E+02 -0.55782971617E+03  0.56049788317E+03  0.41800000000E+01 0.  1.
         -5    1    3    3    0  502  0.22080039978E+02  0.66388637825E+02 -0.12358826942E+03  0.14207924597E+03  0.41800000000E+01 0.  1.
        -11    1    1    2    0    0 -0.51202676855E+02 -0.79576166183E+02  0.21484202344E+02  0.97034278953E+02  0.00000000000E+00 0. -1.
         11    1    1    2    0    0 -0.17626259033E+02 -0.14758010325E+02 -0.48202074903E+02  0.53403407206E+02  0.00000000000E+00 0.  1.
</event>
<event>
 7    1  0.2594791E-009  0.1275381E+03  0.7561462E-02  0.1231155E+00
         -1   -1    0    0    0  501 -0.00000000000E+00  0.00000000000E+00  0.22438369555E+02  0.22438369555E+02  0.00000000000E+00 0.  1.
          1   -1    0    0  501    0  0.00000000000E+00 -0.00000000000E+00 -0.91767770941E+03  0.91767770941E+03  0.00000000000E+00 0. -1.
         25    2    1    2    0    0  0.90150519758E+02 -0.13707355145E+02 -0.55996217764E+03  0.58097126763E+03  0.12511980507E+03 0.  0.
          5    1    3    3  502    0  0.57252193834E+01 -0.39067016179E+02 -0.52133909155E+02  0.65531876014E+02  0.41800000000E+01 0. -1.
         -5    1    3    3    0  502  0.84425300374E+02  0.25359661034E+02 -0.50782826849E+03  0.51543939161E+03  0.41800000000E+01 0. -1.
        -11    1    1    2    0    0 -0.47699286023E+01  0.38041889150E+02 -0.76653444978E+02  0.85706990240E+02  0.00000000000E+00 0. -1.
         11    1    1    2    0    0 -0.85380591155E+02 -0.24334534005E+02 -0.25862371723E+03  0.27343782110E+03  0.00000000000E+00 0.  1.
</event>
<event>
 7    1  0.2594791E-009  0.2231869E+03  0.7561462E-02  0.1131529E+00
          2   -1    0    0  501    0  0.00000000000E+00  0.00000000000E+00  0.25530863077E+03  0.25530863077E+03  0.00000000000E+00 0. -1.
         -2   -1    0    0    0  501 -0.00000000000E+00 -0.00000000000E+00 -0.20325046911E+03  0.20325046911E+03  0.00000000000E+00 0.  1.
         25    2    1    2    0    0 -0.17364187108E+03  0.93557783168E+02  0.57845061885E+02  0.24061759726E+03  0.12508484617E+03 0.  0.
          5    1    3    3  502    0 -0.97398624689E+02 -0.12741672828E+02  0.20491361132E+01  0.98338769957E+02  0.41800000000E+01 0.  1.
         -5    1    3    3    0  502 -0.76243246387E+02  0.10629945600E+03  0.55795925771E+02  0.14227882730E+03  0.41800000000E+01 0.  1.
        -11    1    1    2    0    0  0.20267073193E+02  0.18328975978E+02  0.50301400104E+01  0.27785030588E+02  0.00000000000E+00 0.  1.
         11    1    1    2    0    0  0.15337479788E+03 -0.11188675915E+03 -0.10817040229E+02  0.19015647204E+03  0.00000000000E+00 0. -1.
</event>
<event>
 7    1  0.2594791E-009  0.1759146E+03  0.7561462E-02  0.1171816E+00
         -1   -1    0    0    0  501 -0.00000000000E+00  0.00000000000E+00  0.22085814786E+03  0.22085814786E+03  0.00000000000E+00 0.  1.
          1   -1    0    0  501    0  0.00000000000E+00 -0.00000000000E+00 -0.17470643587E+03  0.17470643587E+03  0.00000000000E+00 0. -1.
         25    2    1    2    0    0 -0.15947872770E+03 -0.99509462874E+01  0.56721906429E+02  0.21070188640E+03  0.12508167069E+03 0.  0.
          5    1    3    3  502    0 -0.15951407605E+03 -0.17005841364E+02  0.84765151187E+02  0.18148427578E+03  0.41800000000E+01 0. -1.
         -5    1    3    3    0  502  0.35348346843E-01  0.70548950769E+01 -0.28043244757E+02  0.29217610624E+02  0.41800000000E+01 0. -1.
        -11    1    1    2    0    0  0.21300149915E+02 -0.32274961928E+02 -0.11600503866E+02  0.40372530807E+02  0.00000000000E+00 0. -1.
         11    1    1    2    0    0  0.13817857779E+03  0.42225908216E+02  0.10303094348E+01  0.14449016652E+03  0.00000000000E+00 0.  1.
</event>
<event>
 7    1  0.2594791E-009  0.1305427E+03  0.7561462E-02  0.1226653E+00
          2   -1    0    0  501    0  0.00000000000E+00  0.00000000000E+00  0.29909622525E+03  0.29909622525E+03  0.00000000000E+00 0.  1.
         -2   -1    0    0    0  501 -0.00000000000E+00 -0.00000000000E+00 -0.63669184698E+02  0.63669184698E+02  0.00000000000E+00 0. -1.
         25    2    1    2    0    0  0.44733773613E+02 -0.58637958972E+02  0.73493905275E+02  0.16275302844E+03  0.12509066080E+03 0.  0.
          5    1    3    3  502    0  0.32160278460E+00 -0.89597098827E+02  0.35419277790E+02  0.96435165711E+02  0.41800000000E+01 0. -1.
         -5    1    3    3    0  502  0.44412170828E+02  0.30959139854E+02  0.38074627486E+02  0.66317862725E+02  0.41800000000E+01 0. -1.
        -11    1    1    2    0    0 -0.55393301396E+02  0.77597705621E+02  0.12594524200E+03  0.15796210222E+03  0.00000000000E+00 0. -1.
         11    1    1    2    0    0  0.10659527783E+02 -0.18959746649E+02  0.35987893279E+02  0.42050279288E+02  0.00000000000E+00 0.  1.
</event>
<event>
 7    1  0.2594791E-009  0.1786720E+03  0.7561462E-02  0.1169095E+00
          1   -1    0    0  501    0  0.00000000000E+00  0.00000000000E+00  0.43466125185E+03  0.43466125185E+03  0.00000000000E+00 0. -1.
         -1   -1    0    0    0  501 -0.00000000000E+00 -0.00000000000E+00 -0.85269243656E+02  0.85269243656E+02  0.00000000000E+00 0.  1.
         25    2    1    2    0    0  0.15549960989E+03  0.32006870868E+02  0.17044057777E+03  0.26439191671E+03  0.12509407105E+03 0.  0.
          5    1    3    3  502    0  0.78200256476E+02  0.62992114214E+02  0.37110361591E+02  0.10713513851E+03  0.41800000000E+01 0.  1.
         -5    1    3    3    0  502  0.77299353415E+02 -0.30985243346E+02  0.13333021618E+03  0.15725677820E+03  0.41800000000E+01 0.  1.
        -11    1    1    2    0    0 -0.11008285558E+03  0.11353136418E+02  0.14996966036E+03  0.18638140418E+03  0.00000000000E+00 0. -1.
         11    1    1    2    0    0 -0.45416754313E+02 -0.43360007286E+02  0.28981770072E+02  0.69157174615E+02  0.00000000000E+00 0.  1.
</event>
<event>
 7    1  0.2594791E-009  0.9721886E+02  0.7561462E-02  0.1286255E+00
         -1   -1    0    0    0  501 -0.00000000000E+00  0.00000000000E+00  0.14790128276E+03  0.14790128276E+03  0.00000000000E+00 0.  1.
          1   -1    0    0  501    0  0.00000000000E+00 -0.00000000000E+00 -0.14331494679E+03  0.14331494679E+03  0.00000000000E+00 0. -1.
         25    2    1    2    0    0 -0.35432048421E+02  0.89657919276E+02  0.98087150676E+01  0.15823331542E+03  0.12509036203E+03 0.  0.
          5    1    3    3  502    0 -0.25965534198E+02  0.51325009875E+02 -0.56635137671E+02  0.80829925300E+02  0.41800000000E+01 0.  1.
         -5    1    3    3    0  502 -0.94665142232E+01  0.38332909400E+02  0.66443852739E+02  0.77403390116E+02  0.41800000000E+01 0.  1.
        -11    1    1    2    0    0  0.34718024506E+02 -0.77950173883E+02 -0.41476760877E+02  0.94878303773E+02  0.00000000000E+00 0. -1.
         11    1    1    2    0    0  0.71402391485E+00 -0.11707745393E+02  0.36254381786E+02  0.38104610364E+02  0.00000000000E+00 0.  1.
</event>
<event>
 7    1  0.2594791E-009  0.9598400E+02  0.7561462E-02  0.1288975E+00
         -2   -1    0    0    0  501 -0.00000000000E+00  0.00000000000E+00  0.15885314436E+03  0.15885314436E+03  0.00000000000E+00 0.  1.
          2   -1    0    0  501    0  0.00000000000E+00 -0.00000000000E+00 -0.77541101680E+02  0.77541101680E+02  0.00000000000E+00 0. -1.
         25    2    1    2    0    0 -0.14620650618E+02  0.81591890362E+01  0.67868786033E+02  0.14330143784E+03  0.12509514051E+03 0.  0.
          5    1    3    3  502    0  0.50941295733E+02  0.10429496964E+02  0.55948512050E+02  0.76495087545E+02  0.41800000000E+01 0. -1.
         -5    1    3    3    0  502 -0.65561946352E+02 -0.22703079277E+01  0.11920273983E+02  0.66806350292E+02  0.41800000000E+01 0. -1.
        -11    1    1    2    0    0 -0.26899398231E+02  0.10069931761E+02  0.32965847753E+02  0.43723314935E+02  0.00000000000E+00 0.  1.
         11    1    1    2    0    0  0.41520048849E+02 -0.18229120798E+02 -0.19522591109E+02  0.49369493264E+02  0.00000000000E+00 0. -1.
</event>
<event>
 7    1  0.2594791E-009  0.1097670E+03  0.7561462E-02  0.1261002E+00
          3   -1    0    0  501    0  0.00000000000E+00  0.00000000000E+00  0.26307483228E+03  0.26307483228E+03  0.00000000000E+00 0. -1.
         -3   -1    0    0    0  501 -0.00000000000E+00 -0.00000000000E+00 -0.53599443001E+02  0.53599443001E+02  0.00000000000E+00 0.  1.
         25    2    1    2    0    0  0.29622978298E+02  0.33954977544E+02  0.10653307653E+03  0.17037713780E+03  0.12509440973E+03 0.  0.
          5    1    3    3  502    0  0.71981953524E+02  0.46478357900E+02  0.52957594996E+02  0.10081477399E+03  0.41800000000E+01 0. -1.
         -5    1    3    3    0  502 -0.42358975226E+02 -0.12523380356E+02  0.53575481533E+02  0.69562363813E+02  0.41800000000E+01 0. -1.
        -11    1    1    2    0    0  0.16608036831E+02 -0.39469278668E+02  0.12555828916E+02  0.44623981061E+02  0.00000000000E+00 0.  1.
         11    1    1    2    0    0 -0.46231015128E+02  0.55143011244E+01  0.90386483832E+02  0.10167315642E+03  0.00000000000E+00 0. -1.
</event>
<event>
 7    1  0.2594791E-009  0.6636878E+02  0.7561462E-02  0.1372895E+00
          3   -1    0    0  501    0  0.00000000000E+00  0.00000000000E+00  0.13857622357E+03  0.13857622357E+03  0.00000000000E+00 0. -1.
         -3   -1    0    0    0  501 -0.00000000000E+00 -0.00000000000E+00 -0.10447343356E+03  0.10447343356E+03  0.00000000000E+00 0.  1.
         25    2    1    2    0    0 -0.43860708073E+02 -0.41295607795E+01  0.47622884609E+02  0.14091612405E+03  0.12509436396E+03 0.  0.
          5    1    3    3  502    0 -0.31121750721E+02  0.31707134667E-01  0.90503423117E+02  0.95796170953E+02  0.41800000000E+01 0. -1.
         -5    1    3    3    0  502 -0.12738957351E+02 -0.41612679142E+01 -0.42880538508E+02  0.45119953100E+02  0.41800000000E+01 0. -1.
        -11    1    1    2    0    0  0.39214046200E+02 -0.32158401431E+02  0.18030302132E+02  0.53823749376E+02  0.00000000000E+00 0. -1.
         11    1    1    2    0    0  0.46466618730E+01  0.36287962210E+02 -0.31550396722E+02  0.48309783701E+02  0.00000000000E+00 0.  1.
</event>
<event>
 7    1  0.2594791E-009  0.1026963E+03  0.7561462E-02  0.1274726E+00
         -2   -1    0    0    0  501 -0.00000000000E+00  0.00000000000E+00  0.26507831033E+02  0.26507831033E+02  0.00000000000E+00 0.  1.
          2   -1    0    0  501    0  0.00000000000E+00 -0.00000000000E+00 -0.55609833130E+03  0.55609833130E+03  0.00000000000E+00 0. -1.
         25    2    1    2    0    0 -0.37133152098E+02 -0.19740793223E+02 -0.21168397961E+03  0.24945589901E+03  0.12509823510E+03 0.  0.
          5    1    3    3  502    0 -0.48823319777E+02  0.39999945088E+02 -0.14952129424E+03  0.16235086077E+03  0.41800000000E+01 0.  1.
         -5    1    3    3    0  502  0.11690167679E+02 -0.59740738310E+02 -0.62162685374E+02  0.87105038242E+02  0.41800000000E+01 0.  1.
        -11    1    1    2    0    0 -0.13386686791E+02  0.26947378665E+02 -0.37213655947E+02  0.47856251306E+02  0.00000000000E+00 0.  1.
         11    1    1    2    0    0  0.50519838889E+02 -0.72065854422E+01 -0.28069286470E+03  0.28529401201E+03  0.00000000000E+00 0. -1.
</event>
<event>
 7    1  0.2594791E-009  0.6575150E+02  0.7561462E-02  0.1375167E+00
          2   -1    0    0  501    0  0.00000000000E+00  0.00000000000E+00  0.48020804766E+02  0.48020804766E+02  0.00000000000E+00 0.  1.
         -2   -1    0    0    0  501 -0.00000000000E+00 -0.00000000000E+00 -0.24415428202E+03  0.24415428202E+03  0.00000000000E+00 0. -1.
         25    2    1    2    0    0 -0.72567990571E+01  0.29720764780E+01 -0.11944807142E+03  0.17313735339E+03  0.12508879646E+03 0.  0.
          5    1    3    3  502    0 -0.19880775221E+02  0.24032331587E+02  0.16080472879E+02  0.35339102888E+02  0.41800000000E+01 0. -1.
         -5    1    3    3    0  502  0.12623976164E+02 -0.21060255109E+02 -0.13552854430E+03  0.13779825050E+03  0.41800000000E+01 0. -1.
        -11    1    1    2    0    0  0.97854751427E+01 -0.38390805974E+02 -0.61827208751E+01  0.40097824686E+02  0.00000000000E+00 0.  1.
         11    1    1    2    0    0 -0.25286760856E+01  0.35418729496E+02 -0.70502684957E+02  0.78939908716E+02  0.00000000000E+00 0. -1.
</event>
<event>
 7    1  0.2594791E-009  0.2923012E+03  0.7561462E-02  0.1089154E+00
         -2   -1    0    0    0  501 -0.00000000000E+00  0.00000000000E+00  0.21614651057E+03  0.21614651057E+03  0.00000000000E+00 0.  1.
          2   -1    0    0  501    0  0.00000000000E+00 -0.00000000000E+00 -0.51059089918E+03  0.51059089918E+03  0.00000000000E+00 0. -1.
         25    2    1    2    0    0  0.23511102251E+03  0.16179553880E+03 -0.29332473965E+03  0.42795076373E+03  0.12508982376E+03 0.  0.
          5    1    3    3  502    0  0.22372296213E+03  0.13799540074E+03 -0.19844493682E+03  0.32938208779E+03  0.41800000000E+01 0.  1.
         -5    1    3    3    0  502  0.11388060380E+02  0.23800138051E+02 -0.94879802832E+02  0.98568675937E+02  0.41800000000E+01 0.  1.
        -11    1    1    2    0    0 -0.10112055750E+03 -0.11484515310E+03 -0.24275954512E+02  0.15493256051E+03  0.00000000000E+00 0.  1.
         11    1    1    2    0    0 -0.13399046501E+03 -0.46950385700E+02  0.23156305556E+02  0.14385408551E+03  0.00000000000E+00 0. -1.
</event>
<event>
 7    1  0.2594791E-009  0.1225820E+03  0.7561462E-02  0.1238897E+00
          2   -1    0    0  501    0  0.00000000000E+00  0.00000000000E+00  0.23907352793E+03  0.23907352793E+03  0.00000000000E+00 0. -1.
         -2   -1    0    0    0  501 -0.00000000000E+00 -0.00000000000E+00 -0.82801799064E+02  0.82801799064E+02  0.00000000000E+00 0.  1.
         25    2    1    2    0    0 -0.42491236767E+02 -0.77561093768E+02  0.94699582286E+02  0.18010252127E+03  0.12509068236E+03 0.  0.
          5    1    3    3  502    0  0.97217677138E+01 -0.66069267621E+02 -0.47880924594E+01  0.67082479984E+02  0.41800000000E+01 0. -1.
         -5    1    3    3    0  502 -0.52213004481E+02 -0.11491826147E+02  0.99487674745E+02  0.11302004128E+03  0.41800000000E+01 0. -1.
        -11    1    1    2    0    0  0.50951550233E+01  0.86114443353E+02  0.56394763989E+02  0.10306322023E+03  0.00000000000E+00 0. -1.
         11    1    1    2    0    0  0.37396081744E+02 -0.85533495851E+01  0.51773825901E+01  0.38709585498E+02  0.00000000000E+00 0.  1.
</event>
<event>
 7    1  0.2594791E-009  0.1082510E+03  0.7561462E-02  0.1263843E+00
         -2   -1    0    0    0  501 -0.00000000000E+00  0.00000000000E+00  0.27573429138E+02  0.27573429138E+02  0.00000000000E+00 0.  1.
          2   -1    0    0  501    0  0.00000000000E+00 -0.00000000000E+00 -0.56331428823E+03  0.56331428823E+03  0.00000000000E+00 0. -1.
         25    2    1    2    0    0  0.44428644018E+02  0.12735271130E+02 -0.39886480397E+03  0.42056708312E+03  0.12508975984E+03 0.  0.
          5    1    3    3  502    0  0.34734214929E-01 -0.53157460473E+02 -0.17764415964E+03  0.18547408623E+03  0.41800000000E+01 0. -1.
         -5    1    3    3    0  502  0.44393909803E+02  0.65892731604E+02 -0.22122064433E+03  0.23509299688E+03  0.41800000000E+01 0. -1.
        -11    1    1    2    0    0 -0.59287845026E+02  0.61298351275E+01 -0.43193383160E+02  0.73609046967E+02  0.00000000000E+00 0.  1.
         11    1    1    2    0    0  0.14859201008E+02 -0.18865106258E+02 -0.93682671959E+02  0.96711587279E+02  0.00000000000E+00 0. -1.
</event>
<event>
 7    1  0.2594791E-009  0.1874204E+03  0.7561462E-02  0.1160809E+00
          2   -1    0    0  501    0  0.00000000000E+00  0.00000000000E+00  0.64579354256E+02  0.64579354256E+02  0.00000000000E+00 0. -1.
         -2   -1    0    0    0  501 -0.00000000000E+00 -0.00000000000E+00 -0.73791530576E+03  0.73791530576E+03  0.00000000000E+00 0.  1.
         25    2    1    2    0    0 -0.12371257378E+03 -0.13790732229E+03 -0.27392338788E+03  0.35355986722E+03  0.12508927546E+03 0.  0.
          5    1    3    3  502    0 -0.39838199628E+02 -0.20717518482E+02 -0.12465250793E+01  0.45114564682E+02  0.41800000000E+01 0. -1.
         -5    1    3    3    0  502 -0.83874374148E+02 -0.11718980381E+03 -0.27267686280E+03  0.30844530254E+03  0.41800000000E+01 0. -1.
        -11    1    1    2    0    0  0.42677447768E+02  0.40169745715E+02 -0.49548824205E+02  0.76746719793E+02  0.00000000000E+00 0.  1.
         11    1    1    2    0    0  0.81035126007E+02  0.97737576573E+02 -0.34986373942E+03  0.37218807300E+03  0.00000000000E+00 0. -1.
</event>
<event>
 7    1  0.2594791E-009  0.7731849E+02  0.7561462E-02  0.1336838E+00
          1   -1    0    0  501    0  0.00000000000E+00  0.00000000000E+00  0.59566594507E+03  0.59566594507E+03  0.00000000000E+00 0. -1.
         -1   -1    0    0    0  501 -0.00000000000E+00 -0.00000000000E+00 -0.42276993734E+02  0.42276993734E+02  0.00000000000E+00 0.  1.
         25    2    1    2    0    0 -0.75422518567E+02 -0.11079320896E+02  0.45269363937E+03  0.47580465262E+03  0.12508888308E+03 0.  0.
          5    1    3    3  502    0 -0.59981609399E+02 -0.11490621631E+02  0.45546858776E+03  0.45956385268E+03  0.41800000000E+01 0. -1.
         -5    1    3    3    0  502 -0.15440909168E+02  0.41130073529E+00 -0.27749483889E+01  0.16240799943E+02  0.41800000000E+01 0. -1.
        -11    1    1    2    0    0  0.50008123833E+02  0.82576735509E+00 -0.74571069243E+01  0.50567803835E+02  0.00000000000E+00 0.  1.
         11    1    1    2    0    0  0.25414394733E+02  0.10253553541E+02  0.10815241889E+03  0.11157048235E+03  0.00000000000E+00 0. -1.
</event>
<event>
 7    1  0.2791141E-009  0.9440880E+02  0.7561462E-02  0.1292513E+00
         -2   -1    0    0    0  501 -0.00000000000E+00  0.00000000000E+00  0.10092171352E+03  0.10092171352E+03  0.00000000000E+00 0.  1.
          2   -1    0    0  501    0  0.00000000000E+00 -0.00000000000E+00 -0.26922657275E+03  0.26922657275E+03  0.00000000000E+00 0. -1.
         25    2    1    2    0    0  0.16836075014E+02 -0.66399712492E+02  0.25886416252E+02  0.14495155538E+03  0.12509385125E+03 0.  0.
          5    1    3    3  502    0  0.39449147515E+02 -0.64215579160E+02  0.64943947753E+02  0.99574417378E+02  0.41800000000E+01 0. -1.
         -5    1    3    3    0  502 -0.22613072501E+02 -0.21841333322E+01 -0.39057531501E+02  0.45377138003E+02  0.41800000000E+01 0. -1.
        -11    1    1    2    0    0  0.15495464315E+02  0.53034850836E+02 -0.43006491114E+02  0.70016877218E+02  0.00000000000E+00 0.  1.
         11    1    1    2    0    0 -0.32331539328E+02  0.13364861657E+02 -0.15118478436E+03  0.15517985367E+03  0.00000000000E+00 0. -1.
</event>
<event>
 7    1  0.2594791E-009  0.1647780E+03  0.7561462E-02  0.1183406E+00
          2   -1    0    0  501    0  0.00000000000E+00  0.00000000000E+00  0.21398562604E+03  0.21398562604E+03  0.00000000000E+00 0. -1.
         -2   -1    0    0    0  501 -0.00000000000E+00 -0.00000000000E+00 -0.14590051047E+03  0.14590051047E+03  0.00000000000E+00 0.  1.
         25    2    1    2    0    0  0.10057841085E+03 -0.73815271143E+02 -0.24688875730E+02  0.17839218063E+03  0.12509803572E+03 0.  0.
          5    1    3    3  502    0 -0.27474151043E+02 -0.26555411160E+02 -0.15752902095E+02  0.41540885425E+02  0.41800000000E+01 0. -1.
         -5    1    3    3    0  502  0.12805256190E+03 -0.47259859983E+02 -0.89359736344E+01  0.13685129520E+03  0.41800000000E+01 0. -1.
        -11    1    1    2    0    0 -0.11086141610E+03  0.37838358048E+02  0.80421343673E+02  0.14209006805E+03  0.00000000000E+00 0.  1.
         11    1    1    2    0    0  0.10283005250E+02  0.35976913095E+02  0.12352647624E+02  0.39403887830E+02  0.00000000000E+00 0. -1.
</event>
<event>
 7    1  0.2594791E-009  0.1285930E+03  0.7561462E-02  0.1229559E+00
         -2   -1    0    0    0  501 -0.00000000000E+00  0.00000000000E+00  0.67868376772E+02  0.67868376772E+02  0.00000000000E+00 0. -1.
          2   -1    0    0  501    0  0.00000000000E+00 -0.00000000000E+00 -0.37746545613E+03  0.37746545613E+03  0.00000000000E+00 0.  1.
         25    2    1    2    0    0 -0.69316565145E+02  0.20341198544E+02 -0.29574412019E+03  0.32913752765E+03  0.12509347273E+03 0.  0.
          5    1    3    3  502    0 -0.85596956526E+02 -0.28577432044E+02 -0.21547133678E+03  0.23364262873E+03  0.41800000000E+01 0. -1.
         -5    1    3    3    0  502  0.16280391381E+02  0.48918630588E+02 -0.80272783412E+02  0.95494898916E+02  0.41800000000E+01 0. -1.
        -11    1    1    2    0    0 -0.98576441078E+01 -0.33447940234E+02 -0.76906501426E+01  0.35708317698E+02  0.00000000000E+00 0. -1.
         11    1    1    2    0    0  0.79174209253E+02  0.13106741690E+02 -0.61623090280E+01  0.80487987558E+02  0.00000000000E+00 0.  1.
</event>
<event>
 7    1  0.2594791E-009  0.1253515E+03  0.7561462E-02  0.1234521E+00
         -1   -1    0    0    0  501 -0.00000000000E+00  0.00000000000E+00  0.59926338449E+03  0.59926338449E+03  0.00000000000E+00 0.  1.
          1   -1    0    0  501    0  0.00000000000E+00 -0.00000000000E+00 -0.56596974435E+02  0.56596974435E+02  0.00000000000E+00 0. -1.
         25    2    1    2    0    0 -0.10768603619E+03  0.27894969377E+02  0.11117529655E+03  0.20095505259E+03  0.12509426401E+03 0.  0.
          5    1    3    3  502    0 -0.67682864401E+02  0.11076291017E+02  0.13484970620E+03  0.15134586224E+03  0.41800000000E+01 0. -1.
         -5    1    3    3    0  502 -0.40003171788E+02  0.16818678361E+02 -0.23674409641E+02  0.49609190346E+02  0.41800000000E+01 0. -1.
        -11    1    1    2    0    0  0.64570559557E+02  0.25799721872E+02  0.27987638572E+03  0.28838476745E+03  0.00000000000E+00 0.  1.
         11    1    1    2    0    0  0.43115476632E+02 -0.53694691249E+02  0.15161472778E+03  0.16652053889E+03  0.00000000000E+00 0. -1.
</event>
<event>
 7    1  0.2594791E-009  0.8515715E+02  0.7561462E-02  0.1315022E+00
         -1   -1    0    0    0  501 -0.00000000000E+00  0.00000000000E+00  0.95905759613E+02  0.95905759613E+02  0.00000000000E+00 0.  1.
          1   -1    0    0  501    0  0.00000000000E+00 -0.00000000000E+00 -0.16497539294E+03  0.16497539294E+03  0.00000000000E+00 0. -1.
         25    2    1    2    0    0 -0.41970454965E+02  0.20280882273E+02  0.71726182345E+01  0.13368434652E+03  0.12508886752E+03 0.  0.
          5    1    3    3  502    0 -0.21665818018E+02  0.41765414128E+02 -0.50248982746E+02  0.68965137241E+02  0.41800000000E+01 0.  1.
         -5    1    3    3    0  502 -0.20304636948E+02 -0.21484531856E+02  0.57421600980E+02  0.64719209280E+02  0.41800000000E+01 0.  1.
        -11    1    1    2    0    0  0.50569644695E+02  0.18236598841E+02 -0.17704392871E+02  0.56597774062E+02  0.00000000000E+00 0.  1.
         11    1    1    2    0    0 -0.85991897293E+01 -0.38517481113E+02 -0.58537858694E+02  0.70599031975E+02  0.00000000000E+00 0. -1.
</event>
<event>
 7    1  0.2594791E-009  0.1127171E+03  0.7561462E-02  0.1255619E+00
         -1   -1    0    0    0  501 -0.00000000000E+00  0.00000000000E+00  0.35412430078E+02  0.35412430078E+02  0.00000000000E+00 0. -1.
          1   -1    0    0  501    0  0.00000000000E+00 -0.00000000000E+00 -0.49101295778E+03  0.49101295778E+03  0.00000000000E+00 0.  1.
         25    2    1    2    0    0 -0.40293914209E+02 -0.62637587553E+02 -0.27168774809E+03  0.30823578038E+03  0.12509195396E+03 0.  0.
          5    1    3    3  502    0  0.78279999715E+00  0.31287934810E+02 -0.22557151861E+02  0.38805220533E+02  0.41800000000E+01 0.  1.
         -5    1    3    3    0  502 -0.41076714207E+02 -0.93925522363E+02 -0.24913059623E+03  0.26943055985E+03  0.41800000000E+01 0.  1.
        -11    1    1    2    0    0 -0.13035023324E+02  0.11934575364E+02  0.24340453588E+01  0.17840137303E+02  0.00000000000E+00 0. -1.
         11    1    1    2    0    0  0.53328937534E+02  0.50703012189E+02 -0.18634682496E+03  0.20034947017E+03  0.00000000000E+00 0.  1.
</event>
<event>
 7    1  0.2594791E-009  0.1339174E+03  0.7561462E-02  0.1221756E+00
          1   -1    0    0  501    0  0.00000000000E+00  0.00000000000E+00  0.29372449128E+03  0.29372449128E+03  0.00000000000E+00 0. -1.
         -1   -1    0    0    0  501 -0.00000000000E+00 -0.00000000000E+00 -0.63904891683E+02  0.63904891683E+02  0.00000000000E+00 0.  1.
         25    2    1    2    0    0 -0.74527606541E+02 -0.55658676682E+02  0.12983032102E+03  0.20286840537E+03  0.12508966869E+03 0.  0.
          5    1    3    3  502    0 -0.71968083688E+02 -0.92292405376E+02  0.11113525981E+03  0.16144909889E+03  0.41800000000E+01 0. -1.
         -5    1    3    3    0  502 -0.25595228526E+01  0.36633728695E+02  0.18695061204E+02  0.41419306473E+02  0.41800000000E+01 0. -1.
        -11    1    1    2    0    0  0.21896528113E+02  0.57057712359E+02  0.74217914083E+02  0.96142286502E+02  0.00000000000E+00 0.  1.
         11    1    1    2    0    0  0.52631078427E+02 -0.13990356768E+01  0.25771364493E+02  0.58618691090E+02  0.00000000000E+00 0. -1.
</event>
<event>
 7    1  0.2594791E-009  0.1308319E+03  0.7561462E-02  0.1226227E+00
         -1   -1    0    0    0  501 -0.00000000000E+00  0.00000000000E+00  0.30140325562E+02  0.30140325562E+02  0.00000000000E+00 0.  1.
          1   -1    0    0  501    0  0.00000000000E+00 -0.00000000000E+00 -0.83417164889E+03  0.83417164889E+03  0.00000000000E+00 0. -1.
         25    2    1    2    0    0  0.11271402347E+03  0.68405244394E+01 -0.50193729916E+03  0.52947122592E+03  0.12508989934E+03 0.  0.
          5    1    3    3  502    0  0.73556025951E+02 -0.20104267600E+02 -0.45890770708E+03  0.46521868680E+03  0.41800000000E+01 0.  1.
         -5    1    3    3    0  502  0.39157997519E+02  0.26944792040E+02 -0.43029592081E+02  0.64252539113E+02  0.41800000000E+01 0.  1.
        -11    1    1    2    0    0 -0.31122200099E+02 -0.38984579074E+02 -0.16251982553E+03  0.17000318360E+03  0.00000000000E+00 0. -1.
         11    1    1    2    0    0 -0.81591823371E+02  0.32144054635E+02 -0.13957419863E+03  0.16483756493E+03  0.00000000000E+00 0.  1.
</event>
<event>
 7    1  0.2594791E-009  0.1561169E+03  0.7561462E-02  0.1193152E+00
          1   -1    0    0  501    0  0.00000000000E+00  0.00000000000E+00  0.10981021485E+03  0.10981021485E+03  0.00000000000E+00 0. -1.
         -1   -1    0    0    0  501 -0.00000000000E+00 -0.00000000000E+00 -0.32086245950E+03  0.32086245950E+03  0.00000000000E+00 0.  1.
         25    2    1    2    0    0 -0.10049894779E+03 -0.83871136533E+02 -0.20106975047E+03  0.27057606093E+03  0.12509178288E+03 0.  0.
          5    1    3    3  502    0 -0.24268229397E+02 -0.95643318182E+02 -0.14364909136E+03  0.17432476909E+03  0.41800000000E+01 0.  1.
         -5    1    3    3    0  502 -0.76230718391E+02  0.11772181650E+02 -0.57420659116E+02  0.96251291839E+02  0.41800000000E+01 0.  1.
        -11    1    1    2    0    0  0.16893049997E+02  0.36282899754E+02 -0.42661976416E+02  0.58496736529E+02  0.00000000000E+00 0.  1.
         11    1    1    2    0    0  0.83605897791E+02  0.47588236779E+02  0.32679482239E+02  0.10159987689E+03  0.00000000000E+00 0. -1.
</event>
<event>
 7    1  0.2594791E-009  0.1568150E+03  0.7561462E-02  0.1192340E+00
          1   -1    0    0  501    0  0.00000000000E+00  0.00000000000E+00  0.70396793693E+03  0.70396793693E+03  0.00000000000E+00 0. -1.
         -1   -1    0    0    0  501 -0.00000000000E+00 -0.00000000000E+00 -0.38683537175E+02  0.38683537175E+02  0.00000000000E+00 0.  1.
         25    2    1    2    0    0  0.67334578933E+02 -0.10419551671E+03  0.33764674610E+03  0.38084464902E+03  0.12508665122E+03 0.  0.
          5    1    3    3  502    0 -0.36653896273E+01 -0.10239100187E+03  0.22985450692E+03  0.25169012515E+03  0.41800000000E+01 0.  1.
         -5    1    3    3    0  502  0.70999968560E+02 -0.18045148393E+01  0.10779223918E+03  0.12915452388E+03  0.41800000000E+01 0.  1.
        -11    1    1    2    0    0  0.98646297646E+01  0.34685041504E+02  0.16447137146E+03  0.16837813116E+03  0.00000000000E+00 0. -1.
         11    1    1    2    0    0 -0.77199208697E+02  0.69510475206E+02  0.16316628220E+03  0.19342869392E+03  0.00000000000E+00 0.  1.
</event>
<event>
 7    1  0.2594791E-009  0.9628304E+02  0.7561462E-02  0.1288312E+00
          1   -1    0    0  501    0  0.00000000000E+00  0.00000000000E+00  0.24905907790E+02  0.24905907790E+02  0.00000000000E+00 0. -1.
         -1   -1    0    0    0  501 -0.00000000000E+00 -0.00000000000E+00 -0.49535926867E+03  0.49535926867E+03  0.00000000000E+00 0.  1.
         25    2    1    2    0    0 -0.41879497540E+01  0.22536159079E+02 -0.24937810207E+03  0.27993461353E+03  0.12509409526E+03 0.  0.
          5    1    3    3  502    0 -0.58344801939E+02  0.36120614683E+02 -0.10981952806E+03  0.12956317324E+03  0.41800000000E+01 0. -1.
         -5    1    3    3    0  502  0.54156852185E+02 -0.13584455604E+02 -0.13955857402E+03  0.15037144029E+03  0.41800000000E+01 0. -1.
        -11    1    1    2    0    0  0.29346357159E+02 -0.29614492027E+02 -0.20596361535E+03  0.21014099472E+03  0.00000000000E+00 0.  1.
         11    1    1    2    0    0 -0.25158407405E+02  0.70783329472E+01 -0.15111643462E+02  0.30189568208E+02  0.00000000000E+00 0. -1.
</event>
<event>
 7    1  0.2594791E-009  0.1180640E+03  0.7561462E-02  0.1246326E+00
         -1   -1    0    0    0  501 -0.00000000000E+00  0.00000000000E+00  0.21110647848E+03  0.21110647848E+03  0.00000000000E+00 0.  1.
          1   -1    0    0  501    0  0.00000000000E+00 -0.00000000000E+00 -0.75119207024E+02  0.75119207024E+02  0.00000000000E+00 0. -1.
         25    2    1    2    0    0 -0.61822583233E+02  0.22950602457E+01  0.74352221310E+02  0.15812327244E+03  0.12508963736E+03 0.  0.
          5    1    3    3  502    0 -0.93302263181E+02  0.12715086204E+02  0.23284098004E+02  0.97090717125E+02  0.41800000000E+01 0. -1.
         -5    1    3    3    0  502  0.31479679948E+02 -0.10420025958E+02  0.51068123306E+02  0.61032555317E+02  0.41800000000E+01 0. -1.
        -11    1    1    2    0    0  0.22715380008E+02 -0.45082545632E+02  0.12240024336E+02  0.51944610937E+02  0.00000000000E+00 0. -1.
         11    1    1    2    0    0  0.39107203226E+02  0.42787485387E+02  0.49395025809E+02  0.76157802125E+02  0.00000000000E+00 0.  1.
</event>
<event>
 7    1  0.2594791E-009  0.1273867E+03  0.7561462E-02  0.1231386E+00
         -1   -1    0    0    0  501 -0.00000000000E+00  0.00000000000E+00  0.11246085808E+03  0.11246085808E+03  0.00000000000E+00 0.  1.
          1   -1    0    0  501    0  0.00000000000E+00 -0.00000000000E+00 -0.17469260273E+03  0.17469260273E+03  0.00000000000E+00 0. -1.
         25    2    1    2    0    0 -0.35159393792E+02  0.76606775381E+02 -0.66127664714E+01  0.15098066297E+03  0.12508657364E+03 0.  0.
          5    1    3    3  502    0 -0.80196746742E+01  0.10521768130E+03 -0.22984335345E+02  0.10807787799E+03  0.41800000000E+01 0. -1.
         -5    1    3    3    0  502 -0.27139719117E+02 -0.28610905919E+02  0.16371568873E+02  0.42902784976E+02  0.41800000000E+01 0. -1.
        -11    1    1    2    0    0  0.41780627575E+02 -0.10507682493E+02 -0.54839794305E+02  0.69738334303E+02  0.00000000000E+00 0.  1.
         11    1    1    2    0    0 -0.66212337831E+01 -0.66099092888E+02 -0.77918386971E+00  0.66434463533E+02  0.00000000000E+00 0. -1.
</event>
<event>
 7    1  0.2594791E-009  0.1055023E+03  0.7561462E-02  0.1269133E+00
         -2   -1    0    0    0  501 -0.00000000000E+00  0.00000000000E+00  0.32574133648E+03  0.32574133648E+03  0.00000000000E+00 0.  1.
          2   -1    0    0  501    0  0.00000000000E+00 -0.00000000000E+00 -0.58784186743E+02  0.58784186743E+02  0.00000000000E+00 0. -1.
         25    2    1    2    0    0  0.10885140169E+02  0.14715609551E+02  0.28024266843E+02  0.12949055328E+03  0.12508960155E+03 0.  0.
          5    1    3    3  502    0 -0.11545952805E+02 -0.51314180355E+02 -0.34316488261E+01  0.52874405390E+02  0.41800000000E+01 0. -1.
         -5    1    3    3    0  502  0.22431092974E+02  0.66029789906E+02  0.31455915669E+02  0.76616147891E+02  0.41800000000E+01 0. -1.
        -11    1    1    2    0    0  0.25950678441E+02  0.23709859879E+02  0.11219742886E+03  0.11757490468E+03  0.00000000000E+00 0.  1.
         11    1    1    2    0    0 -0.36835818610E+02 -0.38425469431E+02  0.12673545403E+03  0.13746006527E+03  0.00000000000E+00 0. -1.
</event>
<event>
 7    1  0.2594791E-009  0.2310718E+03  0.7561462E-02  0.1125888E+00
          2   -1    0    0  501    0  0.00000000000E+00  0.00000000000E+00  0.40863811707E+03  0.40863811707E+03  0.00000000000E+00 0.  1.
         -2   -1    0    0    0  501 -0.00000000000E+00 -0.00000000000E+00 -0.18312202255E+03  0.18312202255E+03  0.00000000000E+00 0. -1.
         25    2    1    2    0    0  0.21602442876E+03  0.10544364800E+02 -0.16837401949E+01  0.24985540213E+03  0.12508856679E+03 0.  0.
          5    1    3    3  502    0  0.22707014680E+03  0.15127659437E+02  0.15919130201E+02  0.22816789598E+03  0.41800000000E+01 0. -1.
         -5    1    3    3    0  502 -0.11045718043E+02 -0.45832946373E+01 -0.17602870396E+02  0.21687506150E+02  0.41800000000E+01 0. -1.
        -11    1    1    2    0    0 -0.17214498530E+03 -0.28433723392E+02  0.23621749320E+03  0.29366831066E+03  0.00000000000E+00 0.  1.
         11    1    1    2    0    0 -0.43879443457E+02  0.17889358592E+02 -0.90176584911E+01  0.48236426832E+02  0.00000000000E+00 0. -1.
</event>
<event>
 7    1  0.2594791E-009  0.2329024E+03  0.7561462E-02  0.1124613E+00
          2   -1    0    0  501    0  0.00000000000E+00  0.00000000000E+00  0.45411803462E+03  0.45411803462E+03  0.00000000000E+00 0. -1.
         -2   -1    0    0    0  501 -0.00000000000E+00 -0.00000000000E+00 -0.14152768358E+03  0.14152768358E+03  0.00000000000E+00 0.  1.
         25    2    1    2    0    0 -0.54300166908E+02  0.19970443345E+03  0.46422468288E+02  0.24623597129E+03  0.12508692629E+03 0.  0.
          5    1    3    3  502    0 -0.83745514844E+02  0.74356900667E+02  0.10889367991E+02  0.11259800473E+03  0.41800000000E+01 0.  1.
         -5    1    3    3    0  502  0.29445347936E+02  0.12534753278E+03  0.35533100297E+02  0.13363796656E+03  0.41800000000E+01 0.  1.
        -11    1    1    2    0    0  0.30371116573E+02 -0.19864641174E+03  0.24882170675E+03  0.31983596323E+03  0.00000000000E+00 0.  1.
         11    1    1    2    0    0  0.23929050335E+02 -0.10580217032E+01  0.17346176005E+02  0.29573783692E+02  0.00000000000E+00 0. -1.
</event>
<event>
 7    1  0.2594791E-009  0.1195254E+03  0.7561462E-02  0.1243882E+00
          1   -1    0    0  501    0  0.00000000000E+00  0.00000000000E+00  0.69519788367E+03  0.69519788367E+03  0.00000000000E+00 0. -1.
         -1   -1    0    0    0  501 -0.00000000000E+00 -0.00000000000E+00 -0.29820395460E+02  0.29820395460E+02  0.00000000000E+00 0.  1.
         25    2    1    2    0    0 -0.29731826856E+02 -0.90289663152E+02  0.35859579058E+03  0.39150981770E+03  0.12511111676E+03 0.  0.
          5    1    3    3  502    0 -0.33522794297E+02 -0.97736424741E+02  0.36552896269E+03  0.37987508660E+03  0.41800000000E+01 0.  1.
         -5    1    3    3    0  502  0.37909674416E+01  0.74467615889E+01 -0.69331721086E+01  0.11634731101E+02  0.41800000000E+01 0.  1.
        -11    1    1    2    0    0  0.58929207098E+02  0.64149194677E+02  0.16720660532E+03  0.18853598991E+03  0.00000000000E+00 0. -1.
         11    1    1    2    0    0 -0.29197380242E+02  0.26140468475E+02  0.13957509231E+03  0.14497247152E+03  0.00000000000E+00 0.  1.
</event>
<event>
 7    1  0.2594791E-009  0.1617655E+03  0.7561462E-02  0.1186718E+00
          1   -1    0    0  501    0  0.00000000000E+00  0.00000000000E+00  0.13274969241E+04  0.13274969241E+04  0.00000000000E+00 0. -1.
         -1   -1    0    0    0  501 -0.00000000000E+00 -0.00000000000E+00 -0.24360256611E+02  0.24360256611E+02  0.00000000000E+00 0.  1.
         25    2    1    2    0    0  0.10152946103E+03 -0.90372332584E+02  0.85460410689E+03  0.87433986524E+03  0.12508649205E+03 0.  0.
          5    1    3    3  502    0  0.91840601296E+02 -0.11446974505E+03  0.57302416611E+03  0.59153375722E+03  0.41800000000E+01 0.  1.
         -5    1    3    3    0  502  0.96888597291E+01  0.24097412470E+02  0.28157994077E+03  0.28280610802E+03  0.41800000000E+01 0.  1.
        -11    1    1    2    0    0 -0.65162535102E+02  0.15218292185E+02  0.29761248941E+03  0.30504253187E+03  0.00000000000E+00 0.  1.
         11    1    1    2    0    0 -0.36366925924E+02  0.75154040399E+02  0.15092007123E+03  0.17247478363E+03  0.00000000000E+00 0. -1.
</event>
<event>
 7    1  0.2594791E-009  0.2446624E+03  0.7561462E-02  0.1116725E+00
         -1   -1    0    0    0  501 -0.00000000000E+00  0.00000000000E+00  0.15851513926E+03  0.15851513926E+03  0.00000000000E+00 0.  1.
          1   -1    0    0  501    0  0.00000000000E+00 -0.00000000000E+00 -0.43090680764E+03  0.43090680764E+03  0.00000000000E+00 0. -1.
         25    2    1    2    0    0  0.12809368336E+03 -0.18461938347E+03 -0.22597224165E+03  0.34235184194E+03  0.12509604795E+03 0.  0.
          5    1    3    3  502    0  0.76835430436E+02 -0.13708801342E+02 -0.58811940521E+02  0.97815803183E+02  0.41800000000E+01 0.  1.
         -5    1    3    3    0  502  0.51258252924E+02 -0.17091058213E+03 -0.16716030113E+03  0.24453603876E+03  0.41800000000E+01 0.  1.
        -11    1    1    2    0    0 -0.58435580923E+02  0.13516326480E+03 -0.62796807121E+02  0.16008517812E+03  0.00000000000E+00 0. -1.
         11    1    1    2    0    0 -0.69658102436E+02  0.49456118667E+02  0.16377380400E+02  0.86984926840E+02  0.00000000000E+00 0.  1.
</event>
<event>
 7    1  0.2594791E-009  0.1212317E+03  0.7561462E-02  0.1241079E+00
         -2   -1    0    0    0  501 -0.00000000000E+00  0.00000000000E+00  0.26579173903E+03  0.26579173903E+03  0.00000000000E+00 0. -1.
          2   -1    0    0  501    0  0.00000000000E+00 -0.00000000000E+00 -0.78642658092E+02  0.78642658092E+02  0.00000000000E+00 0.  1.
         25    2    1    2    0    0  0.77268460349E+02 -0.37461395711E+02  0.15114738574E+03  0.21416701493E+03  0.12509279329E+03 0.  0.
          5    1    3    3  502    0  0.65172832809E+02  0.12315042006E+02  0.14289118941E+02  0.67976537983E+02  0.41800000000E+01 0. -1.
         -5    1    3    3    0  502  0.12095627539E+02 -0.49776437717E+02  0.13685826680E+03  0.14619047694E+03  0.41800000000E+01 0. -1.
        -11    1    1    2    0    0 -0.90648215691E+02  0.52281239825E+02  0.34745245676E+02  0.11026177553E+03  0.00000000000E+00 0. -1.
         11    1    1    2    0    0  0.13379755343E+02 -0.14819844114E+02  0.12564495179E+01  0.20005606664E+02  0.00000000000E+00 0.  1.
</event>
<event>
 7    1  0.2594791E-009  0.1082945E+03  0.7561462E-02  0.1263761E+00
          2   -1    0    0  501    0  0.00000000000E+00  0.00000000000E+00  0.70698494560E+03  0.70698494560E+03  0.00000000000E+00 0. -1.
         -2   -1    0    0    0  501 -0.00000000000E+00 -0.00000000000E+00 -0.27501025945E+02  0.27501025945E+02  0.00000000000E+00 0.  1.
         25    2    1    2    0    0 -0.57769072053E+02  0.64793737263E+02  0.39816615137E+03  0.42628500356E+03  0.12508847304E+03 0.  0.
          5    1    3    3  502    0 -0.11199810313E+02  0.46103246522E+02  0.35990839694E+03  0.36304610131E+03  0.41800000000E+01 0. -1.
         -5    1    3    3    0  502 -0.46569261740E+02  0.18690490741E+02  0.38257754432E+02  0.63238902246E+02  0.41800000000E+01 0. -1.
        -11    1    1    2    0    0 -0.20774407592E+02 -0.14691955897E+02  0.25830874062E+02  0.36258290551E+02  0.00000000000E+00 0.  1.
         11    1    1    2    0    0  0.78543479645E+02 -0.50101781366E+02  0.25548689422E+03  0.27194267743E+03  0.00000000000E+00 0. -1.
</event>
<event>
 7    1  0.2594791E-009  0.1170963E+03  0.7561462E-02  0.1247966E+00
          1   -1    0    0  501    0  0.00000000000E+00  0.00000000000E+00  0.46612143155E+03  0.46612143155E+03  0.00000000000E+00 0. -1.
         -1   -1    0    0    0  501 -0.00000000000E+00 -0.00000000000E+00 -0.32574067969E+02  0.32574067969E+02  0.00000000000E+00 0.  1.
         25    2    1    2    0    0  0.52794062139E+02 -0.52577816847E+02  0.23243111175E+03  0.27426874905E+03  0.12508990837E+03 0.  0.
          5    1    3    3  502    0  0.18433557285E+02  0.40605205450E+02  0.90667181683E+02  0.10112659877E+03  0.41800000000E+01 0. -1.
         -5    1    3    3    0  502  0.34360504854E+02 -0.93183022297E+02  0.14176393006E+03  0.17314215029E+03  0.41800000000E+01 0. -1.
        -11    1    1    2    0    0 -0.62115390144E+02  0.38382642506E+02  0.11194886428E+03  0.13365663901E+03  0.00000000000E+00 0.  1.
         11    1    1    2    0    0  0.93213280044E+01  0.14195174340E+02  0.89167387550E+02  0.90770111451E+02  0.00000000000E+00 0. -1.
</event>
<event>
 7    1  0.2764674E-009  0.1196381E+03  0.7561462E-02  0.1243695E+00
          2   -1    0    0  501    0  0.00000000000E+00  0.00000000000E+00  0.41338703932E+03  0.41338703932E+03  0.00000000000E+00 0. -1.
         -2   -1    0    0    0  501 -0.00000000000E+00 -0.00000000000E+00 -0.49250407290E+02  0.49250407290E+02  0.00000000000E+00 0.  1.
         25    2    1    2    0    0  0.64726705765E+02  0.31682496380E+02  0.29218471885E+03  0.32590359759E+03  0.12509163832E+03 0.  0.
          5    1    3    3  502    0  0.88099692146E+02  0.58073964265E+02  0.24554558156E+03  0.26729056494E+03  0.41800000000E+01 0. -1.
         -5    1    3    3    0  502 -0.23372986380E+02 -0.26391467885E+02  0.46639137291E+02  0.58613032653E+02  0.41800000000E+01 0. -1.
        -11    1    1    2    0    0 -0.28655510986E+02 -0.50067802910E+02  0.42432938030E+01  0.57844003496E+02  0.00000000000E+00 0.  1.
         11    1    1    2    0    0 -0.36071194779E+02  0.18385306530E+02  0.67708619377E+02  0.78889845524E+02  0.00000000000E+00 0. -1.
</event>
<event>
 7    1  0.3249340E-009  0.1458621E+03  0.7561462E-02  0.1205652E+00
         -2   -1    0    0    0  501 -0.00000000000E+00  0.00000000000E+00  0.56396795661E+02  0.56396795661E+02  0.00000000000E+00 0.  1.
          2   -1    0    0  501    0  0.00000000000E+00 -0.00000000000E+00 -0.49569578850E+03  0.49569578850E+03  0.00000000000E+00 0. -1.
         25    2    1    2    0    0 -0.19999790090E+02  0.97214033113E+02 -0.10350135660E+03  0.19029859103E+03  0.12510181091E+03 0.  0.
          5    1    3    3  502    0 -0.69494553497E+02  0.79114842682E+02 -0.56581277764E+02  0.11961423281E+03  0.41800000000E+01 0.  1.
         -5    1    3    3    0  502  0.49494763407E+02  0.18099190431E+02 -0.46920078837E+02  0.70684358221E+02  0.41800000000E+01 0.  1.
        -11    1    1    2    0    0 -0.16618009657E+02 -0.95371728445E+02 -0.22072695182E+03  0.24102346793E+03  0.00000000000E+00 0. -1.
         11    1    1    2    0    0  0.36617799747E+02 -0.18423046678E+01 -0.11507068441E+03  0.12077052520E+03  0.00000000000E+00 0.  1.
</event>
<event>
 7    1  0.2594791E-009  0.1565109E+03  0.7561462E-02  0.1192693E+00
          2   -1    0    0  501    0  0.00000000000E+00  0.00000000000E+00  0.26605531651E+03  0.26605531651E+03  0.00000000000E+00 0. -1.
         -2   -1    0    0    0  501 -0.00000000000E+00 -0.00000000000E+00 -0.10106765071E+03  0.10106765071E+03  0.00000000000E+00 0.  1.
         25    2    1    2    0    0 -0.10781524870E+03 -0.41322259000E+02  0.13420028569E+03  0.21676991082E+03  0.12509124917E+03 0.  0.
          5    1    3    3  502    0 -0.50567548840E+02  0.43766999643E+02  0.44321297121E+02  0.80339759970E+02  0.41800000000E+01 0. -1.
         -5    1    3    3    0  502 -0.57247699856E+02 -0.85089258643E+02  0.89878988572E+02  0.13643015085E+03  0.41800000000E+01 0. -1.
        -11    1    1    2    0    0  0.25129423445E+02 -0.26434064076E+02  0.23107332820E+02  0.43176341859E+02  0.00000000000E+00 0. -1.
         11    1    1    2    0    0  0.82685825251E+02  0.67756323076E+02  0.76800472869E+01  0.10717671454E+03  0.00000000000E+00 0.  1.
</event>
<event>
 7    1  0.2716416E-009  0.1480998E+03  0.7561462E-02  0.1202828E+00
          2   -1    0    0  501    0  0.00000000000E+00  0.00000000000E+00  0.95156561929E+03  0.95156561929E+03  0.00000000000E+00 0.  1.
         -2   -1    0    0    0  501 -0.00000000000E+00 -0.00000000000E+00 -0.26000732302E+02  0.26000732302E+02  0.00000000000E+00 0. -1.
         25    2    1    2    0    0 -0.10498767650E+03  0.43043479767E+02  0.51328207438E+03  0.54035249567E+03  0.12508868186E+03 0.  0.
          5    1    3    3  502    0 -0.10951223404E+03 -0.23066364062E+01  0.24791061141E+03  0.27106344944E+03  0.41800000000E+01 0.  1.
         -5    1    3    3    0  502  0.45245575406E+01  0.45350116173E+02  0.26537146298E+03  0.26928904623E+03  0.41800000000E+01 0.  1.
        -11    1    1    2    0    0  0.68120950358E+02  0.17135354448E+02  0.15050642306E+03  0.16609114255E+03  0.00000000000E+00 0.  1.
         11    1    1    2    0    0  0.36866726138E+02 -0.60178834216E+02  0.26177638955E+03  0.27112271337E+03  0.00000000000E+00 0. -1.
</event>
<event>
 6    1  0.2594791E-009  0.1032091E+03  0.7561462E-02  0.1273689E+00
          4   -1    0    0  501    0  0.00000000000E+00  0.00000000000E+00  0.46510094963E+02  0.46510094963E+02  0.00000000000E+00 0. -1.
         -4   -1    0    0    0  501 -0.00000000000E+00 -0.00000000000E+00 -0.36830460013E+03  0.36830460013E+03  0.00000000000E+00 0.  1.
          5    1    1    2  502    0  0.48464266940E+02 -0.34018914554E+02 -0.90201545178E+02  0.10798084492E+03  0.41800000000E+01 0. -1.
         -5    1    1    2    0  502 -0.57663579688E+02 -0.18837572612E+02 -0.11164634291E+02  0.61822843862E+02  0.41800000000E+01 0. -1.
        -11    1    1    2    0    0  0.30502417569E+02  0.13706055740E+01 -0.18871644847E+02  0.35894498414E+02  0.00000000000E+00 0. -1.
         11    1    1    2    0    0 -0.21303104821E+02  0.51485881592E+02 -0.20155668085E+03  0.20911650789E+03  0.00000000000E+00 0.  1.
</event>
<event>
 7    1  0.2594791E-009  0.1080238E+03  0.7561462E-02  0.1264274E+00
         -1   -1    0    0    0  501 -0.00000000000E+00  0.00000000000E+00  0.11545333883E+03  0.11545333883E+03  0.00000000000E+00 0.  1.
          1   -1    0    0  501    0  0.00000000000E+00 -0.00000000000E+00 -0.19968041212E+03  0.19968041212E+03  0.00000000000E+00 0. -1.
         25    2    1    2    0    0 -0.16602146564E+02 -0.60558613704E+02 -0.13325038097E+03  0.19324986372E+03  0.12508744476E+03 0.  0.
          5    1    3    3  502    0 -0.30218208789E+02 -0.86182363010E+02 -0.48328444110E+02  0.10341010950E+03  0.41800000000E+01 0.  1.
         -5    1    3    3    0  502  0.13616062225E+02  0.25623749306E+02 -0.84921936857E+02  0.89839754221E+02  0.41800000000E+01 0.  1.
        -11    1    1    2    0    0  0.42877671013E+02  0.52584907283E+02  0.61636832885E+02  0.91666604134E+02  0.00000000000E+00 0.  1.
         11    1    1    2    0    0 -0.26275524449E+02  0.79737064210E+01 -0.12613525205E+02  0.30217283089E+02  0.00000000000E+00 0. -1.
</event>
<event>
 7    1  0.2594791E-009  0.1052736E+03  0.7561462E-02  0.1269582E+00
         -1   -1    0    0    0  501 -0.00000000000E+00  0.00000000000E+00  0.69193940641E+02  0.69193940641E+02  0.00000000000E+00 0.  1.
          1   -1    0    0  501    0  0.00000000000E+00 -0.00000000000E+00 -0.25319000803E+03  0.25319000803E+03  0.00000000000E+00 0. -1.
         25    2    1    2    0    0  0.12684836264E+02  0.71790441606E+02 -0.10623150599E+03  0.17956557376E+03  0.12507553653E+03 0.  0.
          5    1    3    3  502    0 -0.49144985808E+02  0.37797924769E+02 -0.85896461414E+02  0.10601691955E+03  0.41800000000E+01 0. -1.
         -5    1    3    3    0  502  0.61829822072E+02  0.33992516837E+02 -0.20335044575E+02  0.73548654211E+02  0.41800000000E+01 0. -1.
        -11    1    1    2    0    0  0.28575961003E+01 -0.54107568694E+02  0.71937942094E+01  0.54658444184E+02  0.00000000000E+00 0.  1.
         11    1    1    2    0    0 -0.15542432364E+02 -0.17682872912E+02 -0.84958355612E+02  0.88159930731E+02  0.00000000000E+00 0. -1.
</event>
<event>
 7    1  0.2594791E-009  0.9933319E+02  0.7561462E-02  0.1281704E+00
         -2   -1    0    0    0  501 -0.00000000000E+00  0.00000000000E+00  0.34335993122E+02  0.34335993122E+02  0.00000000000E+00 0. -1.
          2   -1    0    0  501    0  0.00000000000E+00 -0.00000000000E+00 -0.40304597767E+03  0.40304597767E+03  0.00000000000E+00 0.  1.
         25    2    1    2    0    0 -0.81006872267E+01 -0.42801589879E+02 -0.23501367785E+03  0.26976633180E+03  0.12507936586E+03 0.  0.
          5    1    3    3  502    0  0.19310070914E+02 -0.67676102223E+02 -0.65581725218E+02  0.96287946978E+02  0.41800000000E+01 0. -1.
         -5    1    3    3    0  502 -0.27410758141E+02  0.24874512344E+02 -0.16943195264E+03  0.17347838482E+03  0.41800000000E+01 0. -1.
        -11    1    1    2    0    0 -0.35883616467E+02  0.15077586523E+02 -0.22731879759E+02  0.45074448454E+02  0.00000000000E+00 0. -1.
         11    1    1    2    0    0  0.43984303694E+02  0.27724003356E+02 -0.11096442693E+03  0.12254119054E+03  0.00000000000E+00 0.  1.
</event>
<event>
 7    1  0.2958611E-009  0.1117891E+03  0.7561462E-02  0.1257292E+00
          1   -1    0    0  501    0  0.00000000000E+00  0.00000000000E+00  0.33432972780E+03  0.33432972780E+03  0.00000000000E+00 0. -1.
         -1   -1    0    0    0  501 -0.00000000000E+00 -0.00000000000E+00 -0.43097673456E+02  0.43097673456E+02  0.00000000000E+00 0.  1.
         25    2    1    2    0    0 -0.78337880523E+01 -0.49629348068E+02  0.18574311345E+03  0.22950423706E+03  0.12508896918E+03 0.  0.
          5    1    3    3  502    0  0.33228409508E+02 -0.76640640719E+02  0.13444417727E+03  0.15833705887E+03  0.41800000000E+01 0.  1.
         -5    1    3    3    0  502 -0.41062197561E+02  0.27011292652E+02  0.51298936183E+02  0.71167178198E+02  0.41800000000E+01 0.  1.
        -11    1    1    2    0    0 -0.33888452155E+02  0.18972085219E+02  0.82679206000E+02  0.91346692944E+02  0.00000000000E+00 0.  1.
         11    1    1    2    0    0  0.41722240207E+02  0.30657262849E+02  0.22809734894E+02  0.56576471251E+02  0.00000000000E+00 0. -1.
</event>
<event>
 7    1  0.2594791E-009  0.1424945E+03  0.7561462E-02  0.1210011E+00
          1   -1    0    0  501    0  0.00000000000E+00  0.00000000000E+00  0.12611984262E+03  0.12611984262E+03  0.00000000000E+00 0. -1.
         -1   -1    0    0    0  501 -0.00000000000E+00 -0.00000000000E+00 -0.23790880505E+03  0.23790880505E+03  0.00000000000E+00 0.  1.
         25    2    1    2    0    0  0.13276966648E+03 -0.18331474034E+02 -0.45406783106E+02  0.18887358055E+03  0.12509047206E+03 0.  0.
          5    1    3    3  502    0  0.74147515715E+02 -0.28910681118E+02 -0.85550508408E+02  0.11691896107E+03  0.41800000000E+01 0. -1.
         -5    1    3    3    0  502  0.58622150768E+02  0.10579207084E+02  0.40143725301E+02  0.71954619479E+02  0.41800000000E+01 0. -1.
        -11    1    1    2    0    0 -0.53941184320E+02  0.35927561763E+02 -0.68576641587E+02  0.94356752972E+02  0.00000000000E+00 0.  1.
         11    1    1    2    0    0 -0.78828482163E+02 -0.17596087729E+02  0.21944622663E+01  0.80798314142E+02  0.00000000000E+00 0. -1.
</event>
<event>
 7    1  0.2594791E-009  0.1376802E+03  0.7561462E-02  0.1216485E+00
         -1   -1    0    0    0  501 -0.00000000000E+00  0.00000000000E+00  0.14376013399E+03  0.14376013399E+03  0.00000000000E+00 0.  1.
          1   -1    0    0  501    0  0.00000000000E+00 -0.00000000000E+00 -0.13515285869E+03  0.13515285869E+03  0.00000000000E+00 0. -1.
         25    2    1    2    0    0  0.56134796573E+02  0.52528494309E+02  0.21389484135E+02  0.14838659194E+03  0.12510280786E+03 0.  0.
          5    1    3    3  502    0  0.47511338697E+02  0.93064941177E+02  0.21354165905E+02  0.10673276621E+03  0.41800000000E+01 0. -1.
         -5    1    3    3    0  502  0.86234578763E+01 -0.40536446868E+02  0.35318230180E-01  0.41653825728E+02  0.41800000000E+01 0. -1.
        -11    1    1    2    0    0  0.15008096641E+02 -0.55929087116E+02  0.13053411464E+01  0.57922445269E+02  0.00000000000E+00 0.  1.
         11    1    1    2    0    0 -0.71142893214E+02  0.34005928079E+01 -0.14087549985E+02  0.72603955477E+02  0.00000000000E+00 0. -1.
</event>
<event>
 7    1  0.2594791E-009  0.1899117E+03  0.7561462E-02  0.1158541E+00
          1   -1    0    0  501    0  0.00000000000E+00  0.00000000000E+00  0.18295453264E+03  0.18295453264E+03  0.00000000000E+00 0. -1.
         -1   -1    0    0    0  501 -0.00000000000E+00 -0.00000000000E+00 -0.21751667297E+03  0.21751667297E+03  0.00000000000E+00 0.  1.
         25    2    1    2    0    0  0.34472562456E+02  0.16337773933E+03 -0.82881953955E+01  0.20879871894E+03  0.12509023774E+03 0.  0.
          5    1    3    3  502    0  0.16552731931E+02  0.18086744565E+03  0.12601903564E+01  0.18167577249E+03  0.41800000000E+01 0. -1.
         -5    1    3    3    0  502  0.17919830525E+02 -0.17489706327E+02 -0.95483857518E+01  0.27122946446E+02  0.41800000000E+01 0. -1.
        -11    1    1    2    0    0 -0.39600540225E+02 -0.80342017580E+02 -0.53261795440E+02  0.10421065890E+03  0.00000000000E+00 0.  1.
         11    1    1    2    0    0  0.51279777688E+01 -0.83035721747E+02  0.26987850511E+02  0.87461827772E+02  0.00000000000E+00 0. -1.
</event>
<event>
 7    1  0.2879745E-009  0.9968120E+02  0.7561462E-02  0.1280968E+00
          1   -1    0    0  501    0  0.00000000000E+00  0.00000000000E+00  0.43305495609E+03  0.43305495609E+03  0.00000000000E+00 0. -1.
         -1   -1    0    0    0  501 -0.00000000000E+00 -0.00000000000E+00 -0.39872004019E+02  0.39872004019E+02  0.00000000000E+00 0.  1.
         25    2    1    2    0    0 -0.25465292944E+02 -0.15557660676E+02  0.96590256057E+02  0.16083594966E+03  0.12509197891E+03 0.  0.
          5    1    3    3  502    0 -0.94643517987E+01  0.47407656873E+02  0.54438944023E+01  0.48827945599E+02  0.41800000000E+01 0.  1.
         -5    1    3    3    0  502 -0.16000941145E+02 -0.62965317549E+02  0.91146361655E+02  0.11200800406E+03  0.41800000000E+01 0.  1.
        -11    1    1    2    0    0  0.49664787197E+02 -0.98693912909E+01  0.24160785425E+03  0.24685694482E+03  0.00000000000E+00 0. -1.
         11    1    1    2    0    0 -0.24199494253E+02  0.25427051967E+02  0.54984841763E+02  0.65234065621E+02  0.00000000000E+00 0.  1.
</event>
<event>
 7    1  0.2594791E-009  0.9006490E+02  0.7561462E-02  0.1302695E+00
          2   -1    0    0  501    0  0.00000000000E+00  0.00000000000E+00  0.52079470334E+02  0.52079470334E+02  0.00000000000E+00 0. -1.
         -2   -1    0    0    0  501 -0.00000000000E+00 -0.00000000000E+00 -0.25218809265E+03  0.25218809265E+03  0.00000000000E+00 0.  1.
         25    2    1    2    0    0 -0.32862058667E+01 -0.32523904429E+02 -0.82586971189E+02  0.15341908329E+03  0.12509278077E+03 0.  0.
          5    1    3    3  502    0  0.47780294053E+02 -0.40692212790E+02 -0.79596123681E+02  0.10144864704E+03  0.41800000000E+01 0.  1.
         -5    1    3    3    0  502 -0.51066499919E+02  0.81683083609E+01 -0.29908475081E+01  0.51970436253E+02  0.41800000000E+01 0.  1.
        -11    1    1    2    0    0 -0.62896179200E+01 -0.15316253604E+02 -0.96181835238E+02  0.97596579590E+02  0.00000000000E+00 0.  1.
         11    1    1    2    0    0  0.95758237867E+01  0.47840158033E+02 -0.21339815885E+02  0.53251900096E+02  0.00000000000E+00 0. -1.
</event>
<event>
 7    1  0.2594791E-009  0.1325794E+03  0.7561462E-02  0.1223678E+00
          2   -1    0    0  501    0  0.00000000000E+00  0.00000000000E+00  0.61589535558E+03  0.61589535558E+03  0.00000000000E+00 0.  1.
         -2   -1    0    0    0  501 -0.00000000000E+00 -0.00000000000E+00 -0.39359437657E+02  0.39359437657E+02  0.00000000000E+00 0. -1.
         25    2    1    2    0    0 -0.91168545123E+02 -0.30383572320E+02  0.19197817835E+03  0.24847252702E+03  0.12509240837E+03 0.  0.
          5    1    3    3  502    0 -0.28789254924E+02 -0.61611742950E+02  0.34906111941E+02  0.76555451271E+02  0.41800000000E+01 0.  1.
         -5    1    3    3    0  502 -0.62379290199E+02  0.31228170629E+02  0.15707206641E+03  0.17191707575E+03  0.41800000000E+01 0.  1.
        -11    1    1    2    0    0  0.19315669986E+02  0.49206909839E+02  0.10542359721E+03  0.11793451544E+03  0.00000000000E+00 0. -1.
         11    1    1    2    0    0  0.71852875136E+02 -0.18823337519E+02  0.27913414236E+03  0.28884775078E+03  0.00000000000E+00 0.  1.
</event>
<event>
 7    1  0.2594791E-009  0.1107897E+03  0.7561462E-02  0.1259114E+00
         -1   -1    0    0    0  501 -0.00000000000E+00  0.00000000000E+00  0.53841689601E+02  0.53841689601E+02  0.00000000000E+00 0.  1.
          1   -1    0    0  501    0  0.00000000000E+00 -0.00000000000E+00 -0.23765326598E+03  0.23765326598E+03  0.00000000000E+00 0. -1.
         25    2    1    2    0    0  0.27399468165E+01  0.29976497233E+02 -0.98633103004E+02  0.16211972138E+03  0.12509283496E+03 0.  0.
          5    1    3    3  502    0 -0.57693825861E+02  0.28835849943E+02 -0.69436853667E+02  0.94863232243E+02  0.41800000000E+01 0. -1.
         -5    1    3    3    0  502  0.60433772678E+02  0.11406472901E+01 -0.29196249337E+02  0.67256489142E+02  0.41800000000E+01 0. -1.
        -11    1    1    2    0    0  0.32759338355E+02  0.17448964512E+02 -0.42117792918E+02  0.56138659516E+02  0.00000000000E+00 0.  1.
         11    1    1    2    0    0 -0.35499285172E+02 -0.47425461744E+02 -0.43060680458E+02  0.73236574680E+02  0.00000000000E+00 0. -1.
</event>
<event>
 7    1  0.2594791E-009  0.1123723E+03  0.7561462E-02  0.1256239E+00
          4   -1    0    0  501    0  0.00000000000E+00  0.00000000000E+00  0.19872024537E+02  0.19872024537E+02  0.00000000000E+00 0. -1.
         -4   -1    0    0    0  501 -0.00000000000E+00 -0.00000000000E+00 -0.87353465557E+03  0.87353465557E+03  0.00000000000E+00 0.  1.
         25    2    1    2    0    0  0.50712022910E+02  0.20850811947E+02 -0.64288824799E+03  0.65723583448E+03  0.12508867697E+03 0.  0.
          5    1    3    3  502    0  0.73449059245E+02 -0.16081074812E+02 -0.22907744398E+03  0.24113753961E+03  0.41800000000E+01 0. -1.
         -5    1    3    3    0  502 -0.22737036334E+02  0.36931886760E+02 -0.41381080401E+03  0.41609829487E+03  0.41800000000E+01 0. -1.
        -11    1    1    2    0    0  0.25518345319E+02 -0.14558502186E+02 -0.47207954167E+02  0.55603299096E+02  0.00000000000E+00 0.  1.
         11    1    1    2    0    0 -0.76230368229E+02 -0.62923097615E+01 -0.16356642888E+03  0.18056754652E+03  0.00000000000E+00 0. -1.
</event>
<event>
 7    1  0.2594791E-009  0.1756613E+03  0.7561462E-02  0.1172069E+00
          2   -1    0    0  501    0  0.00000000000E+00  0.00000000000E+00  0.10953492198E+03  0.10953492198E+03  0.00000000000E+00 0. -1.
         -2   -1    0    0    0  501 -0.00000000000E+00 -0.00000000000E+00 -0.35031918083E+03  0.35031918083E+03  0.00000000000E+00 0.  1.
         25    2    1    2    0    0 -0.12948292196E+03  0.81231822552E+02 -0.61380683896E+02  0.20683193035E+03  0.12508965978E+03 0.  0.
          5    1    3    3  502    0 -0.69967783752E+02  0.88606769482E+02 -0.85881933983E+02  0.14191486654E+03  0.41800000000E+01 0. -1.
         -5    1    3    3    0  502 -0.59515138205E+02 -0.73749469304E+01  0.24501250088E+02  0.64917063809E+02  0.41800000000E+01 0. -1.
        -11    1    1    2    0    0  0.13663551960E+03 -0.48911681009E+02 -0.14136856866E+03  0.20259982715E+03  0.00000000000E+00 0. -1.
         11    1    1    2    0    0 -0.71525976457E+01 -0.32320141543E+02 -0.38035006294E+02  0.50422345307E+02  0.00000000000E+00 0.  1.
</event>
<event>
 7    1  0.2594791E-009  0.1173598E+03  0.7561462E-02  0.1247517E+00
          2   -1    0    0  501    0  0.00000000000E+00  0.00000000000E+00  0.55173643384E+03  0.55173643384E+03  0.00000000000E+00 0. -1.
         -2   -1    0    0    0  501 -0.00000000000E+00 -0.00000000000E+00 -0.29357776396E+02  0.29357776396E+02  0.00000000000E+00 0.  1.
         25    2    1    2    0    0  0.52018028644E+01  0.63908696626E+02  0.34546811734E+03  0.37296911469E+03  0.12508541146E+03 0.  0.
          5    1    3    3  502    0 -0.11257558139E+02 -0.28889928768E+02  0.28717015150E+02  0.42467634248E+02  0.41800000000E+01 0. -1.
         -5    1    3    3    0  502  0.16459361004E+02  0.92798625394E+02  0.31675110219E+03  0.33050148044E+03  0.41800000000E+01 0. -1.
        -11    1    1    2    0    0 -0.42837429499E+02 -0.56220396518E+02  0.12418759808E+03  0.14289274953E+03  0.00000000000E+00 0. -1.
         11    1    1    2    0    0  0.37635626635E+02 -0.76883001083E+01  0.52722942028E+02  0.65232346017E+02  0.00000000000E+00 0.  1.
</event>
<event>
 7    1  0.2594791E-009  0.1761372E+03  0.7561462E-02  0.1171595E+00
         -2   -1    0    0    0  501 -0.00000000000E+00  0.00000000000E+00  0.38703839164E+03  0.38703839164E+03  0.00000000000E+00 0.  1.
          2   -1    0    0  501    0  0.00000000000E+00 -0.00000000000E+00 -0.98814642435E+02  0.98814642435E+02  0.00000000000E+00 0. -1.
         25    2    1    2    0    0 -0.15016227752E+03 -0.24647738683E+02  0.81215637374E+02  0.21306344867E+03  0.12507530849E+03 0.  0.
          5    1    3    3  502    0 -0.14109857371E+03  0.26443776559E+02  0.48522814041E+02  0.15159161159E+03  0.41800000000E+01 0.  1.
         -5    1    3    3    0  502 -0.90637038046E+01 -0.51091515242E+02  0.32692823333E+02  0.61471837079E+02  0.41800000000E+01 0.  1.
        -11    1    1    2    0    0  0.10682486968E+03  0.16269284816E+00  0.71805255915E+02  0.12871508858E+03  0.00000000000E+00 0. -1.
         11    1    1    2    0    0  0.43337407835E+02  0.24485045835E+02  0.13520285592E+03  0.14407449682E+03  0.00000000000E+00 0.  1.
</event>
<event>
 7    1  0.2594791E-009  0.8225674E+02  0.7561462E-02  0.1322766E+00
          1   -1    0    0  501    0  0.00000000000E+00  0.00000000000E+00  0.11219959833E+03  0.11219959833E+03  0.00000000000E+00 0. -1.
         -1   -1    0    0    0  501 -0.00000000000E+00 -0.00000000000E+00 -0.12585322234E+03  0.12585322234E+03  0.00000000000E+00 0.  1.
         25    2    1    2    0    0  0.33154417860E+02  0.31446673121E+02  0.78333847132E+00  0.13317817936E+03  0.12509078768E+03 0.  0.
          5    1    3    3  502    0 -0.90385450305E+01  0.12094888926E+02  0.57599130933E+02  0.59691824554E+02  0.41800000000E+01 0. -1.
         -5    1    3    3    0  502  0.42192962890E+02  0.19351784195E+02 -0.56815792461E+02  0.73486354801E+02  0.41800000000E+01 0. -1.
        -11    1    1    2    0    0  0.27869454154E+02 -0.30351522080E+02  0.32388893140E+01  0.41332938093E+02  0.00000000000E+00 0.  1.
         11    1    1    2    0    0 -0.61023872014E+02 -0.10951510407E+01 -0.17675851796E+02  0.63541703220E+02  0.00000000000E+00 0. -1.
</event>
<event>
 7    1  0.2594791E-009  0.1801425E+03  0.7561462E-02  0.1167665E+00
         -3   -1    0    0    0  501 -0.00000000000E+00  0.00000000000E+00  0.40029973243E+03  0.40029973243E+03  0.00000000000E+00 0.  1.
          3   -1    0    0  501    0  0.00000000000E+00 -0.00000000000E+00 -0.84976406954E+02  0.84976406954E+02  0.00000000000E+00 0. -1.
         25    2    1    2    0    0  0.12110422270E+03  0.84968422998E+02  0.13919805727E+03  0.23855848755E+03  0.12509271430E+03 0.  0.
          5    1    3    3  502    0 -0.46989602041E+00  0.68523740026E+02  0.32681007726E+02  0.76034494905E+02  0.41800000000E+01 0. -1.
         -5    1    3    3    0  502  0.12157411872E+03  0.16444682972E+02  0.10651704955E+03  0.16252399265E+03  0.41800000000E+01 0. -1.
        -11    1    1    2    0    0  0.87482211221E+01 -0.23770111839E+02  0.10178504691E+02  0.27297464120E+02  0.00000000000E+00 0.  1.
         11    1    1    2    0    0 -0.12985244383E+03 -0.61198311159E+02  0.16594676351E+03  0.21942018771E+03  0.00000000000E+00 0. -1.
</event>
<event>
 7    1  0.2594791E-009  0.7701768E+02  0.7561462E-02  0.1337734E+00
         -3   -1    0    0    0  501 -0.00000000000E+00  0.00000000000E+00  0.45816925686E+03  0.45816925686E+03  0.00000000000E+00 0.  1.
          3   -1    0    0  501    0  0.00000000000E+00 -0.00000000000E+00 -0.29639961778E+02  0.29639961778E+02  0.00000000000E+00 0. -1.
         25    2    1    2    0    0  0.13042673952E+02  0.12700557110E+02  0.16281310432E+03  0.20612479256E+03  0.12509159714E+03 0.  0.
          5    1    3    3  502    0 -0.30584407531E+02  0.10553781806E+02  0.15873908851E+03  0.16205665342E+03  0.41800000000E+01 0.  1.
         -5    1    3    3    0  502  0.43627081483E+02  0.21467753038E+01  0.40740158057E+01  0.44068139145E+02  0.41800000000E+01 0.  1.
        -11    1    1    2    0    0 -0.43619065468E+02 -0.16678246539E+02  0.22911841500E+03  0.23382907192E+03  0.00000000000E+00 0.  1.
         11    1    1    2    0    0  0.30576391517E+02  0.39776894285E+01  0.36597775762E+02  0.47855354163E+02  0.00000000000E+00 0. -1.
</event>
<event>
 7    1  0.2594791E-009  0.1160492E+03  0.7561462E-02  0.1249761E+00
          3   -1    0    0  501    0  0.00000000000E+00  0.00000000000E+00  0.24312900500E+02  0.24312900500E+02  0.00000000000E+00 0. -1.
         -3   -1    0    0    0  501 -0.00000000000E+00 -0.00000000000E+00 -0.58519757448E+03  0.58519757448E+03  0.00000000000E+00 0.  1.
         25    2    1    2    0    0  0.46930751616E+02  0.32295978784E+02 -0.39446931214E+03  0.41772831226E+03  0.12508148926E+03 0.  0.
          5    1    3    3  502    0  0.74265327022E+02  0.61616905813E+02 -0.29473603579E+03  0.31015928984E+03  0.41800000000E+01 0.  1.
         -5    1    3    3    0  502 -0.27334575406E+02 -0.29320927029E+02 -0.99733276342E+02  0.10756902242E+03  0.41800000000E+01 0.  1.
        -11    1    1    2    0    0 -0.44872218364E+02 -0.55804344204E+02 -0.12915601704E+03  0.14767842616E+03  0.00000000000E+00 0. -1.
         11    1    1    2    0    0 -0.20585332517E+01  0.23508365420E+02 -0.37259344801E+02  0.44103736564E+02  0.00000000000E+00 0.  1.
</event>
<event>
 7    1  0.2594791E-009  0.8338084E+02  0.7561462E-02  0.1319722E+00
          2   -1    0    0  501    0  0.00000000000E+00  0.00000000000E+00  0.37549008273E+03  0.37549008273E+03  0.00000000000E+00 0.  1.
         -2   -1    0    0    0  501 -0.00000000000E+00 -0.00000000000E+00 -0.50179821541E+02  0.50179821541E+02  0.00000000000E+00 0. -1.
         25    2    1    2    0    0 -0.87916519298E+01  0.19588866147E+02  0.30697625309E+03  0.33217877470E+03  0.12508917452E+03 0.  0.
          5    1    3    3  502    0 -0.95377461752E+01 -0.26715516963E+02  0.27321677100E+03  0.27471724337E+03  0.41800000000E+01 0. -1.
         -5    1    3    3    0  502  0.74609424537E+00  0.46304383110E+02  0.33759482083E+02  0.57461531326E+02  0.41800000000E+01 0. -1.
        -11    1    1    2    0    0 -0.36497450979E+02 -0.27392143095E+02  0.71088712954E+01  0.46183649514E+02  0.00000000000E+00 0.  1.
         11    1    1    2    0    0  0.45289102909E+02  0.78032769474E+01  0.11225136812E+02  0.47307480063E+02  0.00000000000E+00 0. -1.
</event>
<event>
 7    1  0.2594791E-009  0.7841162E+02  0.7561462E-02  0.1333620E+00
          1   -1    0    0  501    0  0.00000000000E+00  0.00000000000E+00  0.97937184858E+02  0.97937184858E+02  0.00000000000E+00 0. -1.
         -1   -1    0    0    0  501 -0.00000000000E+00 -0.00000000000E+00 -0.14249049447E+03  0.14249049447E+03  0.00000000000E+00 0.  1.
         25    2    1    2    0    0 -0.36069401651E+02  0.24131429514E+02 -0.88184364309E+01  0.13270421189E+03  0.12509722382E+03 0.  0.
          5    1    3    3  502    0 -0.59835776303E+02  0.32452364292E+02  0.38954815974E+02  0.78539328756E+02  0.41800000000E+01 0.  1.
         -5    1    3    3    0  502  0.23766374652E+02 -0.83209347783E+01 -0.47773252405E+02  0.54164883135E+02  0.41800000000E+01 0.  1.
        -11    1    1    2    0    0  0.22244609858E+02  0.11384169428E+02 -0.58302217432E+02  0.63431620969E+02  0.00000000000E+00 0.  1.
         11    1    1    2    0    0  0.13824791794E+02 -0.35515598941E+02  0.22567344255E+02  0.44291846462E+02  0.00000000000E+00 0. -1.
</event>
<event>
 7    1  0.2944898E-009  0.1015866E+03  0.7561462E-02  0.1276994E+00
         -1   -1    0    0    0  501 -0.00000000000E+00  0.00000000000E+00  0.41924002180E+02  0.41924002180E+02  0.00000000000E+00 0.  1.
          1   -1    0    0  501    0  0.00000000000E+00 -0.00000000000E+00 -0.38255959265E+03  0.38255959265E+03  0.00000000000E+00 0. -1.
         25    2    1    2    0    0  0.45542626910E+02 -0.44973516504E+02 -0.20866279809E+03  0.25156321899E+03  0.12508853582E+03 0.  0.
          5    1    3    3  502    0  0.83106152934E+02 -0.42430706908E+02 -0.10167013792E+03  0.13806261945E+03  0.41800000000E+01 0. -1.
         -5    1    3    3    0  502 -0.37563526025E+02 -0.25428095957E+01 -0.10699266016E+03  0.11350059955E+03  0.41800000000E+01 0. -1.
        -11    1    1    2    0    0 -0.20916201678E+02  0.34926249735E+00 -0.11831997172E+03  0.12015500483E+03  0.00000000000E+00 0. -1.
         11    1    1    2    0    0 -0.24626425231E+02  0.44624254007E+02 -0.13652820659E+02  0.52765371005E+02  0.00000000000E+00 0.  1.
</event>
<event>
 7    1  0.2594791E-009  0.1022531E+03  0.7561462E-02  0.1275628E+00
         -1   -1    0    0    0  501 -0.00000000000E+00  0.00000000000E+00  0.53766281591E+02  0.53766281591E+02  0.00000000000E+00 0.  1.
          1   -1    0    0  501    0  0.00000000000E+00 -0.00000000000E+00 -0.33055148684E+03  0.33055148684E+03  0.00000000000E+00 0. -1.
         25    2    1    2    0    0 -0.31752657218E+02 -0.50807143530E+02 -0.83051750181E+02  0.16166292900E+03  0.12509081633E+03 0.  0.
          5    1    3    3  502    0  0.29025550997E+02 -0.27725318007E+02 -0.87505412110E+02  0.96363091575E+02  0.41800000000E+01 0.  1.
         -5    1    3    3    0  502 -0.60778208215E+02 -0.23081825523E+02  0.44536619289E+01  0.65299837426E+02  0.41800000000E+01 0.  1.
        -11    1    1    2    0    0  0.54121248729E+02  0.53944828126E+02 -0.97879390291E+02  0.12417539647E+03  0.00000000000E+00 0.  1.
         11    1    1    2    0    0 -0.22368591510E+02 -0.31376845960E+01 -0.95854064774E+02  0.98479442954E+02  0.00000000000E+00 0. -1.
</event>
<event>
 7    1  0.2594791E-009  0.1046136E+03  0.7561462E-02  0.1270883E+00
         -1   -1    0    0    0  501 -0.00000000000E+00  0.00000000000E+00  0.23985179059E+02  0.23985179059E+02  0.00000000000E+00 0. -1.
          1   -1    0    0  501    0  0.00000000000E+00 -0.00000000000E+00 -0.55696635379E+03  0.55696635379E+03  0.00000000000E+00 0.  1.
         25    2    1    2    0    0  0.16386637233E+02 -0.42831414095E+01 -0.39016301967E+03  0.41007544322E+03  0.12509124681E+03 0.  0.
          5    1    3    3  502    0  0.45700262768E+02 -0.51835565911E+02 -0.18993096650E+03  0.20215509973E+03  0.41800000000E+01 0.  1.
         -5    1    3    3    0  502 -0.29313625535E+02  0.47552424502E+02 -0.20023205317E+03  0.20792034348E+03  0.41800000000E+01 0.  1.
        -11    1    1    2    0    0  0.33038044672E+02 -0.57799055301E+01 -0.97360654009E+02  0.10297580615E+03  0.00000000000E+00 0.  1.
         11    1    1    2    0    0 -0.49424681905E+02  0.10063046940E+02 -0.45457501044E+02  0.67900283477E+02  0.00000000000E+00 0. -1.
</event>
<event>
 7    1  0.2594791E-009  0.1174799E+03  0.7561462E-02  0.1247313E+00
         -1   -1    0    0    0  501 -0.00000000000E+00  0.00000000000E+00  0.74060985431E+02  0.74060985431E+02  0.00000000000E+00 0.  1.
          1   -1    0    0  501    0  0.00000000000E+00 -0.00000000000E+00 -0.25068343651E+03  0.25068343651E+03  0.00000000000E+00 0. -1.
         25    2    1    2    0    0 -0.31466786897E+02 -0.74870426435E+02 -0.94593354544E+02  0.17660930970E+03  0.12508879293E+03 0.  0.
          5    1    3    3  502    0  0.21599154399E+02 -0.65927213986E+02 -0.10062836724E+03  0.12229661365E+03  0.41800000000E+01 0.  1.
         -5    1    3    3    0  502 -0.53065941296E+02 -0.89432124485E+01  0.60350127012E+01  0.54312696056E+02  0.41800000000E+01 0.  1.
        -11    1    1    2    0    0 -0.13338656797E+02  0.64002672490E+02 -0.78116374843E+02  0.10186476265E+03  0.00000000000E+00 0. -1.
         11    1    1    2    0    0  0.44805443694E+02  0.10867753945E+02 -0.39127216962E+01  0.46270349594E+02  0.00000000000E+00 0.  1.
</event>
<event>
 7    1  0.2594791E-009  0.9383089E+02  0.7561462E-02  0.1293831E+00
          1   -1    0    0  501    0  0.00000000000E+00  0.00000000000E+00  0.18839189480E+03  0.18839189480E+03  0.00000000000E+00 0. -1.
         -1   -1    0    0    0  501 -0.00000000000E+00 -0.00000000000E+00 -0.90921002753E+02  0.90921002753E+02  0.00000000000E+00 0.  1.
         25    2    1    2    0    0 -0.67190472354E+02 -0.46099972699E+02  0.40206738763E+02  0.15460758814E+03  0.12508859824E+03 0.  0.
          5    1    3    3  502    0 -0.73560003366E+01 -0.19234830103E+02  0.76635956121E+02  0.79464656299E+02  0.41800000000E+01 0. -1.
         -5    1    3    3    0  502 -0.59834472017E+02 -0.26865142596E+02 -0.36429217358E+02  0.75142931841E+02  0.41800000000E+01 0. -1.
        -11    1    1    2    0    0  0.10464370805E+02 -0.14524375899E+02 -0.74988055524E+01  0.19408571207E+02  0.00000000000E+00 0.  1.
         11    1    1    2    0    0  0.56726101549E+02  0.60624348598E+02  0.64762958837E+02  0.10529673821E+03  0.00000000000E+00 0. -1.
</event>
<event>
 7    1  0.2594791E-009  0.9674227E+02  0.7561462E-02  0.1287300E+00
         -2   -1    0    0    0  501 -0.00000000000E+00  0.00000000000E+00  0.30966822300E+02  0.30966822300E+02  0.00000000000E+00 0.  1.
          2   -1    0    0  501    0  0.00000000000E+00 -0.00000000000E+00 -0.41156765442E+03  0.41156765442E+03  0.00000000000E+00 0. -1.
         25    2    1    2    0    0 -0.27629174424E+02  0.70512371917E+01 -0.21293563196E+03  0.24861383909E+03  0.12511661123E+03 0.  0.
          5    1    3    3  502    0 -0.60010333428E+02  0.32140164392E+02 -0.18912917474E+03  0.20105110650E+03  0.41800000000E+01 0. -1.
         -5    1    3    3    0  502  0.32381159004E+02 -0.25088927200E+02 -0.23806457214E+02  0.47562732592E+02  0.41800000000E+01 0. -1.
        -11    1    1    2    0    0  0.52350721676E+02  0.11000895435E+02 -0.53243666673E+02  0.75475199908E+02  0.00000000000E+00 0.  1.
         11    1    1    2    0    0 -0.24721547252E+02 -0.18052132627E+02 -0.11442153349E+03  0.11844543772E+03  0.00000000000E+00 0. -1.
</event>
<event>
 7    1  0.2594791E-009  0.1221232E+03  0.7561462E-02  0.1239635E+00
          2   -1    0    0  501    0  0.00000000000E+00  0.00000000000E+00  0.15442712094E+04  0.15442712094E+04  0.00000000000E+00 0.  1.
         -2   -1    0    0    0  501 -0.00000000000E+00 -0.00000000000E+00 -0.11857007424E+02  0.11857007424E+02  0.00000000000E+00 0. -1.
         25    2    1    2    0    0 -0.73459827899E+02 -0.11615776833E+01  0.10557987055E+04  0.10657174470E+04  0.12508027352E+03 0.  0.
          5    1    3    3  502    0 -0.86050552087E+02  0.37972963952E+02  0.52999295684E+03  0.53829048868E+03  0.41800000000E+01 0.  1.
         -5    1    3    3    0  502  0.12590724188E+02 -0.39134541635E+02  0.52580574864E+03  0.52742695834E+03  0.41800000000E+01 0.  1.
        -11    1    1    2    0    0 -0.17040673902E+02  0.62017913493E+01  0.33237140139E+02  0.37862306686E+02  0.00000000000E+00 0. -1.
         11    1    1    2    0    0  0.90500501801E+02 -0.50402136660E+01  0.44337835634E+03  0.45254846310E+03  0.00000000000E+00 0.  1.
</event>
<event>
 7    1  0.2594791E-009  0.8857364E+02  0.7561462E-02  0.1306343E+00
          2   -1    0    0  501    0  0.00000000000E+00  0.00000000000E+00  0.24899686095E+04  0.24899686095E+04  0.00000000000E+00 0.  1.
         -2   -1    0    0    0  501 -0.00000000000E+00 -0.00000000000E+00 -0.85540927203E+01  0.85540927203E+01  0.00000000000E+00 0. -1.
         25    2    1    2    0    0 -0.32180587992E+02 -0.19562581828E+02  0.21084121171E+04  0.21124554553E+04  0.12509240831E+03 0.  0.
          5    1    3    3  502    0 -0.42338812875E+02  0.14085812224E+02  0.19323968586E+04  0.19329164691E+04  0.41800000000E+01 0. -1.
         -5    1    3    3    0  502  0.10158224882E+02 -0.33648394051E+02  0.17601525849E+03  0.17953898623E+03  0.41800000000E+01 0. -1.
        -11    1    1    2    0    0 -0.31061733206E+02  0.12151884496E+01  0.81679961061E+02  0.87395217212E+02  0.00000000000E+00 0.  1.
         11    1    1    2    0    0  0.63242321198E+02  0.18347393378E+02  0.29132243864E+03  0.29867202964E+03  0.00000000000E+00 0. -1.
</event>
<event>
 7    1  0.2594791E-009  0.1387862E+03  0.7561462E-02  0.1214972E+00
          2   -1    0    0  501    0  0.00000000000E+00  0.00000000000E+00  0.48241434758E+03  0.48241434758E+03  0.00000000000E+00 0. -1.
         -2   -1    0    0    0  501 -0.00000000000E+00 -0.00000000000E+00 -0.49342287688E+02  0.49342287688E+02  0.00000000000E+00 0.  1.
         25    2    1    2    0    0 -0.38955787940E+02 -0.79441131917E+02  0.34019699088E+03  0.37310837404E+03  0.12508964515E+03 0.  0.
          5    1    3    3  502    0 -0.78202281679E+02 -0.81111169510E+02  0.23252171063E+03  0.25841524141E+03  0.41800000000E+01 0.  1.
         -5    1    3    3    0  502  0.39246493739E+02  0.16700375937E+01  0.10767528025E+03  0.11469313263E+03  0.41800000000E+01 0.  1.
        -11    1    1    2    0    0  0.67217044186E+02  0.45571496532E+02  0.76583875385E+02  0.11162429079E+03  0.00000000000E+00 0. -1.
         11    1    1    2    0    0 -0.28261256246E+02  0.33869635385E+02  0.16291193629E+02  0.47023970436E+02  0.00000000000E+00 0.  1.
</event>
<event>
 7    1  0.2594791E-009  0.8412392E+02  0.7561462E-02  0.1317740E+00
          1   -1    0    0  501    0  0.00000000000E+00  0.00000000000E+00  0.17800945615E+02  0.17800945615E+02  0.00000000000E+00 0. -1.
         -1   -1    0    0    0  501 -0.00000000000E+00 -0.00000000000E+00 -0.73490179069E+03  0.73490179069E+03  0.00000000000E+00 0.  1.
         25    2    1    2    0    0 -0.18955752546E+02 -0.20423521745E+02 -0.49132808111E+03  0.50776709860E+03  0.12509077643E+03 0.  0.
          5    1    3    3  502    0 -0.52551872608E+02 -0.31642916888E+02 -0.44536581806E+03  0.44958998855E+03  0.41800000000E+01 0.  1.
         -5    1    3    3    0  502  0.33596120062E+02  0.11219395143E+02 -0.45962263044E+02  0.58177110058E+02  0.41800000000E+01 0.  1.
        -11    1    1    2    0    0 -0.12338944851E+02  0.34604801625E+02 -0.33830012871E+02  0.49942082720E+02  0.00000000000E+00 0. -1.
         11    1    1    2    0    0  0.31294697397E+02 -0.14181279880E+02 -0.19194275110E+03  0.19499355498E+03  0.00000000000E+00 0.  1.
</event>
<event>
 7    1  0.2594791E-009  0.1200860E+03  0.7561462E-02  0.1242955E+00
         -3   -1    0    0    0  501 -0.00000000000E+00  0.00000000000E+00  0.30290730220E+03  0.30290730220E+03  0.00000000000E+00 0.  1.
          3   -1    0    0  501    0  0.00000000000E+00 -0.00000000000E+00 -0.56949221710E+02  0.56949221710E+02  0.00000000000E+00 0. -1.
         25    2    1    2    0    0 -0.34826071085E+02  0.48345357169E+02  0.76088957900E+02  0.15807636771E+03  0.12509388365E+03 0.  0.
          5    1    3    3  502    0  0.37067568600E+02  0.53634632510E+02  0.45725739621E+02  0.79743301351E+02  0.41800000000E+01 0.  1.
         -5    1    3    3    0  502 -0.71893639685E+02 -0.52892753410E+01  0.30363218279E+02  0.78333066358E+02  0.41800000000E+01 0.  1.
        -11    1    1    2    0    0  0.45935518812E+02  0.67490364745E+01  0.44146149109E+02  0.64066401983E+02  0.00000000000E+00 0.  1.
         11    1    1    2    0    0 -0.11109447727E+02 -0.55094393644E+02  0.12572297349E+03  0.13771375422E+03  0.00000000000E+00 0. -1.
</event>
<event>
 7    1  0.2594791E-009  0.6881791E+02  0.7561462E-02  0.1364160E+00
          1   -1    0    0  501    0  0.00000000000E+00  0.00000000000E+00  0.97975528941E+03  0.97975528941E+03  0.00000000000E+00 0. -1.
         -1   -1    0    0    0  501 -0.00000000000E+00 -0.00000000000E+00 -0.15865093560E+02  0.15865093560E+02  0.00000000000E+00 0.  1.
         25    2    1    2    0    0 -0.42138558512E+01  0.47219436887E+02  0.69784361957E+03  0.71054949132E+03  0.12508968958E+03 0.  0.
          5    1    3    3  502    0 -0.23271715496E+02  0.44484550163E+02  0.68539624143E+03  0.68724517322E+03  0.41800000000E+01 0. -1.
         -5    1    3    3    0  502  0.19057859644E+02  0.27348867242E+01  0.12447378141E+02  0.23304318102E+02  0.41800000000E+01 0. -1.
        -11    1    1    2    0    0  0.24896608628E+02 -0.36711668229E+02  0.25595824550E+03  0.25977338421E+03  0.00000000000E+00 0. -1.
         11    1    1    2    0    0 -0.20682752777E+02 -0.10507768658E+02  0.10088330775E+02  0.25297507435E+02  0.00000000000E+00 0.  1.
</event>
<event>
 7    1  0.2594791E-009  0.1058600E+03  0.7561462E-02  0.1268434E+00
          1   -1    0    0  501    0  0.00000000000E+00  0.00000000000E+00  0.57476231002E+03  0.57476231002E+03  0.00000000000E+00 0. -1.
         -1   -1    0    0    0  501 -0.00000000000E+00 -0.00000000000E+00 -0.21408892300E+02  0.21408892300E+02  0.00000000000E+00 0.  1.
         25    2    1    2    0    0  0.71738939128E+01  0.12538228224E+02  0.35437647686E+03  0.37608096096E+03  0.12508209276E+03 0.  0.
          5    1    3    3  502    0 -0.20046148132E+02  0.64101182687E+02  0.19919564762E+03  0.21025505490E+03  0.41800000000E+01 0.  1.
         -5    1    3    3    0  502  0.27220042045E+02 -0.51562954463E+02  0.15518082923E+03  0.16582590607E+03  0.41800000000E+01 0.  1.
        -11    1    1    2    0    0 -0.26683594969E+02 -0.42520760788E+02  0.15756190304E+03  0.16536560292E+03  0.00000000000E+00 0.  1.
         11    1    1    2    0    0  0.19509701057E+02  0.29982532564E+02  0.41415037818E+02  0.54724638434E+02  0.00000000000E+00 0. -1.
</event>
<event>
 7    1  0.2594791E-009  0.9076561E+02  0.7561462E-02  0.1301008E+00
         -1   -1    0    0    0  501 -0.00000000000E+00  0.00000000000E+00  0.19743186295E+02  0.19743186295E+02  0.00000000000E+00 0.  1.
          1   -1    0    0  501    0  0.00000000000E+00 -0.00000000000E+00 -0.62016166282E+03  0.62016166282E+03  0.00000000000E+00 0. -1.
         25    2    1    2    0    0  0.18423978159E+02  0.64475110653E+01 -0.33601091498E+03  0.35907091998E+03  0.12509027627E+03 0.  0.
          5    1    3    3  502    0  0.29049893356E+02 -0.34000427305E+02 -0.40165367318E+02  0.60254912602E+02  0.41800000000E+01 0. -1.
         -5    1    3    3    0  502 -0.10625915197E+02  0.40447938370E+02 -0.29584554766E+03  0.29881600738E+03  0.41800000000E+01 0. -1.
        -11    1    1    2    0    0 -0.45267138741E+01  0.42992877822E+02 -0.12544779587E+03  0.13268770919E+03  0.00000000000E+00 0.  1.
         11    1    1    2    0    0 -0.13897264285E+02 -0.49440388887E+02 -0.13895976568E+03  0.14814621995E+03  0.00000000000E+00 0. -1.
</event>
<event>
 7    1  0.2594791E-009  0.2695073E+03  0.7561462E-02  0.1101562E+00
          2   -1    0    0  501    0  0.00000000000E+00  0.00000000000E+00  0.12974008833E+04  0.12974008833E+04  0.00000000000E+00 0. -1.
         -2   -1    0    0    0  501 -0.00000000000E+00 -0.00000000000E+00 -0.61845415719E+02  0.61845415719E+02  0.00000000000E+00 0.  1.
         25    2    1    2    0    0 -0.12792642323E+03 -0.22801750992E+03  0.63900072755E+03  0.70165978449E+03  0.12508944309E+03 0.  0.
          5    1    3    3  502    0 -0.92631761872E+02 -0.18798365853E+03  0.35178904771E+03  0.40950153318E+03  0.41800000000E+01 0. -1.
         -5    1    3    3    0  502 -0.35294661360E+02 -0.40033851390E+02  0.28721167983E+03  0.29215825131E+03  0.41800000000E+01 0. -1.
        -11    1    1    2    0    0  0.58810101840E+02  0.18579117725E+03  0.39805402815E+03  0.44319747173E+03  0.00000000000E+00 0.  1.
         11    1    1    2    0    0  0.69116321392E+02  0.42226332671E+02  0.19850071189E+03  0.21438904280E+03  0.00000000000E+00 0. -1.
</event>
<event>
 7    1  0.2594791E-009  0.1010197E+03  0.7561462E-02  0.1278166E+00
          2   -1    0    0  501    0  0.00000000000E+00  0.00000000000E+00  0.32227322392E+02  0.32227322392E+02  0.00000000000E+00 0. -1.
         -2   -1    0    0    0  501 -0.00000000000E+00 -0.00000000000E+00 -0.52373935709E+03  0.52373935709E+03  0.00000000000E+00 0.  1.
         25    2    1    2    0    0 -0.48915959508E+02 -0.20421623031E+02 -0.37668415279E+03  0.40043651307E+03  0.12509450929E+03 0.  0.
          5    1    3    3  502    0 -0.43684651436E+02 -0.61806882591E+02 -0.13225244794E+03  0.15243563196E+03  0.41800000000E+01 0.  1.
         -5    1    3    3    0  502 -0.52313080719E+01  0.41385259559E+02 -0.24443170485E+03  0.24800088110E+03  0.41800000000E+01 0.  1.
        -11    1    1    2    0    0  0.41196735025E+02  0.43540098601E+02 -0.11658738597E+03  0.13109359150E+03  0.00000000000E+00 0.  1.
         11    1    1    2    0    0  0.77192244829E+01 -0.23118475569E+02  0.17595040613E+01  0.24436574920E+02  0.00000000000E+00 0. -1.
</event>
<event>
 7    1  0.2594791E-009  0.2449493E+03  0.7561462E-02  0.1116539E+00
          2   -1    0    0  501    0  0.00000000000E+00  0.00000000000E+00  0.17397964563E+04  0.17397964563E+04  0.00000000000E+00 0. -1.
         -2   -1    0    0    0  501 -0.00000000000E+00 -0.00000000000E+00 -0.37842133279E+02  0.37842133279E+02  0.00000000000E+00 0.  1.
         25    2    1    2    0    0  0.22429767951E+03  0.48621078971E+02  0.97483175343E+03  0.10092659409E+04  0.12508930285E+03 0.  0.
          5    1    3    3  502    0  0.48578597181E+02  0.63091725190E+02  0.21708148129E+03  0.23126237872E+03  0.41800000000E+01 0. -1.
         -5    1    3    3    0  502  0.17571908233E+03 -0.14470646219E+02  0.75775027214E+03  0.77800356222E+03  0.41800000000E+01 0. -1.
        -11    1    1    2    0    0 -0.17050572497E+03 -0.56081086210E+02  0.64804522186E+03  0.67244323184E+03  0.00000000000E+00 0. -1.
         11    1    1    2    0    0 -0.53791954543E+02  0.74600072384E+01  0.79077347687E+02  0.95929416754E+02  0.00000000000E+00 0.  1.
</event>
<event>
 7    1  0.2594791E-009  0.1556415E+03  0.7561462E-02  0.1193707E+00
          3   -1    0    0  501    0  0.00000000000E+00  0.00000000000E+00  0.45449356042E+02  0.45449356042E+02  0.00000000000E+00 0. -1.
         -3   -1    0    0    0  501 -0.00000000000E+00 -0.00000000000E+00 -0.68275394232E+03  0.68275394232E+03  0.00000000000E+00 0.  1.
         25    2    1    2    0    0  0.12663124626E+03 -0.51778900854E+02 -0.39638098239E+03  0.43758714915E+03  0.12509237705E+03 0.  0.
          5    1    3    3  502    0  0.90778169353E+02 -0.85720749438E+02 -0.20649120912E+03  0.24133962534E+03  0.41800000000E+01 0.  1.
         -5    1    3    3    0  502  0.35853076909E+02  0.33941848585E+02 -0.18988977327E+03  0.19624752381E+03  0.41800000000E+01 0.  1.
        -11    1    1    2    0    0 -0.35661026902E+02  0.14971789402E+02 -0.15636290984E+03  0.16107520881E+03  0.00000000000E+00 0.  1.
         11    1    1    2    0    0 -0.90970219361E+02  0.36807111452E+02 -0.84560694050E+02  0.12954094041E+03  0.00000000000E+00 0. -1.
</event>
<event>
 7    1  0.2594791E-009  0.1186190E+03  0.7561462E-02  0.1245393E+00
          2   -1    0    0  501    0  0.00000000000E+00  0.00000000000E+00  0.19951544903E+03  0.19951544903E+03  0.00000000000E+00 0. -1.
         -2   -1    0    0    0  501 -0.00000000000E+00 -0.00000000000E+00 -0.85421247012E+02  0.85421247012E+02  0.00000000000E+00 0.  1.
         25    2    1    2    0    0  0.53845926795E+02  0.10770444074E+02  0.11583817882E+03  0.17911038235E+03  0.12508660638E+03 0.  0.
          5    1    3    3  502    0  0.72281026601E+01  0.63970161648E+02  0.67269292090E+02  0.93204383522E+02  0.41800000000E+01 0. -1.
         -5    1    3    3    0  502  0.46617824134E+02 -0.53199717574E+02  0.48568886726E+02  0.85905998829E+02  0.41800000000E+01 0. -1.
        -11    1    1    2    0    0 -0.25372785872E+02  0.37823470556E+02  0.13452927131E+02  0.47490782644E+02  0.00000000000E+00 0. -1.
         11    1    1    2    0    0 -0.28473140922E+02 -0.48593914630E+02 -0.15196903933E+02  0.58335531044E+02  0.00000000000E+00 0.  1.
</event>
<event>
 7    1  0.2594791E-009  0.1115666E+03  0.7561462E-02  0.1257696E+00
         -2   -1    0    0    0  501 -0.00000000000E+00  0.00000000000E+00  0.33499764945E+02  0.33499764945E+02  0.00000000000E+00 0.  1.
          2   -1    0    0  501    0  0.00000000000E+00 -0.00000000000E+00 -0.38627059747E+03  0.38627059747E+03  0.00000000000E+00 0. -1.
         25    2    1    2    0    0 -0.10421726602E+02 -0.33086718431E+02 -0.19502735184E+03  0.23427620393E+03  0.12508528468E+03 0.  0.
          5    1    3    3  502    0  0.15415851317E+02  0.43615695938E+02 -0.50769481855E+02  0.68811264280E+02  0.41800000000E+01 0. -1.
         -5    1    3    3    0  502 -0.25837577919E+02 -0.76702414368E+02 -0.14425786998E+03  0.16546493965E+03  0.41800000000E+01 0. -1.
        -11    1    1    2    0    0  0.48884772166E+02  0.29294540570E+02 -0.11154598224E+03  0.12526131570E+03  0.00000000000E+00 0.  1.
         11    1    1    2    0    0 -0.38463045564E+02  0.37921778604E+01 -0.46197498455E+02  0.60232842789E+02  0.00000000000E+00 0. -1.
</event>
<event>
 7    1  0.2594791E-009  0.9534579E+02  0.7561462E-02  0.1290399E+00
          2   -1    0    0  501    0  0.00000000000E+00  0.00000000000E+00  0.77431689331E+02  0.77431689331E+02  0.00000000000E+00 0. -1.
         -2   -1    0    0    0  501 -0.00000000000E+00 -0.00000000000E+00 -0.30047363589E+03  0.30047363589E+03  0.00000000000E+00 0.  1.
         25    2    1    2    0    0 -0.68306720269E+02  0.36963870422E+01 -0.18186573926E+02  0.14373325134E+03  0.12509606212E+03 0.  0.
          5    1    3    3  502    0 -0.90231824565E+02 -0.13222056234E+02  0.22796368226E+02  0.94094376770E+02  0.41800000000E+01 0.  1.
         -5    1    3    3    0  502  0.21925104296E+02  0.16918443276E+02 -0.40982942152E+02  0.49638874571E+02  0.41800000000E+01 0.  1.
        -11    1    1    2    0    0  0.31802546983E+02  0.84762771466E+01 -0.19015049928E+03  0.19297787864E+03  0.00000000000E+00 0.  1.
         11    1    1    2    0    0  0.36504173286E+02 -0.12172664189E+02 -0.14704873350E+02  0.41194195234E+02  0.00000000000E+00 0. -1.
</event>
<event>
 7    1  0.2594791E-009  0.1445159E+03  0.7561462E-02  0.1207378E+00
         -1   -1    0    0    0  501 -0.00000000000E+00  0.00000000000E+00  0.17992069800E+03  0.17992069800E+03  0.00000000000E+00 0.  1.
          1   -1    0    0  501    0  0.00000000000E+00 -0.00000000000E+00 -0.18540793760E+03  0.18540793760E+03  0.00000000000E+00 0. -1.
         25    2    1    2    0    0 -0.11333875742E+03  0.38946864048E+02  0.80942866818E+02  0.19121221450E+03  0.12509129119E+03 0.  0.
          5    1    3    3  502    0 -0.12647073888E+03  0.55161152374E+02  0.37824069883E+02  0.14312838009E+03  0.41800000000E+01 0.  1.
         -5    1    3    3    0  502  0.13131981457E+02 -0.16214288326E+02  0.43118796934E+02  0.48083834414E+02  0.41800000000E+01 0.  1.
        -11    1    1    2    0    0  0.61363034593E+02 -0.46764938225E+02 -0.51510658775E+01  0.77323443672E+02  0.00000000000E+00 0.  1.
         11    1    1    2    0    0  0.51975722828E+02  0.78180741777E+01 -0.81279040543E+02  0.96792977426E+02  0.00000000000E+00 0. -1.
</event>
<event>
 7    1  0.2594791E-009  0.8357400E+02  0.7561462E-02  0.1319204E+00
         -1   -1    0    0    0  501 -0.00000000000E+00  0.00000000000E+00  0.64057994086E+02  0.64057994086E+02  0.00000000000E+00 0.  1.
          1   -1    0    0  501    0  0.00000000000E+00 -0.00000000000E+00 -0.22398865507E+03  0.22398865507E+03  0.00000000000E+00 0. -1.
         25    2    1    2    0    0  0.32055323188E+01 -0.41824559309E+02 -0.59977060683E+02  0.14492819401E+03  0.12508942566E+03 0.  0.
          5    1    3    3  502    0 -0.44581446471E+02  0.13021073538E+01  0.13852160703E+02  0.46888757812E+02  0.41800000000E+01 0. -1.
         -5    1    3    3    0  502  0.47786978790E+02 -0.43126666663E+02 -0.73829221386E+02  0.98039436197E+02  0.41800000000E+01 0. -1.
        -11    1    1    2    0    0 -0.18954938612E+02  0.80755784122E+01  0.12879462736E+02  0.24297844037E+02  0.00000000000E+00 0.  1.
         11    1    1    2    0    0  0.15749406293E+02  0.33748980897E+02 -0.11283306304E+03  0.11882061111E+03  0.00000000000E+00 0. -1.
</event>
<event>
 7    1  0.2594791E-009  0.8455102E+02  0.7561462E-02  0.1316611E+00
         -1   -1    0    0    0  501 -0.00000000000E+00  0.00000000000E+00  0.69822325838E+02  0.69822325838E+02  0.00000000000E+00 0.  1.
          1   -1    0    0  501    0  0.00000000000E+00 -0.00000000000E+00 -0.27906916224E+03  0.27906916224E+03  0.00000000000E+00 0. -1.
         25    2    1    2    0    0  0.44756993051E+02 -0.55618319655E+02 -0.17771477760E+03  0.22874850951E+03  0.12508697982E+03 0.  0.
          5    1    3    3  502    0  0.37355649396E+00 -0.48377821311E+02 -0.17704067491E+03  0.18357948173E+03  0.41800000000E+01 0.  1.
         -5    1    3    3    0  502  0.44383436557E+02 -0.72404983443E+01 -0.67410269025E+00  0.45169027788E+02  0.41800000000E+01 0.  1.
        -11    1    1    2    0    0 -0.27461160454E+02  0.15136020690E+02  0.30720830175E+02  0.43897424326E+02  0.00000000000E+00 0.  1.
         11    1    1    2    0    0 -0.17295832598E+02  0.40482298965E+02 -0.62252888982E+02  0.76245554240E+02  0.00000000000E+00 0. -1.
</event>
<event>
 7    1  0.2594791E-009  0.1062845E+03  0.7561462E-02  0.1267609E+00
         -1   -1    0    0    0  501 -0.00000000000E+00  0.00000000000E+00  0.16133206585E+02  0.16133206585E+02  0.00000000000E+00 0.  1.
          1   -1    0    0  501    0  0.00000000000E+00 -0.00000000000E+00 -0.11126036237E+04  0.11126036237E+04  0.00000000000E+00 0. -1.
         25    2    1    2    0    0 -0.73937573607E+02  0.27273245472E+02 -0.65434533691E+03  0.67084037074E+03  0.12509351849E+03 0.  0.
          5    1    3    3  502    0 -0.65278885575E+02  0.42453307560E+02 -0.18013668434E+03  0.19629139988E+03  0.41800000000E+01 0.  1.
         -5    1    3    3    0  502 -0.86586880320E+01 -0.15180062088E+02 -0.47420865257E+03  0.47454897085E+03  0.41800000000E+01 0.  1.
        -11    1    1    2    0    0 -0.76321887246E+01  0.20648459452E+02 -0.12637990998E+03  0.12828285478E+03  0.00000000000E+00 0. -1.
         11    1    1    2    0    0  0.81569762332E+02 -0.47921704924E+02 -0.31574517018E+03  0.32961360472E+03  0.00000000000E+00 0.  1.
</event>
<event>
 7    1  0.2594791E-009  0.1466050E+03  0.7561462E-02  0.1204708E+00
          2   -1    0    0  501    0  0.00000000000E+00  0.00000000000E+00  0.93284703781E+02  0.93284703781E+02  0.00000000000E+00 0. -1.
         -2   -1    0    0    0  501 -0.00000000000E+00 -0.00000000000E+00 -0.29566162233E+03  0.29566162233E+03  0.00000000000E+00 0.  1.
         25    2    1    2    0    0  0.85875634811E+02 -0.72148481893E+02 -0.17519862817E+03  0.24274242780E+03  0.12509715764E+03 0.  0.
          5    1    3    3  502    0  0.66503812554E+02  0.97044855051E+01 -0.13178760539E+03  0.14799452509E+03  0.41800000000E+01 0.  1.
         -5    1    3    3    0  502  0.19371822257E+02 -0.81852967398E+02 -0.43411022783E+02  0.94747902713E+02  0.41800000000E+01 0.  1.
        -11    1    1    2    0    0 -0.69862014359E+02  0.92398913577E+02 -0.31462307574E+02  0.12003389970E+03  0.00000000000E+00 0.  1.
         11    1    1    2    0    0 -0.16013620452E+02 -0.20250431684E+02  0.42840171976E+01  0.26169998599E+02  0.00000000000E+00 0. -1.
</event>
<event>
 7    1  0.2594791E-009  0.9508903E+02  0.7561462E-02  0.1290976E+00
          3   -1    0    0  501    0  0.00000000000E+00  0.00000000000E+00  0.11326390296E+03  0.11326390296E+03  0.00000000000E+00 0. -1.
         -3   -1    0    0    0  501 -0.00000000000E+00 -0.00000000000E+00 -0.10711413221E+03  0.10711413221E+03  0.00000000000E+00 0.  1.
         25    2    1    2    0    0  0.15483543315E+02 -0.70768204835E+01  0.20917661231E+02  0.12796289258E+03  0.12508849597E+03 0.  0.
          5    1    3    3  502    0 -0.35733483922E+02 -0.27348005383E+02 -0.28845440436E+02  0.53612751334E+02  0.41800000000E+01 0.  1.
         -5    1    3    3    0  502  0.51217027237E+02  0.20271184899E+02  0.49763101668E+02  0.74350141249E+02  0.41800000000E+01 0.  1.
        -11    1    1    2    0    0 -0.69667427686E+01 -0.40661209717E+02 -0.15076589373E+02  0.43922352255E+02  0.00000000000E+00 0.  1.
         11    1    1    2    0    0 -0.85168005460E+01  0.47738030201E+02  0.30869888440E+00  0.48492790330E+02  0.00000000000E+00 0. -1.
</event>
<event>
 7    1  0.2594791E-009  0.9827319E+02  0.7561462E-02  0.1283970E+00
          1   -1    0    0  501    0  0.00000000000E+00  0.00000000000E+00  0.53286639590E+03  0.53286639590E+03  0.00000000000E+00 0. -1.
         -1   -1    0    0    0  501 -0.00000000000E+00 -0.00000000000E+00 -0.39314580613E+02  0.39314580613E+02  0.00000000000E+00 0.  1.
         25    2    1    2    0    0  0.59034276757E+02  0.60696739846E+02  0.36817814913E+03  0.39795814680E+03  0.12508555891E+03 0.  0.
          5    1    3    3  502    0  0.30600778928E+02  0.71798184447E+02  0.35656911280E+03  0.36503478130E+03  0.41800000000E+01 0.  1.
         -5    1    3    3    0  502  0.28433497829E+02 -0.11101444601E+02  0.11609036335E+02  0.32923365497E+02  0.41800000000E+01 0. -1.
        -11    1    1    2    0    0 -0.48455392816E+02 -0.34954706129E+02  0.13262571012E+03  0.14546248850E+03  0.00000000000E+00 0. -1.
         11    1    1    2    0    0 -0.10578883941E+02 -0.25742033718E+02 -0.72520439656E+01  0.28760341219E+02  0.00000000000E+00 0.  1.
</event>
<event>
 7    1  0.2594791E-009  0.1921100E+03  0.7561462E-02  0.1156572E+00
         -1   -1    0    0    0  501 -0.00000000000E+00  0.00000000000E+00  0.12304305813E+03  0.12304305813E+03  0.00000000000E+00 0.  1.
          1   -1    0    0  501    0  0.00000000000E+00 -0.00000000000E+00 -0.48907862871E+03  0.48907862871E+03  0.00000000000E+00 0. -1.
         25    2    1    2    0    0  0.25211627625E+02 -0.15771416659E+03 -0.50188248387E+00  0.20287335458E+03  0.12509181268E+03 0.  0.
          5    1    3    3  502    0  0.10532962664E+02 -0.17629926242E+03  0.92908944263E+01  0.17690722526E+03  0.41800000000E+01 0.  1.
         -5    1    3    3    0  502  0.14678664960E+02  0.18585095826E+02 -0.97927769102E+01  0.25966129313E+02  0.41800000000E+01 0.  1.
        -11    1    1    2    0    0 -0.14242931761E+02  0.16792168459E+03 -0.32627178212E+03  0.36722449411E+03  0.00000000000E+00 0.  1.
         11    1    1    2    0    0 -0.10968695864E+02 -0.10207518000E+02 -0.39261905978E+02  0.42023838160E+02  0.00000000000E+00 0. -1.
</event>
<event>
 7    1  0.2594791E-009  0.1225516E+03  0.7561462E-02  0.1238946E+00
          2   -1    0    0  501    0  0.00000000000E+00  0.00000000000E+00  0.21093257238E+03  0.21093257238E+03  0.00000000000E+00 0.  1.
         -2   -1    0    0    0  501 -0.00000000000E+00 -0.00000000000E+00 -0.88649826401E+02  0.88649826401E+02  0.00000000000E+00 0. -1.
         25    2    1    2    0    0  0.60175459821E+02  0.42425087587E+02  0.10664972257E+03  0.18011590055E+03  0.12508637130E+03 0.  0.
          5    1    3    3  502    0 -0.30766707134E+02  0.26119396842E+02  0.69438603709E+02  0.80423909656E+02  0.41800000000E+01 0.  1.
         -5    1    3    3    0  502  0.90942166955E+02  0.16305690744E+02  0.37211118864E+02  0.99691990894E+02  0.41800000000E+01 0.  1.
        -11    1    1    2    0    0 -0.67257112677E+02  0.17726478183E+01  0.28234986136E+02  0.72964895176E+02  0.00000000000E+00 0.  1.
         11    1    1    2    0    0  0.70816528561E+01 -0.44197735405E+02 -0.12601962730E+02  0.46501603055E+02  0.00000000000E+00 0. -1.
</event>
<event>
 7    1  0.2594791E-009  0.1156283E+03  0.7561462E-02  0.1250488E+00
         -2   -1    0    0    0  501 -0.00000000000E+00  0.00000000000E+00  0.34898534764E+02  0.34898534764E+02  0.00000000000E+00 0.  1.
          2   -1    0    0  501    0  0.00000000000E+00 -0.00000000000E+00 -0.44219097797E+03  0.44219097797E+03  0.00000000000E+00 0. -1.
         25    2    1    2    0    0 -0.19774487957E+02  0.59452242609E+02 -0.23649771953E+03  0.27477720609E+03  0.12508294095E+03 0.  0.
          5    1    3    3  502    0  0.36449253050E+02 -0.10842536780E+02 -0.27303529905E+02  0.47000678687E+02  0.41800000000E+01 0.  1.
         -5    1    3    3    0  502 -0.56223741007E+02  0.70294779388E+02 -0.20919418963E+03  0.22777652741E+03  0.41800000000E+01 0.  1.
        -11    1    1    2    0    0 -0.32095384854E+02 -0.23446059888E+02 -0.99116094493E+02  0.10678872431E+03  0.00000000000E+00 0. -1.
         11    1    1    2    0    0  0.51869872810E+02 -0.36006182721E+02 -0.71678629174E+02  0.95523582323E+02  0.00000000000E+00 0.  1.
</event>
<event>
 7    1  0.2594791E-009  0.1085632E+03  0.7561462E-02  0.1263254E+00
         -2   -1    0    0    0  501 -0.00000000000E+00  0.00000000000E+00  0.46958421814E+02  0.46958421814E+02  0.00000000000E+00 0.  1.
          2   -1    0    0  501    0  0.00000000000E+00 -0.00000000000E+00 -0.49439557462E+03  0.49439557462E+03  0.00000000000E+00 0. -1.
         25    2    1    2    0    0 -0.84466320417E+02  0.27160368430E+02 -0.34700340457E+03  0.37938425344E+03  0.12509518009E+03 0.  0.
          5    1    3    3  502    0 -0.83692556666E+02  0.17125398158E+02 -0.97720996776E+02  0.12986373210E+03  0.41800000000E+01 0. -1.
         -5    1    3    3    0  502 -0.77376375065E+00  0.10034970272E+02 -0.24928240779E+03  0.24952052135E+03  0.41800000000E+01 0. -1.
        -11    1    1    2    0    0 -0.16548990375E+02 -0.27432346730E+01  0.92629031109E+00  0.16800370015E+02  0.00000000000E+00 0.  1.
         11    1    1    2    0    0  0.10101531079E+03 -0.24417133757E+02 -0.10136003855E+03  0.14516937298E+03  0.00000000000E+00 0. -1.
</event>
<event>
 7    1  0.2594791E-009  0.9558903E+02  0.7561462E-02  0.1289855E+00
          1   -1    0    0  501    0  0.00000000000E+00  0.00000000000E+00  0.49812444510E+02  0.49812444510E+02  0.00000000000E+00 0. -1.
         -1   -1    0    0    0  501 -0.00000000000E+00 -0.00000000000E+00 -0.29377198553E+03  0.29377198553E+03  0.00000000000E+00 0.  1.
         25    2    1    2    0    0 -0.19263817570E+02 -0.52298103844E+02 -0.13946235153E+03  0.19545359344E+03  0.12508466478E+03 0.  0.
          5    1    3    3  502    0 -0.49875809090E+02  0.22229370222E+02 -0.42532932533E+02  0.69341646813E+02  0.41800000000E+01 0.  1.
         -5    1    3    3    0  502  0.30611991520E+02 -0.74527474066E+02 -0.96929418996E+02  0.12611194663E+03  0.41800000000E+01 0.  1.
        -11    1    1    2    0    0  0.14538515878E+02  0.38874586508E+02 -0.12006649288E+03  0.12703765045E+03  0.00000000000E+00 0.  1.
         11    1    1    2    0    0  0.47253016920E+01  0.13423517337E+02  0.15569303389E+02  0.21093186146E+02  0.00000000000E+00 0. -1.
</event>
<event>
 7    1  0.2594791E-009  0.2653611E+03  0.7561462E-02  0.1103964E+00
          2   -1    0    0  501    0  0.00000000000E+00  0.00000000000E+00  0.21956329037E+03  0.21956329037E+03  0.00000000000E+00 0. -1.
         -2   -1    0    0    0  501 -0.00000000000E+00 -0.00000000000E+00 -0.33265866688E+03  0.33265866688E+03  0.00000000000E+00 0.  1.
         25    2    1    2    0    0 -0.16803025342E+03 -0.18171916124E+03 -0.43693172016E+02  0.28073676066E+03  0.12509202965E+03 0.  0.
          5    1    3    3  502    0  0.30299663269E+01  0.12113523577E+02 -0.15973172880E+02  0.20701033821E+02  0.41800000000E+01 0. -1.
         -5    1    3    3    0  502 -0.17106021975E+03 -0.19383268482E+03 -0.27719999136E+02  0.26003572684E+03  0.41800000000E+01 0. -1.
        -11    1    1    2    0    0  0.98938111745E+02  0.51386972980E+02 -0.82282660258E+01  0.11179031850E+03  0.00000000000E+00 0. -1.
         11    1    1    2    0    0  0.69092141676E+02  0.13033218826E+03 -0.61173938468E+02  0.15969487808E+03  0.00000000000E+00 0.  1.
</event>
<event>
 7    1  0.2594791E-009  0.8537296E+02  0.7561462E-02  0.1314460E+00
          1   -1    0    0  501    0  0.00000000000E+00  0.00000000000E+00  0.49493721168E+03  0.49493721168E+03  0.00000000000E+00 0. -1.
         -1   -1    0    0    0  501 -0.00000000000E+00 -0.00000000000E+00 -0.31513303876E+02  0.31513303876E+02  0.00000000000E+00 0.  1.
         25    2    1    2    0    0  0.18101735419E+02  0.32562776827E+02  0.18483081288E+03  0.22627014383E+03  0.12509093229E+03 0.  0.
          5    1    3    3  502    0 -0.19970763987E+02 -0.13020594238E+02 -0.71749257799E+01  0.25245182679E+02  0.41800000000E+01 0. -1.
         -5    1    3    3    0  502  0.38072499406E+02  0.45583371065E+02  0.19200573866E+03  0.20102496115E+03  0.41800000000E+01 0. -1.
        -11    1    1    2    0    0 -0.45992586537E+02 -0.25965008780E+01  0.50141549170E+02  0.68089902235E+02  0.00000000000E+00 0.  1.
         11    1    1    2    0    0  0.27890851117E+02 -0.29966275949E+02  0.22845154575E+03  0.23209046949E+03  0.00000000000E+00 0. -1.
</event>
<event>
 7    1  0.2594791E-009  0.1315908E+03  0.7561462E-02  0.1225114E+00
         -3   -1    0    0    0  501 -0.00000000000E+00  0.00000000000E+00  0.26462137798E+02  0.26462137798E+02  0.00000000000E+00 0.  1.
          3   -1    0    0  501    0  0.00000000000E+00 -0.00000000000E+00 -0.80417586027E+03  0.80417586027E+03  0.00000000000E+00 0. -1.
         25    2    1    2    0    0  0.22785125888E+02  0.90556667706E+02 -0.50950528524E+03  0.53288038283E+03  0.12508475001E+03 0.  0.
          5    1    3    3  502    0 -0.36668113540E+02  0.11142566474E+02 -0.52040310777E+02  0.64763984466E+02  0.41800000000E+01 0.  1.
         -5    1    3    3    0  502  0.59453239428E+02  0.79414101232E+02 -0.45746497446E+03  0.46811639836E+03  0.41800000000E+01 0.  1.
        -11    1    1    2    0    0  0.27114642211E+02 -0.69786573611E+01 -0.95352225500E+02  0.99377826444E+02  0.00000000000E+00 0. -1.
         11    1    1    2    0    0 -0.49899768100E+02 -0.83578010345E+02 -0.17285621173E+03  0.19837978880E+03  0.00000000000E+00 0.  1.
</event>
<event>
 7    1  0.2594791E-009  0.1582546E+03  0.7561462E-02  0.1190682E+00
         -1   -1    0    0    0  501 -0.00000000000E+00  0.00000000000E+00  0.23633110924E+03  0.23633110924E+03  0.00000000000E+00 0.  1.
          1   -1    0    0  501    0  0.00000000000E+00 -0.00000000000E+00 -0.14319140454E+03  0.14319140454E+03  0.00000000000E+00 0. -1.
         25    2    1    2    0    0 -0.99525884741E+02  0.94129859399E+02 -0.81072028742E+01  0.18568831510E+03  0.12509433026E+03 0.  0.
          5    1    3    3  502    0  0.12052692106E+02  0.42059383055E+02  0.33917216135E+02  0.55516745585E+02  0.41800000000E+01 0.  1.
         -5    1    3    3    0  502 -0.11157857685E+03  0.52070476344E+02 -0.42024419009E+02  0.13017156952E+03  0.41800000000E+01 0.  1.
        -11    1    1    2    0    0  0.14157349646E+02  0.79880065407E+01 -0.11077946926E+02  0.19671291406E+02  0.00000000000E+00 0. -1.
         11    1    1    2    0    0  0.85368535094E+02 -0.10211786594E+03  0.11232485450E+03  0.17416290727E+03  0.00000000000E+00 0.  1.
</event>
<event>
 7    1  0.2594791E-009  0.1110786E+03  0.7561462E-02  0.1258585E+00
         -2   -1    0    0    0  501 -0.00000000000E+00  0.00000000000E+00  0.21335758462E+02  0.21335758462E+02  0.00000000000E+00 0.  1.
          2   -1    0    0  501    0  0.00000000000E+00 -0.00000000000E+00 -0.10402688489E+04  0.10402688489E+04  0.00000000000E+00 0. -1.
         25    2    1    2    0    0  0.75598272360E+02 -0.47831309235E+02 -0.72189674094E+03  0.73809658737E+03  0.12509490310E+03 0.  0.
          5    1    3    3  502    0  0.23408616303E+01  0.19412723151E+02 -0.17108620028E+02  0.26315598655E+02  0.41800000000E+01 0.  1.
         -5    1    3    3    0  502  0.73257410729E+02 -0.67244032385E+02 -0.70478812091E+03  0.71178098872E+03  0.41800000000E+01 0.  1.
        -11    1    1    2    0    0 -0.30168930112E+01  0.26936145562E+02 -0.13880779898E+02  0.30452153155E+02  0.00000000000E+00 0.  1.
         11    1    1    2    0    0 -0.72581379348E+02  0.20895163673E+02 -0.28315556960E+03  0.29305586684E+03  0.00000000000E+00 0. -1.
</event>
<event>
 7    1  0.2594791E-009  0.8347501E+02  0.7561462E-02  0.1319469E+00
         -1   -1    0    0    0  501 -0.00000000000E+00  0.00000000000E+00  0.41538535576E+03  0.41538535576E+03  0.00000000000E+00 0.  1.
          1   -1    0    0  501    0  0.00000000000E+00 -0.00000000000E+00 -0.39683384302E+02  0.39683384302E+02  0.00000000000E+00 0. -1.
         25    2    1    2    0    0 -0.41391850863E+02 -0.47320202510E+02  0.25912673230E+03  0.29452617045E+03  0.12508602961E+03 0.  0.
          5    1    3    3  502    0 -0.14243705854E+00 -0.37293134101E+02  0.24747966717E+03  0.25030872179E+03  0.41800000000E+01 0. -1.
         -5    1    3    3    0  502 -0.41249413805E+02 -0.10027068409E+02  0.11647065127E+02  0.44217448662E+02  0.41800000000E+01 0. -1.
        -11    1    1    2    0    0  0.57055475923E+02  0.37677350035E+02  0.12327480328E+03  0.14096661719E+03  0.00000000000E+00 0.  1.
         11    1    1    2    0    0 -0.15663625059E+02  0.96428524755E+01 -0.66995641191E+01  0.19575952423E+02  0.00000000000E+00 0. -1.
</event>
<event>
 7    1  0.2594791E-009  0.6835386E+02  0.7561462E-02  0.1365782E+00
         -2   -1    0    0    0  501 -0.00000000000E+00  0.00000000000E+00  0.97314043273E+02  0.97314043273E+02  0.00000000000E+00 0.  1.
          2   -1    0    0  501    0  0.00000000000E+00 -0.00000000000E+00 -0.17435682293E+03  0.17435682293E+03  0.00000000000E+00 0. -1.
         25    2    1    2    0    0 -0.37771577469E+02  0.45379745466E+02  0.70345447069E+00  0.13831470792E+03  0.12507777667E+03 0.  0.
          5    1    3    3  502    0 -0.43047696841E+02  0.17037385270E+02 -0.57073954464E+02  0.73609003378E+02  0.41800000000E+01 0. -1.
         -5    1    3    3    0  502  0.52761193716E+01  0.28342360196E+02  0.57777408934E+02  0.64705704542E+02  0.41800000000E+01 0. -1.
        -11    1    1    2    0    0  0.15781851458E+02 -0.79265009733E+01  0.19827870648E+02  0.26552602651E+02  0.00000000000E+00 0.  1.
         11    1    1    2    0    0  0.21989726011E+02 -0.37453244493E+02 -0.97574104777E+02  0.10680355563E+03  0.00000000000E+00 0. -1.
</event>
<event>
 7    1  0.2594791E-009  0.1420849E+03  0.7561462E-02  0.1210551E+00
          1   -1    0    0  501    0  0.00000000000E+00  0.00000000000E+00  0.11649996822E+03  0.11649996822E+03  0.00000000000E+00 0. -1.
         -1   -1    0    0    0  501 -0.00000000000E+00 -0.00000000000E+00 -0.22245154849E+03  0.22245154849E+03  0.00000000000E+00 0.  1.
         25    2    1    2    0    0 -0.79977006029E+02 -0.55573505600E+02  0.16249848422E+01  0.15854835019E+03  0.12510077040E+03 0.  0.
          5    1    3    3  502    0 -0.57091246803E+02 -0.86268523382E+02  0.33219797776E+02  0.10873222132E+03  0.41800000000E+01 0.  1.
         -5    1    3    3    0  502 -0.22885759226E+02  0.30695017782E+02 -0.31594812934E+02  0.49816128877E+02  0.41800000000E+01 0.  1.
        -11    1    1    2    0    0  0.14368103216E+02 -0.30605329290E+02 -0.41493236774E+02  0.53523987790E+02  0.00000000000E+00 0.  1.
         11    1    1    2    0    0  0.65608902814E+02  0.86178834889E+02 -0.66083328337E+02  0.12687917873E+03  0.00000000000E+00 0. -1.
</event>
<event>
 7    1  0.2594791E-009  0.1182146E+03  0.7561462E-02  0.1246072E+00
         -1   -1    0    0    0  501 -0.00000000000E+00  0.00000000000E+00  0.18338956167E+03  0.18338956167E+03  0.00000000000E+00 0.  1.
          1   -1    0    0  501    0  0.00000000000E+00 -0.00000000000E+00 -0.96557820249E+02  0.96557820249E+02  0.00000000000E+00 0. -1.
         25    2    1    2    0    0 -0.36739102101E+02  0.56593827106E+02  0.95616090900E+01  0.14244664040E+03  0.12508796146E+03 0.  0.
          5    1    3    3  502    0  0.42720918157E+02  0.30704450503E+01 -0.10895647089E+02  0.44392476913E+02  0.41800000000E+01 0.  1.
         -5    1    3    3    0  502 -0.79460020258E+02  0.53523382056E+02  0.20457256179E+02  0.98054163484E+02  0.41800000000E+01 0.  1.
        -11    1    1    2    0    0  0.49266327185E+02 -0.11356364751E+02  0.43054169103E+01  0.50741251752E+02  0.00000000000E+00 0.  1.
         11    1    1    2    0    0 -0.12527225084E+02 -0.45237462355E+02  0.72964715423E+02  0.86759489771E+02  0.00000000000E+00 0. -1.
</event>
<event>
 7    1  0.2594791E-009  0.1687291E+03  0.7561462E-02  0.1179180E+00
          2   -1    0    0  501    0  0.00000000000E+00  0.00000000000E+00  0.23646067845E+03  0.23646067845E+03  0.00000000000E+00 0. -1.
         -2   -1    0    0    0  501 -0.00000000000E+00 -0.00000000000E+00 -0.13760706980E+03  0.13760706980E+03  0.00000000000E+00 0.  1.
         25    2    1    2    0    0  0.10903559741E+03 -0.89796795713E+02  0.23151208862E+02  0.19009577096E+03  0.12509275616E+03 0.  0.
          5    1    3    3  502    0 -0.13880667550E+02 -0.60054391853E+02  0.20306499969E+01  0.61812610783E+02  0.41800000000E+01 0.  1.
         -5    1    3    3    0  502  0.12291626496E+03 -0.29742403860E+02  0.21120558866E+02  0.12828316018E+03  0.41800000000E+01 0.  1.
        -11    1    1    2    0    0 -0.85142946855E+02  0.91755562099E+02  0.24658838860E+02  0.12757924169E+03  0.00000000000E+00 0.  1.
         11    1    1    2    0    0 -0.23892650552E+02 -0.19587663858E+01  0.51043560926E+02  0.56392735598E+02  0.00000000000E+00 0. -1.
</event>
<event>
 7    1  0.2594791E-009  0.1133701E+03  0.7561462E-02  0.1254453E+00
         -2   -1    0    0    0  501 -0.00000000000E+00  0.00000000000E+00  0.38636889604E+02  0.38636889604E+02  0.00000000000E+00 0.  1.
          2   -1    0    0  501    0  0.00000000000E+00 -0.00000000000E+00 -0.49320502066E+03  0.49320502066E+03  0.00000000000E+00 0. -1.
         25    2    1    2    0    0 -0.94673336515E+00 -0.59597412563E+02 -0.37284812559E+03  0.39776804955E+03  0.12510375132E+03 0.  0.
          5    1    3    3  502    0  0.51124015313E+02 -0.19683647830E+02 -0.27122768556E+03  0.27673641023E+03  0.41800000000E+01 0. -1.
         -5    1    3    3    0  502 -0.52070748678E+02 -0.39913764733E+02 -0.10162044003E+03  0.12103163932E+03  0.41800000000E+01 0. -1.
        -11    1    1    2    0    0  0.27532512132E+02  0.71730974882E+02 -0.63090123200E+02  0.99416978566E+02  0.00000000000E+00 0. -1.
         11    1    1    2    0    0 -0.26585778767E+02 -0.12133562320E+02 -0.18629882260E+02  0.34656882148E+02  0.00000000000E+00 0.  1.
</event>
<event>
 7    1  0.2594791E-009  0.1187001E+03  0.7561462E-02  0.1245257E+00
         -2   -1    0    0    0  501 -0.00000000000E+00  0.00000000000E+00  0.90900027705E+02  0.90900027705E+02  0.00000000000E+00 0.  1.
          2   -1    0    0  501    0  0.00000000000E+00 -0.00000000000E+00 -0.17457001492E+03  0.17457001492E+03  0.00000000000E+00 0. -1.
         25    2    1    2    0    0 -0.41700829930E+01 -0.54285051203E+02 -0.12282970114E+02  0.13697542844E+03  0.12508852971E+03 0.  0.
          5    1    3    3  502    0 -0.56868084444E+02 -0.58165762796E+02 -0.18728840582E+02  0.83579165224E+02  0.41800000000E+01 0.  1.
         -5    1    3    3    0  502  0.52698001451E+02  0.38807115930E+01  0.64458704678E+01  0.53396263217E+02  0.41800000000E+01 0.  1.
        -11    1    1    2    0    0  0.17478544588E+02  0.75719582684E+02 -0.67567149901E+02  0.10297705797E+03  0.00000000000E+00 0.  1.
         11    1    1    2    0    0 -0.13308461595E+02 -0.21434531480E+02 -0.38198672037E+01  0.25517556216E+02  0.00000000000E+00 0. -1.
</event>
<event>
 7    1  0.2594791E-009  0.5539976E+02  0.7561462E-02  0.1418218E+00
          1   -1    0    0  501    0  0.00000000000E+00  0.00000000000E+00  0.58681471653E+02  0.58681471653E+02  0.00000000000E+00 0. -1.
         -1   -1    0    0    0  501 -0.00000000000E+00 -0.00000000000E+00 -0.21545861906E+03  0.21545861906E+03  0.00000000000E+00 0.  1.
         25    2    1    2    0    0  0.13214840019E+02 -0.11102190569E+01 -0.11755138291E+03  0.17216960113E+03  0.12509268303E+03 0.  0.
          5    1    3    3  502    0  0.29739890083E+02  0.96937022745E+00  0.18336610075E+02  0.35200914901E+02  0.41800000000E+01 0.  1.
         -5    1    3    3    0  502 -0.16525050064E+02 -0.20795892843E+01 -0.13588799298E+03  0.13696868623E+03  0.41800000000E+01 0.  1.
        -11    1    1    2    0    0  0.20299924260E+02  0.17010235293E+02 -0.55474731347E+02  0.61472602415E+02  0.00000000000E+00 0.  1.
         11    1    1    2    0    0 -0.33514764279E+02 -0.15900016236E+02  0.16248966850E+02  0.40497887163E+02  0.00000000000E+00 0. -1.
</event>
<event>
 7    1  0.2594791E-009  0.1449950E+03  0.7561462E-02  0.1206762E+00
         -1   -1    0    0    0  501 -0.00000000000E+00  0.00000000000E+00  0.25446525764E+02  0.25446525764E+02  0.00000000000E+00 0.  1.
          1   -1    0    0  501    0  0.00000000000E+00 -0.00000000000E+00 -0.87041380674E+03  0.87041380674E+03  0.00000000000E+00 0. -1.
         25    2    1    2    0    0  0.92072689909E+02  0.34894248914E+02 -0.52714181369E+03  0.55065487720E+03  0.12508922102E+03 0.  0.
          5    1    3    3  502    0  0.12267363274E+03  0.25726448135E+02 -0.38514583319E+03  0.40504994202E+03  0.41800000000E+01 0.  1.
         -5    1    3    3    0  502 -0.30600942834E+02  0.91678007793E+01 -0.14199598050E+03  0.14560493519E+03  0.41800000000E+01 0.  1.
        -11    1    1    2    0    0  0.94527105221E+01 -0.29182384895E+02 -0.49216880786E+02  0.57993677920E+02  0.00000000000E+00 0.  1.
         11    1    1    2    0    0 -0.10152540043E+03 -0.57118640194E+01 -0.26860858650E+03  0.28721177738E+03  0.00000000000E+00 0. -1.
</event>
<event>
 7    1  0.2594791E-009  0.1185891E+03  0.7561462E-02  0.1245443E+00
          1   -1    0    0  501    0  0.00000000000E+00  0.00000000000E+00  0.49496088541E+02  0.49496088541E+02  0.00000000000E+00 0. -1.
         -1   -1    0    0    0  501 -0.00000000000E+00 -0.00000000000E+00 -0.44321812222E+03  0.44321812222E+03  0.00000000000E+00 0.  1.
         25    2    1    2    0    0 -0.10062185594E+03  0.92380835603E+00 -0.21366861107E+03  0.26724932063E+03  0.12506923165E+03 0.  0.
          5    1    3    3  502    0  0.56113106156E+01 -0.14780287717E+02 -0.13006983772E+03  0.13109377863E+03  0.41800000000E+01 0. -1.
         -5    1    3    3    0  502 -0.10623316656E+03  0.15704096073E+02 -0.83598773354E+02  0.13615554200E+03  0.41800000000E+01 0. -1.
        -11    1    1    2    0    0  0.38982389679E+02  0.25190466980E+02 -0.13991103436E+03  0.14740856104E+03  0.00000000000E+00 0.  1.
         11    1    1    2    0    0  0.61639466264E+02 -0.26114275336E+02 -0.40142388251E+02  0.78056329097E+02  0.00000000000E+00 0. -1.
</event>
<event>
 7    1  0.2594791E-009  0.7169714E+02  0.7561462E-02  0.1354415E+00
          1   -1    0    0  501    0  0.00000000000E+00  0.00000000000E+00  0.68059704861E+02  0.68059704861E+02  0.00000000000E+00 0. -1.
         -1   -1    0    0    0  501 -0.00000000000E+00 -0.00000000000E+00 -0.27041617813E+03  0.27041617813E+03  0.00000000000E+00 0.  1.
         25    2    1    2    0    0  0.45693903045E+02  0.31931281105E+02 -0.37347675668E+02  0.14195061711E+03  0.12509032469E+03 0.  0.
          5    1    3    3  502    0  0.54890098403E+02  0.38203758839E+02  0.30104180991E+02  0.73458724500E+02  0.41800000000E+01 0.  1.
         -5    1    3    3    0  502 -0.91961953579E+01 -0.62724777332E+01 -0.67451856659E+02  0.68491892605E+02  0.41800000000E+01 0.  1.
        -11    1    1    2    0    0 -0.64612196742E+01 -0.23495113800E+02  0.22958088232E+01  0.24475262416E+02  0.00000000000E+00 0. -1.
         11    1    1    2    0    0 -0.39232683371E+02 -0.84361673049E+01 -0.16730460642E+03  0.17205000347E+03  0.00000000000E+00 0.  1.
</event>
<event>
 7    1  0.2594791E-009  0.1498143E+03  0.7561462E-02  0.1200701E+00
         -4   -1    0    0    0  501 -0.00000000000E+00  0.00000000000E+00  0.20300881544E+03  0.20300881544E+03  0.00000000000E+00 0.  1.
          4   -1    0    0  501    0  0.00000000000E+00 -0.00000000000E+00 -0.15057274354E+03  0.15057274354E+03  0.00000000000E+00 0. -1.
         25    2    1    2    0    0 -0.12720647259E+03 -0.81994561095E+01  0.77873122385E+02  0.19483278450E+03  0.12508746131E+03 0.  0.
          5    1    3    3  502    0 -0.11157220171E+03  0.40494964262E+02  0.25425398009E+02  0.12145831214E+03  0.41800000000E+01 0.  1.
         -5    1    3    3    0  502 -0.15634270882E+02 -0.48694420372E+02  0.52447724376E+02  0.73374472357E+02  0.41800000000E+01 0.  1.
        -11    1    1    2    0    0  0.50197417685E+02 -0.80625318864E+01 -0.54791584028E+02  0.74745587448E+02  0.00000000000E+00 0. -1.
         11    1    1    2    0    0  0.77009054906E+02  0.16261987996E+02  0.29354533544E+02  0.84003187027E+02  0.00000000000E+00 0.  1.
</event>
<event>
 7    1  0.2594791E-009  0.1365524E+03  0.7561462E-02  0.1218045E+00
          2   -1    0    0  501    0  0.00000000000E+00  0.00000000000E+00  0.13905391764E+03  0.13905391764E+03  0.00000000000E+00 0. -1.
         -2   -1    0    0    0  501 -0.00000000000E+00 -0.00000000000E+00 -0.16700149970E+03  0.16700149970E+03  0.00000000000E+00 0.  1.
         25    2    1    2    0    0  0.59276695649E+02 -0.81966608570E+02  0.18684697368E+02  0.16195476929E+03  0.12509187748E+03 0.  0.
          5    1    3    3  502    0  0.88877248105E+02 -0.32610575879E+02  0.36521583109E+02  0.10155743854E+03  0.41800000000E+01 0. -1.
         -5    1    3    3    0  502 -0.29600552456E+02 -0.49356032691E+02 -0.17836885741E+02  0.60397330749E+02  0.41800000000E+01 0. -1.
        -11    1    1    2    0    0  0.83195265049E+01  0.40479865150E+02  0.14676958316E+02  0.43854841343E+02  0.00000000000E+00 0. -1.
         11    1    1    2    0    0 -0.67596222154E+02  0.41486743421E+02 -0.61309237742E+02  0.10024580670E+03  0.00000000000E+00 0.  1.
</event>
<event>
 7    1  0.2594791E-009  0.2482301E+03  0.7561462E-02  0.1114428E+00
         -2   -1    0    0    0  501 -0.00000000000E+00  0.00000000000E+00  0.10287465790E+03  0.10287465790E+03  0.00000000000E+00 0.  1.
          2   -1    0    0  501    0  0.00000000000E+00 -0.00000000000E+00 -0.62890415717E+03  0.62890415717E+03  0.00000000000E+00 0. -1.
         25    2    1    2    0    0 -0.92984988784E+02 -0.21027973379E+03 -0.27367257491E+03  0.37869100788E+03  0.12508567707E+03 0.  0.
          5    1    3    3  502    0  0.22003021389E+02 -0.97055078726E+02 -0.11813785491E+03  0.15452458193E+03  0.41800000000E+01 0.  1.
         -5    1    3    3    0  502 -0.11498801017E+03 -0.11322465506E+03 -0.15553472000E+03  0.22416642595E+03  0.41800000000E+01 0.  1.
        -11    1    1    2    0    0  0.99413458303E+02  0.19862859505E+03 -0.19942029965E+03  0.29850428871E+03  0.00000000000E+00 0.  1.
         11    1    1    2    0    0 -0.64284695184E+01  0.11651138737E+02 -0.52936624710E+02  0.54583518482E+02  0.00000000000E+00 0. -1.
</event>
<event>
 6    1  0.2594791E-009  0.1123810E+03  0.7561462E-02  0.1256223E+00
         -4   -1    0    0    0  501 -0.00000000000E+00  0.00000000000E+00  0.12167483714E+03  0.12167483714E+03  0.00000000000E+00 0. -1.
          4   -1    0    0  501    0  0.00000000000E+00 -0.00000000000E+00 -0.19842565025E+03  0.19842565025E+03  0.00000000000E+00 0.  1.
          5    1    1    2  502    0 -0.48874422053E+02 -0.68818717671E+02 -0.13773994624E+03  0.16159978411E+03  0.41800000000E+01 0. -1.
         -5    1    1    2    0  502  0.16057276186E+02  0.29279541935E+02 -0.35734700954E+01  0.33843312234E+02  0.41800000000E+01 0. -1.
        -11    1    1    2    0    0 -0.33087250337E+02  0.13061383037E+02  0.23145869475E+02  0.42439334767E+02  0.00000000000E+00 0.  1.
         11    1    1    2    0    0  0.65904396204E+02  0.26477792699E+02  0.41416733750E+02  0.82218056288E+02  0.00000000000E+00 0. -1.
</event>
<event>
 7    1  0.2594791E-009  0.8930474E+02  0.7561462E-02  0.1304544E+00
         -2   -1    0    0    0  501 -0.00000000000E+00  0.00000000000E+00  0.91557843502E+02  0.91557843502E+02  0.00000000000E+00 0.  1.
          2   -1    0    0  501    0  0.00000000000E+00 -0.00000000000E+00 -0.14479891977E+03  0.14479891977E+03  0.00000000000E+00 0. -1.
         25    2    1    2    0    0  0.63263890928E+01 -0.21434131860E+02 -0.71050840109E+02  0.14559588560E+03  0.12510193769E+03 0.  0.
          5    1    3    3  502    0 -0.22665090943E+02  0.25895458179E+02  0.19150077861E+02  0.39604027369E+02  0.41800000000E+01 0.  1.
         -5    1    3    3    0  502  0.28991480035E+02 -0.47329590039E+02 -0.90200917970E+02  0.10599185823E+03  0.41800000000E+01 0.  1.
        -11    1    1    2    0    0  0.39316209754E+02  0.43850569669E+01  0.13699716054E+02  0.41864964994E+02  0.00000000000E+00 0. -1.
         11    1    1    2    0    0 -0.45642598847E+02  0.17049074893E+02  0.41100477860E+01  0.48895912682E+02  0.00000000000E+00 0.  1.
</event>
<event>
 7    1  0.2594791E-009  0.1533910E+03  0.7561462E-02  0.1196367E+00
          1   -1    0    0  501    0  0.00000000000E+00  0.00000000000E+00  0.10488077717E+04  0.10488077717E+04  0.00000000000E+00 0.  1.
         -1   -1    0    0    0  501 -0.00000000000E+00 -0.00000000000E+00 -0.34767069470E+02  0.34767069470E+02  0.00000000000E+00 0. -1.
         25    2    1    2    0    0  0.75682099896E+02 -0.63852649888E+02  0.71701677253E+03  0.73455110160E+03  0.12508927861E+03 0.  0.
          5    1    3    3  502    0 -0.33771463502E+02 -0.19827158152E+02  0.23578100961E+03  0.23904766228E+03  0.41800000000E+01 0.  1.
         -5    1    3    3    0  502  0.10945356340E+03 -0.44025491736E+02  0.48123576292E+03  0.49550343932E+03  0.41800000000E+01 0.  1.
        -11    1    1    2    0    0 -0.64381061066E+02 -0.17895905828E+02  0.23893658450E+03  0.24810456642E+03  0.00000000000E+00 0.  1.
         11    1    1    2    0    0 -0.11301038830E+02  0.81748555716E+02  0.58087345243E+02  0.10091917319E+03  0.00000000000E+00 0. -1.
</event>
<event>
 7    1  0.2594791E-009  0.1878960E+03  0.7561462E-02  0.1160373E+00
          2   -1    0    0  501    0  0.00000000000E+00  0.00000000000E+00  0.17732112458E+04  0.17732112458E+04  0.00000000000E+00 0. -1.
         -2   -1    0    0    0  501 -0.00000000000E+00 -0.00000000000E+00 -0.22726804659E+02  0.22726804659E+02  0.00000000000E+00 0.  1.
         25    2    1    2    0    0  0.15597559825E+03 -0.63339118178E+02  0.98644206280E+03  0.10084918835E+04  0.12509078570E+03 0.  0.
          5    1    3    3  502    0  0.97025078827E+02  0.22040717346E+02  0.36078652390E+03  0.37427803485E+03  0.41800000000E+01 0.  1.
         -5    1    3    3    0  502  0.58950519427E+02 -0.85379835524E+02  0.62565553889E+03  0.63421384864E+03  0.41800000000E+01 0.  1.
        -11    1    1    2    0    0 -0.49822897025E+02  0.22062440149E+01  0.95131420042E+02  0.10741124550E+03  0.00000000000E+00 0.  1.
         11    1    1    2    0    0 -0.10615270123E+03  0.61132874163E+02  0.66891095831E+03  0.68003492148E+03  0.00000000000E+00 0. -1.
</event>
<event>
 7    1  0.2594791E-009  0.1037245E+03  0.7561462E-02  0.1272653E+00
          1   -1    0    0  501    0  0.00000000000E+00  0.00000000000E+00  0.43273771450E+03  0.43273771450E+03  0.00000000000E+00 0. -1.
         -1   -1    0    0    0  501 -0.00000000000E+00 -0.00000000000E+00 -0.36001231982E+02  0.36001231982E+02  0.00000000000E+00 0.  1.
         25    2    1    2    0    0 -0.19386228256E+02 -0.51150090708E+02  0.16800854395E+03  0.21651028220E+03  0.12513062707E+03 0.  0.
          5    1    3    3  502    0  0.51079105049E+02 -0.29522161829E+02  0.99730063692E+02  0.11594908803E+03  0.41800000000E+01 0.  1.
         -5    1    3    3    0  502 -0.70465333306E+02 -0.21627928880E+02  0.68278480259E+02  0.10056119417E+03  0.41800000000E+01 0.  1.
        -11    1    1    2    0    0 -0.10954468052E+02  0.41068347978E+02  0.21185681315E+03  0.21607850161E+03  0.00000000000E+00 0. -1.
         11    1    1    2    0    0  0.30340696309E+02  0.10081742730E+02  0.16871125411E+02  0.36150162677E+02  0.00000000000E+00 0.  1.
</event>
<event>
 7    1  0.2594791E-009  0.9711137E+02  0.7561462E-02  0.1286490E+00
         -2   -1    0    0    0  501 -0.00000000000E+00  0.00000000000E+00  0.37662767754E+02  0.37662767754E+02  0.00000000000E+00 0.  1.
          2   -1    0    0  501    0  0.00000000000E+00 -0.00000000000E+00 -0.32329006681E+03  0.32329006681E+03  0.00000000000E+00 0. -1.
         25    2    1    2    0    0  0.71318790951E+01  0.24916668713E+01 -0.19152965103E+03  0.22888675760E+03  0.12509383868E+03 0.  0.
          5    1    3    3  502    0  0.49478433602E+02  0.24961583053E+02 -0.16463063199E+03  0.17375820386E+03  0.41800000000E+01 0. -1.
         -5    1    3    3    0  502 -0.42346554507E+02 -0.22469916182E+02 -0.26899019046E+02  0.55128553740E+02  0.41800000000E+01 0. -1.
        -11    1    1    2    0    0 -0.48920085449E+00 -0.46257056017E+02 -0.62143965353E+02  0.77471459123E+02  0.00000000000E+00 0. -1.
         11    1    1    2    0    0 -0.66426782406E+01  0.43765389145E+02 -0.31953682675E+02  0.54594617846E+02  0.00000000000E+00 0.  1.
</event>
<event>
 7    1  0.2594791E-009  0.1591928E+03  0.7561462E-02  0.1189611E+00
         -1   -1    0    0    0  501 -0.00000000000E+00  0.00000000000E+00  0.22078943190E+03  0.22078943190E+03  0.00000000000E+00 0.  1.
          1   -1    0    0  501    0  0.00000000000E+00 -0.00000000000E+00 -0.13280167645E+03  0.13280167645E+03  0.00000000000E+00 0. -1.
         25    2    1    2    0    0 -0.96944834243E+02  0.88742280337E+02  0.64941069986E+02  0.19271345778E+03  0.12509053134E+03 0.  0.
          5    1    3    3  502    0 -0.72154302647E+02 -0.84272306735E+01 -0.73094531432E+00  0.72768594107E+02  0.41800000000E+01 0.  1.
         -5    1    3    3    0  502 -0.24790531596E+02  0.97169511010E+02  0.65672015300E+02  0.11994486367E+03  0.41800000000E+01 0.  1.
        -11    1    1    2    0    0  0.22633206045E+02  0.73325551137E+01 -0.20943809375E+02  0.31696553937E+02  0.00000000000E+00 0. -1.
         11    1    1    2    0    0  0.74311628197E+02 -0.96074835450E+02  0.43990494845E+02  0.12918109664E+03  0.00000000000E+00 0.  1.
</event>
<event>
 7    1  0.2594791E-009  0.1271367E+03  0.7561462E-02  0.1231767E+00
         -1   -1    0    0    0  501 -0.00000000000E+00  0.00000000000E+00  0.40885258011E+03  0.40885258011E+03  0.00000000000E+00 0.  1.
          1   -1    0    0  501    0  0.00000000000E+00 -0.00000000000E+00 -0.67729726901E+02  0.67729726901E+02  0.00000000000E+00 0. -1.
         25    2    1    2    0    0  0.96865594656E+02  0.76352846719E+02  0.22441212232E+03  0.28500013401E+03  0.12510625527E+03 0.  0.
          5    1    3    3  502    0  0.56652906289E+02  0.54109981672E+02  0.22558841050E+03  0.23884104601E+03  0.41800000000E+01 0.  1.
         -5    1    3    3    0  502  0.40212688367E+02  0.22242865047E+02 -0.11762881710E+01  0.46159088001E+02  0.41800000000E+01 0.  1.
        -11    1    1    2    0    0 -0.42448185270E+02 -0.58753897784E+02  0.11302596642E+03  0.13427113622E+03  0.00000000000E+00 0. -1.
         11    1    1    2    0    0 -0.54417409385E+02 -0.17598948935E+02  0.36847644665E+01  0.57311036782E+02  0.00000000000E+00 0.  1.
</event>
<event>
 7    1  0.2594791E-009  0.5109498E+03  0.7561462E-02  0.1010960E+00
          2   -1    0    0  501    0  0.00000000000E+00  0.00000000000E+00  0.14531556951E+04  0.14531556951E+04  0.00000000000E+00 0. -1.
         -2   -1    0    0    0  501 -0.00000000000E+00 -0.00000000000E+00 -0.19822056760E+03  0.19822056760E+03  0.00000000000E+00 0.  1.
         25    2    1    2    0    0  0.35084539136E+03  0.35610180264E+03  0.38275742538E+03  0.64191297994E+03  0.12509214465E+03 0.  0.
          5    1    3    3  502    0  0.20200104992E+03  0.28739699303E+03  0.26322433690E+03  0.43898289227E+03  0.41800000000E+01 0. -1.
         -5    1    3    3    0  502  0.14884434143E+03  0.68704809618E+02  0.11953308849E+03  0.20293008767E+03  0.41800000000E+01 0. -1.
        -11    1    1    2    0    0 -0.42045252161E+02 -0.88510938589E+02  0.13823586791E+03  0.16944363268E+03  0.00000000000E+00 0.  1.
         11    1    1    2    0    0 -0.30880013919E+03 -0.26759086405E+03  0.73394183418E+03  0.84001965004E+03  0.00000000000E+00 0. -1.
</event>
<event>
 7    1  0.2594791E-009  0.1118900E+03  0.7561462E-02  0.1257109E+00
          2   -1    0    0  501    0  0.00000000000E+00  0.00000000000E+00  0.13112583764E+03  0.13112583764E+03  0.00000000000E+00 0. -1.
         -2   -1    0    0    0  501 -0.00000000000E+00 -0.00000000000E+00 -0.12261465962E+03  0.12261465962E+03  0.00000000000E+00 0.  1.
         25    2    1    2    0    0  0.34019112566E+02  0.83711971033E+01 -0.50937322022E+02  0.13953435980E+03  0.12509136592E+03 0.  0.
          5    1    3    3  502    0  0.22906803042E+02 -0.56677754071E+02 -0.10906366941E+02  0.62237534270E+02  0.41800000000E+01 0.  1.
         -5    1    3    3    0  502  0.11112309523E+02  0.65048951174E+02 -0.40030955081E+02  0.77296825527E+02  0.41800000000E+01 0.  1.
        -11    1    1    2    0    0 -0.28425514790E+02 -0.48310586568E+02  0.43022278567E+02  0.70660024898E+02  0.00000000000E+00 0.  1.
         11    1    1    2    0    0 -0.55935977756E+01  0.39939389464E+02  0.16426221477E+02  0.43546112557E+02  0.00000000000E+00 0. -1.
</event>
<event>
 7    1  0.2594791E-009  0.2445004E+03  0.7561462E-02  0.1116831E+00
         -1   -1    0    0    0  501 -0.00000000000E+00  0.00000000000E+00  0.29715879990E+03  0.29715879990E+03  0.00000000000E+00 0.  1.
          1   -1    0    0  501    0  0.00000000000E+00 -0.00000000000E+00 -0.32612478790E+03  0.32612478790E+03  0.00000000000E+00 0. -1.
         25    2    1    2    0    0 -0.47217171853E+02  0.23129167916E+03  0.15230498614E+03  0.30751887809E+03  0.12508297013E+03 0.  0.
          5    1    3    3  502    0 -0.69891654011E+02  0.11830068053E+03  0.32554500564E+02  0.14126982063E+03  0.41800000000E+01 0. -1.
         -5    1    3    3    0  502  0.22674482158E+02  0.11299099862E+03  0.11975048557E+03  0.16624905746E+03  0.41800000000E+01 0. -1.
        -11    1    1    2    0    0  0.61411889541E+00 -0.12441204694E+02  0.14031124726E+02  0.18762547198E+02  0.00000000000E+00 0.  1.
         11    1    1    2    0    0  0.46603052957E+02 -0.21885047446E+03 -0.19530209886E+03  0.29700216251E+03  0.00000000000E+00 0. -1.
</event>
<event>
 7    1  0.2594791E-009  0.7932508E+02  0.7561462E-02  0.1330978E+00
         -1   -1    0    0    0  501 -0.00000000000E+00  0.00000000000E+00  0.78647346263E+02  0.78647346263E+02  0.00000000000E+00 0.  1.
          1   -1    0    0  501    0  0.00000000000E+00 -0.00000000000E+00 -0.17464791864E+03  0.17464791864E+03  0.00000000000E+00 0. -1.
         25    2    1    2    0    0  0.27338446806E+02  0.28157573443E+01 -0.12909994940E+02  0.12872808358E+03  0.12509569285E+03 0.  0.
          5    1    3    3  502    0  0.46973440695E+02 -0.69943687080E+01  0.45677051953E+02  0.66024925592E+02  0.41800000000E+01 0.  1.
         -5    1    3    3    0  502 -0.19634993889E+02  0.98101260523E+01 -0.58587046893E+02  0.62703157989E+02  0.41800000000E+01 0.  1.
        -11    1    1    2    0    0  0.29109134062E+02  0.99420568562E+01 -0.47618736303E+02  0.56689771807E+02  0.00000000000E+00 0. -1.
         11    1    1    2    0    0 -0.56447580868E+02 -0.12757814200E+02 -0.35471841131E+02  0.67877409513E+02  0.00000000000E+00 0.  1.
</event>
<event>
 7    1  0.2594791E-009  0.9322928E+02  0.7561462E-02  0.1295215E+00
         -2   -1    0    0    0  501 -0.00000000000E+00  0.00000000000E+00  0.17608001345E+02  0.17608001345E+02  0.00000000000E+00 0. -1.
          2   -1    0    0  501    0  0.00000000000E+00 -0.00000000000E+00 -0.10335575720E+04  0.10335575720E+04  0.00000000000E+00 0.  1.
         25    2    1    2    0    0  0.44730218586E+02  0.63029054997E+01 -0.82001691864E+03  0.83073047177E+03  0.12507937799E+03 0.  0.
          5    1    3    3  502    0  0.66749173619E+02  0.22152016040E+02 -0.24160748406E+03  0.25167004738E+03  0.41800000000E+01 0.  1.
         -5    1    3    3    0  502 -0.22018955033E+02 -0.15849110540E+02 -0.57840943457E+03  0.57906042438E+03  0.41800000000E+01 0.  1.
        -11    1    1    2    0    0  0.23327592056E+01 -0.33911849366E+02 -0.28573943649E+02  0.44406368334E+02  0.00000000000E+00 0. -1.
         11    1    1    2    0    0 -0.47062977792E+02  0.27608943867E+02 -0.16735870833E+03  0.17602873321E+03  0.00000000000E+00 0.  1.
</event>
<event>
 7    1  0.2594791E-009  0.1407652E+03  0.7561462E-02  0.1212303E+00
          1   -1    0    0  501    0  0.00000000000E+00  0.00000000000E+00  0.98238294737E+02  0.98238294737E+02  0.00000000000E+00 0. -1.
         -1   -1    0    0    0  501 -0.00000000000E+00 -0.00000000000E+00 -0.40116706331E+03  0.40116706331E+03  0.00000000000E+00 0.  1.
         25    2    1    2    0    0  0.13692109104E+02 -0.11982381256E+03 -0.15164885926E+02  0.17442094729E+03  0.12508986042E+03 0.  0.
          5    1    3    3  502    0 -0.17318695819E+02 -0.16207089371E+02  0.44666747809E+02  0.50746406086E+02  0.41800000000E+01 0. -1.
         -5    1    3    3    0  502  0.31010804923E+02 -0.10361672319E+03 -0.59831633735E+02  0.12367454120E+03  0.41800000000E+01 0. -1.
        -11    1    1    2    0    0  0.80628184579E+01  0.12626223601E+03 -0.22339520259E+03  0.25673445001E+03  0.00000000000E+00 0. -1.
         11    1    1    2    0    0 -0.21754927561E+02 -0.64384234479E+01 -0.64368680057E+02  0.68249960747E+02  0.00000000000E+00 0.  1.
</event>
<event>
 7    1  0.2594791E-009  0.1367645E+03  0.7561462E-02  0.1217750E+00
         -2   -1    0    0    0  501 -0.00000000000E+00  0.00000000000E+00  0.14524047639E+02  0.14524047639E+02  0.00000000000E+00 0.  1.
          2   -1    0    0  501    0  0.00000000000E+00 -0.00000000000E+00 -0.18354048551E+04  0.18354048551E+04  0.00000000000E+00 0. -1.
         25    2    1    2    0    0  0.43309403498E+02  0.97802304205E+02 -0.13022513029E+04  0.13126109728E+04  0.12509242508E+03 0.  0.
          5    1    3    3  502    0  0.38529743817E+02  0.18332880605E+01 -0.11297178359E+03  0.11944872704E+03  0.41800000000E+01 0. -1.
         -5    1    3    3    0  502  0.47796596812E+01  0.95969016145E+02 -0.11892795193E+04  0.11931622457E+04  0.41800000000E+01 0. -1.
        -11    1    1    2    0    0 -0.24963556835E+02  0.11666732795E+02 -0.14307484816E+03  0.14570416604E+03  0.00000000000E+00 0. -1.
         11    1    1    2    0    0 -0.18345846664E+02 -0.10946903700E+03 -0.37555465641E+03  0.39161376393E+03  0.00000000000E+00 0.  1.
</event>
<event>
 7    1  0.2594791E-009  0.1785004E+03  0.7561462E-02  0.1169262E+00
         -2   -1    0    0    0  501 -0.00000000000E+00  0.00000000000E+00  0.52134005977E+03  0.52134005977E+03  0.00000000000E+00 0.  1.
          2   -1    0    0  501    0  0.00000000000E+00 -0.00000000000E+00 -0.72247773004E+02  0.72247773004E+02  0.00000000000E+00 0. -1.
         25    2    1    2    0    0 -0.15010860205E+03 -0.54686984158E+02  0.25772253499E+03  0.32800814804E+03  0.12508069992E+03 0.  0.
          5    1    3    3  502    0  0.51439334841E+01 -0.14663028865E+02  0.10605552785E+03  0.10726934257E+03  0.41800000000E+01 0.  1.
         -5    1    3    3    0  502 -0.15525253553E+03 -0.40023955293E+02  0.15166700714E+03  0.22073880547E+03  0.41800000000E+01 0.  1.
        -11    1    1    2    0    0  0.98029474792E+02  0.76216606301E+02  0.15459339306E+03  0.19828733238E+03  0.00000000000E+00 0.  1.
         11    1    1    2    0    0  0.52079127256E+02 -0.21529622142E+02  0.36776358716E+02  0.67292352357E+02  0.00000000000E+00 0. -1.
</event>
<event>
 7    1  0.2917977E-009  0.1161685E+03  0.7561462E-02  0.1249555E+00
         -1   -1    0    0    0  501 -0.00000000000E+00  0.00000000000E+00  0.37922280655E+02  0.37922280655E+02  0.00000000000E+00 0.  1.
          1   -1    0    0  501    0  0.00000000000E+00 -0.00000000000E+00 -0.52167550625E+03  0.52167550625E+03  0.00000000000E+00 0. -1.
         25    2    1    2    0    0 -0.82261732422E+02 -0.34303263104E+02 -0.27908292801E+03  0.31855487351E+03  0.12508485220E+03 0.  0.
          5    1    3    3  502    0 -0.80531972461E+02  0.19815036908E+02 -0.23291724547E+03  0.24727707115E+03  0.41800000000E+01 0. -1.
         -5    1    3    3    0  502 -0.17297599606E+01 -0.54118300012E+02 -0.46165682534E+02  0.71277802361E+02  0.41800000000E+01 0. -1.
        -11    1    1    2    0    0  0.53566701843E+02  0.47155057435E+01 -0.30001428863E+02  0.61576889127E+02  0.00000000000E+00 0.  1.
         11    1    1    2    0    0  0.28695030579E+02  0.29587757360E+02 -0.17466886873E+03  0.17946602428E+03  0.00000000000E+00 0. -1.
</event>
<event>
 7    1  0.2594791E-009  0.9577479E+02  0.7561462E-02  0.1289441E+00
          1   -1    0    0  501    0  0.00000000000E+00  0.00000000000E+00  0.65188508475E+03  0.65188508475E+03  0.00000000000E+00 0. -1.
         -1   -1    0    0    0  501 -0.00000000000E+00 -0.00000000000E+00 -0.19496253116E+02  0.19496253116E+02  0.00000000000E+00 0.  1.
         25    2    1    2    0    0  0.27528687332E+01 -0.34489353581E+02  0.36717547041E+03  0.38943740146E+03  0.12508624939E+03 0.  0.
          5    1    3    3  502    0  0.21763478079E+02  0.26878470185E+02  0.29409644693E+02  0.45590577300E+02  0.41800000000E+01 0. -1.
         -5    1    3    3    0  502 -0.19010609346E+02 -0.61367823766E+02  0.33776582572E+03  0.34384682416E+03  0.41800000000E+01 0. -1.
        -11    1    1    2    0    0 -0.19350691628E+02  0.59358610298E+02  0.21087128977E+03  0.21991951876E+03  0.00000000000E+00 0. -1.
         11    1    1    2    0    0  0.16597822895E+02 -0.24869256717E+02  0.54342071448E+02  0.62024417641E+02  0.00000000000E+00 0.  1.
</event>
<event>
 7    1  0.2594791E-009  0.3677497E+03  0.7561462E-02  0.1055557E+00
         -1   -1    0    0    0  501 -0.00000000000E+00  0.00000000000E+00  0.12224059346E+03  0.12224059346E+03  0.00000000000E+00 0.  1.
          1   -1    0    0  501    0  0.00000000000E+00 -0.00000000000E+00 -0.11996577411E+04  0.11996577411E+04  0.00000000000E+00 0. -1.
         25    2    1    2    0    0  0.31028079989E+03 -0.17331698320E+03 -0.38767845062E+03  0.54060717582E+03  0.12509430853E+03 0.  0.
          5    1    3    3  502    0  0.28426111212E+03 -0.10674903832E+03 -0.29370953077E+03  0.42247189008E+03  0.41800000000E+01 0. -1.
         -5    1    3    3    0  502  0.26019687765E+02 -0.66567944887E+02 -0.93968919855E+02  0.11813528574E+03  0.41800000000E+01 0. -1.
        -11    1    1    2    0    0 -0.88766757800E+02  0.81282599563E+02 -0.16410514329E+03  0.20351141574E+03  0.00000000000E+00 0.  1.
         11    1    1    2    0    0 -0.22151404209E+03  0.92034383640E+02 -0.52563355368E+03  0.57777974295E+03  0.00000000000E+00 0. -1.
</event>
<event>
 7    1  0.2594791E-009  0.1234722E+03  0.7561462E-02  0.1237477E+00
          1   -1    0    0  501    0  0.00000000000E+00  0.00000000000E+00  0.11726708311E+04  0.11726708311E+04  0.00000000000E+00 0. -1.
         -1   -1    0    0    0  501 -0.00000000000E+00 -0.00000000000E+00 -0.28431676992E+02  0.28431676992E+02  0.00000000000E+00 0.  1.
         25    2    1    2    0    0  0.62293613913E+02 -0.70907820989E+02  0.97083304303E+03  0.98339774704E+03  0.12508364415E+03 0.  0.
          5    1    3    3  502    0  0.88250522945E+02 -0.13445321508E+02  0.45365877600E+03  0.46237721496E+03  0.41800000000E+01 0. -1.
         -5    1    3    3    0  502 -0.25956909033E+02 -0.57462499481E+02  0.51717426702E+03  0.52102053207E+03  0.41800000000E+01 0. -1.
        -11    1    1    2    0    0 -0.20692026083E+02  0.23957603131E+02  0.14575158688E+03  0.14914976289E+03  0.00000000000E+00 0. -1.
         11    1    1    2    0    0 -0.41601587829E+02  0.46950217858E+02  0.27654524224E+02  0.68554998190E+02  0.00000000000E+00 0.  1.
</event>
<event>
 7    1  0.2594791E-009  0.6557054E+02  0.7561462E-02  0.1375838E+00
         -4   -1    0    0    0  501 -0.00000000000E+00  0.00000000000E+00  0.26395027207E+03  0.26395027207E+03  0.00000000000E+00 0.  1.
          4   -1    0    0  501    0  0.00000000000E+00 -0.00000000000E+00 -0.44971177604E+02  0.44971177604E+02  0.00000000000E+00 0. -1.
         25    2    1    2    0    0 -0.64253162400E+00 -0.40095487560E+01  0.12572346482E+03  0.17740080679E+03  0.12509263494E+03 0.  0.
          5    1    3    3  502    0  0.31871679465E+02 -0.22370396515E+02  0.13341845006E+03  0.13904745165E+03  0.41800000000E+01 0.  1.
         -5    1    3    3    0  502 -0.32514211089E+02  0.18360847759E+02 -0.76949852429E+01  0.38353355148E+02  0.41800000000E+01 0.  1.
        -11    1    1    2    0    0  0.21716025349E+02 -0.14700748205E+02 -0.71939678700E+01  0.27192847009E+02  0.00000000000E+00 0. -1.
         11    1    1    2    0    0 -0.21073493725E+02  0.18710296961E+02  0.10044959751E+03  0.10432779587E+03  0.00000000000E+00 0.  1.
</event>
<event>
 7    1  0.2594791E-009  0.1400187E+03  0.7561462E-02  0.1213304E+00
          1   -1    0    0  501    0  0.00000000000E+00  0.00000000000E+00  0.33399585439E+02  0.33399585439E+02  0.00000000000E+00 0. -1.
         -1   -1    0    0    0  501 -0.00000000000E+00 -0.00000000000E+00 -0.83555414050E+03  0.83555414050E+03  0.00000000000E+00 0.  1.
         25    2    1    2    0    0  0.70724713545E+02  0.10490553867E+03 -0.41254087943E+03  0.44926917315E+03  0.12508259507E+03 0.  0.
          5    1    3    3  502    0  0.51252069936E+02  0.65006329369E+02 -0.39110400916E+03  0.39979046501E+03  0.41800000000E+01 0.  1.
         -5    1    3    3    0  502  0.19472643609E+02  0.39899209305E+02 -0.21436870270E+02  0.49478708141E+02  0.41800000000E+01 0.  1.
        -11    1    1    2    0    0  0.18079225891E+02 -0.47308459031E+01 -0.24577431123E+02  0.30875385543E+02  0.00000000000E+00 0. -1.
         11    1    1    2    0    0 -0.88803939436E+02 -0.10017469277E+03 -0.36503624451E+03  0.38880916725E+03  0.00000000000E+00 0.  1.
</event>
<event>
 7    1  0.2594791E-009  0.8763742E+02  0.7561462E-02  0.1308676E+00
          1   -1    0    0  501    0  0.00000000000E+00  0.00000000000E+00  0.13406661906E+03  0.13406661906E+03  0.00000000000E+00 0. -1.
         -1   -1    0    0    0  501 -0.00000000000E+00 -0.00000000000E+00 -0.11826832490E+03  0.11826832490E+03  0.00000000000E+00 0.  1.
         25    2    1    2    0    0 -0.22196089397E+02  0.30463980702E+02 -0.42808004222E+02  0.13747858043E+03  0.12508842612E+03 0.  0.
          5    1    3    3  502    0 -0.27313458893E+02  0.62768637288E+02  0.15666493027E+02  0.70347979840E+02  0.41800000000E+01 0. -1.
         -5    1    3    3    0  502  0.51173694964E+01 -0.32304656586E+02 -0.58474497249E+02  0.67130600595E+02  0.41800000000E+01 0. -1.
        -11    1    1    2    0    0 -0.58571164686E+01 -0.42710485428E+02  0.69987324044E+02  0.82199251247E+02  0.00000000000E+00 0. -1.
         11    1    1    2    0    0  0.28053205865E+02  0.12246504726E+02 -0.11381025658E+02  0.32657112278E+02  0.00000000000E+00 0.  1.
</event>
<event>
 7    1  0.2594791E-009  0.1124952E+03  0.7561462E-02  0.1256018E+00
          1   -1    0    0  501    0  0.00000000000E+00  0.00000000000E+00  0.50946603957E+03  0.50946603957E+03  0.00000000000E+00 0. -1.
         -1   -1    0    0    0  501 -0.00000000000E+00 -0.00000000000E+00 -0.28784786733E+02  0.28784786733E+02  0.00000000000E+00 0.  1.
         25    2    1    2    0    0 -0.92549586074E+01  0.59371744249E+02  0.23425030169E+03  0.27227076636E+03  0.12508999999E+03 0.  0.
          5    1    3    3  502    0 -0.26366708938E+02 -0.32248207378E+02  0.10350308289E+03  0.11164905188E+03  0.41800000000E+01 0. -1.
         -5    1    3    3    0  502  0.17111750331E+02  0.91619951628E+02  0.13074721880E+03  0.16062171447E+03  0.41800000000E+01 0. -1.
        -11    1    1    2    0    0 -0.26813919072E+02 -0.98553940494E+01  0.31661927325E+02  0.42644960896E+02  0.00000000000E+00 0.  1.
         11    1    1    2    0    0  0.36068877680E+02 -0.49516350200E+02  0.21476902382E+03  0.22333509905E+03  0.00000000000E+00 0. -1.
</event>
<event>
 7    1  0.2594791E-009  0.1248398E+03  0.7561462E-02  0.1235320E+00
         -1   -1    0    0    0  501 -0.00000000000E+00  0.00000000000E+00  0.41069038426E+02  0.41069038426E+02  0.00000000000E+00 0.  1.
          1   -1    0    0  501    0  0.00000000000E+00 -0.00000000000E+00 -0.69754674042E+03  0.69754674042E+03  0.00000000000E+00 0. -1.
         25    2    1    2    0    0 -0.44551454669E+02 -0.11430391742E+03 -0.46010261125E+03  0.49233306357E+03  0.12508882825E+03 0.  0.
          5    1    3    3  502    0 -0.33357798973E+02 -0.74136764568E+02 -0.96174231366E+02  0.12599983251E+03  0.41800000000E+01 0.  1.
         -5    1    3    3    0  502 -0.11193655696E+02 -0.40167152853E+02 -0.36392837989E+03  0.36633323107E+03  0.41800000000E+01 0.  1.
        -11    1    1    2    0    0  0.45509993228E+02  0.79896290136E+02 -0.19027261197E+03  0.21132497137E+03  0.00000000000E+00 0.  1.
         11    1    1    2    0    0 -0.95853855877E+00  0.34407627284E+02 -0.61024787766E+01  0.34957743902E+02  0.00000000000E+00 0. -1.
</event>
<event>
 7    1  0.2594791E-009  0.1139047E+03  0.7561462E-02  0.1253505E+00
         -2   -1    0    0    0  501 -0.00000000000E+00  0.00000000000E+00  0.39735780660E+03  0.39735780660E+03  0.00000000000E+00 0.  1.
          2   -1    0    0  501    0  0.00000000000E+00 -0.00000000000E+00 -0.38240290021E+02  0.38240290021E+02  0.00000000000E+00 0. -1.
         25    2    1    2    0    0  0.40252258222E+02  0.43300238770E+02  0.20210630182E+03  0.24493031991E+03  0.12509496155E+03 0.  0.
          5    1    3    3  502    0  0.16411673554E+02 -0.34388035182E+02  0.15487288470E+02  0.41342574868E+02  0.41800000000E+01 0.  1.
         -5    1    3    3    0  502  0.23840584668E+02  0.77688273952E+02  0.18661901335E+03  0.20358774504E+03  0.41800000000E+01 0.  1.
        -11    1    1    2    0    0 -0.54415142199E+01  0.28126417430E+02  0.44648382363E+02  0.53048878236E+02  0.00000000000E+00 0.  1.
         11    1    1    2    0    0 -0.34810744002E+02 -0.71426656200E+02  0.11236283239E+03  0.13761889847E+03  0.00000000000E+00 0. -1.
</event>
<event>
 7    1  0.2594791E-009  0.1067381E+03  0.7561462E-02  0.1266732E+00
          1   -1    0    0  501    0  0.00000000000E+00  0.00000000000E+00  0.36904384627E+02  0.36904384627E+02  0.00000000000E+00 0. -1.
         -1   -1    0    0    0  501 -0.00000000000E+00 -0.00000000000E+00 -0.38228063844E+03  0.38228063844E+03  0.00000000000E+00 0.  1.
         25    2    1    2    0    0 -0.35197729913E+02  0.26817750432E+02 -0.22427169290E+03  0.26058352501E+03  0.12509160380E+03 0.  0.
          5    1    3    3  502    0  0.31579095576E+02 -0.13688086047E+02 -0.16144859768E+02  0.38245677846E+02  0.41800000000E+01 0.  1.
         -5    1    3    3    0  502 -0.66776825489E+02  0.40505836480E+02 -0.20812683313E+03  0.22233784716E+03  0.41800000000E+01 0.  1.
        -11    1    1    2    0    0 -0.23802397159E+02 -0.33628506021E+02 -0.35341110426E+02  0.54280978380E+02  0.00000000000E+00 0. -1.
         11    1    1    2    0    0  0.59000127072E+02  0.68107555889E+01 -0.85763450483E+02  0.10432051967E+03  0.00000000000E+00 0.  1.
</event>
<event>
 7    1  0.2594791E-009  0.1454113E+03  0.7561462E-02  0.1206228E+00
          1   -1    0    0  501    0  0.00000000000E+00  0.00000000000E+00  0.18173470085E+03  0.18173470085E+03  0.00000000000E+00 0. -1.
         -1   -1    0    0    0  501 -0.00000000000E+00 -0.00000000000E+00 -0.17456391981E+03  0.17456391981E+03  0.00000000000E+00 0.  1.
         25    2    1    2    0    0  0.38677612268E+02 -0.13516349253E+03  0.15054395238E+02  0.18877941010E+03  0.12508358589E+03 0.  0.
          5    1    3    3  502    0  0.34037259887E+02 -0.81648178812E+02  0.69204942173E+02  0.11239108766E+03  0.41800000000E+01 0. -1.
         -5    1    3    3    0  502  0.46403523807E+01 -0.53515313714E+02 -0.54150546936E+02  0.76388322443E+02  0.41800000000E+01 0. -1.
        -11    1    1    2    0    0 -0.46298695679E+02  0.77913159836E+02  0.33331284416E+02  0.96566061419E+02  0.00000000000E+00 0. -1.
         11    1    1    2    0    0  0.76210834108E+01  0.57250332691E+02 -0.41214898614E+02  0.70953149144E+02  0.00000000000E+00 0.  1.
</event>
<event>
 7    1  0.2594791E-009  0.1311777E+03  0.7561462E-02  0.1225719E+00
         -2   -1    0    0    0  501 -0.00000000000E+00  0.00000000000E+00  0.96584160355E+02  0.96584160355E+02  0.00000000000E+00 0.  1.
          2   -1    0    0  501    0  0.00000000000E+00 -0.00000000000E+00 -0.23083893911E+03  0.23083893911E+03  0.00000000000E+00 0. -1.
         25    2    1    2    0    0 -0.29508037104E+02  0.94228824740E+02 -0.98333910900E+02  0.18726223390E+03  0.12509112897E+03 0.  0.
          5    1    3    3  502    0 -0.60540514784E+02  0.62062789919E+02 -0.89779373777E+01  0.87264079565E+02  0.41800000000E+01 0.  1.
         -5    1    3    3    0  502  0.31032477680E+02  0.32166034821E+02 -0.89355973522E+02  0.99998154339E+02  0.41800000000E+01 0.  1.
        -11    1    1    2    0    0 -0.28764956117E+02 -0.15379283262E+02  0.66209740011E+01  0.33283364475E+02  0.00000000000E+00 0.  1.
         11    1    1    2    0    0  0.58272993221E+02 -0.78849541478E+02 -0.42541841859E+02  0.10687750109E+03  0.00000000000E+00 0. -1.
</event>
<event>
 7    1  0.2594791E-009  0.1301514E+03  0.7561462E-02  0.1227231E+00
         -1   -1    0    0    0  501 -0.00000000000E+00  0.00000000000E+00  0.34759347985E+02  0.34759347985E+02  0.00000000000E+00 0.  1.
          1   -1    0    0  501    0  0.00000000000E+00 -0.00000000000E+00 -0.54421497317E+03  0.54421497317E+03  0.00000000000E+00 0. -1.
         25    2    1    2    0    0 -0.19610565729E+02 -0.72971016272E+02 -0.36918289192E+03  0.39705208007E+03  0.12507998678E+03 0.  0.
          5    1    3    3  502    0  0.33139434317E+02  0.20132621499E+02 -0.10275518329E+03  0.10990743673E+03  0.41800000000E+01 0. -1.
         -5    1    3    3    0  502 -0.52750000046E+02 -0.93103637771E+02 -0.26642770863E+03  0.28714464334E+03  0.41800000000E+01 0. -1.
        -11    1    1    2    0    0  0.53059775514E+02  0.54233738776E+02 -0.78158892545E+02  0.10892864951E+03  0.00000000000E+00 0.  1.
         11    1    1    2    0    0 -0.33449209785E+02  0.18737277496E+02 -0.62113840715E+02  0.72993591579E+02  0.00000000000E+00 0. -1.
</event>
<event>
 7    1  0.2594791E-009  0.1250034E+03  0.7561462E-02  0.1235064E+00
         -2   -1    0    0    0  501 -0.00000000000E+00  0.00000000000E+00  0.47504018837E+02  0.47504018837E+02  0.00000000000E+00 0.  1.
          2   -1    0    0  501    0  0.00000000000E+00 -0.00000000000E+00 -0.67326755828E+03  0.67326755828E+03  0.00000000000E+00 0. -1.
         25    2    1    2    0    0  0.86306368895E+02 -0.86405531090E+02 -0.20066113654E+03  0.26613295567E+03  0.12508858164E+03 0.  0.
          5    1    3    3  502    0  0.11314995931E+02  0.11926662272E+01 -0.13055465045E+03  0.13111613455E+03  0.41800000000E+01 0.  1.
         -5    1    3    3    0  502  0.74991372963E+02 -0.87598197318E+02 -0.70106486100E+02  0.13501682112E+03  0.41800000000E+01 0.  1.
        -11    1    1    2    0    0 -0.47234135524E+02  0.53927276403E+02 -0.37998948711E+03  0.38669267515E+03  0.00000000000E+00 0. -1.
         11    1    1    2    0    0 -0.39072233370E+02  0.32478254687E+02 -0.45112915789E+02  0.67945946304E+02  0.00000000000E+00 0.  1.
</event>
<event>
 7    1  0.2594791E-009  0.1086834E+03  0.7561462E-02  0.1263028E+00
         -2   -1    0    0    0  501 -0.00000000000E+00  0.00000000000E+00  0.21616615475E+02  0.21616615475E+02  0.00000000000E+00 0. -1.
          2   -1    0    0  501    0  0.00000000000E+00 -0.00000000000E+00 -0.18700095094E+04  0.18700095094E+04  0.00000000000E+00 0.  1.
         25    2    1    2    0    0 -0.12078165012E+02 -0.13093213993E+02 -0.17412994019E+04  0.17458775617E+04  0.12509012429E+03 0.  0.
          5    1    3    3  502    0  0.46176987480E+02  0.28245760176E+02 -0.82946672814E+03  0.83124163914E+03  0.41800000000E+01 0. -1.
         -5    1    3    3    0  502 -0.58255152492E+02 -0.41338974169E+02 -0.91183267376E+03  0.91463592261E+03  0.41800000000E+01 0. -1.
        -11    1    1    2    0    0 -0.30926037867E+02 -0.20368786717E+02 -0.17668224344E+02  0.41030152838E+02  0.00000000000E+00 0. -1.
         11    1    1    2    0    0  0.43004202879E+02  0.33462000710E+02 -0.89425267709E+02  0.10471841033E+03  0.00000000000E+00 0.  1.
</event>
<event>
 7    1  0.2594791E-009  0.1139860E+03  0.7561462E-02  0.1253362E+00
         -1   -1    0    0    0  501 -0.00000000000E+00  0.00000000000E+00  0.73068414892E+02  0.73068414892E+02  0.00000000000E+00 0.  1.
          1   -1    0    0  501    0  0.00000000000E+00 -0.00000000000E+00 -0.48335875098E+03  0.48335875098E+03  0.00000000000E+00 0. -1.
         25    2    1    2    0    0 -0.40566843363E+01  0.69948465579E+02 -0.41928015466E+03  0.44311854730E+03  0.12509578070E+03 0.  0.
          5    1    3    3  502    0 -0.24309007408E+01 -0.33662039827E+02 -0.57865236367E+02  0.67118553199E+02  0.41800000000E+01 0. -1.
         -5    1    3    3    0  502 -0.16257835956E+01  0.10361050541E+03 -0.36141491829E+03  0.37599999410E+03  0.41800000000E+01 0. -1.
        -11    1    1    2    0    0 -0.21612635013E+02 -0.58090985217E+02  0.38077012767E+02  0.72742885954E+02  0.00000000000E+00 0.  1.
         11    1    1    2    0    0  0.25669319349E+02 -0.11857480362E+02 -0.29087194199E+02  0.40565732617E+02  0.00000000000E+00 0. -1.
</event>
<event>
 7    1  0.2594791E-009  0.7684975E+02  0.7561462E-02  0.1338237E+00
          1   -1    0    0  501    0  0.00000000000E+00  0.00000000000E+00  0.30591718219E+03  0.30591718219E+03  0.00000000000E+00 0. -1.
         -1   -1    0    0    0  501 -0.00000000000E+00 -0.00000000000E+00 -0.43073242028E+02  0.43073242028E+02  0.00000000000E+00 0.  1.
         25    2    1    2    0    0 -0.39195146680E+02  0.10017927984E+02  0.13631541116E+03  0.18938320586E+03  0.12508992341E+03 0.  0.
          5    1    3    3  502    0 -0.11935970022E+02 -0.21342535484E+02  0.14468072340E+03  0.14679221820E+03  0.41800000000E+01 0. -1.
         -5    1    3    3    0  502 -0.27259176659E+02  0.31360463468E+02 -0.83653122429E+01  0.42590987661E+02  0.41800000000E+01 0. -1.
        -11    1    1    2    0    0  0.57423218591E+02 -0.25862103973E+02  0.11842987417E+03  0.13413392394E+03  0.00000000000E+00 0. -1.
         11    1    1    2    0    0 -0.18228071911E+02  0.15844175989E+02  0.80986548377E+01  0.25473294418E+02  0.00000000000E+00 0.  1.
</event>
<event>
 7    1  0.2594791E-009  0.7420086E+02  0.7561462E-02  0.1346364E+00
          3   -1    0    0  501    0  0.00000000000E+00  0.00000000000E+00  0.40957827224E+02  0.40957827224E+02  0.00000000000E+00 0. -1.
         -3   -1    0    0    0  501 -0.00000000000E+00 -0.00000000000E+00 -0.39678114804E+03  0.39678114804E+03  0.00000000000E+00 0.  1.
         25    2    1    2    0    0 -0.63395051881E+02  0.22492132016E+02 -0.20767015397E+03  0.25159621929E+03  0.12509570778E+03 0.  0.
          5    1    3    3  502    0 -0.71219162716E+01 -0.11466703426E+02 -0.17935165018E+03  0.17990745900E+03  0.41800000000E+01 0.  1.
         -5    1    3    3    0  502 -0.56273135609E+02  0.33958835442E+02 -0.28318503786E+02  0.71688760295E+02  0.41800000000E+01 0.  1.
        -11    1    1    2    0    0  0.55627674906E+02 -0.14986168252E+02 -0.16003273158E+03  0.17008673855E+03  0.00000000000E+00 0.  1.
         11    1    1    2    0    0  0.77673769746E+01 -0.75059637643E+01  0.11879564735E+02  0.16056017420E+02  0.00000000000E+00 0. -1.
</event>
<event>
 7    1  0.2594791E-009  0.1075916E+03  0.7561462E-02  0.1265096E+00
         -1   -1    0    0    0  501 -0.00000000000E+00  0.00000000000E+00  0.28606661987E+02  0.28606661987E+02  0.00000000000E+00 0.  1.
          1   -1    0    0  501    0  0.00000000000E+00 -0.00000000000E+00 -0.61752577582E+03  0.61752577582E+03  0.00000000000E+00 0. -1.
         25    2    1    2    0    0 -0.25173193933E+01 -0.65226925096E+02 -0.40547972215E+03  0.42932597881E+03  0.12508438093E+03 0.  0.
          5    1    3    3  502    0 -0.42320115198E+02 -0.11879043251E+02 -0.46190088893E+02  0.63899143428E+02  0.41800000000E+01 0.  1.
         -5    1    3    3    0  502  0.39802795805E+02 -0.53347881845E+02 -0.35928963325E+03  0.36542683538E+03  0.41800000000E+01 0.  1.
        -11    1    1    2    0    0 -0.32878561065E+02  0.60191166222E+02 -0.70560912067E+02  0.98401313917E+02  0.00000000000E+00 0.  1.
         11    1    1    2    0    0  0.35395880458E+02  0.50357588738E+01 -0.11287847962E+03  0.11840514508E+03  0.00000000000E+00 0. -1.
</event>
<event>
 7    1  0.2594791E-009  0.7899158E+02  0.7561462E-02  0.1331938E+00
         -1   -1    0    0    0  501 -0.00000000000E+00  0.00000000000E+00  0.33828822947E+03  0.33828822947E+03  0.00000000000E+00 0.  1.
          1   -1    0    0  501    0  0.00000000000E+00 -0.00000000000E+00 -0.44956856784E+02  0.44956856784E+02  0.00000000000E+00 0. -1.
         25    2    1    2    0    0  0.40400832763E+02 -0.17382034322E+02  0.22816918130E+03  0.26390066877E+03  0.12509206720E+03 0.  0.
          5    1    3    3  502    0  0.38975995063E+02  0.27673952082E+02  0.20950939794E+03  0.21493402718E+03  0.41800000000E+01 0.  1.
         -5    1    3    3    0  502  0.14248376997E+01 -0.45055986404E+02  0.18659783361E+02  0.48966641588E+02  0.41800000000E+01 0.  1.
        -11    1    1    2    0    0 -0.28147682753E+02  0.33962541070E+02 -0.66700597281E+01  0.44612060444E+02  0.00000000000E+00 0. -1.
         11    1    1    2    0    0 -0.12253150010E+02 -0.16580506748E+02  0.71832251112E+02  0.74732357041E+02  0.00000000000E+00 0.  1.
</event>
<event>
 7    1  0.2594791E-009  0.2040271E+03  0.7561462E-02  0.1146385E+00
          2   -1    0    0  501    0  0.00000000000E+00  0.00000000000E+00  0.31384626916E+03  0.31384626916E+03  0.00000000000E+00 0. -1.
         -2   -1    0    0    0  501 -0.00000000000E+00 -0.00000000000E+00 -0.20110011257E+03  0.20110011257E+03  0.00000000000E+00 0.  1.
         25    2    1    2    0    0 -0.56976022279E+02 -0.17662557105E+03  0.19084434704E+03  0.29412580221E+03  0.12508222603E+03 0.  0.
          5    1    3    3  502    0 -0.84375275312E+02 -0.17542959593E+03  0.15543449084E+03  0.24914269717E+03  0.41800000000E+01 0.  1.
         -5    1    3    3    0  502  0.27399253033E+02 -0.11959751230E+01  0.35409856196E+02  0.44983105040E+02  0.41800000000E+01 0.  1.
        -11    1    1    2    0    0  0.19513898365E+02  0.57062751349E+02  0.17978668880E+02  0.62929979784E+02  0.00000000000E+00 0. -1.
         11    1    1    2    0    0  0.37462123914E+02  0.11956281970E+03 -0.96076859328E+02  0.15789059973E+03  0.00000000000E+00 0.  1.
</event>
<event>
 7    1  0.2670714E-009  0.6629091E+02  0.7561462E-02  0.1373180E+00
          1   -1    0    0  501    0  0.00000000000E+00  0.00000000000E+00  0.36196378177E+03  0.36196378177E+03  0.00000000000E+00 0. -1.
         -1   -1    0    0    0  501 -0.00000000000E+00 -0.00000000000E+00 -0.38240776853E+02  0.38240776853E+02  0.00000000000E+00 0.  1.
         25    2    1    2    0    0 -0.23092928499E+02  0.18881095891E+02  0.12584877559E+03  0.17992951105E+03  0.12508771123E+03 0.  0.
          5    1    3    3  502    0 -0.41284017341E+02  0.29285862456E+02 -0.14894802793E+01  0.50810656157E+02  0.41800000000E+01 0. -1.
         -5    1    3    3    0  502  0.18191088842E+02 -0.10404766565E+02  0.12733825587E+03  0.12911885489E+03  0.41800000000E+01 0. -1.
        -11    1    1    2    0    0 -0.15393874606E+02  0.36583006302E+01 -0.15740512403E+01  0.15900697350E+02  0.00000000000E+00 0.  1.
         11    1    1    2    0    0  0.38486803105E+02 -0.22539396521E+02  0.19944828057E+03  0.20437435022E+03  0.00000000000E+00 0. -1.
</event>
<event>
 7    1  0.2594791E-009  0.6131913E+02  0.7561462E-02  0.1392378E+00
         -1   -1    0    0    0  501 -0.00000000000E+00  0.00000000000E+00  0.17338992705E+03  0.17338992705E+03  0.00000000000E+00 0.  1.
          1   -1    0    0  501    0  0.00000000000E+00 -0.00000000000E+00 -0.71609185085E+02  0.71609185085E+02  0.00000000000E+00 0. -1.
         25    2    1    2    0    0 -0.10670941059E+02  0.22644166384E+02  0.64119208501E+02  0.14277563545E+03  0.12508789679E+03 0.  0.
          5    1    3    3  502    0 -0.18250960406E+02  0.40213602041E+02 -0.25415372639E+02  0.51123819412E+02  0.41800000000E+01 0.  1.
         -5    1    3    3    0  502  0.75800193478E+01 -0.17569435657E+02  0.89534581141E+02  0.91651816036E+02  0.41800000000E+01 0.  1.
        -11    1    1    2    0    0  0.17127047722E+01  0.17488957175E+02 -0.22995947928E+02  0.28941503102E+02  0.00000000000E+00 0. -1.
         11    1    1    2    0    0  0.89582362865E+01 -0.40133123559E+02  0.60657481395E+02  0.73281973589E+02  0.00000000000E+00 0.  1.
</event>
<event>
 7    1  0.2594791E-009  0.1176026E+03  0.7561462E-02  0.1247105E+00
         -1   -1    0    0    0  501 -0.00000000000E+00  0.00000000000E+00  0.57212304957E+02  0.57212304957E+02  0.00000000000E+00 0.  1.
          1   -1    0    0  501    0  0.00000000000E+00 -0.00000000000E+00 -0.36888310948E+03  0.36888310948E+03  0.00000000000E+00 0. -1.
         25    2    1    2    0    0  0.34714564594E+02  0.83867439247E+02 -0.23447190763E+03  0.28082498870E+03  0.12508697155E+03 0.  0.
          5    1    3    3  502    0  0.19925122969E+02  0.10433958010E+03 -0.23188957942E+03  0.25509607591E+03  0.41800000000E+01 0.  1.
         -5    1    3    3    0  502  0.14789441625E+02 -0.20472140849E+02 -0.25823282059E+01  0.25728912793E+02  0.41800000000E+01 0.  1.
        -11    1    1    2    0    0  0.10780718878E+02 -0.42270400377E+01  0.12458857290E+02  0.17009259007E+02  0.00000000000E+00 0.  1.
         11    1    1    2    0    0 -0.45495283472E+02 -0.79640399209E+02 -0.89657754181E+02  0.12826116672E+03  0.00000000000E+00 0. -1.
</event>
<event>
 7    1  0.2594791E-009  0.1308014E+03  0.7561462E-02  0.1226271E+00
         -1   -1    0    0    0  501 -0.00000000000E+00  0.00000000000E+00  0.99921607480E+02  0.99921607480E+02  0.00000000000E+00 0.  1.
          1   -1    0    0  501    0  0.00000000000E+00 -0.00000000000E+00 -0.32084362876E+03  0.32084362876E+03  0.00000000000E+00 0. -1.
         25    2    1    2    0    0 -0.37876882272E+02  0.68386116482E+02 -0.25713725793E+03  0.29644262623E+03  0.12508933643E+03 0.  0.
          5    1    3    3  502    0 -0.26607632704E+01  0.99521934642E+02 -0.16088095163E+03  0.18924018636E+03  0.41800000000E+01 0. -1.
         -5    1    3    3    0  502 -0.35216119002E+02 -0.31135818159E+02 -0.96256306308E+02  0.10720243987E+03  0.41800000000E+01 0. -1.
        -11    1    1    2    0    0 -0.13661714686E+02 -0.61226330422E+02  0.34383884846E+01  0.62826176873E+02  0.00000000000E+00 0. -1.
         11    1    1    2    0    0  0.51538596958E+02 -0.71597860602E+01  0.32776848172E+02  0.61496433139E+02  0.00000000000E+00 0.  1.
</event>
<event>
 7    1  0.2594791E-009  0.1719941E+03  0.7561462E-02  0.1175784E+00
          2   -1    0    0  501    0  0.00000000000E+00  0.00000000000E+00  0.55513018283E+03  0.55513018283E+03  0.00000000000E+00 0. -1.
         -2   -1    0    0    0  501 -0.00000000000E+00 -0.00000000000E+00 -0.62661639636E+02  0.62661639636E+02  0.00000000000E+00 0.  1.
         25    2    1    2    0    0  0.12211279559E+03 -0.87874177014E+02  0.28584779649E+03  0.34639588753E+03  0.12509093614E+03 0.  0.
          5    1    3    3  502    0  0.14020037133E+03 -0.94011629006E+02  0.27813308752E+03  0.32537642398E+03  0.41800000000E+01 0. -1.
         -5    1    3    3    0  502 -0.18087575740E+02  0.61374519918E+01  0.77147089667E+01  0.21019463541E+02  0.41800000000E+01 0. -1.
        -11    1    1    2    0    0 -0.38061279940E+02  0.51397295421E+02  0.26340072145E+02  0.69167495313E+02  0.00000000000E+00 0.  1.
         11    1    1    2    0    0 -0.84051515652E+02  0.36476881593E+02  0.18028067456E+03  0.20222843963E+03  0.00000000000E+00 0. -1.
</event>
<event>
 7    1  0.2594791E-009  0.1779410E+03  0.7561462E-02  0.1169811E+00
         -2   -1    0    0    0  501 -0.00000000000E+00  0.00000000000E+00  0.37432952300E+02  0.37432952300E+02  0.00000000000E+00 0.  1.
          2   -1    0    0  501    0  0.00000000000E+00 -0.00000000000E+00 -0.84720361965E+03  0.84720361965E+03  0.00000000000E+00 0. -1.
         25    2    1    2    0    0 -0.53116756772E+02 -0.13057813728E+03 -0.43089729256E+03  0.47030898930E+03  0.12508408732E+03 0.  0.
          5    1    3    3  502    0  0.37656259045E+02 -0.14032776584E+02 -0.82419194403E+02  0.91789480170E+02  0.41800000000E+01 0. -1.
         -5    1    3    3    0  502 -0.90773015818E+02 -0.11654536069E+03 -0.34847809816E+03  0.37851950913E+03  0.41800000000E+01 0. -1.
        -11    1    1    2    0    0 -0.26048558802E+02  0.31580338887E+02 -0.93247955019E+02  0.10183823612E+03  0.00000000000E+00 0.  1.
         11    1    1    2    0    0  0.79165315575E+02  0.98997798389E+02 -0.28562541977E+03  0.31248934653E+03  0.00000000000E+00 0. -1.
</event>
<event>
 7    1  0.2594791E-009  0.9589425E+02  0.7561462E-02  0.1289175E+00
          2   -1    0    0  501    0  0.00000000000E+00  0.00000000000E+00  0.69271165335E+03  0.69271165335E+03  0.00000000000E+00 0. -1.
         -2   -1    0    0    0  501 -0.00000000000E+00 -0.00000000000E+00 -0.21125851318E+02  0.21125851318E+02  0.00000000000E+00 0.  1.
         25    2    1    2    0    0 -0.25739785165E+02  0.38489557985E+02  0.55821476918E+03  0.57392924014E+03  0.12508821505E+03 0.  0.
          5    1    3    3  502    0 -0.50331234511E+02 -0.26061975474E+02  0.34816856585E+03  0.35277653321E+03  0.41800000000E+01 0.  1.
         -5    1    3    3    0  502  0.24591449345E+02  0.64551533459E+02  0.21004620333E+03  0.22115270694E+03  0.41800000000E+01 0.  1.
        -11    1    1    2    0    0  0.10083561061E+02 -0.46905924728E+02  0.34589144992E+02  0.59146030548E+02  0.00000000000E+00 0.  1.
         11    1    1    2    0    0  0.15656224105E+02  0.84163667430E+01  0.78781887863E+02  0.80762233981E+02  0.00000000000E+00 0. -1.
</event>
<event>
 7    1  0.2594791E-009  0.1028397E+03  0.7561462E-02  0.1274435E+00
          2   -1    0    0  501    0  0.00000000000E+00  0.00000000000E+00  0.16345367385E+03  0.16345367385E+03  0.00000000000E+00 0. -1.
         -2   -1    0    0    0  501 -0.00000000000E+00 -0.00000000000E+00 -0.85544258763E+02  0.85544258763E+02  0.00000000000E+00 0.  1.
         25    2    1    2    0    0  0.38014592441E+02  0.25810634900E+02  0.55186219433E+02  0.14423776478E+03  0.12509083044E+03 0.  0.
          5    1    3    3  502    0 -0.33191772748E+02  0.46889968269E+02  0.34059645557E+02  0.66917073739E+02  0.41800000000E+01 0. -1.
         -5    1    3    3    0  502  0.71206365188E+02 -0.21079333368E+02  0.21126573876E+02  0.77320691036E+02  0.41800000000E+01 0. -1.
        -11    1    1    2    0    0  0.43288542448E+01  0.14563639462E+02 -0.25002315932E+02  0.29256697958E+02  0.00000000000E+00 0.  1.
         11    1    1    2    0    0 -0.42343446685E+02 -0.40374274363E+02  0.47725511584E+02  0.75503469877E+02  0.00000000000E+00 0. -1.
</event>
<event>
 7    1  0.2594791E-009  0.1411622E+03  0.7561462E-02  0.1211774E+00
          4   -1    0    0  501    0  0.00000000000E+00  0.00000000000E+00  0.67915089554E+03  0.67915089554E+03  0.00000000000E+00 0. -1.
         -4   -1    0    0    0  501 -0.00000000000E+00 -0.00000000000E+00 -0.54224498339E+02  0.54224498339E+02  0.00000000000E+00 0.  1.
         25    2    1    2    0    0  0.11130434411E+03  0.25653979220E+02  0.53552763649E+03  0.56168051149E+03  0.12509342057E+03 0.  0.
          5    1    3    3  502    0 -0.26294913271E+01  0.34916010919E+02  0.40919183242E+02  0.54017534194E+02  0.41800000000E+01 0. -1.
         -5    1    3    3    0  502  0.11393383544E+03 -0.92620316994E+01  0.49460845325E+03  0.50766297729E+03  0.41800000000E+01 0. -1.
        -11    1    1    2    0    0 -0.35814258429E+02 -0.42244848683E+02  0.25618622217E+01  0.55442325755E+02  0.00000000000E+00 0.  1.
         11    1    1    2    0    0 -0.75490085682E+02  0.16590869463E+02  0.86836898492E+02  0.11625255664E+03  0.00000000000E+00 0. -1.
</event>
<event>
 7    1  0.2594791E-009  0.9721911E+02  0.7561462E-02  0.1286255E+00
         -4   -1    0    0    0  501 -0.00000000000E+00  0.00000000000E+00  0.85791330936E+02  0.85791330936E+02  0.00000000000E+00 0.  1.
          4   -1    0    0  501    0  0.00000000000E+00 -0.00000000000E+00 -0.19555116377E+03  0.19555116377E+03  0.00000000000E+00 0. -1.
         25    2    1    2    0    0 -0.26369964657E+02 -0.12045261640E+02  0.80241244906E+01  0.12865941967E+03  0.12509355032E+03 0.  0.
          5    1    3    3  502    0  0.16705089532E+01 -0.55223336810E+02 -0.31394856597E+02  0.63682940803E+02  0.41800000000E+01 0.  1.
         -5    1    3    3    0  502 -0.28040473610E+02  0.43178075170E+02  0.39418981088E+02  0.64976478865E+02  0.41800000000E+01 0.  1.
        -11    1    1    2    0    0 -0.35555046407E+01  0.43684239968E+02 -0.92419592264E+02  0.10228555846E+03  0.00000000000E+00 0. -1.
         11    1    1    2    0    0  0.29925469298E+02 -0.31638978328E+02 -0.25364365060E+02  0.50397516578E+02  0.00000000000E+00 0.  1.
</event>
<event>
 7    1  0.2594791E-009  0.2434825E+03  0.7561462E-02  0.1117494E+00
         -1   -1    0    0    0  501 -0.00000000000E+00  0.00000000000E+00  0.25126184846E+02  0.25126184846E+02  0.00000000000E+00 0.  1.
          1   -1    0    0  501    0  0.00000000000E+00 -0.00000000000E+00 -0.34273493140E+04  0.34273493140E+04  0.00000000000E+00 0. -1.
         25    2    1    2    0    0  0.18048777461E+03  0.14257221627E+03 -0.25914240226E+04  0.26046168871E+04  0.12509192558E+03 0.  0.
          5    1    3    3  502    0  0.64688079433E+02  0.12069602026E+03 -0.16838201425E+04  0.16893844506E+04  0.41800000000E+01 0.  1.
         -5    1    3    3    0  502  0.11579969518E+03  0.21876196001E+02 -0.90760388008E+03  0.91523243653E+03  0.41800000000E+01 0.  1.
        -11    1    1    2    0    0 -0.11323377899E+03 -0.70126064729E+02 -0.60582933157E+03  0.62029729376E+03  0.00000000000E+00 0.  1.
         11    1    1    2    0    0 -0.67253995627E+02 -0.72446151537E+02 -0.20496977496E+03  0.22756131799E+03  0.00000000000E+00 0. -1.
</event>
<event>
 6    1  0.2594791E-009  0.9694621E+02  0.7561462E-02  0.1286852E+00
          1   -1    0    0  501    0  0.00000000000E+00  0.00000000000E+00  0.11391499721E+03  0.11391499721E+03  0.00000000000E+00 0. -1.
         -1   -1    0    0    0  501 -0.00000000000E+00 -0.00000000000E+00 -0.12859176970E+03  0.12859176970E+03  0.00000000000E+00 0.  1.
          5    1    1    2  502    0 -0.66680250594E+02  0.45857978049E+02  0.64954868748E+01  0.81294979672E+02  0.41800000000E+01 0. -1.
         -5    1    1    2    0  502  0.42726974345E+02 -0.16890459886E+02  0.28642919529E+02  0.54302589358E+02  0.41800000000E+01 0. -1.
        -11    1    1    2    0    0  0.22279358991E+02  0.12281543869E+02  0.15390689292E+02  0.29733473960E+02  0.00000000000E+00 0. -1.
         11    1    1    2    0    0  0.16739172577E+01 -0.41249062032E+02 -0.65205868187E+02  0.77175723926E+02  0.00000000000E+00 0.  1.
</event>
<event>
 7    1  0.2594791E-009  0.8796459E+02  0.7561462E-02  0.1307857E+00
         -2   -1    0    0    0  501 -0.00000000000E+00  0.00000000000E+00  0.63734096600E+02  0.63734096600E+02  0.00000000000E+00 0.  1.
          2   -1    0    0  501    0  0.00000000000E+00 -0.00000000000E+00 -0.19090487482E+03  0.19090487482E+03  0.00000000000E+00 0. -1.
         25    2    1    2    0    0  0.14470174423E+02 -0.87197090902E+01 -0.53374338070E+02  0.13705129862E+03  0.12509524058E+03 0.  0.
          5    1    3    3  502    0  0.32791152991E+02  0.36020732439E+02 -0.70324879690E+02  0.85649366508E+02  0.41800000000E+01 0. -1.
         -5    1    3    3    0  502 -0.18320978567E+02 -0.44740441529E+02  0.16950541620E+02  0.51401932115E+02  0.41800000000E+01 0. -1.
        -11    1    1    2    0    0 -0.23369074058E+02 -0.30427903821E+02 -0.60515020828E+01  0.38840592564E+02  0.00000000000E+00 0.  1.
         11    1    1    2    0    0  0.88988996348E+01  0.39147612912E+02 -0.67744938067E+02  0.78747080232E+02  0.00000000000E+00 0. -1.
</event>
<event>
 7    1  0.2594791E-009  0.2365169E+03  0.7561462E-02  0.1122135E+00
          1   -1    0    0  501    0  0.00000000000E+00  0.00000000000E+00  0.45089229833E+03  0.45089229833E+03  0.00000000000E+00 0. -1.
         -1   -1    0    0    0  501 -0.00000000000E+00 -0.00000000000E+00 -0.16132083449E+03  0.16132083449E+03  0.00000000000E+00 0.  1.
         25    2    1    2    0    0  0.13406845442E+03 -0.17629772087E+03  0.25160491479E+02  0.25560991359E+03  0.12509252871E+03 0.  0.
          5    1    3    3  502    0  0.87257234175E+02 -0.18388134435E+03  0.42683178413E+01  0.20362186684E+03  0.41800000000E+01 0. -1.
         -5    1    3    3    0  502  0.46811220249E+02  0.75836234806E+01  0.20892173638E+02  0.51988046757E+02  0.41800000000E+01 0. -1.
        -11    1    1    2    0    0 -0.25407974393E+02  0.42162911679E+02  0.11763113789E+02  0.50612717078E+02  0.00000000000E+00 0.  1.
         11    1    1    2    0    0 -0.10866048003E+03  0.13413480919E+03  0.25264785858E+03  0.30599050215E+03  0.00000000000E+00 0. -1.
</event>
<event>
 7    1  0.2594791E-009  0.8249378E+02  0.7561462E-02  0.1322120E+00
          2   -1    0    0  501    0  0.00000000000E+00  0.00000000000E+00  0.99333969150E+03  0.99333969150E+03  0.00000000000E+00 0. -1.
         -2   -1    0    0    0  501 -0.00000000000E+00 -0.00000000000E+00 -0.17486576504E+02  0.17486576504E+02  0.00000000000E+00 0.  1.
         25    2    1    2    0    0  0.57701643461E+01  0.43362710778E+02  0.78452765668E+03  0.79564115384E+03  0.12509029577E+03 0.  0.
          5    1    3    3  502    0 -0.12143465466E+02  0.66139248868E+02  0.21383446624E+03  0.22419749184E+03  0.41800000000E+01 0. -1.
         -5    1    3    3    0  502  0.17913629812E+02 -0.22776538090E+02  0.57069319044E+03  0.57144366200E+03  0.41800000000E+01 0. -1.
        -11    1    1    2    0    0  0.23509222804E+02 -0.18229364803E+02  0.16687002270E+03  0.16950102588E+03  0.00000000000E+00 0. -1.
         11    1    1    2    0    0 -0.29279387150E+02 -0.25133345975E+02  0.24455435611E+02  0.45684088288E+02  0.00000000000E+00 0.  1.
</event>
<event>
 7    1  0.2594791E-009  0.1890733E+03  0.7561462E-02  0.1159300E+00
         -1   -1    0    0    0  501 -0.00000000000E+00  0.00000000000E+00  0.16565380705E+03  0.16565380705E+03  0.00000000000E+00 0.  1.
          1   -1    0    0  501    0  0.00000000000E+00 -0.00000000000E+00 -0.33061810050E+03  0.33061810050E+03  0.00000000000E+00 0. -1.
         25    2    1    2    0    0  0.17266614728E+03 -0.43273446667E+02  0.27338483108E+02  0.21927016335E+03  0.12508326137E+03 0.  0.
          5    1    3    3  502    0  0.13345673265E+03 -0.27619005044E+02  0.74875223508E+02  0.15555475057E+03  0.41800000000E+01 0.  1.
         -5    1    3    3    0  502  0.39209414629E+02 -0.15654441624E+02 -0.47536740399E+02  0.63715412781E+02  0.41800000000E+01 0.  1.
        -11    1    1    2    0    0 -0.17249432713E+03  0.60010209511E+02 -0.17599286500E+03  0.25363163578E+03  0.00000000000E+00 0. -1.
         11    1    1    2    0    0 -0.17182015103E+00 -0.16736762844E+02 -0.16309911556E+02  0.23370108421E+02  0.00000000000E+00 0.  1.
</event>
<event>
 7    1  0.2594791E-009  0.1623147E+03  0.7561462E-02  0.1186108E+00
         -2   -1    0    0    0  501 -0.00000000000E+00  0.00000000000E+00  0.32115709166E+02  0.32115709166E+02  0.00000000000E+00 0.  1.
          2   -1    0    0  501    0  0.00000000000E+00 -0.00000000000E+00 -0.84777045395E+03  0.84777045395E+03  0.00000000000E+00 0. -1.
         25    2    1    2    0    0 -0.11454237368E+03 -0.39722076055E+02 -0.39222009577E+03  0.42916567954E+03  0.12509507693E+03 0.  0.
          5    1    3    3  502    0  0.13637102245E+02  0.23598921920E+02 -0.36323750052E+02  0.45604461309E+02  0.41800000000E+01 0.  1.
         -5    1    3    3    0  502 -0.12817947592E+03 -0.63320997975E+02 -0.35589634572E+03  0.38356121823E+03  0.41800000000E+01 0.  1.
        -11    1    1    2    0    0  0.13004718133E+03  0.24570163645E+02 -0.37452681386E+03  0.39722323272E+03  0.00000000000E+00 0.  1.
         11    1    1    2    0    0 -0.15504807655E+02  0.15151912410E+02 -0.48907835142E+02  0.53497250849E+02  0.00000000000E+00 0. -1.
</event>
<event>
 7    1  0.2594791E-009  0.4157878E+03  0.7561462E-02  0.1038446E+00
          1   -1    0    0  501    0  0.00000000000E+00  0.00000000000E+00  0.90531745048E+03  0.90531745048E+03  0.00000000000E+00 0. -1.
         -1   -1    0    0    0  501 -0.00000000000E+00 -0.00000000000E+00 -0.19331390331E+03  0.19331390331E+03  0.00000000000E+00 0.  1.
         25    2    1    2    0    0  0.39928949381E+03  0.48176020405E+02  0.32299119442E+03  0.53078607483E+03  0.12512999942E+03 0.  0.
          5    1    3    3  502    0  0.14509514497E+03  0.76126611180E+02  0.14849221763E+03  0.22116797490E+03  0.41800000000E+01 0. -1.
         -5    1    3    3    0  502  0.25419434884E+03 -0.27950590775E+02  0.17449897679E+03  0.30961809993E+03  0.41800000000E+01 0. -1.
        -11    1    1    2    0    0 -0.28883326051E+03 -0.74649554024E+02  0.30438008722E+03  0.42619766047E+03  0.00000000000E+00 0.  1.
         11    1    1    2    0    0 -0.11045623330E+03  0.26473533620E+02  0.84632265538E+02  0.14164761850E+03  0.00000000000E+00 0. -1.
</event>
<event>
 7    1  0.2594791E-009  0.1309964E+03  0.7561462E-02  0.1225985E+00
          1   -1    0    0  501    0  0.00000000000E+00  0.00000000000E+00  0.42269838242E+02  0.42269838242E+02  0.00000000000E+00 0. -1.
         -1   -1    0    0    0  501 -0.00000000000E+00 -0.00000000000E+00 -0.67502681661E+03  0.67502681661E+03  0.00000000000E+00 0.  1.
         25    2    1    2    0    0  0.98000797789E+02 -0.56828269395E+02 -0.46907943951E+03  0.49851451782E+03  0.12509034872E+03 0.  0.
          5    1    3    3  502    0  0.11467065216E+03 -0.41771291388E+02 -0.45625275509E+03  0.47231160072E+03  0.41800000000E+01 0.  1.
         -5    1    3    3    0  502 -0.16669854371E+02 -0.15056978007E+02 -0.12826684421E+02  0.26202917102E+02  0.41800000000E+01 0.  1.
        -11    1    1    2    0    0 -0.26597593607E+02  0.13925892517E+01 -0.11101316998E+03  0.11416345825E+03  0.00000000000E+00 0.  1.
         11    1    1    2    0    0 -0.71403204182E+02  0.55435680143E+02 -0.52664368886E+02  0.10461867878E+03  0.00000000000E+00 0. -1.
</event>
<event>
 7    1  0.2594791E-009  0.1235071E+03  0.7561462E-02  0.1237421E+00
         -1   -1    0    0    0  501 -0.00000000000E+00  0.00000000000E+00  0.21233457118E+03  0.21233457118E+03  0.00000000000E+00 0.  1.
          1   -1    0    0  501    0  0.00000000000E+00 -0.00000000000E+00 -0.10378681392E+03  0.10378681392E+03  0.00000000000E+00 0. -1.
         25    2    1    2    0    0  0.90271327368E+02 -0.29799656486E+01  0.10748569830E+03  0.18803544268E+03  0.12508540932E+03 0.  0.
          5    1    3    3  502    0  0.10133127750E+03 -0.22784352531E+02  0.31480919189E+02  0.10860789655E+03  0.41800000000E+01 0. -1.
         -5    1    3    3    0  502 -0.11059950129E+02  0.19804386882E+02  0.76004779113E+02  0.79427546133E+02  0.41800000000E+01 0. -1.
        -11    1    1    2    0    0  0.12955982087E+02  0.10250479330E+02 -0.16240428619E+02  0.23166383405E+02  0.00000000000E+00 0. -1.
         11    1    1    2    0    0 -0.10322730945E+03 -0.72705136810E+01  0.17302487582E+02  0.10491955901E+03  0.00000000000E+00 0.  1.
</event>
<event>
 7    1  0.2594791E-009  0.7798673E+02  0.7561462E-02  0.1334864E+00
         -2   -1    0    0    0  501 -0.00000000000E+00  0.00000000000E+00  0.14113473342E+02  0.14113473342E+02  0.00000000000E+00 0.  1.
          2   -1    0    0  501    0  0.00000000000E+00 -0.00000000000E+00 -0.83390933903E+03  0.83390933903E+03  0.00000000000E+00 0. -1.
         25    2    1    2    0    0  0.21772405189E+01 -0.65160838349E+01 -0.44581153149E+03  0.46307756752E+03  0.12508282140E+03 0.  0.
          5    1    3    3  502    0  0.33012346002E+02 -0.53764595420E+01 -0.42333501528E+03  0.42467485076E+03  0.41800000000E+01 0.  1.
         -5    1    3    3    0  502 -0.30835105483E+02 -0.11396242929E+01 -0.22476516201E+02  0.38402716756E+02  0.41800000000E+01 0.  1.
        -11    1    1    2    0    0 -0.45968111300E+02 -0.38432295059E+01 -0.19726963950E+03  0.20259108652E+03  0.00000000000E+00 0. -1.
         11    1    1    2    0    0  0.43790870781E+02  0.10359313341E+02 -0.17671469470E+03  0.18235415833E+03  0.00000000000E+00 0.  1.
</event>
<event>
 7    1  0.2594791E-009  0.9304771E+02  0.7561462E-02  0.1295635E+00
         -1   -1    0    0    0  501 -0.00000000000E+00  0.00000000000E+00  0.11840612114E+02  0.11840612114E+02  0.00000000000E+00 0.  1.
          1   -1    0    0  501    0  0.00000000000E+00 -0.00000000000E+00 -0.13801264633E+04  0.13801264633E+04  0.00000000000E+00 0. -1.
         25    2    1    2    0    0  0.10997062008E+01 -0.22742636319E+01 -0.11262409549E+04  0.11331690272E+04  0.12508786471E+03 0.  0.
          5    1    3    3  502    0 -0.20302723028E+02  0.44504718859E+02 -0.89012920744E+03  0.89148210801E+03  0.41800000000E+01 0. -1.
         -5    1    3    3    0  502  0.21402429229E+02 -0.46778982491E+02 -0.23611174750E+03  0.24168691914E+03  0.41800000000E+01 0. -1.
        -11    1    1    2    0    0  0.41858491415E+02  0.59217764419E+01 -0.73150002601E+02  0.84487416935E+02  0.00000000000E+00 0.  1.
         11    1    1    2    0    0 -0.42958197616E+02 -0.36475128100E+01 -0.16889489364E+03  0.17431063132E+03  0.00000000000E+00 0. -1.
</event>
<event>
 7    1  0.2594791E-009  0.8844656E+02  0.7561462E-02  0.1306658E+00
         -2   -1    0    0    0  501 -0.00000000000E+00  0.00000000000E+00  0.23109341872E+03  0.23109341872E+03  0.00000000000E+00 0.  1.
          2   -1    0    0  501    0  0.00000000000E+00 -0.00000000000E+00 -0.60893644277E+02  0.60893644277E+02  0.00000000000E+00 0. -1.
         25    2    1    2    0    0 -0.38550845849E+02  0.49065891369E+02  0.13509312468E+03  0.19439566638E+03  0.12508354552E+03 0.  0.
          5    1    3    3  502    0 -0.77994850044E+01 -0.19509016795E+02 -0.15227553273E+02  0.26282779178E+02  0.41800000000E+01 0.  1.
         -5    1    3    3    0  502 -0.30751360845E+02  0.68574908164E+02  0.15032067795E+03  0.16811288720E+03  0.41800000000E+01 0.  1.
        -11    1    1    2    0    0  0.50885331579E+02 -0.36736005796E+02  0.45290349245E+02  0.77395522006E+02  0.00000000000E+00 0.  1.
         11    1    1    2    0    0 -0.12334485730E+02 -0.12329885573E+02 -0.10183699476E+02  0.20195874615E+02  0.00000000000E+00 0. -1.
</event>
<event>
 7    1  0.2609415E-009  0.1926516E+03  0.7561462E-02  0.1156091E+00
         -1   -1    0    0    0  501 -0.00000000000E+00  0.00000000000E+00  0.23800081841E+02  0.23800081841E+02  0.00000000000E+00 0.  1.
          1   -1    0    0  501    0  0.00000000000E+00 -0.00000000000E+00 -0.16653593070E+04  0.16653593070E+04  0.00000000000E+00 0. -1.
         25    2    1    2    0    0  0.36091880866E+02 -0.16185127785E+03 -0.91406871085E+03  0.93736539378E+03  0.12503524823E+03 0.  0.
          5    1    3    3  502    0  0.77517862665E+02 -0.14052034856E+03 -0.68376795728E+03  0.70236107466E+03  0.41800000000E+01 0. -1.
         -5    1    3    3    0  502 -0.41425981799E+02 -0.21330929288E+02 -0.23030075357E+03  0.23500431912E+03  0.41800000000E+01 0. -1.
        -11    1    1    2    0    0  0.93214681680E+01  0.10409065700E+03 -0.54748278267E+03  0.55736805790E+03  0.00000000000E+00 0. -1.
         11    1    1    2    0    0 -0.45413349034E+02  0.57760620851E+02 -0.18000773164E+03  0.19442593716E+03  0.00000000000E+00 0.  1.
</event>
<event>
 7    1  0.2594791E-009  0.4715155E+02  0.7561462E-02  0.1461340E+00
         -2   -1    0    0    0  501 -0.00000000000E+00  0.00000000000E+00  0.13936281380E+03  0.13936281380E+03  0.00000000000E+00 0. -1.
          2   -1    0    0  501    0  0.00000000000E+00 -0.00000000000E+00 -0.90884938325E+02  0.90884938325E+02  0.00000000000E+00 0.  1.
         25    2    1    2    0    0  0.24731824067E+02 -0.45788883388E+01  0.47589415848E+02  0.13617963529E+03  0.12509001250E+03 0.  0.
          5    1    3    3  502    0  0.38677076599E+01 -0.86066602168E+01  0.88921074619E+02  0.89517951686E+02  0.41800000000E+01 0. -1.
         -5    1    3    3    0  502  0.20864116407E+02  0.40277718780E+01 -0.41331658771E+02  0.46661683601E+02  0.41800000000E+01 0. -1.
        -11    1    1    2    0    0 -0.34677054673E+01 -0.25364673506E+02 -0.34570768903E+02  0.43017783600E+02  0.00000000000E+00 0.  1.
         11    1    1    2    0    0 -0.21264118600E+02  0.29943561845E+02  0.35459228530E+02  0.51050333238E+02  0.00000000000E+00 0. -1.
</event>
<event>
 7    1  0.2594791E-009  0.1676834E+03  0.7561462E-02  0.1180285E+00
         -2   -1    0    0    0  501 -0.00000000000E+00  0.00000000000E+00  0.46433892278E+02  0.46433892278E+02  0.00000000000E+00 0.  1.
          2   -1    0    0  501    0  0.00000000000E+00 -0.00000000000E+00 -0.78128612748E+03  0.78128612748E+03  0.00000000000E+00 0. -1.
         25    2    1    2    0    0  0.32512140110E+01  0.15373366159E+03 -0.43938043485E+03  0.48202315462E+03  0.12508615417E+03 0.  0.
          5    1    3    3  502    0  0.18661754559E+02  0.15633690821E+03 -0.27548341137E+03  0.31732959567E+03  0.41800000000E+01 0.  1.
         -5    1    3    3    0  502 -0.15410540548E+02 -0.26032466168E+01 -0.16389702348E+03  0.16469355895E+03  0.41800000000E+01 0.  1.
        -11    1    1    2    0    0  0.20092376567E+02 -0.32375059397E+02 -0.18399918138E+02  0.42313178261E+02  0.00000000000E+00 0.  1.
         11    1    1    2    0    0 -0.23343590578E+02 -0.12135860220E+03 -0.27707188222E+03  0.30338368688E+03  0.00000000000E+00 0. -1.
</event>
<event>
 7    1  0.2594791E-009  0.8971289E+02  0.7561462E-02  0.1303548E+00
         -1   -1    0    0    0  501 -0.00000000000E+00  0.00000000000E+00  0.45846312113E+02  0.45846312113E+02  0.00000000000E+00 0.  1.
          1   -1    0    0  501    0  0.00000000000E+00 -0.00000000000E+00 -0.34792234640E+03  0.34792234640E+03  0.00000000000E+00 0. -1.
         25    2    1    2    0    0  0.15407220251E+02  0.19401203657E+02 -0.74502144855E+02  0.14768960817E+03  0.12509141311E+03 0.  0.
          5    1    3    3  502    0  0.51611587668E+02 -0.28517520073E+01 -0.88650840469E+02  0.10270507479E+03  0.41800000000E+01 0. -1.
         -5    1    3    3    0  502 -0.36204367417E+02  0.22252955665E+02  0.14148695613E+02  0.44984533381E+02  0.41800000000E+01 0. -1.
        -11    1    1    2    0    0  0.25911322829E+01  0.31123118127E+02 -0.13955121357E+03  0.14300315960E+03  0.00000000000E+00 0. -1.
         11    1    1    2    0    0 -0.17998352533E+02 -0.50524321785E+02 -0.88022675860E+02  0.10307589074E+03  0.00000000000E+00 0.  1.
</event>
<event>
 7    1  0.2594791E-009  0.1111497E+03  0.7561462E-02  0.1258456E+00
         -2   -1    0    0    0  501 -0.00000000000E+00  0.00000000000E+00  0.43279812244E+02  0.43279812244E+02  0.00000000000E+00 0.  1.
          2   -1    0    0  501    0  0.00000000000E+00 -0.00000000000E+00 -0.52775300672E+03  0.52775300672E+03  0.00000000000E+00 0. -1.
         25    2    1    2    0    0 -0.32692794206E+02 -0.15806064935E+02 -0.75406817026E+02  0.15051156221E+03  0.12509553078E+03 0.  0.
          5    1    3    3  502    0  0.46677506478E+02 -0.15064243430E+02 -0.40307256986E+02  0.63622860725E+02  0.41800000000E+01 0.  1.
         -5    1    3    3    0  502 -0.79370300685E+02 -0.74182150505E+00 -0.35099560041E+02  0.86888701480E+02  0.41800000000E+01 0.  1.
        -11    1    1    2    0    0  0.61949235866E+02  0.17223315178E+02 -0.32995308432E+03  0.33615976598E+03  0.00000000000E+00 0. -1.
         11    1    1    2    0    0 -0.29256441660E+02 -0.14172502429E+01 -0.79113293136E+02  0.84361490786E+02  0.00000000000E+00 0.  1.
</event>
<event>
 7    1  0.2594791E-009  0.1035164E+03  0.7561462E-02  0.1273070E+00
         -2   -1    0    0    0  501 -0.00000000000E+00  0.00000000000E+00  0.24221140591E+03  0.24221140591E+03  0.00000000000E+00 0.  1.
          2   -1    0    0  501    0  0.00000000000E+00 -0.00000000000E+00 -0.50792125440E+02  0.50792125440E+02  0.00000000000E+00 0. -1.
         25    2    1    2    0    0  0.26818273992E+00  0.24636372657E+02  0.99889101705E+02  0.16197115424E+03  0.12509915822E+03 0.  0.
          5    1    3    3  502    0 -0.43170550841E+02  0.55311645732E+02  0.76010287691E+02  0.10352830941E+03  0.41800000000E+01 0.  1.
         -5    1    3    3    0  502  0.43438733581E+02 -0.30675273076E+02  0.23878814014E+02  0.58442844832E+02  0.41800000000E+01 0.  1.
        -11    1    1    2    0    0 -0.36606225414E+02  0.44241536752E+01  0.11793387237E+02  0.38712696332E+02  0.00000000000E+00 0.  1.
         11    1    1    2    0    0  0.36338042674E+02 -0.29060526332E+02  0.79736791529E+02  0.92319680781E+02  0.00000000000E+00 0. -1.
</event>
<event>
 7    1  0.2594791E-009  0.1024255E+03  0.7561462E-02  0.1275277E+00
          1   -1    0    0  501    0  0.00000000000E+00  0.00000000000E+00  0.91997129883E+03  0.91997129883E+03  0.00000000000E+00 0. -1.
         -1   -1    0    0    0  501 -0.00000000000E+00 -0.00000000000E+00 -0.18937871358E+02  0.18937871358E+02  0.00000000000E+00 0.  1.
         25    2    1    2    0    0  0.41261892206E+02  0.50555609452E+02  0.61492342440E+03  0.63090178950E+03  0.12509131355E+03 0.  0.
          5    1    3    3  502    0  0.60284463953E+02  0.62188236034E+02  0.59315996061E+03  0.59946459826E+03  0.41800000000E+01 0.  1.
         -5    1    3    3    0  502 -0.19022571747E+02 -0.11632626581E+02  0.21763463789E+02  0.31437191242E+02  0.41800000000E+01 0.  1.
        -11    1    1    2    0    0 -0.60644680066E+02 -0.31779799158E+02  0.26512428229E+03  0.27382223780E+03  0.00000000000E+00 0. -1.
         11    1    1    2    0    0  0.19382787860E+02 -0.18775810294E+02  0.20985720788E+02  0.34185142890E+02  0.00000000000E+00 0.  1.
</event>
<event>
 7    1  0.2594791E-009  0.1030333E+03  0.7561462E-02  0.1274044E+00
          2   -1    0    0  501    0  0.00000000000E+00  0.00000000000E+00  0.17042455966E+02  0.17042455966E+02  0.00000000000E+00 0. -1.
         -2   -1    0    0    0  501 -0.00000000000E+00 -0.00000000000E+00 -0.85783608103E+03  0.85783608103E+03  0.00000000000E+00 0.  1.
         25    2    1    2    0    0  0.15092272806E+02  0.16798243280E+02 -0.64904795992E+03  0.66137856865E+03  0.12509356144E+03 0.  0.
          5    1    3    3  502    0  0.56600524380E+02 -0.28828233004E+02 -0.38200786932E+03  0.38727531680E+03  0.41800000000E+01 0.  1.
         -5    1    3    3    0  502 -0.41508251575E+02  0.45626476285E+02 -0.26704009060E+03  0.27410325185E+03  0.41800000000E+01 0.  1.
        -11    1    1    2    0    0 -0.18291808559E+02  0.29211179324E+02 -0.14001718352E+03  0.14419672305E+03  0.00000000000E+00 0.  1.
         11    1    1    2    0    0  0.31995357534E+01 -0.46009422604E+02 -0.51728481619E+02  0.69303245292E+02  0.00000000000E+00 0. -1.
</event>
<event>
 7    1  0.2594791E-009  0.9621653E+02  0.7561462E-02  0.1288459E+00
         -1   -1    0    0    0  501 -0.00000000000E+00  0.00000000000E+00  0.23834108592E+03  0.23834108592E+03  0.00000000000E+00 0.  1.
          1   -1    0    0  501    0  0.00000000000E+00 -0.00000000000E+00 -0.10406507398E+03  0.10406507398E+03  0.00000000000E+00 0. -1.
         25    2    1    2    0    0  0.11882273567E+02 -0.81569791286E+02  0.15547864814E+03  0.21590448072E+03  0.12508523291E+03 0.  0.
          5    1    3    3  502    0 -0.18980386435E+02 -0.40655100660E+02 -0.68926394587E+01  0.45585887702E+02  0.41800000000E+01 0. -1.
         -5    1    3    3    0  502  0.30862660001E+02 -0.40914690626E+02  0.16237128760E+03  0.17031859302E+03  0.41800000000E+01 0. -1.
        -11    1    1    2    0    0 -0.27316735044E+02  0.24044039191E+02 -0.48786396891E+02  0.60864048138E+02  0.00000000000E+00 0.  1.
         11    1    1    2    0    0  0.15434461477E+02  0.57525752096E+02  0.27583760689E+02  0.65637631043E+02  0.00000000000E+00 0. -1.
</event>
<event>
 7    1  0.2594791E-009  0.1301650E+03  0.7561462E-02  0.1227211E+00
         -1   -1    0    0    0  501 -0.00000000000E+00  0.00000000000E+00  0.88419374525E+02  0.88419374525E+02  0.00000000000E+00 0.  1.
          1   -1    0    0  501    0  0.00000000000E+00 -0.00000000000E+00 -0.32180864033E+03  0.32180864033E+03  0.00000000000E+00 0. -1.
         25    2    1    2    0    0 -0.63965705296E+02  0.89847090701E+02 -0.44646490023E+02  0.17266144596E+03  0.12511816290E+03 0.  0.
          5    1    3    3  502    0 -0.38892643054E+02  0.80457448840E+02 -0.85427253883E+02  0.12369853218E+03  0.41800000000E+01 0.  1.
         -5    1    3    3    0  502 -0.25073062242E+02  0.93896418612E+01  0.40780763860E+02  0.48962913777E+02  0.41800000000E+01 0.  1.
        -11    1    1    2    0    0  0.18823368275E+02 -0.96341030687E+02 -0.13784098290E+03  0.16922189561E+03  0.00000000000E+00 0. -1.
         11    1    1    2    0    0  0.45142337021E+02  0.64939399867E+01 -0.50901792891E+02  0.68344673295E+02  0.00000000000E+00 0.  1.
</event>
<event>
 7    1  0.2594791E-009  0.7515319E+02  0.7561462E-02  0.1343397E+00
         -1   -1    0    0    0  501 -0.00000000000E+00  0.00000000000E+00  0.43180998799E+02  0.43180998799E+02  0.00000000000E+00 0. -1.
          1   -1    0    0  501    0  0.00000000000E+00 -0.00000000000E+00 -0.29553453902E+03  0.29553453902E+03  0.00000000000E+00 0.  1.
         25    2    1    2    0    0  0.97392696020E+01  0.75493164748E+01 -0.19032851735E+03  0.22808764581E+03  0.12508870493E+03 0.  0.
          5    1    3    3  502    0 -0.40575882275E+01 -0.41297764434E+02 -0.16689132715E+03  0.17202371013E+03  0.41800000000E+01 0. -1.
         -5    1    3    3    0  502  0.13796857829E+02  0.48847080908E+02 -0.23437190205E+02  0.56063935680E+02  0.41800000000E+01 0. -1.
        -11    1    1    2    0    0 -0.90728839416E+01 -0.31973835855E+02  0.98892054937E+01  0.34676213570E+02  0.00000000000E+00 0. -1.
         11    1    1    2    0    0 -0.66638566038E+00  0.24424519380E+02 -0.71914228367E+02  0.75951678443E+02  0.00000000000E+00 0.  1.
</event>
<event>
 7    1  0.2594791E-009  0.1353253E+03  0.7561462E-02  0.1219761E+00
          2   -1    0    0  501    0  0.00000000000E+00  0.00000000000E+00  0.38001082846E+03  0.38001082846E+03  0.00000000000E+00 0. -1.
         -2   -1    0    0    0  501 -0.00000000000E+00 -0.00000000000E+00 -0.51749066007E+02  0.51749066007E+02  0.00000000000E+00 0.  1.
         25    2    1    2    0    0 -0.87361031860E+02  0.21869661496E+02  0.18408633521E+03  0.24009673458E+03  0.12509368955E+03 0.  0.
          5    1    3    3  502    0 -0.34981897926E+02 -0.50789718975E+02  0.97525837778E+02  0.11546467066E+03  0.41800000000E+01 0. -1.
         -5    1    3    3    0  502 -0.52379133934E+02  0.72659380470E+02  0.86560497429E+02  0.12463206392E+03  0.41800000000E+01 0. -1.
        -11    1    1    2    0    0  0.25380741340E+02  0.29322763446E+02  0.79621456514E+02  0.88564004113E+02  0.00000000000E+00 0.  1.
         11    1    1    2    0    0  0.61980290520E+02 -0.51192424941E+02  0.64553970732E+02  0.10309915577E+03  0.00000000000E+00 0. -1.
</event>
<event>
 7    1  0.2594791E-009  0.8931732E+02  0.7561462E-02  0.1304513E+00
          2   -1    0    0  501    0  0.00000000000E+00  0.00000000000E+00  0.12679154314E+03  0.12679154314E+03  0.00000000000E+00 0. -1.
         -2   -1    0    0    0  501 -0.00000000000E+00 -0.00000000000E+00 -0.15649998958E+03  0.15649998958E+03  0.00000000000E+00 0.  1.
         25    2    1    2    0    0 -0.62987480750E+02 -0.38785780569E+02 -0.65561135262E+02  0.15942665967E+03  0.12508732091E+03 0.  0.
          5    1    3    3  502    0 -0.20925430076E+02 -0.37665582055E+02  0.31511454347E+02  0.53544503456E+02  0.41800000000E+01 0. -1.
         -5    1    3    3    0  502 -0.42062050674E+02 -0.11201985141E+01 -0.97072589609E+02  0.10588215622E+03  0.41800000000E+01 0. -1.
        -11    1    1    2    0    0  0.67249628104E+01 -0.14239915024E+02  0.43415628116E+02  0.46183515126E+02  0.00000000000E+00 0. -1.
         11    1    1    2    0    0  0.56262517939E+02  0.53025695593E+02 -0.75629392895E+01  0.77681357922E+02  0.00000000000E+00 0.  1.
</event>
<event>
 7    1  0.2594791E-009  0.1186792E+03  0.7561462E-02  0.1245292E+00
          2   -1    0    0  501    0  0.00000000000E+00  0.00000000000E+00  0.94839540050E+03  0.94839540050E+03  0.00000000000E+00 0. -1.
         -2   -1    0    0    0  501 -0.00000000000E+00 -0.00000000000E+00 -0.18648905209E+02  0.18648905209E+02  0.00000000000E+00 0.  1.
         25    2    1    2    0    0 -0.72758370456E+01  0.49199819898E+02  0.69857085154E+03  0.71142309035E+03  0.12509204125E+03 0.  0.
          5    1    3    3  502    0  0.48221557783E+02  0.60321724550E+02  0.43339522695E+03  0.44024189286E+03  0.41800000000E+01 0.  1.
         -5    1    3    3    0  502 -0.55497394829E+02 -0.11121904652E+02  0.26517562459E+03  0.27118119749E+03  0.41800000000E+01 0.  1.
        -11    1    1    2    0    0 -0.38566070368E+02 -0.41720977494E+02  0.16700297418E+03  0.17640287734E+03  0.00000000000E+00 0. -1.
         11    1    1    2    0    0  0.45841907414E+02 -0.74788424041E+01  0.64172669567E+02  0.79218338018E+02  0.00000000000E+00 0.  1.
</event>
<event>
 7    1  0.2594791E-009  0.1005000E+03  0.7561462E-02  0.1279248E+00
          1   -1    0    0  501    0  0.00000000000E+00  0.00000000000E+00  0.24516805746E+03  0.24516805746E+03  0.00000000000E+00 0. -1.
         -1   -1    0    0    0  501 -0.00000000000E+00 -0.00000000000E+00 -0.48719684021E+02  0.48719684021E+02  0.00000000000E+00 0.  1.
         25    2    1    2    0    0 -0.11754037750E+02 -0.59161826887E+01  0.12099962516E+03  0.17452748831E+03  0.12508307746E+03 0.  0.
          5    1    3    3  502    0 -0.10123276336E+02 -0.63527980311E+02  0.43145387214E+02  0.77571140536E+02  0.41800000000E+01 0.  1.
         -5    1    3    3    0  502 -0.16307614135E+01  0.57611797623E+02  0.77854237943E+02  0.96956347775E+02  0.41800000000E+01 0.  1.
        -11    1    1    2    0    0  0.34746507985E+02  0.29669302405E+02  0.11104080563E+02  0.47020080046E+02  0.00000000000E+00 0.  1.
         11    1    1    2    0    0 -0.22992470236E+02 -0.23753119716E+02  0.64344667720E+02  0.72340173126E+02  0.00000000000E+00 0. -1.
</event>
<event>
 7    1  0.2594791E-009  0.8315770E+02  0.7561462E-02  0.1320322E+00
          2   -1    0    0  501    0  0.00000000000E+00  0.00000000000E+00  0.20383896906E+03  0.20383896906E+03  0.00000000000E+00 0. -1.
         -2   -1    0    0    0  501 -0.00000000000E+00 -0.00000000000E+00 -0.68011096190E+02  0.68011096190E+02  0.00000000000E+00 0.  1.
         25    2    1    2    0    0  0.24213774443E+02 -0.41014690749E+02  0.91320383859E+02  0.16200312626E+03  0.12504834537E+03 0.  0.
          5    1    3    3  502    0  0.26682327101E+02 -0.67213510420E+02  0.10838480827E+03  0.13036234743E+03  0.41800000000E+01 0.  1.
         -5    1    3    3    0  502 -0.24685526580E+01  0.26198819671E+02 -0.17064424413E+02  0.31640778830E+02  0.41800000000E+01 0.  1.
        -11    1    1    2    0    0  0.14285765443E+02  0.72227299098E+01 -0.21178517903E+02  0.26547703144E+02  0.00000000000E+00 0.  1.
         11    1    1    2    0    0 -0.38499539886E+02  0.33791960839E+02  0.65686006915E+02  0.83299235850E+02  0.00000000000E+00 0. -1.
</event>
<event>
 7    1  0.2594791E-009  0.9870621E+02  0.7561462E-02  0.1283040E+00
         -2   -1    0    0    0  501 -0.00000000000E+00  0.00000000000E+00  0.21917788224E+02  0.21917788224E+02  0.00000000000E+00 0.  1.
          2   -1    0    0  501    0  0.00000000000E+00 -0.00000000000E+00 -0.55999927015E+03  0.55999927015E+03  0.00000000000E+00 0. -1.
         25    2    1    2    0    0 -0.20692275595E+01  0.60631531977E+01 -0.35735126152E+03  0.37866763989E+03  0.12509282098E+03 0.  0.
          5    1    3    3  502    0  0.58819448721E+02  0.92965512775E+01 -0.22669693212E+03  0.23442509431E+03  0.41800000000E+01 0.  1.
         -5    1    3    3    0  502 -0.60888676281E+02 -0.32333980798E+01 -0.13065432940E+03  0.14424254558E+03  0.41800000000E+01 0.  1.
        -11    1    1    2    0    0 -0.20806389045E+01 -0.41182508633E+02 -0.37562386261E+02  0.55778678159E+02  0.00000000000E+00 0.  1.
         11    1    1    2    0    0  0.41498664640E+01  0.35119355435E+02 -0.14316783415E+03  0.14747074033E+03  0.00000000000E+00 0. -1.
</event>
<event>
 7    1  0.2594791E-009  0.1151510E+03  0.7561462E-02  0.1251318E+00
         -2   -1    0    0    0  501 -0.00000000000E+00  0.00000000000E+00  0.13781145571E+03  0.13781145571E+03  0.00000000000E+00 0.  1.
          2   -1    0    0  501    0  0.00000000000E+00 -0.00000000000E+00 -0.11727399956E+03  0.11727399956E+03  0.00000000000E+00 0. -1.
         25    2    1    2    0    0 -0.25797203090E+02  0.57585346676E+02 -0.93105473701E+01  0.14041529580E+03  0.12509277023E+03 0.  0.
          5    1    3    3  502    0  0.31611730044E+02  0.60387422327E+02  0.25722810481E+02  0.72973129511E+02  0.41800000000E+01 0.  1.
         -5    1    3    3    0  502 -0.57408933134E+02 -0.28020756503E+01 -0.35033357851E+02  0.67442166290E+02  0.41800000000E+01 0.  1.
        -11    1    1    2    0    0  0.32425500900E+02  0.11931867701E+02 -0.76773903949E+01  0.35393853968E+02  0.00000000000E+00 0. -1.
         11    1    1    2    0    0 -0.66282978096E+01 -0.69517214377E+02  0.37525393911E+02  0.79276305507E+02  0.00000000000E+00 0.  1.
</event>
<event>
 7    1  0.2594791E-009  0.9509083E+02  0.7561462E-02  0.1290972E+00
         -1   -1    0    0    0  501 -0.00000000000E+00  0.00000000000E+00  0.48840189613E+02  0.48840189613E+02  0.00000000000E+00 0.  1.
          1   -1    0    0  501    0  0.00000000000E+00 -0.00000000000E+00 -0.35805532489E+03  0.35805532489E+03  0.00000000000E+00 0. -1.
         25    2    1    2    0    0 -0.75181349522E+01 -0.31591314249E+02 -0.67666205559E+02  0.14588016480E+03  0.12509106130E+03 0.  0.
          5    1    3    3  502    0  0.47042582151E+02 -0.31259282958E+02 -0.71278102525E+02  0.91039483775E+02  0.41800000000E+01 0.  1.
         -5    1    3    3    0  502 -0.54560717103E+02 -0.33203129045E+00  0.36118969655E+01  0.54840681025E+02  0.41800000000E+01 0.  1.
        -11    1    1    2    0    0  0.25283084541E+01  0.54914770947E+02 -0.22589059807E+03  0.23248351921E+03  0.00000000000E+00 0. -1.
         11    1    1    2    0    0  0.49898264981E+01 -0.23323456698E+02 -0.15658331650E+02  0.28531830487E+02  0.00000000000E+00 0.  1.
</event>
<event>
 7    1  0.2594791E-009  0.9480820E+02  0.7561462E-02  0.1291609E+00
          4   -1    0    0  501    0  0.00000000000E+00  0.00000000000E+00  0.13107616871E+02  0.13107616871E+02  0.00000000000E+00 0. -1.
         -4   -1    0    0    0  501 -0.00000000000E+00 -0.00000000000E+00 -0.12487117991E+04  0.12487117991E+04  0.00000000000E+00 0.  1.
         25    2    1    2    0    0 -0.34839679970E+02  0.29612822119E+02 -0.89108053494E+03  0.90097886378E+03  0.12509064991E+03 0.  0.
          5    1    3    3  502    0 -0.23593991236E+01  0.45701756915E+02 -0.11222128854E+03  0.12126544170E+03  0.41800000000E+01 0. -1.
         -5    1    3    3    0  502 -0.32480280847E+02 -0.16088934796E+02 -0.77885924640E+03  0.77971342208E+03  0.41800000000E+01 0. -1.
        -11    1    1    2    0    0  0.26312951746E+02  0.34001084659E+02 -0.13043653444E+03  0.13733948706E+03  0.00000000000E+00 0. -1.
         11    1    1    2    0    0  0.85267282240E+01 -0.63613906778E+02 -0.21408711284E+03  0.22350106513E+03  0.00000000000E+00 0.  1.
</event>
<event>
 7    1  0.2594791E-009  0.1210086E+03  0.7561462E-02  0.1241442E+00
         -2   -1    0    0    0  501 -0.00000000000E+00  0.00000000000E+00  0.32540563743E+02  0.32540563743E+02  0.00000000000E+00 0.  1.
          2   -1    0    0  501    0  0.00000000000E+00 -0.00000000000E+00 -0.84685437054E+03  0.84685437054E+03  0.00000000000E+00 0. -1.
         25    2    1    2    0    0  0.72303891283E+02  0.57656443608E+02 -0.64717038743E+03  0.66560415120E+03  0.12508899853E+03 0.  0.
          5    1    3    3  502    0  0.54683925394E+02  0.48500999954E+00 -0.91291580725E+02  0.10649972790E+03  0.41800000000E+01 0.  1.
         -5    1    3    3    0  502  0.17619965889E+02  0.57171433609E+02 -0.55587880670E+03  0.55910442331E+03  0.41800000000E+01 0.  1.
        -11    1    1    2    0    0 -0.68915059378E+02 -0.79433440570E+02 -0.10830418360E+03  0.15095944182E+03  0.00000000000E+00 0.  1.
         11    1    1    2    0    0 -0.33888319049E+01  0.21776996962E+02 -0.58839235762E+02  0.62831341251E+02  0.00000000000E+00 0. -1.
</event>
<event>
 7    1  0.2594791E-009  0.1032477E+03  0.7561462E-02  0.1273611E+00
         -2   -1    0    0    0  501 -0.00000000000E+00  0.00000000000E+00  0.22360935904E+03  0.22360935904E+03  0.00000000000E+00 0.  1.
          2   -1    0    0  501    0  0.00000000000E+00 -0.00000000000E+00 -0.56429234963E+02  0.56429234963E+02  0.00000000000E+00 0. -1.
         25    2    1    2    0    0 -0.17266345501E+02  0.12158252274E+02  0.11744857961E+03  0.17287964972E+03  0.12508898692E+03 0.  0.
          5    1    3    3  502    0  0.32813065796E+02 -0.34526775589E+02  0.16004653410E+02  0.50422384417E+02  0.41800000000E+01 0.  1.
         -5    1    3    3    0  502 -0.50079411297E+02  0.46685027863E+02  0.10144392620E+03  0.12245726530E+03  0.41800000000E+01 0.  1.
        -11    1    1    2    0    0 -0.18497924051E+02  0.29726275050E+02  0.33813868366E+01  0.35174684071E+02  0.00000000000E+00 0. -1.
         11    1    1    2    0    0  0.35764269552E+02 -0.41884527324E+02  0.46350157628E+02  0.71984260209E+02  0.00000000000E+00 0.  1.
</event>
<event>
 7    1  0.2594791E-009  0.9867866E+02  0.7561462E-02  0.1283099E+00
          3   -1    0    0  501    0  0.00000000000E+00  0.00000000000E+00  0.20358964920E+03  0.20358964920E+03  0.00000000000E+00 0. -1.
         -3   -1    0    0    0  501 -0.00000000000E+00 -0.00000000000E+00 -0.84748310411E+02  0.84748310411E+02  0.00000000000E+00 0.  1.
         25    2    1    2    0    0 -0.48901924054E+02 -0.97065823486E+01  0.10964041311E+02  0.13510335681E+03  0.12508833240E+03 0.  0.
          5    1    3    3  502    0 -0.22879921236E+02 -0.56570249219E+02 -0.29407633975E+02  0.67867261831E+02  0.41800000000E+01 0. -1.
         -5    1    3    3    0  502 -0.26022002818E+02  0.46863666870E+02  0.40371675286E+02  0.67236094983E+02  0.41800000000E+01 0. -1.
        -11    1    1    2    0    0  0.63919365698E+02  0.16391851418E+02  0.27998443302E+02  0.71681873102E+02  0.00000000000E+00 0.  1.
         11    1    1    2    0    0 -0.15017441643E+02 -0.66852690691E+01  0.79878854177E+02  0.81552729695E+02  0.00000000000E+00 0. -1.
</event>
<event>
 7    1  0.2594791E-009  0.1205833E+03  0.7561462E-02  0.1242138E+00
         -2   -1    0    0    0  501 -0.00000000000E+00  0.00000000000E+00  0.69441803324E+02  0.69441803324E+02  0.00000000000E+00 0.  1.
          2   -1    0    0  501    0  0.00000000000E+00 -0.00000000000E+00 -0.35699790003E+03  0.35699790003E+03  0.00000000000E+00 0. -1.
         25    2    1    2    0    0 -0.25868231125E+02 -0.86787009024E+02 -0.24415854932E+03  0.28889467106E+03  0.12508230669E+03 0.  0.
          5    1    3    3  502    0  0.18928548360E+02  0.22326674763E+02 -0.20417646230E+02  0.35932200414E+02  0.41800000000E+01 0.  1.
         -5    1    3    3    0  502 -0.44796779485E+02 -0.10911368379E+03 -0.22374090309E+03  0.25296247065E+03  0.41800000000E+01 0.  1.
        -11    1    1    2    0    0  0.69786775871E+00  0.43462019034E+02  0.26974641619E+02  0.51157261541E+02  0.00000000000E+00 0.  1.
         11    1    1    2    0    0  0.25170363366E+02  0.43324989990E+02 -0.70372189010E+02  0.86387770753E+02  0.00000000000E+00 0. -1.
</event>
<event>
 6    1  0.2594791E-009  0.6931408E+02  0.7561462E-02  0.1362441E+00
          2   -1    0    0  501    0  0.00000000000E+00  0.00000000000E+00  0.16424195837E+03  0.16424195837E+03  0.00000000000E+00 0. -1.
         -2   -1    0    0    0  501 -0.00000000000E+00 -0.00000000000E+00 -0.87145989453E+02  0.87145989453E+02  0.00000000000E+00 0.  1.
          5    1    1    2  502    0 -0.38770878767E+02 -0.23742879812E+02  0.10860341769E+03  0.11780950775E+03  0.41800000000E+01 0. -1.
         -5    1    1    2    0  502  0.41761597591E+01  0.15674344986E+01 -0.33221216149E+02  0.33778969251E+02  0.41800000000E+01 0. -1.
        -11    1    1    2    0    0  0.38864885668E+01 -0.27872526732E+02  0.24008166944E+02  0.36991547951E+02  0.00000000000E+00 0. -1.
         11    1    1    2    0    0  0.30708230441E+02  0.50047972046E+02 -0.22294399572E+02  0.62807922868E+02  0.00000000000E+00 0.  1.
</event>
<event>
 7    1  0.2594791E-009  0.1059092E+03  0.7561462E-02  0.1268338E+00
          2   -1    0    0  501    0  0.00000000000E+00  0.00000000000E+00  0.10493728729E+04  0.10493728729E+04  0.00000000000E+00 0. -1.
         -2   -1    0    0    0  501 -0.00000000000E+00 -0.00000000000E+00 -0.17261049227E+02  0.17261049227E+02  0.00000000000E+00 0.  1.
         25    2    1    2    0    0  0.34598237975E+02  0.27960708305E+02  0.83151583972E+03  0.84204818531E+03  0.12509082864E+03 0.  0.
          5    1    3    3  502    0 -0.23217864368E+02 -0.36085931613E+02  0.19581664160E+03  0.20050659145E+03  0.41800000000E+01 0. -1.
         -5    1    3    3    0  502  0.57816102343E+02  0.64046639918E+02  0.63569919812E+03  0.64154159387E+03  0.41800000000E+01 0. -1.
        -11    1    1    2    0    0 -0.49605271309E+02  0.10971762391E+01  0.49854922279E+02  0.70337756666E+02  0.00000000000E+00 0.  1.
         11    1    1    2    0    0  0.15007033335E+02 -0.29057884545E+02  0.15074106165E+03  0.15424798012E+03  0.00000000000E+00 0. -1.
</event>
<event>
 7    1  0.2594791E-009  0.8702764E+02  0.7561462E-02  0.1310214E+00
          2   -1    0    0  501    0  0.00000000000E+00  0.00000000000E+00  0.54097497769E+03  0.54097497769E+03  0.00000000000E+00 0. -1.
         -2   -1    0    0    0  501 -0.00000000000E+00 -0.00000000000E+00 -0.23855660695E+02  0.23855660695E+02  0.00000000000E+00 0.  1.
         25    2    1    2    0    0 -0.75175367025E+01 -0.61097418849E+00  0.38532234098E+03  0.40518849101E+03  0.12509004813E+03 0.  0.
          5    1    3    3  502    0  0.23556140316E+02 -0.35515324624E+02  0.32948427631E+03  0.33225530961E+03  0.41800000000E+01 0.  1.
         -5    1    3    3    0  502 -0.31073677019E+02  0.34904350436E+02  0.55838064674E+02  0.72933181402E+02  0.41800000000E+01 0.  1.
        -11    1    1    2    0    0 -0.33769767279E+02  0.19408523984E+02  0.33471121030E+02  0.51355661113E+02  0.00000000000E+00 0.  1.
         11    1    1    2    0    0  0.41287303982E+02 -0.18797549796E+02  0.98325854980E+02  0.10828648626E+03  0.00000000000E+00 0. -1.
</event>
<event>
 7    1  0.2594791E-009  0.1410862E+03  0.7561462E-02  0.1211875E+00
          2   -1    0    0  501    0  0.00000000000E+00  0.00000000000E+00  0.61216484447E+03  0.61216484447E+03  0.00000000000E+00 0. -1.
         -2   -1    0    0    0  501 -0.00000000000E+00 -0.00000000000E+00 -0.53820706056E+02  0.53820706056E+02  0.00000000000E+00 0.  1.
         25    2    1    2    0    0 -0.54305668761E+02 -0.77926924480E+02  0.49824767293E+03  0.52241793295E+03  0.12509213352E+03 0.  0.
          5    1    3    3  502    0 -0.89497745438E+02 -0.34119540463E+02  0.37219475253E+03  0.38434411104E+03  0.41800000000E+01 0.  1.
         -5    1    3    3    0  502  0.35192076677E+02 -0.43807384017E+02  0.12605292039E+03  0.13807382190E+03  0.41800000000E+01 0.  1.
        -11    1    1    2    0    0  0.56762647410E+01  0.81026229185E+02  0.31861772524E+02  0.87250457568E+02  0.00000000000E+00 0.  1.
         11    1    1    2    0    0  0.48629404020E+02 -0.30993047048E+01  0.28234692959E+02  0.56317160009E+02  0.00000000000E+00 0. -1.
</event>
<event>
 7    1  0.2594791E-009  0.1329615E+03  0.7561462E-02  0.1223126E+00
         -2   -1    0    0    0  501 -0.00000000000E+00  0.00000000000E+00  0.19387029531E+03  0.19387029531E+03  0.00000000000E+00 0.  1.
          2   -1    0    0  501    0  0.00000000000E+00 -0.00000000000E+00 -0.10505609970E+03  0.10505609970E+03  0.00000000000E+00 0. -1.
         25    2    1    2    0    0 -0.15048547951E+01  0.96998427800E+02  0.60540745432E+02  0.16949150495E+03  0.12510487125E+03 0.  0.
          5    1    3    3  502    0  0.54120160421E+02  0.41531949283E+02 -0.29355675091E+01  0.68410412452E+02  0.41800000000E+01 0. -1.
         -5    1    3    3    0  502 -0.55625015216E+02  0.55466478517E+02  0.63476312941E+02  0.10108109250E+03  0.41800000000E+01 0. -1.
        -11    1    1    2    0    0  0.34711820107E+02 -0.40153998464E+02 -0.89194648823E+01  0.53822029891E+02  0.00000000000E+00 0. -1.
         11    1    1    2    0    0 -0.33206965312E+02 -0.56844429335E+02  0.37192915055E+02  0.75612860162E+02  0.00000000000E+00 0.  1.
</event>
<event>
 7    1  0.4397109E-009  0.1268582E+03  0.7561462E-02  0.1232193E+00
          2   -1    0    0  501    0  0.00000000000E+00  0.00000000000E+00  0.20068272348E+04  0.20068272348E+04  0.00000000000E+00 0. -1.
         -2   -1    0    0    0  501 -0.00000000000E+00 -0.00000000000E+00 -0.10652013670E+02  0.10652013670E+02  0.00000000000E+00 0.  1.
         25    2    1    2    0    0 -0.77233339265E+01 -0.70091769071E+02  0.15482490549E+04  0.15548942209E+04  0.12509355043E+03 0.  0.
          5    1    3    3  502    0  0.30583776567E+02 -0.93352525519E+02  0.10171255796E+04  0.10218669084E+04  0.41800000000E+01 0. -1.
         -5    1    3    3    0  502 -0.38307110493E+02  0.23260756448E+02  0.53112347529E+03  0.53302731253E+03  0.41800000000E+01 0. -1.
        -11    1    1    2    0    0  0.42650235599E+02  0.60751169398E+02  0.23002583373E+03  0.24170567094E+03  0.00000000000E+00 0.  1.
         11    1    1    2    0    0 -0.34926901673E+02  0.93405996725E+01  0.21790033257E+03  0.22087935666E+03  0.00000000000E+00 0. -1.
</event>
<event>
 6    1  0.2594791E-009  0.1444840E+03  0.7561462E-02  0.1207420E+00
         -1   -1    0    0    0  501 -0.00000000000E+00  0.00000000000E+00  0.65257171040E+02  0.65257171040E+02  0.00000000000E+00 0.  1.
          1   -1    0    0  501    0  0.00000000000E+00 -0.00000000000E+00 -0.64673630778E+03  0.64673630778E+03  0.00000000000E+00 0. -1.
          5    1    1    2  502    0 -0.20925895250E+02  0.42999561056E+02 -0.21992949805E+03  0.22510733408E+03  0.41800000000E+01 0. -1.
         -5    1    1    2    0  502 -0.82014205992E+02 -0.79553984326E+02 -0.31694674877E+03  0.33693898611E+03  0.41800000000E+01 0. -1.
        -11    1    1    2    0    0  0.15436737763E+02 -0.17844215550E+02  0.17740262729E+02  0.29519922477E+02  0.00000000000E+00 0.  1.
         11    1    1    2    0    0  0.87503363480E+02  0.54398638819E+02 -0.62343152652E+02  0.12042723616E+03  0.00000000000E+00 0. -1.
</event>
<event>
 7    1  0.2594791E-009  0.1324707E+03  0.7561462E-02  0.1223835E+00
         -1   -1    0    0    0  501 -0.00000000000E+00  0.00000000000E+00  0.20183495537E+03  0.20183495537E+03  0.00000000000E+00 0.  1.
          1   -1    0    0  501    0  0.00000000000E+00 -0.00000000000E+00 -0.10488711098E+03  0.10488711098E+03  0.00000000000E+00 0. -1.
         25    2    1    2    0    0 -0.11553937550E+02 -0.92714185614E+02  0.78825864652E+02  0.17490135153E+03  0.12509017604E+03 0.  0.
          5    1    3    3  502    0 -0.49685388627E+02 -0.16757900122E+02 -0.81426425828E+01  0.53228188845E+02  0.41800000000E+01 0.  1.
         -5    1    3    3    0  502  0.38131451078E+02 -0.75956285493E+02  0.86968507235E+02  0.12167316269E+03  0.41800000000E+01 0.  1.
        -11    1    1    2    0    0  0.13025249616E+02  0.10956256368E+03  0.25700582372E+02  0.11328782998E+03  0.00000000000E+00 0.  1.
         11    1    1    2    0    0 -0.14713120660E+01 -0.16848378065E+02 -0.75786026363E+01  0.18532884841E+02  0.00000000000E+00 0. -1.
</event>
<event>
 7    1  0.2594791E-009  0.1549010E+03  0.7561462E-02  0.1194577E+00
         -2   -1    0    0    0  501 -0.00000000000E+00  0.00000000000E+00  0.11884305399E+03  0.11884305399E+03  0.00000000000E+00 0.  1.
          2   -1    0    0  501    0  0.00000000000E+00 -0.00000000000E+00 -0.28067959117E+03  0.28067959117E+03  0.00000000000E+00 0. -1.
         25    2    1    2    0    0  0.10981759111E+03 -0.36739697922E+02 -0.18333473682E+03  0.25034030986E+03  0.12509570854E+03 0.  0.
          5    1    3    3  502    0  0.25961254633E+01  0.34018819114E+02 -0.12549426053E+02  0.36592081323E+02  0.41800000000E+01 0. -1.
         -5    1    3    3    0  502  0.10722146565E+03 -0.70758517035E+02 -0.17078531077E+03  0.21374822853E+03  0.41800000000E+01 0. -1.
        -11    1    1    2    0    0 -0.20788083161E+02  0.52515189782E+02  0.15494859071E+02  0.58566886694E+02  0.00000000000E+00 0.  1.
         11    1    1    2    0    0 -0.89029507948E+02 -0.15775491861E+02  0.60033405684E+01  0.90615448611E+02  0.00000000000E+00 0. -1.
</event>
<event>
 7    1  0.2594791E-009  0.1320745E+03  0.7561462E-02  0.1224410E+00
          1   -1    0    0  501    0  0.00000000000E+00  0.00000000000E+00  0.22674709321E+03  0.22674709321E+03  0.00000000000E+00 0. -1.
         -1   -1    0    0    0  501 -0.00000000000E+00 -0.00000000000E+00 -0.11579161539E+03  0.11579161539E+03  0.00000000000E+00 0.  1.
         25    2    1    2    0    0 -0.83527985576E+02 -0.42664919204E+02 -0.17908496224E+02  0.15737049654E+03  0.12509012447E+03 0.  0.
          5    1    3    3  502    0 -0.88570104338E+01  0.27279024776E+02 -0.43081259345E+02  0.51923589372E+02  0.41800000000E+01 0.  1.
         -5    1    3    3    0  502 -0.74670975142E+02 -0.69943943979E+02  0.25172763121E+02  0.10544690717E+03  0.41800000000E+01 0.  1.
        -11    1    1    2    0    0  0.26116388661E+02  0.65858175118E+02  0.73869928374E+02  0.10235297409E+03  0.00000000000E+00 0. -1.
         11    1    1    2    0    0  0.57411596915E+02 -0.23193255915E+02  0.54994045674E+02  0.82815237969E+02  0.00000000000E+00 0.  1.
</event>
<event>
 7    1  0.2594791E-009  0.1405529E+03  0.7561462E-02  0.1212587E+00
         -2   -1    0    0    0  501 -0.00000000000E+00  0.00000000000E+00  0.33791367788E+03  0.33791367788E+03  0.00000000000E+00 0. -1.
          2   -1    0    0  501    0  0.00000000000E+00 -0.00000000000E+00 -0.10609834297E+03  0.10609834297E+03  0.00000000000E+00 0.  1.
         25    2    1    2    0    0  0.11413392459E+03 -0.39274194168E+02  0.23270596941E+03  0.29046367174E+03  0.12509221132E+03 0.  0.
          5    1    3    3  502    0  0.20291828819E+02 -0.34158223265E+02  0.53088451330E+00  0.39953682832E+02  0.41800000000E+01 0. -1.
         -5    1    3    3    0  502  0.93842095769E+02 -0.51159709030E+01  0.23217508490E+03  0.25050998891E+03  0.41800000000E+01 0. -1.
        -11    1    1    2    0    0 -0.32639401254E+01  0.36015826975E+02  0.19016005499E+02  0.40858310819E+02  0.00000000000E+00 0. -1.
         11    1    1    2    0    0 -0.11086998446E+03  0.32583671933E+01 -0.19906640003E+02  0.11269003828E+03  0.00000000000E+00 0.  1.
</event>
<event>
 7    1  0.2594791E-009  0.8980255E+02  0.7561462E-02  0.1303331E+00
          2   -1    0    0  501    0  0.00000000000E+00  0.00000000000E+00  0.26668233638E+03  0.26668233638E+03  0.00000000000E+00 0. -1.
         -2   -1    0    0    0  501 -0.00000000000E+00 -0.00000000000E+00 -0.62594694940E+02  0.62594694940E+02  0.00000000000E+00 0.  1.
         25    2    1    2    0    0 -0.39548899820E+02 -0.53303514306E+02  0.84058164865E+02  0.16467532744E+03  0.12508720267E+03 0.  0.
          5    1    3    3  502    0  0.26065801985E+01 -0.87536911367E+01  0.10053057043E+03  0.10103113065E+03  0.41800000000E+01 0.  1.
         -5    1    3    3    0  502 -0.42155480018E+02 -0.44549823170E+02 -0.16472405567E+02  0.63644196791E+02  0.41800000000E+01 0.  1.
        -11    1    1    2    0    0 -0.23423325639E+02  0.35700455213E+02  0.25733317026E+02  0.49853568494E+02  0.00000000000E+00 0.  1.
         11    1    1    2    0    0  0.62972225459E+02  0.17603059094E+02  0.94296159551E+02  0.11474813539E+03  0.00000000000E+00 0. -1.
</event>
<event>
 7    1  0.2594791E-009  0.2444125E+03  0.7561462E-02  0.1116888E+00
         -2   -1    0    0    0  501 -0.00000000000E+00  0.00000000000E+00  0.29858633338E+03  0.29858633338E+03  0.00000000000E+00 0.  1.
          2   -1    0    0  501    0  0.00000000000E+00 -0.00000000000E+00 -0.23547108412E+03  0.23547108412E+03  0.00000000000E+00 0. -1.
         25    2    1    2    0    0  0.12043681679E+03 -0.19407816219E+03 -0.47744314272E+02  0.26475999876E+03  0.12508787919E+03 0.  0.
          5    1    3    3  502    0 -0.93487030875E+01  0.12610103798E+02 -0.13917302869E+01  0.16304057176E+02  0.41800000000E+01 0. -1.
         -5    1    3    3    0  502  0.12978551988E+03 -0.20668826599E+03 -0.46352583986E+02  0.24845594159E+03  0.41800000000E+01 0. -1.
        -11    1    1    2    0    0 -0.79818471501E+02  0.13383545860E+03  0.11915932886E+03  0.19616794852E+03  0.00000000000E+00 0.  1.
         11    1    1    2    0    0 -0.40618345292E+02  0.60242703595E+02 -0.82997653344E+01  0.73129470225E+02  0.00000000000E+00 0. -1.
</event>
<event>
 7    1  0.2594791E-009  0.1338756E+03  0.7561462E-02  0.1221816E+00
          1   -1    0    0  501    0  0.00000000000E+00  0.00000000000E+00  0.17217329319E+03  0.17217329319E+03  0.00000000000E+00 0. -1.
         -1   -1    0    0    0  501 -0.00000000000E+00 -0.00000000000E+00 -0.17719371768E+03  0.17719371768E+03  0.00000000000E+00 0.  1.
         25    2    1    2    0    0 -0.23251205566E+02 -0.13146334673E+03  0.27507397103E+02  0.18500812508E+03  0.12509244324E+03 0.  0.
          5    1    3    3  502    0 -0.22148839302E+02 -0.10501860135E+03  0.74635251478E+02  0.13079514852E+03  0.41800000000E+01 0. -1.
         -5    1    3    3    0  502 -0.11023662644E+01 -0.26444745383E+02 -0.47127854375E+02  0.54212976562E+02  0.41800000000E+01 0. -1.
        -11    1    1    2    0    0  0.82538180609E+01  0.56135457234E+02 -0.60195400056E+02  0.82721226171E+02  0.00000000000E+00 0.  1.
         11    1    1    2    0    0  0.14997387505E+02  0.75327889501E+02  0.27667578463E+02  0.81637659610E+02  0.00000000000E+00 0. -1.
</event>
<event>
 7    1  0.2594791E-009  0.1031713E+03  0.7561462E-02  0.1273765E+00
         -2   -1    0    0    0  501 -0.00000000000E+00  0.00000000000E+00  0.55206085386E+02  0.55206085386E+02  0.00000000000E+00 0.  1.
          2   -1    0    0  501    0  0.00000000000E+00 -0.00000000000E+00 -0.32434488612E+03  0.32434488612E+03  0.00000000000E+00 0. -1.
         25    2    1    2    0    0 -0.65974290596E+02  0.37152480094E+02 -0.12796507371E+03  0.19430866631E+03  0.12509150217E+03 0.  0.
          5    1    3    3  502    0 -0.72732616481E+02 -0.17866104216E+02 -0.11487817052E+03  0.13719948120E+03  0.41800000000E+01 0. -1.
         -5    1    3    3    0  502  0.67583258843E+01  0.55018584310E+02 -0.13086903185E+02  0.57109185104E+02  0.41800000000E+01 0. -1.
        -11    1    1    2    0    0  0.97722620637E+01 -0.47091390632E+01  0.13610696555E+02  0.17404716524E+02  0.00000000000E+00 0.  1.
         11    1    1    2    0    0  0.56202028533E+02 -0.32443341031E+02 -0.15478442359E+03  0.16783758868E+03  0.00000000000E+00 0. -1.
</event>
<event>
 7    1  0.2594791E-009  0.1334163E+03  0.7561462E-02  0.1222473E+00
         -1   -1    0    0    0  501 -0.00000000000E+00  0.00000000000E+00  0.27152720754E+02  0.27152720754E+02  0.00000000000E+00 0.  1.
          1   -1    0    0  501    0  0.00000000000E+00 -0.00000000000E+00 -0.70415810335E+03  0.70415810335E+03  0.00000000000E+00 0. -1.
         25    2    1    2    0    0  0.56049108075E+02 -0.63194292290E+02 -0.42296099961E+03  0.44908517997E+03  0.12508585286E+03 0.  0.
          5    1    3    3  502    0  0.83546443020E+02 -0.20543632317E+01 -0.24231403566E+03  0.25635481823E+03  0.41800000000E+01 0.  1.
         -5    1    3    3    0  502 -0.27497334944E+02 -0.61139929059E+02 -0.18064696394E+03  0.19273036174E+03  0.41800000000E+01 0.  1.
        -11    1    1    2    0    0 -0.71058305043E+02  0.69784768387E+02 -0.17370906703E+03  0.20023495345E+03  0.00000000000E+00 0.  1.
         11    1    1    2    0    0  0.15009196967E+02 -0.65904760969E+01 -0.80335315960E+02  0.81990690686E+02  0.00000000000E+00 0. -1.
</event>
<event>
 7    1  0.2594791E-009  0.2068181E+03  0.7561462E-02  0.1144111E+00
         -2   -1    0    0    0  501 -0.00000000000E+00  0.00000000000E+00  0.48880874517E+02  0.48880874517E+02  0.00000000000E+00 0.  1.
          2   -1    0    0  501    0  0.00000000000E+00 -0.00000000000E+00 -0.97047902088E+03  0.97047902088E+03  0.00000000000E+00 0. -1.
         25    2    1    2    0    0 -0.11370315402E+03 -0.14574342468E+03 -0.55612755281E+03  0.59924593379E+03  0.12509308976E+03 0.  0.
          5    1    3    3  502    0  0.10192363225E+02 -0.46982022915E+02 -0.52693222358E+02  0.71450981993E+02  0.41800000000E+01 0.  1.
         -5    1    3    3    0  502 -0.12389551724E+03 -0.98761401763E+02 -0.50343433045E+03  0.52779495180E+03  0.41800000000E+01 0.  1.
        -11    1    1    2    0    0  0.79517744403E+02  0.28042173273E+02 -0.16026065582E+03  0.18108813589E+03  0.00000000000E+00 0. -1.
         11    1    1    2    0    0  0.34185409613E+02  0.11770125140E+03 -0.20520993774E+03  0.23902582571E+03  0.00000000000E+00 0.  1.
</event>
<event>
 7    1  0.2594791E-009  0.1185493E+03  0.7561462E-02  0.1245510E+00
         -2   -1    0    0    0  501 -0.00000000000E+00  0.00000000000E+00  0.56092806224E+02  0.56092806224E+02  0.00000000000E+00 0.  1.
          2   -1    0    0  501    0  0.00000000000E+00 -0.00000000000E+00 -0.25463595290E+03  0.25463595290E+03  0.00000000000E+00 0. -1.
         25    2    1    2    0    0 -0.25065651575E+02  0.44062037391E+02 -0.12515517191E+03  0.18406827469E+03  0.12509021809E+03 0.  0.
          5    1    3    3  502    0  0.33127687242E+02  0.64720810411E+02 -0.62032293398E+02  0.95664542995E+02  0.41800000000E+01 0.  1.
         -5    1    3    3    0  502 -0.58193338818E+02 -0.20658773020E+02 -0.63122878512E+02  0.88403731692E+02  0.41800000000E+01 0.  1.
        -11    1    1    2    0    0  0.19100833652E+02  0.25889916638E+02 -0.30844291775E+02  0.44570169001E+02  0.00000000000E+00 0. -1.
         11    1    1    2    0    0  0.59648179231E+01 -0.69951954029E+02 -0.42543682988E+02  0.82090315431E+02  0.00000000000E+00 0.  1.
</event>
<event>
 7    1  0.2594791E-009  0.8518958E+02  0.7561462E-02  0.1314938E+00
         -3   -1    0    0    0  501 -0.00000000000E+00  0.00000000000E+00  0.83739770677E+02  0.83739770677E+02  0.00000000000E+00 0.  1.
          3   -1    0    0  501    0  0.00000000000E+00 -0.00000000000E+00 -0.17720738662E+03  0.17720738662E+03  0.00000000000E+00 0. -1.
         25    2    1    2    0    0  0.33679278880E+02 -0.25919609359E+02 -0.13762243772E+02  0.13282929383E+03  0.12509237375E+03 0.  0.
          5    1    3    3  502    0  0.50168725015E+02 -0.17721812050E+02 -0.61537634967E+02  0.81457452141E+02  0.41800000000E+01 0.  1.
         -5    1    3    3    0  502 -0.16489446135E+02 -0.81977973088E+01  0.47775391195E+02  0.51371841688E+02  0.41800000000E+01 0.  1.
        -11    1    1    2    0    0  0.57915406084E+01  0.51021096476E+02 -0.54900577631E+02  0.75171588066E+02  0.00000000000E+00 0.  1.
         11    1    1    2    0    0 -0.39470819488E+02 -0.25101487117E+02 -0.24804794540E+02  0.52946275400E+02  0.00000000000E+00 0. -1.
</event>
<event>
 7    1  0.2594791E-009  0.2210040E+03  0.7561462E-02  0.1133137E+00
          2   -1    0    0  501    0  0.00000000000E+00  0.00000000000E+00  0.40883034149E+03  0.40883034149E+03  0.00000000000E+00 0. -1.
         -2   -1    0    0    0  501 -0.00000000000E+00 -0.00000000000E+00 -0.13834301215E+03  0.13834301215E+03  0.00000000000E+00 0.  1.
         25    2    1    2    0    0 -0.11793672241E+03 -0.15729650914E+03  0.54545506818E+02  0.23932541366E+03  0.12510067558E+03 0.  0.
          5    1    3    3  502    0 -0.20179783619E+02  0.14408965475E+02  0.31579255078E+02  0.40367854838E+02  0.41800000000E+01 0. -1.
         -5    1    3    3    0  502 -0.97756938792E+02 -0.17170547462E+03  0.22966251741E+02  0.19895755883E+03  0.41800000000E+01 0. -1.
        -11    1    1    2    0    0  0.10282990994E+03  0.56534361363E+02  0.12166159427E+03  0.16903155893E+03  0.00000000000E+00 0. -1.
         11    1    1    2    0    0  0.15106812469E+02  0.10076214778E+03  0.94280228252E+02  0.13881638105E+03  0.00000000000E+00 0.  1.
</event>
<event>
 7    1  0.2594791E-009  0.2176108E+03  0.7561462E-02  0.1135677E+00
         -1   -1    0    0    0  501 -0.00000000000E+00  0.00000000000E+00  0.34981439473E+03  0.34981439473E+03  0.00000000000E+00 0.  1.
          1   -1    0    0  501    0  0.00000000000E+00 -0.00000000000E+00 -0.18793035052E+03  0.18793035052E+03  0.00000000000E+00 0. -1.
         25    2    1    2    0    0  0.11167977846E+03 -0.18300201829E+03 -0.14173379822E+02  0.24861735401E+03  0.12509033697E+03 0.  0.
          5    1    3    3  502    0  0.23127636090E+01 -0.41246566901E+02 -0.51015051327E+02  0.65777169432E+02  0.41800000000E+01 0.  1.
         -5    1    3    3    0  502  0.10936701485E+03 -0.14175545139E+03  0.36841671504E+02  0.18284018457E+03  0.41800000000E+01 0.  1.
        -11    1    1    2    0    0 -0.39848782148E+02  0.56550999431E+02  0.10872304170E+03  0.12886675588E+03  0.00000000000E+00 0.  1.
         11    1    1    2    0    0 -0.71830996314E+02  0.12645101886E+03  0.67334382334E+02  0.16026063536E+03  0.00000000000E+00 0. -1.
</event>
<event>
 7    1  0.2594791E-009  0.1381495E+03  0.7561462E-02  0.1215841E+00
         -2   -1    0    0    0  501 -0.00000000000E+00  0.00000000000E+00  0.20400610334E+02  0.20400610334E+02  0.00000000000E+00 0.  1.
          2   -1    0    0  501    0  0.00000000000E+00 -0.00000000000E+00 -0.17228589276E+04  0.17228589276E+04  0.00000000000E+00 0. -1.
         25    2    1    2    0    0  0.99476637799E+02 -0.23378140006E+02 -0.14092424158E+04  0.14184685290E+04  0.12508653987E+03 0.  0.
          5    1    3    3  502    0  0.11020683015E+03  0.20071042392E+01 -0.13280775348E+04  0.13326503610E+04  0.41800000000E+01 0. -1.
         -5    1    3    3    0  502 -0.10730192348E+02 -0.25385244245E+02 -0.81164881006E+02  0.85818168018E+02  0.41800000000E+01 0. -1.
        -11    1    1    2    0    0 -0.33117665723E+02 -0.36111932309E+02 -0.81704892256E+02  0.95270881473E+02  0.00000000000E+00 0.  1.
         11    1    1    2    0    0 -0.66358972076E+02  0.59490072316E+02 -0.21151100920E+03  0.22952012742E+03  0.00000000000E+00 0. -1.
</event>
<event>
 7    1  0.2594791E-009  0.1141995E+03  0.7561462E-02  0.1252985E+00
          1   -1    0    0  501    0  0.00000000000E+00  0.00000000000E+00  0.85107230580E+02  0.85107230580E+02  0.00000000000E+00 0. -1.
         -1   -1    0    0    0  501 -0.00000000000E+00 -0.00000000000E+00 -0.26886723583E+03  0.26886723583E+03  0.00000000000E+00 0.  1.
         25    2    1    2    0    0 -0.92732334891E+02  0.26564226150E+02 -0.48791636979E+02  0.16532707063E+03  0.12508985730E+03 0.  0.
          5    1    3    3  502    0 -0.57764047534E+02  0.54759088765E+02  0.20817301878E+02  0.82377639244E+02  0.41800000000E+01 0.  1.
         -5    1    3    3    0  502 -0.34968287357E+02 -0.28194862615E+02 -0.69608938857E+02  0.82949431387E+02  0.41800000000E+01 0.  1.
        -11    1    1    2    0    0  0.34558076272E+02  0.85915634914E+01  0.20780362936E+01  0.35670629847E+02  0.00000000000E+00 0. -1.
         11    1    1    2    0    0  0.58174258620E+02 -0.35155789641E+02 -0.13704640456E+03  0.15297676593E+03  0.00000000000E+00 0.  1.
</event>
<event>
 7    1  0.2594791E-009  0.9345686E+02  0.7561462E-02  0.1294690E+00
         -2   -1    0    0    0  501 -0.00000000000E+00  0.00000000000E+00  0.15895099580E+03  0.15895099580E+03  0.00000000000E+00 0. -1.
          2   -1    0    0  501    0  0.00000000000E+00 -0.00000000000E+00 -0.90972784339E+02  0.90972784339E+02  0.00000000000E+00 0.  1.
         25    2    1    2    0    0  0.34387978946E+01 -0.36568948055E+02  0.13838913295E+01  0.13037829280E+03  0.12508985085E+03 0.  0.
          5    1    3    3  502    0  0.39824705825E+02 -0.56978482280E+02  0.33770925826E+02  0.77398336339E+02  0.41800000000E+01 0.  1.
         -5    1    3    3    0  502 -0.36385907931E+02  0.20409534225E+02 -0.32387034497E+02  0.52979956462E+02  0.41800000000E+01 0.  1.
        -11    1    1    2    0    0 -0.28695211563E+02 -0.25193951681E+01 -0.95142599737E+01  0.30336177437E+02  0.00000000000E+00 0.  1.
         11    1    1    2    0    0  0.25256413668E+02  0.39088343223E+02  0.76108580110E+02  0.89209309904E+02  0.00000000000E+00 0. -1.
</event>
<event>
 7    1  0.2594791E-009  0.9939854E+02  0.7561462E-02  0.1281566E+00
          3   -1    0    0  501    0  0.00000000000E+00  0.00000000000E+00  0.40033623817E+03  0.40033623817E+03  0.00000000000E+00 0. -1.
         -3   -1    0    0    0  501 -0.00000000000E+00 -0.00000000000E+00 -0.31168427651E+02  0.31168427651E+02  0.00000000000E+00 0.  1.
         25    2    1    2    0    0  0.33347880620E+01 -0.24320021453E+02  0.23321443367E+03  0.26578548212E+03  0.12510142356E+03 0.  0.
          5    1    3    3  502    0  0.10924954604E+02 -0.73517541101E+02  0.16700191141E+03  0.18284226616E+03  0.41800000000E+01 0.  1.
         -5    1    3    3    0  502 -0.75901665416E+01  0.49197519648E+02  0.66212522265E+02  0.82943215951E+02  0.41800000000E+01 0.  1.
        -11    1    1    2    0    0  0.19650265658E+02  0.41357935619E+02  0.27185009528E+02  0.53250695039E+02  0.00000000000E+00 0.  1.
         11    1    1    2    0    0 -0.22985053720E+02 -0.17037914166E+02  0.10876836732E+03  0.11246848866E+03  0.00000000000E+00 0. -1.
</event>
<event>
 7    1  0.2594791E-009  0.1068147E+03  0.7561462E-02  0.1266585E+00
          2   -1    0    0  501    0  0.00000000000E+00  0.00000000000E+00  0.51872673901E+03  0.51872673901E+03  0.00000000000E+00 0. -1.
         -2   -1    0    0    0  501 -0.00000000000E+00 -0.00000000000E+00 -0.29747534802E+02  0.29747534802E+02  0.00000000000E+00 0.  1.
         25    2    1    2    0    0 -0.37164007256E+02  0.38827653921E+02  0.21628926573E+03  0.25557377660E+03  0.12509260039E+03 0.  0.
          5    1    3    3  502    0 -0.28244056623E+02  0.73832529080E+02  0.20118231777E+03  0.21619612963E+03  0.41800000000E+01 0.  1.
         -5    1    3    3    0  502 -0.89199506330E+01 -0.35004875160E+02  0.15106947962E+02  0.39377646971E+02  0.41800000000E+01 0.  1.
        -11    1    1    2    0    0 -0.14490350317E+02 -0.43872799811E+02  0.71542328672E+02  0.85165119664E+02  0.00000000000E+00 0. -1.
         11    1    1    2    0    0  0.51654357573E+02  0.50451458908E+01  0.20114760981E+03  0.20773537755E+03  0.00000000000E+00 0.  1.
</event>
<event>
 7    1  0.2594791E-009  0.1084214E+03  0.7561462E-02  0.1263521E+00
          2   -1    0    0  501    0  0.00000000000E+00  0.00000000000E+00  0.54995919311E+03  0.54995919311E+03  0.00000000000E+00 0. -1.
         -2   -1    0    0    0  501 -0.00000000000E+00 -0.00000000000E+00 -0.29485922121E+02  0.29485922121E+02  0.00000000000E+00 0.  1.
         25    2    1    2    0    0 -0.55866483123E+02 -0.11055634914E+02  0.33546750921E+03  0.36253071419E+03  0.12508708164E+03 0.  0.
          5    1    3    3  502    0  0.94377823353E+01  0.48113865491E+02  0.12226009787E+03  0.13179157682E+03  0.41800000000E+01 0. -1.
         -5    1    3    3    0  502 -0.65304265459E+02 -0.59169500406E+02  0.21320741134E+03  0.23073913737E+03  0.41800000000E+01 0. -1.
        -11    1    1    2    0    0  0.66920429772E+02  0.13046071414E+02  0.19195692526E+03  0.20370568243E+03  0.00000000000E+00 0. -1.
         11    1    1    2    0    0 -0.11053946648E+02 -0.19904364994E+01 -0.69511634719E+01  0.13208718620E+02  0.00000000000E+00 0.  1.
</event>
<event>
 7    1  0.2594791E-009  0.1965377E+03  0.7561462E-02  0.1152693E+00
         -2   -1    0    0    0  501 -0.00000000000E+00  0.00000000000E+00  0.29597158827E+02  0.29597158827E+02  0.00000000000E+00 0.  1.
          2   -1    0    0  501    0  0.00000000000E+00 -0.00000000000E+00 -0.17833692062E+04  0.17833692062E+04  0.00000000000E+00 0. -1.
         25    2    1    2    0    0 -0.13284954608E+03 -0.11463377569E+03 -0.13007956622E+04  0.13185243466E+04  0.12508874181E+03 0.  0.
          5    1    3    3  502    0 -0.76560986402E+02 -0.13249882008E+03 -0.82758190622E+03  0.84162153362E+03  0.41800000000E+01 0.  1.
         -5    1    3    3    0  502 -0.56288559679E+02  0.17865044394E+02 -0.47321375603E+03  0.47690281301E+03  0.41800000000E+01 0.  1.
        -11    1    1    2    0    0  0.83687304833E+02  0.43499506977E+02 -0.13340595772E+03  0.16337968556E+03  0.00000000000E+00 0.  1.
         11    1    1    2    0    0  0.49162241248E+02  0.71134268710E+02 -0.31957042739E+03  0.33106233282E+03  0.00000000000E+00 0. -1.
</event>
<event>
 7    1  0.2594791E-009  0.1586970E+03  0.7561462E-02  0.1190176E+00
         -2   -1    0    0    0  501 -0.00000000000E+00  0.00000000000E+00  0.35662176540E+02  0.35662176540E+02  0.00000000000E+00 0.  1.
          2   -1    0    0  501    0  0.00000000000E+00 -0.00000000000E+00 -0.84371519343E+03  0.84371519343E+03  0.00000000000E+00 0. -1.
         25    2    1    2    0    0  0.13630696551E+03 -0.18357656755E+02 -0.48615295393E+03  0.52048872687E+03  0.12508887950E+03 0.  0.
          5    1    3    3  502    0  0.10277387047E+03  0.25532933234E+02 -0.17613641439E+03  0.20556241876E+03  0.41800000000E+01 0. -1.
         -5    1    3    3    0  502  0.33533095037E+02 -0.43890589989E+02 -0.31001653954E+03  0.31492630811E+03  0.41800000000E+01 0. -1.
        -11    1    1    2    0    0  0.16349633944E+01 -0.14196067952E+02 -0.53376718270E+02  0.55256452147E+02  0.00000000000E+00 0. -1.
         11    1    1    2    0    0 -0.13794192890E+03  0.32553724707E+02 -0.26852334469E+03  0.30363219096E+03  0.00000000000E+00 0.  1.
</event>
<event>
 7    1  0.2594791E-009  0.9950290E+02  0.7561462E-02  0.1281345E+00
          2   -1    0    0  501    0  0.00000000000E+00  0.00000000000E+00  0.62491565606E+03  0.62491565606E+03  0.00000000000E+00 0. -1.
         -2   -1    0    0    0  501 -0.00000000000E+00 -0.00000000000E+00 -0.29908762935E+02  0.29908762935E+02  0.00000000000E+00 0.  1.
         25    2    1    2    0    0 -0.24346276579E+02  0.13954588612E+02  0.14003480131E+03  0.18985357901E+03  0.12508862522E+03 0.  0.
          5    1    3    3  502    0 -0.61845011034E+02  0.19578398921E+02  0.13693389281E+03  0.15157995413E+03  0.41800000000E+01 0.  1.
         -5    1    3    3    0  502  0.37498734455E+02 -0.56238103087E+01  0.31009085038E+01  0.38273624883E+02  0.41800000000E+01 0.  1.
        -11    1    1    2    0    0  0.15603806618E+01  0.38568865861E+02  0.17560291407E+03  0.17979537155E+03  0.00000000000E+00 0.  1.
         11    1    1    2    0    0  0.22785895917E+02 -0.52523454473E+02  0.27936917774E+03  0.28517546843E+03  0.00000000000E+00 0. -1.
</event>
<event>
 7    1  0.2594791E-009  0.9664187E+02  0.7561462E-02  0.1287520E+00
         -2   -1    0    0    0  501 -0.00000000000E+00  0.00000000000E+00  0.21270571452E+02  0.21270571452E+02  0.00000000000E+00 0.  1.
          2   -1    0    0  501    0  0.00000000000E+00 -0.00000000000E+00 -0.11826015858E+04  0.11826015858E+04  0.00000000000E+00 0. -1.
         25    2    1    2    0    0  0.19950339936E+02  0.74977729811E+02 -0.94715803491E+03  0.95852768210E+03  0.12508916113E+03 0.  0.
          5    1    3    3  502    0  0.11396112359E+02  0.22618627749E+02 -0.28604764916E+02  0.38434082193E+02  0.41800000000E+01 0.  1.
         -5    1    3    3    0  502  0.85542275776E+01  0.52359102062E+02 -0.91855326999E+03  0.92009359991E+03  0.41800000000E+01 0.  1.
        -11    1    1    2    0    0 -0.44501009599E+02 -0.10957924421E+02 -0.52243621919E+02  0.69496848807E+02  0.00000000000E+00 0.  1.
         11    1    1    2    0    0  0.24550669663E+02 -0.64019805390E+02 -0.16192935751E+03  0.17584762633E+03  0.00000000000E+00 0. -1.
</event>
<event>
 7    1  0.2594791E-009  0.1624297E+03  0.7561462E-02  0.1185981E+00
         -4   -1    0    0    0  501 -0.00000000000E+00  0.00000000000E+00  0.59797790450E+02  0.59797790450E+02  0.00000000000E+00 0. -1.
          4   -1    0    0  501    0  0.00000000000E+00 -0.00000000000E+00 -0.87149185480E+03  0.87149185480E+03  0.00000000000E+00 0.  1.
         25    2    1    2    0    0 -0.11134852807E+03  0.94521234812E+02 -0.70020362839E+03  0.72613037326E+03  0.12508972471E+03 0.  0.
          5    1    3    3  502    0 -0.12647602196E+03  0.66871874744E+02 -0.41148704294E+03  0.43566855598E+03  0.41800000000E+01 0. -1.
         -5    1    3    3    0  502  0.15127493891E+02  0.27649360069E+02 -0.28871658545E+03  0.29046181728E+03  0.41800000000E+01 0. -1.
        -11    1    1    2    0    0  0.68799933611E+02 -0.78726934850E+02 -0.25025141519E+02  0.10750636653E+03  0.00000000000E+00 0. -1.
         11    1    1    2    0    0  0.42548594463E+02 -0.15794299963E+02 -0.86465294441E+02  0.97652905460E+02  0.00000000000E+00 0.  1.
</event>
<event>
 7    1  0.2594791E-009  0.1570037E+03  0.7561462E-02  0.1192122E+00
         -2   -1    0    0    0  501 -0.00000000000E+00  0.00000000000E+00  0.11628836900E+03  0.11628836900E+03  0.00000000000E+00 0.  1.
          2   -1    0    0  501    0  0.00000000000E+00 -0.00000000000E+00 -0.30829174688E+03  0.30829174688E+03  0.00000000000E+00 0. -1.
         25    2    1    2    0    0 -0.31334953553E+02 -0.11136080684E+03 -0.21557360204E+03  0.27477390374E+03  0.12508241950E+03 0.  0.
          5    1    3    3  502    0  0.48450208422E+02 -0.39737568225E+02 -0.87259444496E+02  0.10750897673E+03  0.41800000000E+01 0.  1.
         -5    1    3    3    0  502 -0.79785161974E+02 -0.71623238612E+02 -0.12831415754E+03  0.16726492701E+03  0.41800000000E+01 0.  1.
        -11    1    1    2    0    0  0.22549075343E+02  0.12536435726E+03  0.88708513849E+01  0.12768466969E+03  0.00000000000E+00 0. -1.
         11    1    1    2    0    0  0.87858782091E+01 -0.14003550418E+02  0.14699372780E+02  0.22121542450E+02  0.00000000000E+00 0.  1.
</event>
<event>
 7    1  0.2594791E-009  0.1729441E+03  0.7561462E-02  0.1174812E+00
         -1   -1    0    0    0  501 -0.00000000000E+00  0.00000000000E+00  0.12085204993E+03  0.12085204993E+03  0.00000000000E+00 0.  1.
          1   -1    0    0  501    0  0.00000000000E+00 -0.00000000000E+00 -0.31996891077E+03  0.31996891077E+03  0.00000000000E+00 0. -1.
         25    2    1    2    0    0  0.15515314244E+03  0.93541936457E+00 -0.16230440884E+03  0.25702634416E+03  0.12508576195E+03 0.  0.
          5    1    3    3  502    0  0.85310127732E+02  0.52737272000E+02 -0.12982718414E+03  0.16410852474E+03  0.41800000000E+01 0.  1.
         -5    1    3    3    0  502  0.69843014710E+02 -0.51801852636E+02 -0.32477224702E+02  0.92917819414E+02  0.41800000000E+01 0.  1.
        -11    1    1    2    0    0 -0.19156196373E+02 -0.10983551478E+02  0.25613173037E+02  0.33817641780E+02  0.00000000000E+00 0.  1.
         11    1    1    2    0    0 -0.13599694607E+03  0.10048132113E+02 -0.62425625024E+02  0.14997697476E+03  0.00000000000E+00 0. -1.
</event>
<event>
 7    1  0.2594791E-009  0.8283569E+02  0.7561462E-02  0.1321191E+00
         -1   -1    0    0    0  501 -0.00000000000E+00  0.00000000000E+00  0.19396836127E+03  0.19396836127E+03  0.00000000000E+00 0.  1.
          1   -1    0    0  501    0  0.00000000000E+00 -0.00000000000E+00 -0.85640367709E+02  0.85640367709E+02  0.00000000000E+00 0. -1.
         25    2    1    2    0    0  0.51361118700E+02 -0.52786260831E+02  0.61315590845E+02  0.15757826348E+03  0.12508778355E+03 0.  0.
          5    1    3    3  502    0  0.35570220836E+02 -0.38312462275E+02  0.10013869295E+03  0.11304121196E+03  0.41800000000E+01 0. -1.
         -5    1    3    3    0  502  0.15790897864E+02 -0.14473798556E+02 -0.38823102109E+02  0.44537051511E+02  0.41800000000E+01 0. -1.
        -11    1    1    2    0    0 -0.29669150096E+01 -0.10966574201E+02 -0.16375334447E+02  0.19930376630E+02  0.00000000000E+00 0. -1.
         11    1    1    2    0    0 -0.48394203690E+02  0.63752835031E+02  0.63387737161E+02  0.10210008887E+03  0.00000000000E+00 0.  1.
</event>
<event>
 7    1  0.2594791E-009  0.1010287E+03  0.7561462E-02  0.1278147E+00
         -2   -1    0    0    0  501 -0.00000000000E+00  0.00000000000E+00  0.23577894564E+02  0.23577894564E+02  0.00000000000E+00 0.  1.
          2   -1    0    0  501    0  0.00000000000E+00 -0.00000000000E+00 -0.60363514081E+03  0.60363514081E+03  0.00000000000E+00 0. -1.
         25    2    1    2    0    0  0.34112018944E+02  0.16076850696E+02 -0.24988468213E+03  0.28197487343E+03  0.12508149310E+03 0.  0.
          5    1    3    3  502    0  0.17443834165E+02  0.58979477912E+02 -0.58137668482E+02  0.84736810547E+02  0.41800000000E+01 0. -1.
         -5    1    3    3    0  502  0.16668184779E+02 -0.42902627216E+02 -0.19174701365E+03  0.19723806288E+03  0.41800000000E+01 0. -1.
        -11    1    1    2    0    0 -0.58930382736E+02  0.81743023892E+01 -0.14310458896E+03  0.15497913605E+03  0.00000000000E+00 0. -1.
         11    1    1    2    0    0  0.24818363792E+02 -0.24251153085E+02 -0.18706797515E+03  0.19025902590E+03  0.00000000000E+00 0.  1.
</event>
<event>
 7    1  0.2594791E-009  0.1645629E+03  0.7561462E-02  0.1183639E+00
         -3   -1    0    0    0  501 -0.00000000000E+00  0.00000000000E+00  0.23413133744E+03  0.23413133744E+03  0.00000000000E+00 0.  1.
          3   -1    0    0  501    0  0.00000000000E+00 -0.00000000000E+00 -0.16209606329E+03  0.16209606329E+03  0.00000000000E+00 0. -1.
         25    2    1    2    0    0 -0.65582023733E+01 -0.15015275351E+03  0.98376452874E+02  0.21889044451E+03  0.12508493440E+03 0.  0.
          5    1    3    3  502    0 -0.60124622829E+01 -0.16409782530E+03  0.11210725266E+03  0.19887120071E+03  0.41800000000E+01 0.  1.
         -5    1    3    3    0  502 -0.54574009035E+00  0.13945071797E+02 -0.13730799786E+02  0.20019243802E+02  0.41800000000E+01 0.  1.
        -11    1    1    2    0    0  0.93137175417E+00  0.18403032542E+02 -0.40710552506E+02  0.44686554414E+02  0.00000000000E+00 0. -1.
         11    1    1    2    0    0  0.56268306191E+01  0.13174972096E+03  0.14369373787E+02  0.13265040181E+03  0.00000000000E+00 0.  1.
</event>
<event>
 7    1  0.2594791E-009  0.1604282E+03  0.7561462E-02  0.1188214E+00
         -4   -1    0    0    0  501 -0.00000000000E+00  0.00000000000E+00  0.54668095807E+03  0.54668095807E+03  0.00000000000E+00 0.  1.
          4   -1    0    0  501    0  0.00000000000E+00 -0.00000000000E+00 -0.71441932470E+02  0.71441932470E+02  0.00000000000E+00 0. -1.
         25    2    1    2    0    0  0.12642506000E+03  0.14896670251E+02  0.85214254780E+02  0.19778047544E+03  0.12510172129E+03 0.  0.
          5    1    3    3  502    0  0.91100650359E+02 -0.43303463534E+02  0.81013333453E+02  0.12944168976E+03  0.41800000000E+01 0.  1.
         -5    1    3    3    0  502  0.35324409638E+02  0.58200133785E+02  0.42009213261E+01  0.68338785685E+02  0.41800000000E+01 0.  1.
        -11    1    1    2    0    0  0.99440188182E+01 -0.11605045458E+02  0.82762686165E+02  0.84161884553E+02  0.00000000000E+00 0.  1.
         11    1    1    2    0    0 -0.13636907881E+03 -0.32916247927E+01  0.30726208466E+03  0.33618053055E+03  0.00000000000E+00 0. -1.
</event>
<event>
 7    1  0.2594791E-009  0.1038803E+03  0.7561462E-02  0.1272341E+00
         -2   -1    0    0    0  501 -0.00000000000E+00  0.00000000000E+00  0.37218081091E+02  0.37218081091E+02  0.00000000000E+00 0.  1.
          2   -1    0    0  501    0  0.00000000000E+00 -0.00000000000E+00 -0.43869587092E+03  0.43869587092E+03  0.00000000000E+00 0. -1.
         25    2    1    2    0    0  0.36894768938E+02  0.56520990204E+02 -0.20465798234E+03  0.24917569979E+03  0.12509114005E+03 0.  0.
          5    1    3    3  502    0 -0.27693882705E+02 -0.14016838599E+02 -0.11067367525E+03  0.11501981436E+03  0.41800000000E+01 0. -1.
         -5    1    3    3    0  502  0.64588651643E+02  0.70537828803E+02 -0.93984307099E+02  0.13415588542E+03  0.41800000000E+01 0. -1.
        -11    1    1    2    0    0 -0.38512018443E+02 -0.18626816936E+02 -0.18040849465E+03  0.18541132332E+03  0.00000000000E+00 0. -1.
         11    1    1    2    0    0  0.16172495052E+01 -0.37894173267E+02 -0.16411312834E+02  0.41326928903E+02  0.00000000000E+00 0.  1.
</event>
<event>
 7    1  0.2594791E-009  0.1045562E+03  0.7561462E-02  0.1270996E+00
          2   -1    0    0  501    0  0.00000000000E+00  0.00000000000E+00  0.16212635696E+03  0.16212635696E+03  0.00000000000E+00 0. -1.
         -2   -1    0    0    0  501 -0.00000000000E+00 -0.00000000000E+00 -0.11526922936E+03  0.11526922936E+03  0.00000000000E+00 0.  1.
         25    2    1    2    0    0  0.46281502417E+02  0.67076323125E+02  0.10073615874E+02  0.14963082644E+03  0.12508675347E+03 0.  0.
          5    1    3    3  502    0 -0.26494062541E+02  0.39167278925E+02 -0.35471072494E+02  0.59259433614E+02  0.41800000000E+01 0.  1.
         -5    1    3    3    0  502  0.72775564958E+02  0.27909044199E+02  0.45544688368E+02  0.90371392828E+02  0.41800000000E+01 0.  1.
        -11    1    1    2    0    0 -0.15698127698E+02 -0.39113375295E+02  0.65115881968E+02  0.77565233350E+02  0.00000000000E+00 0. -1.
         11    1    1    2    0    0 -0.30583374719E+02 -0.27962947829E+02 -0.28332370239E+02  0.50199526530E+02  0.00000000000E+00 0.  1.
</event>
<event>
 7    1  0.2594791E-009  0.8583317E+02  0.7561462E-02  0.1313268E+00
          1   -1    0    0  501    0  0.00000000000E+00  0.00000000000E+00  0.31951398995E+03  0.31951398995E+03  0.00000000000E+00 0. -1.
         -1   -1    0    0    0  501 -0.00000000000E+00 -0.00000000000E+00 -0.46523935617E+02  0.46523935617E+02  0.00000000000E+00 0.  1.
         25    2    1    2    0    0 -0.23463733817E+02  0.46789317895E+02  0.18475310140E+03  0.22917406251E+03  0.12508898983E+03 0.  0.
          5    1    3    3  502    0 -0.14243286332E+01 -0.26657166276E+02 -0.21529361923E+01  0.27106101899E+02  0.41800000000E+01 0.  1.
         -5    1    3    3    0  502 -0.22039405184E+02  0.73446484171E+02  0.18690603759E+03  0.20206796061E+03  0.41800000000E+01 0.  1.
        -11    1    1    2    0    0  0.30094147055E+02 -0.11941018725E+02 -0.87958179377E+01  0.33550142002E+02  0.00000000000E+00 0.  1.
         11    1    1    2    0    0 -0.66304132379E+01 -0.34848299169E+02  0.97032770872E+02  0.10331372105E+03  0.00000000000E+00 0. -1.
</event>
<event>
 7    1  0.2594791E-009  0.6343271E+02  0.7561462E-02  0.1383966E+00
          1   -1    0    0  501    0  0.00000000000E+00  0.00000000000E+00  0.24750092447E+03  0.24750092447E+03  0.00000000000E+00 0. -1.
         -1   -1    0    0    0  501 -0.00000000000E+00 -0.00000000000E+00 -0.50040002202E+02  0.50040002202E+02  0.00000000000E+00 0.  1.
         25    2    1    2    0    0 -0.19792857542E+02 -0.21774892110E+02  0.10225552987E+03  0.16420306688E+03  0.12506218712E+03 0.  0.
          5    1    3    3  502    0 -0.33460056838E+02 -0.26928219570E+02 -0.15213092289E+02  0.45756037742E+02  0.41800000000E+01 0.  1.
         -5    1    3    3    0  502  0.13667199297E+02  0.51533274598E+01  0.11746862216E+03  0.11844702914E+03  0.41800000000E+01 0.  1.
        -11    1    1    2    0    0 -0.61565292246E+01  0.37616462828E+02  0.95614708369E+02  0.10293237384E+03  0.00000000000E+00 0. -1.
         11    1    1    2    0    0  0.25949386766E+02 -0.15841570718E+02 -0.40931596961E+00  0.30405485951E+02  0.00000000000E+00 0.  1.
</event>
<event>
 7    1  0.2594791E-009  0.1038678E+03  0.7561462E-02  0.1272366E+00
          1   -1    0    0  501    0  0.00000000000E+00  0.00000000000E+00  0.10614321497E+04  0.10614321497E+04  0.00000000000E+00 0. -1.
         -1   -1    0    0    0  501 -0.00000000000E+00 -0.00000000000E+00 -0.12878223600E+02  0.12878223600E+02  0.00000000000E+00 0.  1.
         25    2    1    2    0    0  0.64395372994E+01  0.44186455191E+02  0.67646473349E+03  0.68938083844E+03  0.12508994482E+03 0.  0.
          5    1    3    3  502    0  0.34063671572E+02 -0.26477238453E+02  0.41026238828E+03  0.41254584899E+03  0.41800000000E+01 0.  1.
         -5    1    3    3    0  502 -0.27624134273E+02  0.70663693644E+02  0.26620234520E+03  0.27683498945E+03  0.41800000000E+01 0.  1.
        -11    1    1    2    0    0  0.34936707475E+02 -0.16644612647E+02  0.82748248921E+02  0.91350365948E+02  0.00000000000E+00 0.  1.
         11    1    1    2    0    0 -0.41376244775E+02 -0.27541842544E+02  0.28934094372E+03  0.29357916894E+03  0.00000000000E+00 0. -1.
</event>
<event>
 7    1  0.2594791E-009  0.2458192E+03  0.7561462E-02  0.1115976E+00
         -2   -1    0    0    0  501 -0.00000000000E+00  0.00000000000E+00  0.27158454431E+03  0.27158454431E+03  0.00000000000E+00 0.  1.
          2   -1    0    0  501    0  0.00000000000E+00 -0.00000000000E+00 -0.23772131275E+03  0.23772131275E+03  0.00000000000E+00 0. -1.
         25    2    1    2    0    0  0.14760093531E+03  0.17504709996E+03  0.31990537145E+02  0.26287307595E+03  0.12510530077E+03 0.  0.
          5    1    3    3  502    0  0.16224870862E+03  0.11975001870E+03  0.11715270508E+02  0.20203819042E+03  0.41800000000E+01 0. -1.
         -5    1    3    3    0  502 -0.14647773307E+02  0.55297081267E+02  0.20275266637E+02  0.60834885524E+02  0.41800000000E+01 0. -1.
        -11    1    1    2    0    0 -0.10066477330E+03 -0.14615541049E+03  0.36717399960E+02  0.18122628965E+03  0.00000000000E+00 0.  1.
         11    1    1    2    0    0 -0.46936162012E+02 -0.28891689474E+02 -0.34844705549E+02  0.65206491470E+02  0.00000000000E+00 0. -1.
</event>
<event>
 7    1  0.2594791E-009  0.8004351E+02  0.7561462E-02  0.1328928E+00
         -3   -1    0    0    0  501 -0.00000000000E+00  0.00000000000E+00  0.31439105729E+03  0.31439105729E+03  0.00000000000E+00 0.  1.
          3   -1    0    0  501    0  0.00000000000E+00 -0.00000000000E+00 -0.39733622217E+02  0.39733622217E+02  0.00000000000E+00 0. -1.
         25    2    1    2    0    0 -0.23574500755E+02 -0.16332205237E+01  0.11035002085E+03  0.16847628671E+03  0.12509479440E+03 0.  0.
          5    1    3    3  502    0 -0.21547143718E+02  0.47473142113E+02  0.54832748743E+01  0.52588186200E+02  0.41800000000E+01 0.  1.
         -5    1    3    3    0  502 -0.20273570379E+01 -0.49106362637E+02  0.10486674598E+03  0.11588810051E+03  0.41800000000E+01 0.  1.
        -11    1    1    2    0    0 -0.16038873162E+02 -0.76551854864E+01  0.15017088513E+01  0.17835426729E+02  0.00000000000E+00 0. -1.
         11    1    1    2    0    0  0.39613373918E+02  0.92884060101E+01  0.16280570537E+03  0.16781296607E+03  0.00000000000E+00 0.  1.
</event>
<event>
 7    1  0.2594791E-009  0.1237462E+03  0.7561462E-02  0.1237042E+00
          1   -1    0    0  501    0  0.00000000000E+00  0.00000000000E+00  0.11967809795E+03  0.11967809795E+03  0.00000000000E+00 0. -1.
         -1   -1    0    0    0  501 -0.00000000000E+00 -0.00000000000E+00 -0.18842293787E+03  0.18842293787E+03  0.00000000000E+00 0.  1.
         25    2    1    2    0    0 -0.64110068986E+01 -0.89388011715E+02 -0.86610090938E+02  0.17658375064E+03  0.12509674452E+03 0.  0.
          5    1    3    3  502    0  0.29524195274E+02 -0.10683227487E+03 -0.47949188966E+02  0.12083629497E+03  0.41800000000E+01 0. -1.
         -5    1    3    3    0  502 -0.35935202172E+02  0.17444263155E+02 -0.38660901972E+02  0.55747455668E+02  0.41800000000E+01 0. -1.
        -11    1    1    2    0    0  0.19841639303E+02  0.70486114599E+02 -0.29371244959E+02  0.78896470339E+02  0.00000000000E+00 0.  1.
         11    1    1    2    0    0 -0.13430632404E+02  0.18901897116E+02  0.47236495985E+02  0.52620814839E+02  0.00000000000E+00 0. -1.
</event>
<event>
 7    1  0.2594791E-009  0.1059134E+03  0.7561462E-02  0.1268330E+00
          2   -1    0    0  501    0  0.00000000000E+00  0.00000000000E+00  0.52505458773E+03  0.52505458773E+03  0.00000000000E+00 0. -1.
         -2   -1    0    0    0  501 -0.00000000000E+00 -0.00000000000E+00 -0.26727864258E+02  0.26727864258E+02  0.00000000000E+00 0.  1.
         25    2    1    2    0    0 -0.30305322302E+02  0.37391758538E+02  0.26735327236E+03  0.29907133283E+03  0.12509729698E+03 0.  0.
          5    1    3    3  502    0 -0.50218249289E+02 -0.25418964158E+02  0.64315752867E+02  0.85568596853E+02  0.41800000000E+01 0. -1.
         -5    1    3    3    0  502  0.19912926986E+02  0.62810722696E+02  0.20303751949E+03  0.21350273597E+03  0.41800000000E+01 0. -1.
        -11    1    1    2    0    0  0.21509303177E+02  0.21148845440E+02  0.27561529405E+02  0.40860270309E+02  0.00000000000E+00 0.  1.
         11    1    1    2    0    0  0.87960191254E+01 -0.58540603978E+02  0.20341192170E+03  0.21185084885E+03  0.00000000000E+00 0. -1.
</event>
<event>
 7    1  0.2594791E-009  0.2421575E+03  0.7561462E-02  0.1118364E+00
         -2   -1    0    0    0  501 -0.00000000000E+00  0.00000000000E+00  0.75813223969E+02  0.75813223969E+02  0.00000000000E+00 0.  1.
          2   -1    0    0  501    0  0.00000000000E+00 -0.00000000000E+00 -0.15597428396E+04  0.15597428396E+04  0.00000000000E+00 0. -1.
         25    2    1    2    0    0 -0.22630712753E+03 -0.33898060295E+02 -0.13086525434E+04  0.13343846793E+04  0.12508796262E+03 0.  0.
          5    1    3    3  502    0 -0.24312766519E+02 -0.31434412251E+02 -0.82174915762E+02  0.91375172065E+02  0.41800000000E+01 0. -1.
         -5    1    3    3    0  502 -0.20199436101E+03 -0.24636480442E+01 -0.12264776277E+04  0.12430095072E+04  0.41800000000E+01 0. -1.
        -11    1    1    2    0    0  0.94277516179E+02  0.54161935113E+02 -0.57033512739E+02  0.12277860908E+03  0.00000000000E+00 0.  1.
         11    1    1    2    0    0  0.13202961135E+03 -0.20263874818E+02 -0.11824355947E+03  0.17839277522E+03  0.00000000000E+00 0. -1.
</event>
<event>
 7    1  0.2594791E-009  0.1775069E+03  0.7561462E-02  0.1170238E+00
         -1   -1    0    0    0  501 -0.00000000000E+00  0.00000000000E+00  0.33944583932E+02  0.33944583932E+02  0.00000000000E+00 0.  1.
          1   -1    0    0  501    0  0.00000000000E+00 -0.00000000000E+00 -0.10829510255E+04  0.10829510255E+04  0.00000000000E+00 0. -1.
         25    2    1    2    0    0 -0.14568711759E+03  0.54105691305E+02 -0.62991749482E+03  0.66075261037E+03  0.12508317136E+03 0.  0.
          5    1    3    3  502    0 -0.40181467723E+02 -0.40155271898E+02 -0.21189438754E+03  0.21941672698E+03  0.41800000000E+01 0. -1.
         -5    1    3    3    0  502 -0.10550564986E+03  0.94260963204E+02 -0.41802310729E+03  0.44133588339E+03  0.41800000000E+01 0. -1.
        -11    1    1    2    0    0  0.12558268239E+03 -0.53201961536E+02 -0.41327029059E+03  0.43519397045E+03  0.00000000000E+00 0. -1.
         11    1    1    2    0    0  0.20104435196E+02 -0.90372976913E+00 -0.58186561980E+01  0.20949028664E+02  0.00000000000E+00 0.  1.
</event>
<event>
 7    1  0.2594791E-009  0.1265012E+03  0.7561462E-02  0.1232742E+00
         -1   -1    0    0    0  501 -0.00000000000E+00  0.00000000000E+00  0.41748645382E+02  0.41748645382E+02  0.00000000000E+00 0.  1.
          1   -1    0    0  501    0  0.00000000000E+00 -0.00000000000E+00 -0.66512805312E+03  0.66512805312E+03  0.00000000000E+00 0. -1.
         25    2    1    2    0    0 -0.11136009073E+03 -0.54238318790E+02 -0.27245039354E+03  0.32437289168E+03  0.12508273615E+03 0.  0.
          5    1    3    3  502    0 -0.21551002506E+02  0.43722867680E+00  0.91253260082E+01  0.23777738595E+02  0.41800000000E+01 0.  1.
         -5    1    3    3    0  502 -0.89809088225E+02 -0.54675547467E+02 -0.28157571955E+03  0.30059515309E+03  0.41800000000E+01 0.  1.
        -11    1    1    2    0    0  0.55777370599E+02  0.14928807445E+02 -0.27294154488E+03  0.27898220603E+03  0.00000000000E+00 0. -1.
         11    1    1    2    0    0  0.55582720131E+02  0.39309511345E+02 -0.77987469321E+02  0.10352160079E+03  0.00000000000E+00 0.  1.
</event>
<event>
 6    1  0.2899307E-009  0.1062223E+03  0.7561462E-02  0.1267730E+00
         -2   -1    0    0    0  501 -0.00000000000E+00  0.00000000000E+00  0.80321687886E+02  0.80321687886E+02  0.00000000000E+00 0. -1.
          2   -1    0    0  501    0  0.00000000000E+00 -0.00000000000E+00 -0.19947364127E+03  0.19947364127E+03  0.00000000000E+00 0.  1.
          5    1    1    2  502    0 -0.23090323688E+02  0.30187101411E+02 -0.71872681321E+02  0.81409943249E+02  0.41800000000E+01 0.  1.
         -5    1    1    2    0  502 -0.30450304227E+02 -0.66954433683E+02  0.67142503638E+01  0.73977501818E+02  0.41800000000E+01 0.  1.
        -11    1    1    2    0    0  0.85608677753E+01  0.52266118015E+02 -0.69829125111E+00  0.52967189467E+02  0.00000000000E+00 0. -1.
         11    1    1    2    0    0  0.44979760140E+02 -0.15498785743E+02 -0.53295231175E+02  0.71440694620E+02  0.00000000000E+00 0.  1.
</event>
<event>
 7    1  0.2594791E-009  0.9007758E+02  0.7561462E-02  0.1302664E+00
         -1   -1    0    0    0  501 -0.00000000000E+00  0.00000000000E+00  0.15012682031E+03  0.15012682031E+03  0.00000000000E+00 0.  1.
          1   -1    0    0  501    0  0.00000000000E+00 -0.00000000000E+00 -0.92887005952E+02  0.92887005952E+02  0.00000000000E+00 0. -1.
         25    2    1    2    0    0  0.12652709972E+02  0.20952499451E+02  0.74392375862E+02  0.14758227053E+03  0.12508877922E+03 0.  0.
          5    1    3    3  502    0 -0.55222539994E+02  0.16293208527E+02  0.22680288129E+02  0.62023104059E+02  0.41800000000E+01 0. -1.
         -5    1    3    3    0  502  0.67875249967E+02  0.46592909245E+01  0.51712087732E+02  0.85559166473E+02  0.41800000000E+01 0. -1.
        -11    1    1    2    0    0 -0.28556968569E+02 -0.76854582515E+00  0.30190626763E+02  0.41563987548E+02  0.00000000000E+00 0.  1.
         11    1    1    2    0    0  0.15904258597E+02 -0.20183953626E+02 -0.47343188272E+02  0.53867568176E+02  0.00000000000E+00 0. -1.
</event>
<event>
 7    1  0.2594791E-009  0.1045506E+03  0.7561462E-02  0.1271008E+00
         -1   -1    0    0    0  501 -0.00000000000E+00  0.00000000000E+00  0.29243057633E+03  0.29243057633E+03  0.00000000000E+00 0.  1.
          1   -1    0    0  501    0  0.00000000000E+00 -0.00000000000E+00 -0.50461457370E+02  0.50461457370E+02  0.00000000000E+00 0. -1.
         25    2    1    2    0    0 -0.22640709167E+02 -0.50422569339E+02  0.15058798034E+03  0.20340964069E+03  0.12507479719E+03 0.  0.
          5    1    3    3  502    0  0.34134929123E+02 -0.20973135138E+02  0.58316133422E+00  0.40284963211E+02  0.41800000000E+01 0.  1.
         -5    1    3    3    0  502 -0.56775638290E+02 -0.29449434201E+02  0.15000481901E+03  0.16312467748E+03  0.41800000000E+01 0.  1.
        -11    1    1    2    0    0  0.27143136673E+02  0.74988617733E+02  0.75921486884E+02  0.11010955830E+03  0.00000000000E+00 0. -1.
         11    1    1    2    0    0 -0.45024275062E+01 -0.24566048393E+02  0.15459651736E+02  0.29372834710E+02  0.00000000000E+00 0.  1.
</event>
<event>
 7    1  0.2594791E-009  0.8794519E+02  0.7561462E-02  0.1307905E+00
          1   -1    0    0  501    0  0.00000000000E+00  0.00000000000E+00  0.11434793403E+03  0.11434793403E+03  0.00000000000E+00 0. -1.
         -1   -1    0    0    0  501 -0.00000000000E+00 -0.00000000000E+00 -0.10333527158E+03  0.10333527158E+03  0.00000000000E+00 0.  1.
         25    2    1    2    0    0 -0.17947676821E+02  0.82870800705E+01  0.33274251234E+01  0.12667466633E+03  0.12507839355E+03 0.  0.
          5    1    3    3  502    0 -0.14410137063E+02  0.59749930458E+02  0.29922877931E+02  0.68487643145E+02  0.41800000000E+01 0. -1.
         -5    1    3    3    0  502 -0.35375397584E+01 -0.51462850388E+02 -0.26595452808E+02  0.58187023189E+02  0.41800000000E+01 0. -1.
        -11    1    1    2    0    0  0.20305608791E+01 -0.33040390091E+02  0.36878259489E+02  0.49555994368E+02  0.00000000000E+00 0. -1.
         11    1    1    2    0    0  0.15917115942E+02  0.24753310021E+02 -0.29193022153E+02  0.41452544908E+02  0.00000000000E+00 0.  1.
</event>
<event>
 7    1  0.2594791E-009  0.1386538E+03  0.7561462E-02  0.1215152E+00
         -2   -1    0    0    0  501 -0.00000000000E+00  0.00000000000E+00  0.11378907711E+03  0.11378907711E+03  0.00000000000E+00 0.  1.
          2   -1    0    0  501    0  0.00000000000E+00 -0.00000000000E+00 -0.31245918899E+03  0.31245918899E+03  0.00000000000E+00 0. -1.
         25    2    1    2    0    0 -0.81499372278E+02  0.24186697951E+02  0.39894050578E+02  0.15641848710E+03  0.12509222116E+03 0.  0.
          5    1    3    3  502    0 -0.10301821556E+03 -0.17089067461E+02  0.27695123289E+02  0.10811697932E+03  0.41800000000E+01 0.  1.
         -5    1    3    3    0  502  0.21518843281E+02  0.41275765412E+02  0.12198927289E+02  0.48301507777E+02  0.41800000000E+01 0.  1.
        -11    1    1    2    0    0  0.10050237158E+03 -0.32061214763E+02 -0.20110663415E+03  0.22709585308E+03  0.00000000000E+00 0. -1.
         11    1    1    2    0    0 -0.19002999305E+02  0.78745168124E+01 -0.37457528313E+02  0.42733925925E+02  0.00000000000E+00 0.  1.
</event>
<event>
 7    1  0.2594791E-009  0.1307099E+03  0.7561462E-02  0.1226406E+00
          1   -1    0    0  501    0  0.00000000000E+00  0.00000000000E+00  0.13110916910E+04  0.13110916910E+04  0.00000000000E+00 0. -1.
         -1   -1    0    0    0  501 -0.00000000000E+00 -0.00000000000E+00 -0.18937871094E+02  0.18937871094E+02  0.00000000000E+00 0.  1.
         25    2    1    2    0    0  0.10732606382E+03 -0.30835264751E+02  0.61421805473E+03  0.63669533265E+03  0.12508968913E+03 0.  0.
          5    1    3    3  502    0  0.91153689779E+02 -0.20837244672E+01  0.18599651427E+03  0.20718473107E+03  0.41800000000E+01 0.  1.
         -5    1    3    3    0  502  0.16172374039E+02 -0.28751540284E+02  0.42822154046E+03  0.42951060157E+03  0.41800000000E+01 0.  1.
        -11    1    1    2    0    0 -0.11624004130E+03  0.13010875833E+02  0.63875991612E+03  0.64938067459E+03  0.00000000000E+00 0.  1.
         11    1    1    2    0    0  0.89139774871E+01  0.17824388918E+02  0.39175849008E+02  0.43953554810E+02  0.00000000000E+00 0. -1.
</event>
<event>
 7    1  0.2594791E-009  0.9146601E+02  0.7561462E-02  0.1299340E+00
         -4   -1    0    0    0  501 -0.00000000000E+00  0.00000000000E+00  0.81888289105E+02  0.81888289105E+02  0.00000000000E+00 0.  1.
          4   -1    0    0  501    0  0.00000000000E+00 -0.00000000000E+00 -0.21296047032E+03  0.21296047032E+03  0.00000000000E+00 0. -1.
         25    2    1    2    0    0 -0.27091554630E+01  0.78253399586E+02 -0.52268638835E+02  0.15655794209E+03  0.12508974601E+03 0.  0.
          5    1    3    3  502    0  0.18442617517E+02  0.42249993117E+02  0.36119310954E+02  0.58713448912E+02  0.41800000000E+01 0. -1.
         -5    1    3    3    0  502 -0.21151772980E+02  0.36003406469E+02 -0.88387949789E+02  0.97844493179E+02  0.41800000000E+01 0. -1.
        -11    1    1    2    0    0  0.11686678831E+02  0.36810002249E+01  0.10949655261E+02  0.16432381905E+02  0.00000000000E+00 0.  1.
         11    1    1    2    0    0 -0.89775233676E+01 -0.81934399811E+02 -0.89753197638E+02  0.12185843543E+03  0.00000000000E+00 0. -1.
</event>
<event>
 7    1  0.2594791E-009  0.8778090E+02  0.7561462E-02  0.1308316E+00
         -2   -1    0    0    0  501 -0.00000000000E+00  0.00000000000E+00  0.13979038572E+02  0.13979038572E+02  0.00000000000E+00 0.  1.
          2   -1    0    0  501    0  0.00000000000E+00 -0.00000000000E+00 -0.10435268141E+04  0.10435268141E+04  0.00000000000E+00 0. -1.
         25    2    1    2    0    0 -0.23698156802E+02 -0.34436829513E+02 -0.67141411398E+03  0.68424920702E+03  0.12511021938E+03 0.  0.
          5    1    3    3  502    0 -0.23861513270E+02 -0.49364441544E+02 -0.66532516232E+03  0.66759363682E+03  0.41800000000E+01 0.  1.
         -5    1    3    3    0  502  0.16335646770E+00  0.14927612031E+02 -0.60889516545E+01  0.16655570195E+02  0.41800000000E+01 0.  1.
        -11    1    1    2    0    0 -0.29551978256E+02 -0.14349274035E+02 -0.10458117873E+03  0.10961954218E+03  0.00000000000E+00 0.  1.
         11    1    1    2    0    0  0.53250135058E+02  0.48786103548E+02 -0.25355248286E+03  0.26363710351E+03  0.00000000000E+00 0. -1.
</event>
<event>
 7    1  0.2594791E-009  0.1116324E+03  0.7561462E-02  0.1257576E+00
          1   -1    0    0  501    0  0.00000000000E+00  0.00000000000E+00  0.13782852173E+04  0.13782852173E+04  0.00000000000E+00 0. -1.
         -1   -1    0    0    0  501 -0.00000000000E+00 -0.00000000000E+00 -0.10855516989E+02  0.10855516989E+02  0.00000000000E+00 0.  1.
         25    2    1    2    0    0 -0.43320313914E+02  0.25387529408E+02  0.91757982508E+03  0.92742653427E+03  0.12508423093E+03 0.  0.
          5    1    3    3  502    0 -0.82736086730E+02  0.95972601490E+01  0.43200762276E+03  0.43998343830E+03  0.41800000000E+01 0.  1.
         -5    1    3    3    0  502  0.39415772816E+02  0.15790269259E+02  0.48557220232E+03  0.48744309597E+03  0.41800000000E+01 0.  1.
        -11    1    1    2    0    0  0.41875360737E+02 -0.54122887096E+02  0.38096315541E+03  0.38706040682E+03  0.00000000000E+00 0. -1.
         11    1    1    2    0    0  0.14449531770E+01  0.28735357688E+02  0.68886719770E+02  0.74653793151E+02  0.00000000000E+00 0.  1.
</event>
<event>
 7    1  0.3103598E-009  0.1589553E+03  0.7561462E-02  0.1189881E+00
          1   -1    0    0  501    0  0.00000000000E+00  0.00000000000E+00  0.59276956439E+03  0.59276956439E+03  0.00000000000E+00 0. -1.
         -1   -1    0    0    0  501 -0.00000000000E+00 -0.00000000000E+00 -0.57095603590E+02  0.57095603590E+02  0.00000000000E+00 0.  1.
         25    2    1    2    0    0 -0.80587416896E+02  0.11853562938E+03  0.34612805691E+03  0.39496396694E+03  0.12508747421E+03 0.  0.
          5    1    3    3  502    0 -0.47389444774E+02  0.96142470575E+02  0.10364348031E+03  0.14915957071E+03  0.41800000000E+01 0. -1.
         -5    1    3    3    0  502 -0.33197972122E+02  0.22393158807E+02  0.24248457660E+03  0.24580439623E+03  0.41800000000E+01 0. -1.
        -11    1    1    2    0    0 -0.65065105472E+01 -0.70729168010E+02  0.75924138304E+02  0.10396838300E+03  0.00000000000E+00 0. -1.
         11    1    1    2    0    0  0.87093927443E+02 -0.47806461372E+02  0.11362176558E+03  0.15093281804E+03  0.00000000000E+00 0.  1.
</event>
<event>
 7    1  0.2594791E-009  0.1000402E+03  0.7561462E-02  0.1280211E+00
         -3   -1    0    0    0  501 -0.00000000000E+00  0.00000000000E+00  0.42722310383E+02  0.42722310383E+02  0.00000000000E+00 0.  1.
          3   -1    0    0  501    0  0.00000000000E+00 -0.00000000000E+00 -0.33308843222E+03  0.33308843222E+03  0.00000000000E+00 0. -1.
         25    2    1    2    0    0 -0.21353450368E+02  0.47943483576E+02 -0.19353103272E+03  0.23633996033E+03  0.12509104189E+03 0.  0.
          5    1    3    3  502    0  0.54101424584E+01  0.87372294617E+02 -0.11932472350E+03  0.14805083433E+03  0.41800000000E+01 0.  1.
         -5    1    3    3    0  502 -0.26763592827E+02 -0.39428811041E+02 -0.74206309225E+02  0.88289126000E+02  0.41800000000E+01 0.  1.
        -11    1    1    2    0    0 -0.29596784896E+01 -0.38353855027E+02 -0.10521305807E+03  0.11202484314E+03  0.00000000000E+00 0. -1.
         11    1    1    2    0    0  0.24313128858E+02 -0.95896285492E+01  0.83779689629E+01  0.27445939126E+02  0.00000000000E+00 0.  1.
</event>
<event>
 7    1  0.2594791E-009  0.1084001E+03  0.7561462E-02  0.1263562E+00
          2   -1    0    0  501    0  0.00000000000E+00  0.00000000000E+00  0.13658396423E+03  0.13658396423E+03  0.00000000000E+00 0. -1.
         -2   -1    0    0    0  501 -0.00000000000E+00 -0.00000000000E+00 -0.12065088433E+03  0.12065088433E+03  0.00000000000E+00 0.  1.
         25    2    1    2    0    0 -0.36181274083E+01 -0.44239109190E+02  0.60625849091E+02  0.14592336159E+03  0.12509174334E+03 0.  0.
          5    1    3    3  502    0 -0.51757911300E+02 -0.42153576165E+02 -0.18570484458E+01  0.66908343236E+02  0.41800000000E+01 0.  1.
         -5    1    3    3    0  502  0.48139783892E+02 -0.20855330245E+01  0.62482897537E+02  0.79015018356E+02  0.41800000000E+01 0.  1.
        -11    1    1    2    0    0 -0.19667801915E+02 -0.23077383599E+02 -0.89392298465E+01  0.31611673417E+02  0.00000000000E+00 0. -1.
         11    1    1    2    0    0  0.23285929324E+02  0.67316492788E+02 -0.35753539344E+02  0.79699813560E+02  0.00000000000E+00 0.  1.
</event>
<event>
 7    1  0.2911474E-009  0.1418555E+03  0.7561462E-02  0.1210854E+00
         -2   -1    0    0    0  501 -0.00000000000E+00  0.00000000000E+00  0.65545038401E+02  0.65545038401E+02  0.00000000000E+00 0. -1.
          2   -1    0    0  501    0  0.00000000000E+00 -0.00000000000E+00 -0.42236693671E+03  0.42236693671E+03  0.00000000000E+00 0.  1.
         25    2    1    2    0    0  0.59864177198E+02  0.93434843039E+02 -0.10398269004E+03  0.19691037789E+03  0.12508999755E+03 0.  0.
          5    1    3    3  502    0 -0.14480651935E+02  0.67138764147E+02 -0.95186198865E+02  0.11745291732E+03  0.41800000000E+01 0. -1.
         -5    1    3    3    0  502  0.74344829133E+02  0.26296078891E+02 -0.87964911760E+01  0.79457460574E+02  0.41800000000E+01 0. -1.
        -11    1    1    2    0    0 -0.74041922563E+02 -0.47763837525E+02 -0.20604757894E+03  0.22409639725E+03  0.00000000000E+00 0.  1.
         11    1    1    2    0    0  0.14177745365E+02 -0.45671005514E+02 -0.46791629323E+02  0.66905199969E+02  0.00000000000E+00 0. -1.
</event>
<event>
 7    1  0.2594791E-009  0.7752408E+02  0.7561462E-02  0.1336228E+00
          2   -1    0    0  501    0  0.00000000000E+00  0.00000000000E+00  0.50612127929E+03  0.50612127929E+03  0.00000000000E+00 0.  1.
         -2   -1    0    0    0  501 -0.00000000000E+00 -0.00000000000E+00 -0.26855945754E+02  0.26855945754E+02  0.00000000000E+00 0. -1.
         25    2    1    2    0    0  0.18940473879E+02  0.33020217702E+02  0.30958595775E+03  0.33607358539E+03  0.12511160310E+03 0.  0.
          5    1    3    3  502    0  0.22070685819E+02 -0.49370646592E+01 -0.11081877256E+01  0.23025860679E+02  0.41800000000E+01 0.  1.
         -5    1    3    3    0  502 -0.31302119403E+01  0.37957282361E+02  0.31069414548E+03  0.31304772471E+03  0.41800000000E+01 0.  1.
        -11    1    1    2    0    0 -0.50375832451E+02 -0.33163586288E+01  0.12456730780E+03  0.13440884235E+03  0.00000000000E+00 0.  1.
         11    1    1    2    0    0  0.31435358572E+02 -0.29703859073E+02  0.45112067983E+02  0.62494797304E+02  0.00000000000E+00 0. -1.
</event>
<event>
 7    1  0.2594791E-009  0.8173689E+02  0.7561462E-02  0.1324193E+00
          1   -1    0    0  501    0  0.00000000000E+00  0.00000000000E+00  0.19382688652E+02  0.19382688652E+02  0.00000000000E+00 0. -1.
         -1   -1    0    0    0  501 -0.00000000000E+00 -0.00000000000E+00 -0.60111746943E+03  0.60111746943E+03  0.00000000000E+00 0.  1.
         25    2    1    2    0    0  0.42340276340E+01  0.44243464976E+00 -0.32739011975E+03  0.35049915683E+03  0.12508895112E+03 0.  0.
          5    1    3    3  502    0  0.39411432108E+02 -0.24221922942E+02 -0.44466646611E+02  0.64301769747E+02  0.41800000000E+01 0. -1.
         -5    1    3    3    0  502 -0.35177404474E+02  0.24664357592E+02 -0.28292347314E+03  0.28619738708E+03  0.41800000000E+01 0. -1.
        -11    1    1    2    0    0 -0.32426784133E+01 -0.37073822794E+02 -0.20601594556E+03  0.20935031197E+03  0.00000000000E+00 0.  1.
         11    1    1    2    0    0 -0.99134922074E+00  0.36631388145E+02 -0.48328715477E+02  0.60650689281E+02  0.00000000000E+00 0. -1.
</event>
<event>
 7    1  0.2594791E-009  0.1466264E+03  0.7561462E-02  0.1204681E+00
         -2   -1    0    0    0  501 -0.00000000000E+00  0.00000000000E+00  0.42385219370E+02  0.42385219370E+02  0.00000000000E+00 0.  1.
          2   -1    0    0  501    0  0.00000000000E+00 -0.00000000000E+00 -0.78744135794E+03  0.78744135794E+03  0.00000000000E+00 0. -1.
         25    2    1    2    0    0 -0.13505264035E+03 -0.22952877472E+02 -0.27384126414E+03  0.33075885517E+03  0.12508529921E+03 0.  0.
          5    1    3    3  502    0 -0.66328479959E+02 -0.22036647669E+02 -0.27920039800E+02  0.75379586869E+02  0.41800000000E+01 0. -1.
         -5    1    3    3    0  502 -0.68724160390E+02 -0.91622980317E+00 -0.24592122434E+03  0.25537926830E+03  0.41800000000E+01 0. -1.
        -11    1    1    2    0    0  0.11810740795E+03 -0.87487103049E+01 -0.42081291501E+03  0.43716062172E+03  0.00000000000E+00 0. -1.
         11    1    1    2    0    0  0.16945232395E+02  0.31701587777E+02 -0.50401959430E+02  0.61907100423E+02  0.00000000000E+00 0.  1.
</event>
<event>
 7    1  0.2594791E-009  0.1742586E+03  0.7561462E-02  0.1173478E+00
          1   -1    0    0  501    0  0.00000000000E+00  0.00000000000E+00  0.67674787222E+02  0.67674787222E+02  0.00000000000E+00 0. -1.
         -1   -1    0    0    0  501 -0.00000000000E+00 -0.00000000000E+00 -0.55253476353E+03  0.55253476353E+03  0.00000000000E+00 0.  1.
         25    2    1    2    0    0 -0.99728545686E+02 -0.11322386910E+03 -0.33808894989E+03  0.39078998200E+03  0.12508894689E+03 0.  0.
          5    1    3    3  502    0 -0.18011315781E+02 -0.88745046436E+02 -0.25893198817E+03  0.27434164405E+03  0.41800000000E+01 0. -1.
         -5    1    3    3    0  502 -0.81717229905E+02 -0.24478822663E+02 -0.79156961728E+02  0.11644833795E+03  0.41800000000E+01 0. -1.
        -11    1    1    2    0    0  0.26955087144E+00  0.59342230512E+02 -0.74255719106E+02  0.95055167139E+02  0.00000000000E+00 0.  1.
         11    1    1    2    0    0  0.99458994815E+02  0.53881638586E+02 -0.72515307308E+02  0.13436440161E+03  0.00000000000E+00 0. -1.
</event>
<event>
 7    1  0.2594791E-009  0.2551413E+03  0.7561462E-02  0.1110098E+00
          2   -1    0    0  501    0  0.00000000000E+00  0.00000000000E+00  0.30818383109E+03  0.30818383109E+03  0.00000000000E+00 0.  1.
         -2   -1    0    0    0  501 -0.00000000000E+00 -0.00000000000E+00 -0.21617606884E+03  0.21617606884E+03  0.00000000000E+00 0. -1.
         25    2    1    2    0    0  0.77411726208E+02 -0.21834129858E+03  0.15620901223E+02  0.26373752471E+03  0.12509185170E+03 0.  0.
          5    1    3    3  502    0  0.10252434334E+03 -0.11088821071E+03 -0.60639676893E+01  0.15120079482E+03  0.41800000000E+01 0. -1.
         -5    1    3    3    0  502 -0.25112617131E+02 -0.10745308788E+03  0.21684868912E+02  0.11253672989E+03  0.41800000000E+01 0. -1.
        -11    1    1    2    0    0 -0.91232434212E+02  0.12687455839E+03  0.55096729687E+02  0.16569900495E+03  0.00000000000E+00 0.  1.
         11    1    1    2    0    0  0.13820708004E+02  0.91466740193E+02  0.21290131345E+02  0.94923370273E+02  0.00000000000E+00 0. -1.
</event>
<event>
 7    1  0.2594791E-009  0.1497053E+03  0.7561462E-02  0.1200836E+00
         -2   -1    0    0    0  501 -0.00000000000E+00  0.00000000000E+00  0.34861254403E+02  0.34861254403E+02  0.00000000000E+00 0.  1.
          2   -1    0    0  501    0  0.00000000000E+00 -0.00000000000E+00 -0.13146930276E+04  0.13146930276E+04  0.00000000000E+00 0. -1.
         25    2    1    2    0    0 -0.12837756719E+03 -0.53448213858E+01 -0.10843284060E+04  0.10990557820E+04  0.12508458365E+03 0.  0.
          5    1    3    3  502    0 -0.10894769274E+03  0.30327557498E+02 -0.47238423641E+03  0.48575065590E+03  0.41800000000E+01 0. -1.
         -5    1    3    3    0  502 -0.19429874447E+02 -0.35672378884E+02 -0.61194416954E+03  0.61330512608E+03  0.41800000000E+01 0. -1.
        -11    1    1    2    0    0  0.85526275160E+02  0.35924174689E+02 -0.16597427978E+03  0.19013876937E+03  0.00000000000E+00 0.  1.
         11    1    1    2    0    0  0.42851292030E+02 -0.30579353303E+02 -0.29529087449E+02  0.60359730638E+02  0.00000000000E+00 0. -1.
</event>
<event>
 7    1  0.2594791E-009  0.2050632E+03  0.7561462E-02  0.1145536E+00
         -1   -1    0    0    0  501 -0.00000000000E+00  0.00000000000E+00  0.31002297759E+03  0.31002297759E+03  0.00000000000E+00 0.  1.
          1   -1    0    0  501    0  0.00000000000E+00 -0.00000000000E+00 -0.20840556615E+03  0.20840556615E+03  0.00000000000E+00 0. -1.
         25    2    1    2    0    0 -0.62402247045E+02 -0.16779071738E+03 -0.94077205226E+02  0.23778775901E+03  0.12507890517E+03 0.  0.
          5    1    3    3  502    0 -0.43310107484E+02 -0.18447414296E+03 -0.95129141634E+02  0.21206956599E+03  0.41800000000E+01 0. -1.
         -5    1    3    3    0  502 -0.19092139561E+02  0.16683425582E+02  0.10519364085E+01  0.25718193024E+02  0.41800000000E+01 0. -1.
        -11    1    1    2    0    0 -0.14770673260E+02  0.65939304946E+01  0.41705358065E+02  0.44732422238E+02  0.00000000000E+00 0.  1.
         11    1    1    2    0    0  0.77172920306E+02  0.16119678688E+03  0.15398925859E+03  0.23590836249E+03  0.00000000000E+00 0. -1.
</event>
<event>
 7    1  0.2594791E-009  0.7444538E+02  0.7561462E-02  0.1345597E+00
          2   -1    0    0  501    0  0.00000000000E+00  0.00000000000E+00  0.80770212687E+02  0.80770212687E+02  0.00000000000E+00 0.  1.
         -2   -1    0    0    0  501 -0.00000000000E+00 -0.00000000000E+00 -0.20281351848E+03  0.20281351848E+03  0.00000000000E+00 0. -1.
         25    2    1    2    0    0  0.51511190729E+02 -0.44622683004E+02 -0.63564915934E+02  0.15598928986E+03  0.12509026103E+03 0.  0.
          5    1    3    3  502    0  0.10165849745E+02 -0.35129195566E+02  0.33629676108E+02  0.49858122682E+02  0.41800000000E+01 0. -1.
         -5    1    3    3    0  502  0.41345340984E+02 -0.94934874374E+01 -0.97194592042E+02  0.10613116718E+03  0.41800000000E+01 0. -1.
        -11    1    1    2    0    0 -0.42839603210E+02  0.29471224075E+02  0.13342372538E+02  0.53682432477E+02  0.00000000000E+00 0.  1.
         11    1    1    2    0    0 -0.86715875193E+01  0.15151458929E+02 -0.71820762400E+02  0.73912008831E+02  0.00000000000E+00 0. -1.
</event>
<event>
 7    1  0.2594791E-009  0.1125590E+03  0.7561462E-02  0.1255903E+00
          2   -1    0    0  501    0  0.00000000000E+00  0.00000000000E+00  0.28662976843E+03  0.28662976843E+03  0.00000000000E+00 0. -1.
         -2   -1    0    0    0  501 -0.00000000000E+00 -0.00000000000E+00 -0.59668710958E+02  0.59668710958E+02  0.00000000000E+00 0.  1.
         25    2    1    2    0    0  0.21085927994E+02 -0.71162088034E+02  0.10637864269E+03  0.18019680262E+03  0.12508322398E+03 0.  0.
          5    1    3    3  502    0  0.50783874157E+02 -0.74321797668E+01 -0.13196375921E+01  0.51511678422E+02  0.41800000000E+01 0. -1.
         -5    1    3    3    0  502 -0.29697946163E+02 -0.63729908267E+02  0.10769828028E+03  0.12868512420E+03  0.41800000000E+01 0. -1.
        -11    1    1    2    0    0  0.26566432606E+02  0.19850846297E+02  0.76439748872E+02  0.83323866015E+02  0.00000000000E+00 0.  1.
         11    1    1    2    0    0 -0.47652360600E+02  0.51311241737E+02  0.44142665912E+02  0.82777810754E+02  0.00000000000E+00 0. -1.
</event>
<event>
 7    1  0.2594791E-009  0.1022778E+03  0.7561462E-02  0.1275578E+00
          1   -1    0    0  501    0  0.00000000000E+00  0.00000000000E+00  0.16312713518E+03  0.16312713518E+03  0.00000000000E+00 0. -1.
         -1   -1    0    0    0  501 -0.00000000000E+00 -0.00000000000E+00 -0.15900039118E+03  0.15900039118E+03  0.00000000000E+00 0.  1.
         25    2    1    2    0    0  0.85744214432E+02 -0.20046791069E+01 -0.76682076709E+02  0.16995430147E+03  0.12509290408E+03 0.  0.
          5    1    3    3  502    0 -0.28451078333E+01  0.15830250408E+02  0.27404710648E+02  0.32049680688E+02  0.41800000000E+01 0.  1.
         -5    1    3    3    0  502  0.88589322265E+02 -0.17834929515E+02 -0.10408678736E+03  0.13790462078E+03  0.41800000000E+01 0.  1.
        -11    1    1    2    0    0 -0.46025801780E+02 -0.22054504214E+02  0.91271797628E+02  0.10457206428E+03  0.00000000000E+00 0. -1.
         11    1    1    2    0    0 -0.39718412652E+02  0.24059183321E+02 -0.10462976914E+02  0.47601160612E+02  0.00000000000E+00 0.  1.
</event>
<event>
 7    1  0.2594791E-009  0.1927691E+03  0.7561462E-02  0.1155987E+00
          2   -1    0    0  501    0  0.00000000000E+00  0.00000000000E+00  0.22932206667E+03  0.22932206667E+03  0.00000000000E+00 0.  1.
         -2   -1    0    0    0  501 -0.00000000000E+00 -0.00000000000E+00 -0.45930212538E+03  0.45930212538E+03  0.00000000000E+00 0. -1.
         25    2    1    2    0    0  0.10428563057E+03  0.13858270857E+03  0.15008450035E+03  0.26125357218E+03  0.12508961538E+03 0.  0.
          5    1    3    3  502    0  0.12646862981E+03  0.13315421285E+03  0.15133897110E+03  0.23800276321E+03  0.41800000000E+01 0. -1.
         -5    1    3    3    0  502 -0.22182999239E+02  0.54284957212E+01 -0.12544707432E+01  0.23250808972E+02  0.41800000000E+01 0. -1.
        -11    1    1    2    0    0 -0.43753248393E+02 -0.26238966360E+02 -0.42201114021E+02  0.66210000190E+02  0.00000000000E+00 0.  1.
         11    1    1    2    0    0 -0.60532382174E+02 -0.11234374221E+03 -0.33786344505E+03  0.36116061968E+03  0.00000000000E+00 0. -1.
</event>
<event>
 7    1  0.2594791E-009  0.1006556E+03  0.7561462E-02  0.1278923E+00
          1   -1    0    0  501    0  0.00000000000E+00  0.00000000000E+00  0.13402309310E+03  0.13402309310E+03  0.00000000000E+00 0. -1.
         -1   -1    0    0    0  501 -0.00000000000E+00 -0.00000000000E+00 -0.13260783660E+03  0.13260783660E+03  0.00000000000E+00 0.  1.
         25    2    1    2    0    0 -0.57573782915E+02  0.50435180293E+02 -0.12052581508E+02  0.14714062596E+03  0.12508657481E+03 0.  0.
          5    1    3    3  502    0 -0.44183280565E+01 -0.34629248102E+01 -0.58045019382E+02  0.58465461138E+02  0.41800000000E+01 0. -1.
         -5    1    3    3    0  502 -0.53155454859E+02  0.53898105103E+02  0.45992437874E+02  0.88675164824E+02  0.41800000000E+01 0. -1.
        -11    1    1    2    0    0  0.82324110110E+02 -0.41409756931E+02  0.73510243978E+01  0.92444927574E+02  0.00000000000E+00 0.  1.
         11    1    1    2    0    0 -0.24750327195E+02 -0.90254233620E+01  0.61168136146E+01  0.27045376165E+02  0.00000000000E+00 0. -1.
</event>
<event>
 7    1  0.2594791E-009  0.1877635E+03  0.7561462E-02  0.1160494E+00
          2   -1    0    0  501    0  0.00000000000E+00  0.00000000000E+00  0.25367944135E+04  0.25367944135E+04  0.00000000000E+00 0.  1.
         -2   -1    0    0    0  501 -0.00000000000E+00 -0.00000000000E+00 -0.17135822223E+02  0.17135822223E+02  0.00000000000E+00 0. -1.
         25    2    1    2    0    0  0.15551288459E+03 -0.61790715171E+02  0.16491318956E+04  0.16623135075E+04  0.12509131941E+03 0.  0.
          5    1    3    3  502    0  0.67779557722E+02  0.11866748714E+02  0.27883687940E+03  0.28723225077E+03  0.41800000000E+01 0.  1.
         -5    1    3    3    0  502  0.87733326869E+02 -0.73657463886E+02  0.13702950162E+04  0.13750812567E+04  0.41800000000E+01 0.  1.
        -11    1    1    2    0    0 -0.92898082535E+02  0.84276730798E+02  0.60677391482E+03  0.61960245706E+03  0.00000000000E+00 0.  1.
         11    1    1    2    0    0 -0.62614802055E+02 -0.22486015627E+02  0.26375278086E+03  0.27201427121E+03  0.00000000000E+00 0. -1.
</event>
<event>
 7    1  0.2594791E-009  0.1194531E+03  0.7561462E-02  0.1244002E+00
          2   -1    0    0  501    0  0.00000000000E+00  0.00000000000E+00  0.27437110893E+03  0.27437110893E+03  0.00000000000E+00 0. -1.
         -2   -1    0    0    0  501 -0.00000000000E+00 -0.00000000000E+00 -0.73518627144E+02  0.73518627144E+02  0.00000000000E+00 0.  1.
         25    2    1    2    0    0  0.28275444210E+02 -0.51747151758E+02  0.22394207920E+02  0.14009973496E+03  0.12509662956E+03 0.  0.
          5    1    3    3  502    0  0.57076485412E+02  0.16390529784E+02  0.28017914262E+02  0.65794001043E+02  0.41800000000E+01 0. -1.
         -5    1    3    3    0  502 -0.28801041203E+02 -0.68137681542E+02 -0.56237063425E+01  0.74305733920E+02  0.41800000000E+01 0. -1.
        -11    1    1    2    0    0 -0.28563889934E+02 -0.19147663824E+02  0.44612680931E+02  0.56327791878E+02  0.00000000000E+00 0. -1.
         11    1    1    2    0    0  0.28844572384E+00  0.70894815582E+02  0.13384559294E+03  0.15146220923E+03  0.00000000000E+00 0.  1.
</event>
<event>
 7    1  0.2594791E-009  0.1620095E+03  0.7561462E-02  0.1186447E+00
          1   -1    0    0  501    0  0.00000000000E+00  0.00000000000E+00  0.22483220567E+04  0.22483220567E+04  0.00000000000E+00 0. -1.
         -1   -1    0    0    0  501 -0.00000000000E+00 -0.00000000000E+00 -0.13454720377E+02  0.13454720377E+02  0.00000000000E+00 0.  1.
         25    2    1    2    0    0  0.83418366162E+02 -0.91332708681E+02  0.15375155392E+04  0.15475471464E+04  0.12509136477E+03 0.  0.
          5    1    3    3  502    0  0.99869692360E+01 -0.95533800547E+02  0.10639884145E+04  0.10683235770E+04  0.41800000000E+01 0. -1.
         -5    1    3    3    0  502  0.73431396926E+02  0.42010918668E+01  0.47352712469E+03  0.47922356938E+03  0.41800000000E+01 0. -1.
        -11    1    1    2    0    0  0.18106310762E+02  0.31573863679E+02  0.17823637587E+03  0.18191468616E+03  0.00000000000E+00 0. -1.
         11    1    1    2    0    0 -0.10152467692E+03  0.59758845001E+02  0.51911542122E+03  0.53231494449E+03  0.00000000000E+00 0.  1.
</event>
<event>
 7    1  0.2594791E-009  0.9207001E+02  0.7561462E-02  0.1297915E+00
         -1   -1    0    0    0  501 -0.00000000000E+00  0.00000000000E+00  0.36102311388E+03  0.36102311388E+03  0.00000000000E+00 0.  1.
          1   -1    0    0  501    0  0.00000000000E+00 -0.00000000000E+00 -0.11913714273E+03  0.11913714273E+03  0.00000000000E+00 0. -1.
         25    2    1    2    0    0 -0.39636447029E+02 -0.19848531670E+02  0.32373852629E+03  0.34988482120E+03  0.12509093715E+03 0.  0.
          5    1    3    3  502    0  0.82063166982E+00 -0.57303112831E+02  0.71859357811E+02  0.92008477226E+02  0.41800000000E+01 0. -1.
         -5    1    3    3    0  502 -0.40457078699E+02  0.37454581162E+02  0.25187916848E+03  0.25787634397E+03  0.41800000000E+01 0. -1.
        -11    1    1    2    0    0  0.27494081853E+02  0.39596268301E+02 -0.32382337807E+01  0.48314336985E+02  0.00000000000E+00 0.  1.
         11    1    1    2    0    0  0.12142365176E+02 -0.19747736632E+02 -0.78614321352E+02  0.81961098429E+02  0.00000000000E+00 0. -1.
</event>
<event>
 7    1  0.2594791E-009  0.3038011E+03  0.7561462E-02  0.1083356E+00
          1   -1    0    0  501    0  0.00000000000E+00  0.00000000000E+00  0.14508034110E+04  0.14508034110E+04  0.00000000000E+00 0. -1.
         -1   -1    0    0    0  501 -0.00000000000E+00 -0.00000000000E+00 -0.79344385025E+02  0.79344385025E+02  0.00000000000E+00 0.  1.
         25    2    1    2    0    0  0.24553072728E+03 -0.16927580928E+03  0.42713675758E+03  0.53574645421E+03  0.12505525130E+03 0.  0.
          5    1    3    3  502    0  0.24043891821E+03 -0.14096362636E+03  0.42271028658E+03  0.50634284445E+03  0.41800000000E+01 0. -1.
         -5    1    3    3    0  502  0.50918090687E+01 -0.28312182914E+02  0.44264709922E+01  0.29403609751E+02  0.41800000000E+01 0. -1.
        -11    1    1    2    0    0 -0.19794022237E+03  0.12097681132E+03  0.82672726777E+03  0.85865807851E+03  0.00000000000E+00 0. -1.
         11    1    1    2    0    0 -0.47590504904E+02  0.48298997958E+02  0.11759500060E+03  0.13574326329E+03  0.00000000000E+00 0.  1.
</event>
<event>
 7    1  0.2594791E-009  0.9566241E+02  0.7561462E-02  0.1289691E+00
         -2   -1    0    0    0  501 -0.00000000000E+00  0.00000000000E+00  0.33964562252E+02  0.33964562252E+02  0.00000000000E+00 0. -1.
          2   -1    0    0  501    0  0.00000000000E+00 -0.00000000000E+00 -0.39792724081E+03  0.39792724081E+03  0.00000000000E+00 0.  1.
         25    2    1    2    0    0 -0.29727606716E+02 -0.40036151092E+02 -0.20836269991E+03  0.24809090641E+03  0.12508980429E+03 0.  0.
          5    1    3    3  502    0  0.32556523207E+02  0.19982569098E+02 -0.26547598153E+02  0.46706291212E+02  0.41800000000E+01 0.  1.
         -5    1    3    3    0  502 -0.62284129922E+02 -0.60018720191E+02 -0.18181510176E+03  0.20138461520E+03  0.41800000000E+01 0.  1.
        -11    1    1    2    0    0 -0.66957018496E+01  0.26676360884E+02 -0.13884230603E+03  0.14154026493E+03  0.00000000000E+00 0.  1.
         11    1    1    2    0    0  0.36423308565E+02  0.13359790208E+02 -0.16757672614E+02  0.42260631712E+02  0.00000000000E+00 0. -1.
</event>
<event>
 7    1  0.2594791E-009  0.1394506E+03  0.7561462E-02  0.1214070E+00
         -4   -1    0    0    0  501 -0.00000000000E+00  0.00000000000E+00  0.82609978661E+02  0.82609978661E+02  0.00000000000E+00 0.  1.
          4   -1    0    0  501    0  0.00000000000E+00 -0.00000000000E+00 -0.27570687338E+03  0.27570687338E+03  0.00000000000E+00 0. -1.
         25    2    1    2    0    0 -0.98601393352E+01 -0.97239444999E+02 -0.61618265749E+02  0.17028609598E+03  0.12509121391E+03 0.  0.
          5    1    3    3  502    0  0.33187527475E+02  0.50874207350E+01 -0.47474798344E+02  0.58297707566E+02  0.41800000000E+01 0. -1.
         -5    1    3    3    0  502 -0.43047666810E+02 -0.10232686573E+03 -0.14143467405E+02  0.11198838841E+03  0.41800000000E+01 0. -1.
        -11    1    1    2    0    0 -0.13205852525E+02 -0.14655411449E+02 -0.14228036277E+02  0.24323088660E+02  0.00000000000E+00 0.  1.
         11    1    1    2    0    0  0.23065991860E+02  0.11189485645E+03 -0.11725059269E+03  0.16370766740E+03  0.00000000000E+00 0. -1.
</event>
<event>
 7    1  0.2594791E-009  0.1238223E+03  0.7561462E-02  0.1236921E+00
          1   -1    0    0  501    0  0.00000000000E+00  0.00000000000E+00  0.13573822651E+03  0.13573822651E+03  0.00000000000E+00 0. -1.
         -1   -1    0    0    0  501 -0.00000000000E+00 -0.00000000000E+00 -0.20849348953E+03  0.20849348953E+03  0.00000000000E+00 0.  1.
         25    2    1    2    0    0 -0.80300662409E+02 -0.48862562040E+02 -0.12659531965E+03  0.20126046234E+03  0.12507458731E+03 0.  0.
          5    1    3    3  502    0  0.24022917732E+02 -0.32394349976E+01 -0.69683412061E+02  0.73897529268E+02  0.41800000000E+01 0.  1.
         -5    1    3    3    0  502 -0.10432358014E+03 -0.45623127042E+02 -0.56911907585E+02  0.12736293307E+03  0.41800000000E+01 0.  1.
        -11    1    1    2    0    0  0.32022489065E+01  0.29420592991E+02  0.56099731565E+02  0.63427167457E+02  0.00000000000E+00 0. -1.
         11    1    1    2    0    0  0.77098413502E+02  0.19441969049E+02 -0.22596749377E+01  0.79544086241E+02  0.00000000000E+00 0.  1.
</event>
<event>
 7    1  0.4022795E-009  0.1727361E+03  0.7561462E-02  0.1175024E+00
         -2   -1    0    0    0  501 -0.00000000000E+00  0.00000000000E+00  0.87820006401E+02  0.87820006401E+02  0.00000000000E+00 0.  1.
          2   -1    0    0  501    0  0.00000000000E+00 -0.00000000000E+00 -0.42730987412E+03  0.42730987412E+03  0.00000000000E+00 0. -1.
         25    2    1    2    0    0  0.30801816470E+02 -0.14941729351E+03 -0.11369551698E+03  0.22770298509E+03  0.12509076440E+03 0.  0.
          5    1    3    3  502    0  0.18889985036E+02 -0.16649727282E+03 -0.11929889123E+03  0.20573738416E+03  0.41800000000E+01 0.  1.
         -5    1    3    3    0  502  0.11911831434E+02  0.17079979308E+02  0.56033742538E+01  0.21965600932E+02  0.41800000000E+01 0.  1.
        -11    1    1    2    0    0 -0.26891972658E+02  0.47197088993E+02 -0.20503912094E+02  0.58061638058E+02  0.00000000000E+00 0.  1.
         11    1    1    2    0    0 -0.39098438122E+01  0.10222020452E+03 -0.20529043865E+03  0.22936525737E+03  0.00000000000E+00 0. -1.
</event>
<event>
 7    1  0.2594791E-009  0.1675454E+03  0.7561462E-02  0.1180432E+00
         -1   -1    0    0    0  501 -0.00000000000E+00  0.00000000000E+00  0.34123143571E+03  0.34123143571E+03  0.00000000000E+00 0.  1.
          1   -1    0    0  501    0  0.00000000000E+00 -0.00000000000E+00 -0.10700311629E+03  0.10700311629E+03  0.00000000000E+00 0. -1.
         25    2    1    2    0    0  0.14461108460E+03 -0.15096602673E+02  0.18988647157E+03  0.26989796794E+03  0.12509103809E+03 0.  0.
          5    1    3    3  502    0 -0.19533565400E+02  0.14308141349E+01  0.48916375964E+02  0.52857276167E+02  0.41800000000E+01 0.  1.
         -5    1    3    3    0  502  0.16414465000E+03 -0.16527416808E+02  0.14097009561E+03  0.21704069178E+03  0.41800000000E+01 0.  1.
        -11    1    1    2    0    0 -0.10813335902E+03  0.27380011772E+02  0.70355300791E+02  0.13188008465E+03  0.00000000000E+00 0.  1.
         11    1    1    2    0    0 -0.36477725582E+02 -0.12283409099E+02 -0.26013452939E+02  0.46456499400E+02  0.00000000000E+00 0. -1.
</event>
<event>
 7    1  0.2594791E-009  0.1775927E+03  0.7561462E-02  0.1170153E+00
          1   -1    0    0  501    0  0.00000000000E+00  0.00000000000E+00  0.42881527046E+02  0.42881527046E+02  0.00000000000E+00 0. -1.
         -1   -1    0    0    0  501 -0.00000000000E+00 -0.00000000000E+00 -0.96830726476E+03  0.96830726476E+03  0.00000000000E+00 0.  1.
         25    2    1    2    0    0  0.10854136440E+03  0.92838777065E+02 -0.72376205976E+03  0.74825050036E+03  0.12508807228E+03 0.  0.
          5    1    3    3  502    0 -0.57993019703E+01  0.73240886764E+02 -0.29723129956E+03  0.30620544939E+03  0.41800000000E+01 0.  1.
         -5    1    3    3    0  502  0.11434066637E+03  0.19597890301E+02 -0.42653076020E+03  0.44204505097E+03  0.41800000000E+01 0.  1.
        -11    1    1    2    0    0 -0.65580649561E+02 -0.26722777496E+01 -0.55756709987E+02  0.86120690741E+02  0.00000000000E+00 0. -1.
         11    1    1    2    0    0 -0.42960714838E+02 -0.90166499315E+02 -0.14590696797E+03  0.17681760071E+03  0.00000000000E+00 0.  1.
</event>
<event>
 7    1  0.2594791E-009  0.1127498E+03  0.7561462E-02  0.1255561E+00
         -3   -1    0    0    0  501 -0.00000000000E+00  0.00000000000E+00  0.22471198589E+02  0.22471198589E+02  0.00000000000E+00 0.  1.
          3   -1    0    0  501    0  0.00000000000E+00 -0.00000000000E+00 -0.10813988576E+04  0.10813988576E+04  0.00000000000E+00 0. -1.
         25    2    1    2    0    0  0.54178186895E+02  0.29551492320E+01 -0.90890476220E+03  0.91907609488E+03  0.12509593353E+03 0.  0.
          5    1    3    3  502    0 -0.27851475976E+02 -0.23738732327E+02 -0.12180682146E+03  0.12725410124E+03  0.41800000000E+01 0.  1.
         -5    1    3    3    0  502  0.82029662870E+02  0.26693881559E+02 -0.78709794074E+03  0.79182199364E+03  0.41800000000E+01 0.  1.
        -11    1    1    2    0    0 -0.19886047511E+02 -0.44316122683E+02 -0.42276193084E+02  0.64394488250E+02  0.00000000000E+00 0. -1.
         11    1    1    2    0    0 -0.34292139384E+02  0.41360973451E+02 -0.10774670369E+03  0.12039947303E+03  0.00000000000E+00 0.  1.
</event>
<event>
 7    1  0.2594791E-009  0.3265443E+03  0.7561462E-02  0.1072676E+00
         -2   -1    0    0    0  501 -0.00000000000E+00  0.00000000000E+00  0.12762123154E+03  0.12762123154E+03  0.00000000000E+00 0.  1.
          2   -1    0    0  501    0  0.00000000000E+00 -0.00000000000E+00 -0.10906221552E+04  0.10906221552E+04  0.00000000000E+00 0. -1.
         25    2    1    2    0    0 -0.53920612293E+02 -0.31164995454E+03 -0.75832382789E+03  0.83110671599E+03  0.12510083458E+03 0.  0.
          5    1    3    3  502    0  0.12373234179E+02 -0.23399335904E+03 -0.46958477341E+03  0.52481741665E+03  0.41800000000E+01 0.  1.
         -5    1    3    3    0  502 -0.66293846473E+02 -0.77656595498E+02 -0.28873905448E+03  0.30628929933E+03  0.41800000000E+01 0.  1.
        -11    1    1    2    0    0  0.52039490362E+02  0.27740301514E+03 -0.14261380610E+03  0.31622656286E+03  0.00000000000E+00 0. -1.
         11    1    1    2    0    0  0.18811219313E+01  0.34246939400E+02 -0.62063289686E+02  0.70910107916E+02  0.00000000000E+00 0.  1.
</event>
<event>
 7    1  0.2594791E-009  0.1040221E+03  0.7561462E-02  0.1272058E+00
         -1   -1    0    0    0  501 -0.00000000000E+00  0.00000000000E+00  0.20814724441E+03  0.20814724441E+03  0.00000000000E+00 0.  1.
          1   -1    0    0  501    0  0.00000000000E+00 -0.00000000000E+00 -0.20204973124E+03  0.20204973124E+03  0.00000000000E+00 0. -1.
         25    2    1    2    0    0  0.19127990509E+02  0.41959122905E+02 -0.16412046844E+03  0.21145177911E+03  0.12509947526E+03 0.  0.
          5    1    3    3  502    0  0.70190049908E+02  0.13998554254E+02 -0.66915938030E+02  0.98070473587E+02  0.41800000000E+01 0.  1.
         -5    1    3    3    0  502 -0.51062059399E+02  0.27960568652E+02 -0.97204530412E+02  0.11338130552E+03  0.41800000000E+01 0.  1.
        -11    1    1    2    0    0 -0.22023324027E+01 -0.55968882363E+02  0.16748664150E+03  0.17660447656E+03  0.00000000000E+00 0. -1.
         11    1    1    2    0    0 -0.16925658106E+02  0.14009759458E+02  0.27313401118E+01  0.22140719979E+02  0.00000000000E+00 0.  1.
</event>
<event>
 7    1  0.2594791E-009  0.1164817E+03  0.7561462E-02  0.1249017E+00
         -2   -1    0    0    0  501 -0.00000000000E+00  0.00000000000E+00  0.13400100778E+02  0.13400100778E+02  0.00000000000E+00 0.  1.
          2   -1    0    0  501    0  0.00000000000E+00 -0.00000000000E+00 -0.13136408096E+04  0.13136408096E+04  0.00000000000E+00 0. -1.
         25    2    1    2    0    0 -0.48709924956E+02  0.33531202759E+02 -0.95348931507E+03  0.96347633024E+03  0.12509103337E+03 0.  0.
          5    1    3    3  502    0 -0.40875232683E+02  0.72820891963E+02 -0.81413013677E+03  0.81841249926E+03  0.41800000000E+01 0.  1.
         -5    1    3    3    0  502 -0.78346922725E+01 -0.39289689204E+02 -0.13935917830E+03  0.14506383098E+03  0.41800000000E+01 0.  1.
        -11    1    1    2    0    0  0.75493816932E+02 -0.16335373975E+02 -0.23496775241E+03  0.24733783680E+03  0.00000000000E+00 0. -1.
         11    1    1    2    0    0 -0.26783891976E+02 -0.17195828784E+02 -0.11178364137E+03  0.11622674337E+03  0.00000000000E+00 0.  1.
</event>
<event>
 7    1  0.2594791E-009  0.1164884E+03  0.7561462E-02  0.1249005E+00
         -2   -1    0    0    0  501 -0.00000000000E+00  0.00000000000E+00  0.27135098641E+02  0.27135098641E+02  0.00000000000E+00 0.  1.
          2   -1    0    0  501    0  0.00000000000E+00 -0.00000000000E+00 -0.53581673479E+03  0.53581673479E+03  0.00000000000E+00 0. -1.
         25    2    1    2    0    0 -0.41625439266E+02  0.32796227295E+01 -0.21457044124E+03  0.25185513230E+03  0.12508836994E+03 0.  0.
          5    1    3    3  502    0  0.37451867970E+02  0.29958995654E+02 -0.72352008015E+02  0.86904944042E+02  0.41800000000E+01 0.  1.
         -5    1    3    3    0  502 -0.79077307236E+02 -0.26679372924E+02 -0.14221843322E+03  0.16495018826E+03  0.41800000000E+01 0.  1.
        -11    1    1    2    0    0  0.40536810457E+02  0.40604666442E+02 -0.15921986185E+03  0.16924224162E+03  0.00000000000E+00 0. -1.
         11    1    1    2    0    0  0.10886288089E+01 -0.43884289172E+02 -0.13489133307E+03  0.14185445952E+03  0.00000000000E+00 0.  1.
</event>
<event>
 7    1  0.2594791E-009  0.9577143E+02  0.7561462E-02  0.1289448E+00
          4   -1    0    0  501    0  0.00000000000E+00  0.00000000000E+00  0.19763468232E+03  0.19763468232E+03  0.00000000000E+00 0. -1.
         -4   -1    0    0    0  501 -0.00000000000E+00 -0.00000000000E+00 -0.72039717962E+02  0.72039717962E+02  0.00000000000E+00 0.  1.
         25    2    1    2    0    0 -0.28786246223E+02 -0.22233048753E+01  0.17993212282E+02  0.12962450031E+03  0.12508063134E+03 0.  0.
          5    1    3    3  502    0  0.17492486605E+02 -0.54422133308E+02  0.16803949382E+02  0.59729396416E+02  0.41800000000E+01 0. -1.
         -5    1    3    3    0  502 -0.46278732828E+02  0.52198828433E+02  0.11892628999E+01  0.69895103892E+02  0.41800000000E+01 0. -1.
        -11    1    1    2    0    0 -0.11113125186E+02  0.18230230852E+02  0.91795557593E+02  0.94245781137E+02  0.00000000000E+00 0. -1.
         11    1    1    2    0    0  0.39899371409E+02 -0.16006925976E+02  0.15806194478E+02  0.45804118832E+02  0.00000000000E+00 0.  1.
</event>
<event>
 7    1  0.2822652E-009  0.1514600E+03  0.7561462E-02  0.1198690E+00
         -3   -1    0    0    0  501 -0.00000000000E+00  0.00000000000E+00  0.15076836996E+02  0.15076836996E+02  0.00000000000E+00 0.  1.
          3   -1    0    0  501    0  0.00000000000E+00 -0.00000000000E+00 -0.17068869022E+04  0.17068869022E+04  0.00000000000E+00 0. -1.
         25    2    1    2    0    0  0.11611746331E+03  0.76489190423E+01 -0.10012229480E+04  0.10156949955E+04  0.12508861197E+03 0.  0.
          5    1    3    3  502    0 -0.10070302211E+02  0.25390700121E+02 -0.40754811921E+03  0.40848383140E+03  0.41800000000E+01 0. -1.
         -5    1    3    3    0  502  0.12618776552E+03 -0.17741781079E+02 -0.59367482883E+03  0.60721116406E+03  0.41800000000E+01 0. -1.
        -11    1    1    2    0    0 -0.78038772833E+01 -0.35177423573E+02 -0.15258994198E+03  0.15678661302E+03  0.00000000000E+00 0.  1.
         11    1    1    2    0    0 -0.10831358603E+03  0.27528504531E+02 -0.53799717515E+03  0.54948213069E+03  0.00000000000E+00 0. -1.
</event>
<event>
 7    1  0.2594791E-009  0.1169052E+03  0.7561462E-02  0.1248292E+00
         -2   -1    0    0    0  501 -0.00000000000E+00  0.00000000000E+00  0.12168980520E+02  0.12168980520E+02  0.00000000000E+00 0.  1.
          2   -1    0    0  501    0  0.00000000000E+00 -0.00000000000E+00 -0.15212109758E+04  0.15212109758E+04  0.00000000000E+00 0. -1.
         25    2    1    2    0    0  0.52426456058E+01 -0.70723852789E+02 -0.90567639770E+03  0.91702070926E+03  0.12509154719E+03 0.  0.
          5    1    3    3  502    0  0.40432303832E+02 -0.46443987614E+01 -0.10267137688E+03  0.11052251203E+03  0.41800000000E+01 0.  1.
         -5    1    3    3    0  502 -0.35189658226E+02 -0.66079454028E+02 -0.80300502082E+03  0.80649819724E+03  0.41800000000E+01 0.  1.
        -11    1    1    2    0    0 -0.18534140671E+02 -0.19392419707E+02 -0.64612633106E+02  0.69959793234E+02  0.00000000000E+00 0.  1.
         11    1    1    2    0    0  0.13291495065E+02  0.90116272496E+02 -0.53875296447E+03  0.54639945383E+03  0.00000000000E+00 0. -1.
</event>
<event>
 7    1  0.2594791E-009  0.1065558E+03  0.7561462E-02  0.1267084E+00
         -2   -1    0    0    0  501 -0.00000000000E+00  0.00000000000E+00  0.11019821376E+03  0.11019821376E+03  0.00000000000E+00 0.  1.
          2   -1    0    0  501    0  0.00000000000E+00 -0.00000000000E+00 -0.24690426351E+03  0.24690426351E+03  0.00000000000E+00 0. -1.
         25    2    1    2    0    0 -0.68114487685E+02 -0.32533858261E+02  0.31787171403E+02  0.14951920080E+03  0.12509009463E+03 0.  0.
          5    1    3    3  502    0  0.21816613364E+02 -0.33820267738E+02  0.42695935309E+02  0.58823383280E+02  0.41800000000E+01 0.  1.
         -5    1    3    3    0  502 -0.89931101050E+02  0.12864094775E+01 -0.10908763906E+02  0.90695817518E+02  0.41800000000E+01 0.  1.
        -11    1    1    2    0    0  0.52423214736E+02  0.73457062920E+01 -0.16981859981E+03  0.17787779424E+03  0.00000000000E+00 0. -1.
         11    1    1    2    0    0  0.15691272949E+02  0.25188151969E+02  0.13253786559E+01  0.29705482238E+02  0.00000000000E+00 0.  1.
</event>
<event>
 7    1  0.2594791E-009  0.1982249E+03  0.7561462E-02  0.1151245E+00
          4   -1    0    0  501    0  0.00000000000E+00  0.00000000000E+00  0.17236338570E+03  0.17236338570E+03  0.00000000000E+00 0. -1.
         -4   -1    0    0    0  501 -0.00000000000E+00 -0.00000000000E+00 -0.28201515011E+03  0.28201515011E+03  0.00000000000E+00 0.  1.
         25    2    1    2    0    0 -0.36627528459E+02  0.18604808859E+03 -0.83408079123E+02  0.24198942176E+03  0.12508599231E+03 0.  0.
          5    1    3    3  502    0 -0.29767347972E+02  0.10428878191E+03 -0.11107990017E+03  0.15530119658E+03  0.41800000000E+01 0. -1.
         -5    1    3    3    0  502 -0.68601804873E+01  0.81759306678E+02  0.27671821044E+02  0.86688225179E+02  0.41800000000E+01 0. -1.
        -11    1    1    2    0    0  0.55699556363E+02 -0.76856334412E+02 -0.35080020522E+02  0.10119261118E+03  0.00000000000E+00 0.  1.
         11    1    1    2    0    0 -0.19072027904E+02 -0.10919175418E+03  0.88363352386E+01  0.11119650287E+03  0.00000000000E+00 0. -1.
</event>
<event>
 7    1  0.2594791E-009  0.1101919E+03  0.7561462E-02  0.1260215E+00
          1   -1    0    0  501    0  0.00000000000E+00  0.00000000000E+00  0.76162238213E+02  0.76162238213E+02  0.00000000000E+00 0. -1.
         -1   -1    0    0    0  501 -0.00000000000E+00 -0.00000000000E+00 -0.32840563470E+03  0.32840563470E+03  0.00000000000E+00 0.  1.
         25    2    1    2    0    0 -0.78859270640E+02  0.33732385757E+02 -0.22900631480E+03  0.27469354875E+03  0.12512391894E+03 0.  0.
          5    1    3    3  502    0  0.31543748568E+01  0.99951674121E+01  0.13481015332E+02  0.17580205537E+02  0.41800000000E+01 0.  1.
         -5    1    3    3    0  502 -0.82013645497E+02  0.23737218345E+02 -0.24248733014E+03  0.25711334321E+03  0.41800000000E+01 0.  1.
        -11    1    1    2    0    0  0.40083397088E+02  0.29274345295E+02  0.66582460330E+01  0.50079918678E+02  0.00000000000E+00 0. -1.
         11    1    1    2    0    0  0.38775873552E+02 -0.63006731052E+02 -0.29895327720E+02  0.79794405488E+02  0.00000000000E+00 0.  1.
</event>
<event>
 7    1  0.2594791E-009  0.1052342E+03  0.7561462E-02  0.1269659E+00
          2   -1    0    0  501    0  0.00000000000E+00  0.00000000000E+00  0.46632949060E+02  0.46632949060E+02  0.00000000000E+00 0. -1.
         -2   -1    0    0    0  501 -0.00000000000E+00 -0.00000000000E+00 -0.28455320173E+03  0.28455320173E+03  0.00000000000E+00 0.  1.
         25    2    1    2    0    0  0.49415382161E+01  0.29812446338E+02 -0.10085790269E+03  0.16350139212E+03  0.12508872025E+03 0.  0.
          5    1    3    3  502    0  0.63476038448E+02  0.20888936729E+02 -0.68952973911E+02  0.96112122783E+02  0.41800000000E+01 0. -1.
         -5    1    3    3    0  502 -0.58534500231E+02  0.89235096091E+01 -0.31904928775E+02  0.67389269333E+02  0.41800000000E+01 0. -1.
        -11    1    1    2    0    0  0.21588411986E+02 -0.47563870096E+02 -0.40836082383E+02  0.66302088165E+02  0.00000000000E+00 0.  1.
         11    1    1    2    0    0 -0.26529950202E+02  0.17751423758E+02 -0.96226267601E+02  0.10138267051E+03  0.00000000000E+00 0. -1.
</event>
<event>
 7    1  0.2594791E-009  0.3681793E+03  0.7561462E-02  0.1055391E+00
          1   -1    0    0  501    0  0.00000000000E+00  0.00000000000E+00  0.29682857326E+04  0.29682857326E+04  0.00000000000E+00 0. -1.
         -1   -1    0    0    0  501 -0.00000000000E+00 -0.00000000000E+00 -0.48208805033E+02  0.48208805033E+02  0.00000000000E+00 0.  1.
         25    2    1    2    0    0 -0.14791316549E+03  0.32608640418E+03  0.16866490538E+04  0.17287692947E+04  0.12509035105E+03 0.  0.
          5    1    3    3  502    0  0.18911089315E+02  0.67121879436E+02  0.25883137303E+03  0.26809350620E+03  0.41800000000E+01 0. -1.
         -5    1    3    3    0  502 -0.16682425480E+03  0.25896452475E+03  0.14278176808E+04  0.14606757885E+04  0.41800000000E+01 0. -1.
        -11    1    1    2    0    0  0.36621630539E+02 -0.98373722806E+02  0.52325271637E+03  0.53367774766E+03  0.00000000000E+00 0. -1.
         11    1    1    2    0    0  0.11129153495E+03 -0.22771268138E+03  0.71017515735E+03  0.75404749527E+03  0.00000000000E+00 0.  1.
</event>
<event>
 7    1  0.2594791E-009  0.1145951E+03  0.7561462E-02  0.1252290E+00
          1   -1    0    0  501    0  0.00000000000E+00  0.00000000000E+00  0.90208106225E+03  0.90208106225E+03  0.00000000000E+00 0. -1.
         -1   -1    0    0    0  501 -0.00000000000E+00 -0.00000000000E+00 -0.15758126831E+02  0.15758126831E+02  0.00000000000E+00 0.  1.
         25    2    1    2    0    0 -0.40566598927E+02 -0.22970226066E+02  0.60659735293E+03  0.62111257508E+03  0.12508877689E+03 0.  0.
          5    1    3    3  502    0  0.25009643880E+02 -0.52389968817E+02  0.34094562262E+03  0.34587798586E+03  0.41800000000E+01 0. -1.
         -5    1    3    3    0  502 -0.65576242807E+02  0.29419742751E+02  0.26565173031E+03  0.27523458922E+03  0.41800000000E+01 0. -1.
        -11    1    1    2    0    0  0.36960312020E+02  0.55271050389E+02  0.18922407423E+03  0.20056595908E+03  0.00000000000E+00 0.  1.
         11    1    1    2    0    0  0.36062869065E+01 -0.32300824324E+02  0.90501508266E+02  0.96160654925E+02  0.00000000000E+00 0. -1.
</event>
<event>
 6    1  0.2594791E-009  0.3134714E+03  0.7561462E-02  0.1078694E+00
          1   -1    0    0  501    0  0.00000000000E+00  0.00000000000E+00  0.22458397673E+04  0.22458397673E+04  0.00000000000E+00 0. -1.
         -1   -1    0    0    0  501 -0.00000000000E+00 -0.00000000000E+00 -0.73884898647E+02  0.73884898647E+02  0.00000000000E+00 0.  1.
          5    1    1    2  502    0  0.19462190564E+03 -0.23994828159E+02  0.11724552591E+04  0.11887481840E+04  0.41800000000E+01 0.  1.
         -5    1    1    2    0  502  0.79666232440E+02 -0.10154428263E+03  0.63872188777E+03  0.65164489735E+03  0.41800000000E+01 0.  1.
        -11    1    1    2    0    0 -0.24001889968E+03  0.11101875481E+03  0.25568814738E+03  0.36784597977E+03  0.00000000000E+00 0.  1.
         11    1    1    2    0    0 -0.34269238406E+02  0.14520355977E+02  0.10508957435E+03  0.11148560479E+03  0.00000000000E+00 0. -1.
</event>
<event>
 7    1  0.2594791E-009  0.1218771E+03  0.7561462E-02  0.1240032E+00
         -2   -1    0    0    0  501 -0.00000000000E+00  0.00000000000E+00  0.20568295450E+03  0.20568295450E+03  0.00000000000E+00 0.  1.
          2   -1    0    0  501    0  0.00000000000E+00 -0.00000000000E+00 -0.72705462867E+02  0.72705462867E+02  0.00000000000E+00 0. -1.
         25    2    1    2    0    0 -0.47619984342E+02  0.29871472059E+02  0.65494750135E+02  0.15197884613E+03  0.12509212455E+03 0.  0.
          5    1    3    3  502    0 -0.69351275005E+00 -0.46880890223E+02  0.21527536108E+02  0.51761047506E+02  0.41800000000E+01 0.  1.
         -5    1    3    3    0  502 -0.46926471592E+02  0.76752362282E+02  0.43967214026E+02  0.10021779862E+03  0.41800000000E+01 0.  1.
        -11    1    1    2    0    0 -0.96848530376E+01 -0.46067311130E+02  0.25387053962E+02  0.53483605356E+02  0.00000000000E+00 0.  1.
         11    1    1    2    0    0  0.57304837379E+02  0.16195839071E+02  0.42095687537E+02  0.72925965880E+02  0.00000000000E+00 0. -1.
</event>
<event>
 7    1  0.2594791E-009  0.1188955E+03  0.7561462E-02  0.1244930E+00
          1   -1    0    0  501    0  0.00000000000E+00  0.00000000000E+00  0.51165914414E+03  0.51165914414E+03  0.00000000000E+00 0. -1.
         -1   -1    0    0    0  501 -0.00000000000E+00 -0.00000000000E+00 -0.42712999643E+02  0.42712999643E+02  0.00000000000E+00 0.  1.
         25    2    1    2    0    0 -0.37866418339E+02  0.92753117783E+02  0.28926094487E+03  0.33069012616E+03  0.12508820415E+03 0.  0.
          5    1    3    3  502    0 -0.34624702613E+02  0.37197948325E+02  0.18507693569E+02  0.54245410053E+02  0.41800000000E+01 0. -1.
         -5    1    3    3    0  502 -0.32417157263E+01  0.55555169458E+02  0.27075325130E+03  0.27644471611E+03  0.41800000000E+01 0. -1.
        -11    1    1    2    0    0 -0.19612340380E+01 -0.91111418323E+02  0.10506225934E+03  0.13907988828E+03  0.00000000000E+00 0. -1.
         11    1    1    2    0    0  0.39827652377E+02 -0.16416994606E+01  0.74622940289E+02  0.84602129337E+02  0.00000000000E+00 0.  1.
</event>
<event>
 7    1  0.2594791E-009  0.1184163E+03  0.7561462E-02  0.1245733E+00
          3   -1    0    0  501    0  0.00000000000E+00  0.00000000000E+00  0.36619152648E+03  0.36619152648E+03  0.00000000000E+00 0. -1.
         -3   -1    0    0    0  501 -0.00000000000E+00 -0.00000000000E+00 -0.54983636883E+02  0.54983636883E+02  0.00000000000E+00 0.  1.
         25    2    1    2    0    0  0.55242657685E+02  0.63851139213E+02  0.12646681174E+03  0.19691600568E+03  0.12511330710E+03 0.  0.
          5    1    3    3  502    0  0.86304199882E+02  0.65414927515E+02  0.61110879822E+02  0.12441679827E+03  0.41800000000E+01 0. -1.
         -5    1    3    3    0  502 -0.31061542197E+02 -0.15637883020E+01  0.65355931919E+02  0.72499207406E+02  0.41800000000E+01 0. -1.
        -11    1    1    2    0    0 -0.43170725845E+02 -0.13400156385E+02  0.16366162009E+02  0.48074182469E+02  0.00000000000E+00 0.  1.
         11    1    1    2    0    0 -0.12071931839E+02 -0.50450982828E+02  0.16837491584E+03  0.17618497522E+03  0.00000000000E+00 0. -1.
</event>
<event>
 7    1  0.2594791E-009  0.1313286E+03  0.7561462E-02  0.1225498E+00
         -1   -1    0    0    0  501 -0.00000000000E+00  0.00000000000E+00  0.18827370827E+03  0.18827370827E+03  0.00000000000E+00 0.  1.
          1   -1    0    0  501    0  0.00000000000E+00 -0.00000000000E+00 -0.93795500713E+02  0.93795500713E+02  0.00000000000E+00 0. -1.
         25    2    1    2    0    0  0.74062744330E+02  0.42283461747E+01  0.46777568259E+02  0.15277103432E+03  0.12509068321E+03 0.  0.
          5    1    3    3  502    0 -0.21789976370E+02 -0.34254382054E+02  0.22425682129E+02  0.46567685997E+02  0.41800000000E+01 0. -1.
         -5    1    3    3    0  502  0.95852720701E+02  0.38482728229E+02  0.24351886130E+02  0.10620334833E+03  0.41800000000E+01 0. -1.
        -11    1    1    2    0    0 -0.70036128672E+02 -0.41216727892E+02  0.42569929184E+02  0.91739178371E+02  0.00000000000E+00 0. -1.
         11    1    1    2    0    0 -0.40266156585E+01  0.36988381717E+02  0.51307101085E+01  0.37558996285E+02  0.00000000000E+00 0.  1.
</event>
<event>
 7    1  0.2594791E-009  0.1536842E+03  0.7561462E-02  0.1196018E+00
          1   -1    0    0  501    0  0.00000000000E+00  0.00000000000E+00  0.38898703488E+02  0.38898703488E+02  0.00000000000E+00 0. -1.
         -1   -1    0    0    0  501 -0.00000000000E+00 -0.00000000000E+00 -0.67336295070E+03  0.67336295070E+03  0.00000000000E+00 0.  1.
         25    2    1    2    0    0 -0.40369406003E+02  0.11695708510E+03 -0.38362145319E+03  0.42204454667E+03  0.12509009284E+03 0.  0.
          5    1    3    3  502    0  0.59795340165E+01 -0.20352603714E+02 -0.16089700342E+02  0.26950587417E+02  0.41800000000E+01 0.  1.
         -5    1    3    3    0  502 -0.46348940019E+02  0.13730968882E+03 -0.36753175285E+03  0.39509395925E+03  0.41800000000E+01 0.  1.
        -11    1    1    2    0    0  0.48221042863E+02 -0.37933055510E+02 -0.14851957782E+03  0.16069303243E+03  0.00000000000E+00 0.  1.
         11    1    1    2    0    0 -0.78516368600E+01 -0.79024029595E+02 -0.10232321620E+03  0.12952407509E+03  0.00000000000E+00 0. -1.
</event>
<event>
 7    1  0.2594791E-009  0.9321525E+02  0.7561462E-02  0.1295247E+00
          4   -1    0    0  501    0  0.00000000000E+00  0.00000000000E+00  0.44912671061E+02  0.44912671061E+02  0.00000000000E+00 0. -1.
         -4   -1    0    0    0  501 -0.00000000000E+00 -0.00000000000E+00 -0.28976952041E+03  0.28976952041E+03  0.00000000000E+00 0.  1.
         25    2    1    2    0    0 -0.10721574291E+02  0.30181509008E+02 -0.16623082976E+03  0.21049105347E+03  0.12509164315E+03 0.  0.
          5    1    3    3  502    0  0.19305599642E+02 -0.33662285431E+02 -0.11962601414E+03  0.12583207579E+03  0.41800000000E+01 0. -1.
         -5    1    3    3    0  502 -0.30027173933E+02  0.63843794439E+02 -0.46604815611E+02  0.84658977675E+02  0.41800000000E+01 0. -1.
        -11    1    1    2    0    0  0.38021321905E+02 -0.29033914550E+01 -0.17501930298E+01  0.38172159711E+02  0.00000000000E+00 0. -1.
         11    1    1    2    0    0 -0.27299747614E+02 -0.27278117553E+02 -0.76875826566E+02  0.86018978296E+02  0.00000000000E+00 0.  1.
</event>
<event>
 7    1  0.2594791E-009  0.8931287E+02  0.7561462E-02  0.1304524E+00
          1   -1    0    0  501    0  0.00000000000E+00  0.00000000000E+00  0.42523608746E+02  0.42523608746E+02  0.00000000000E+00 0. -1.
         -1   -1    0    0    0  501 -0.00000000000E+00 -0.00000000000E+00 -0.32672171737E+03  0.32672171737E+03  0.00000000000E+00 0.  1.
         25    2    1    2    0    0 -0.24420040451E+02 -0.32770417429E+02 -0.12261948575E+03  0.17987113917E+03  0.12509136575E+03 0.  0.
          5    1    3    3  502    0  0.37577667825E+02 -0.24125745933E+02 -0.31874708217E+01  0.44964042370E+02  0.41800000000E+01 0. -1.
         -5    1    3    3    0  502 -0.61997708277E+02 -0.86446714962E+01 -0.11943201492E+03  0.13490709680E+03  0.41800000000E+01 0. -1.
        -11    1    1    2    0    0  0.30545596482E+02 -0.65527081216E+01 -0.10218157963E+02  0.32869167928E+02  0.00000000000E+00 0. -1.
         11    1    1    2    0    0 -0.61255560304E+01  0.39323125550E+02 -0.15136046492E+03  0.15650501903E+03  0.00000000000E+00 0.  1.
</event>
<event>
 7    1  0.2594791E-009  0.9770879E+02  0.7561462E-02  0.1285189E+00
          1   -1    0    0  501    0  0.00000000000E+00  0.00000000000E+00  0.32364542894E+03  0.32364542894E+03  0.00000000000E+00 0. -1.
         -1   -1    0    0    0  501 -0.00000000000E+00 -0.00000000000E+00 -0.54905331860E+02  0.54905331860E+02  0.00000000000E+00 0.  1.
         25    2    1    2    0    0  0.19514109453E+01 -0.60800250835E+02  0.79992192609E+02  0.16045452358E+03  0.12508566965E+03 0.  0.
          5    1    3    3  502    0  0.38589103701E+02 -0.21870513951E+02 -0.18556223768E+02  0.48262243477E+02  0.41800000000E+01 0. -1.
         -5    1    3    3    0  502 -0.36637692756E+02 -0.38929736885E+02  0.98548416376E+02  0.11219228010E+03  0.41800000000E+01 0. -1.
        -11    1    1    2    0    0  0.33901937089E+02  0.10534431347E+02  0.25922879963E+02  0.43958062830E+02  0.00000000000E+00 0.  1.
         11    1    1    2    0    0 -0.35853348034E+02  0.50265819488E+02  0.16282502451E+03  0.17413817439E+03  0.00000000000E+00 0. -1.
</event>
<event>
 7    1  0.2594791E-009  0.1712739E+03  0.7561462E-02  0.1176526E+00
         -1   -1    0    0    0  501 -0.00000000000E+00  0.00000000000E+00  0.30745668413E+03  0.30745668413E+03  0.00000000000E+00 0.  1.
          1   -1    0    0  501    0  0.00000000000E+00 -0.00000000000E+00 -0.11563599108E+03  0.11563599108E+03  0.00000000000E+00 0. -1.
         25    2    1    2    0    0  0.12198466533E+03 -0.64351256308E+02  0.17707291478E+03  0.25697993812E+03  0.12515002471E+03 0.  0.
          5    1    3    3  502    0  0.12176431305E+03 -0.19527529711E+00  0.12002811583E+03  0.17102867320E+03  0.41800000000E+01 0. -1.
         -5    1    3    3    0  502  0.22035227350E+00 -0.64155981011E+02  0.57044798955E+02  0.85951264926E+02  0.41800000000E+01 0. -1.
        -11    1    1    2    0    0 -0.32219956930E+02 -0.15973995014E+02 -0.19463903618E+02  0.40891780168E+02  0.00000000000E+00 0. -1.
         11    1    1    2    0    0 -0.89764708398E+02  0.80325251323E+02  0.34211681883E+02  0.12522095692E+03  0.00000000000E+00 0.  1.
</event>
<event>
 7    1  0.2594791E-009  0.4032332E+03  0.7561462E-02  0.1042666E+00
         -1   -1    0    0    0  501 -0.00000000000E+00  0.00000000000E+00  0.11259439772E+03  0.11259439772E+03  0.00000000000E+00 0.  1.
          1   -1    0    0  501    0  0.00000000000E+00 -0.00000000000E+00 -0.16569643414E+04  0.16569643414E+04  0.00000000000E+00 0. -1.
         25    2    1    2    0    0  0.37514928038E+03 -0.11730019462E+03 -0.49637342704E+03  0.64539213554E+03  0.12509241111E+03 0.  0.
          5    1    3    3  502    0  0.15832240497E+03  0.12731108937E+02 -0.21048857126E+03  0.26372519045E+03  0.41800000000E+01 0. -1.
         -5    1    3    3    0  502  0.21682687542E+03 -0.13003130356E+03 -0.28588485578E+03  0.38166694509E+03  0.41800000000E+01 0. -1.
        -11    1    1    2    0    0 -0.71984818191E+02  0.37773257951E+02 -0.34531215982E+03  0.35475219631E+03  0.00000000000E+00 0.  1.
         11    1    1    2    0    0 -0.30316446219E+03  0.79526936669E+02 -0.70268435685E+03  0.76941440730E+03  0.00000000000E+00 0. -1.
</event>
<event>
 7    1  0.2594791E-009  0.7206066E+02  0.7561462E-02  0.1353223E+00
          2   -1    0    0  501    0  0.00000000000E+00  0.00000000000E+00  0.84327254265E+02  0.84327254265E+02  0.00000000000E+00 0.  1.
         -2   -1    0    0    0  501 -0.00000000000E+00 -0.00000000000E+00 -0.15452220190E+03  0.15452220190E+03  0.00000000000E+00 0. -1.
         25    2    1    2    0    0 -0.91127406956E+01  0.33124366714E+02 -0.53496712140E+02  0.14031997567E+03  0.12509009413E+03 0.  0.
          5    1    3    3  502    0 -0.45795682855E+02  0.50416653163E+02  0.56622719037E+01  0.68473478131E+02  0.41800000000E+01 0. -1.
         -5    1    3    3    0  502  0.36682942159E+02 -0.17292286449E+02 -0.59158984043E+02  0.71846497543E+02  0.41800000000E+01 0. -1.
        -11    1    1    2    0    0  0.72194805423E+01 -0.12759140901E+02  0.37680305718E+02  0.40431695671E+02  0.00000000000E+00 0.  1.
         11    1    1    2    0    0  0.18932601533E+01 -0.20365225813E+02 -0.54378541211E+02  0.58097784817E+02  0.00000000000E+00 0. -1.
</event>
<event>
 7    1  0.2594791E-009  0.9791498E+02  0.7561462E-02  0.1284743E+00
          1   -1    0    0  501    0  0.00000000000E+00  0.00000000000E+00  0.19651180036E+03  0.19651180036E+03  0.00000000000E+00 0. -1.
         -1   -1    0    0    0  501 -0.00000000000E+00 -0.00000000000E+00 -0.73482477798E+02  0.73482477798E+02  0.00000000000E+00 0.  1.
         25    2    1    2    0    0  0.39024183947E+02 -0.32203011289E+02  0.39039749286E+02  0.14046509729E+03  0.12508565331E+03 0.  0.
          5    1    3    3  502    0 -0.69715407221E+01  0.24170032822E+02 -0.30485039465E+02  0.39744218420E+02  0.41800000000E+01 0. -1.
         -5    1    3    3    0  502  0.45995724669E+02 -0.56373044111E+02  0.69524788751E+02  0.10072087887E+03  0.41800000000E+01 0. -1.
        -11    1    1    2    0    0 -0.20493754478E+02 -0.27866127813E+02  0.20626756044E+02  0.40273789451E+02  0.00000000000E+00 0.  1.
         11    1    1    2    0    0 -0.18530429469E+02  0.60069139102E+02  0.63362817233E+02  0.89255391414E+02  0.00000000000E+00 0. -1.
</event>
<event>
 7    1  0.2594791E-009  0.1205652E+03  0.7561462E-02  0.1242167E+00
          1   -1    0    0  501    0  0.00000000000E+00  0.00000000000E+00  0.85340688025E+03  0.85340688025E+03  0.00000000000E+00 0. -1.
         -1   -1    0    0    0  501 -0.00000000000E+00 -0.00000000000E+00 -0.18794597578E+02  0.18794597578E+02  0.00000000000E+00 0.  1.
         25    2    1    2    0    0 -0.33757932592E+02 -0.53548024248E+02  0.41234980481E+03  0.43553016000E+03  0.12508864789E+03 0.  0.
          5    1    3    3  502    0  0.29885321762E+02  0.17582960759E+02  0.19509794827E+03  0.19819933094E+03  0.41800000000E+01 0.  1.
         -5    1    3    3    0  502 -0.63643254354E+02 -0.71130985007E+02  0.21725185654E+03  0.23733082906E+03  0.41800000000E+01 0.  1.
        -11    1    1    2    0    0  0.47856388739E+02 -0.71194246289E+01  0.16276900630E+03  0.16980774294E+03  0.00000000000E+00 0.  1.
         11    1    1    2    0    0 -0.14098456147E+02  0.60667448877E+02  0.25949347156E+03  0.26686357489E+03  0.00000000000E+00 0. -1.
</event>
<event>
 7    1  0.2594791E-009  0.2469223E+03  0.7561462E-02  0.1115265E+00
         -1   -1    0    0    0  501 -0.00000000000E+00  0.00000000000E+00  0.38368798687E+02  0.38368798687E+02  0.00000000000E+00 0.  1.
          1   -1    0    0  501    0  0.00000000000E+00 -0.00000000000E+00 -0.16564690353E+04  0.16564690353E+04  0.00000000000E+00 0. -1.
         25    2    1    2    0    0  0.11785966951E+02 -0.22664225956E+03 -0.85750165007E+03  0.89580263348E+03  0.12509058893E+03 0.  0.
          5    1    3    3  502    0  0.49136179367E+02 -0.27667376471E+02 -0.17701854453E+03  0.18583025952E+03  0.41800000000E+01 0.  1.
         -5    1    3    3    0  502 -0.37350212415E+02 -0.19897488309E+03 -0.68048310554E+03  0.70997237397E+03  0.41800000000E+01 0.  1.
        -11    1    1    2    0    0 -0.33727672321E+02  0.84529978866E+02 -0.41221077103E+03  0.42213812071E+03  0.00000000000E+00 0. -1.
         11    1    1    2    0    0  0.21941705370E+02  0.14211228070E+03 -0.34838781554E+03  0.37689707982E+03  0.00000000000E+00 0.  1.
</event>
<event>
 7    1  0.2594791E-009  0.1122245E+03  0.7561462E-02  0.1256505E+00
          1   -1    0    0  501    0  0.00000000000E+00  0.00000000000E+00  0.11165164764E+04  0.11165164764E+04  0.00000000000E+00 0. -1.
         -1   -1    0    0    0  501 -0.00000000000E+00 -0.00000000000E+00 -0.18773310774E+02  0.18773310774E+02  0.00000000000E+00 0.  1.
         25    2    1    2    0    0 -0.91651116879E+02  0.37395876888E+01  0.67732492019E+03  0.69486012888E+03  0.12509052502E+03 0.  0.
          5    1    3    3  502    0 -0.21577912686E+02  0.87608213008E+01  0.13352529823E+02  0.27168377913E+02  0.41800000000E+01 0.  1.
         -5    1    3    3    0  502 -0.70073204193E+02 -0.50212336121E+01  0.66397239037E+03  0.66769175096E+03  0.41800000000E+01 0.  1.
        -11    1    1    2    0    0  0.55839672048E+02 -0.47889861619E+02  0.26147694038E+03  0.27162786708E+03  0.00000000000E+00 0. -1.
         11    1    1    2    0    0  0.35811444831E+02  0.44150273930E+02  0.15894130509E+03  0.16880179126E+03  0.00000000000E+00 0.  1.
</event>
<event>
 7    1  0.2934158E-009  0.9723146E+02  0.7561462E-02  0.1286228E+00
          2   -1    0    0  501    0  0.00000000000E+00  0.00000000000E+00  0.18595808795E+04  0.18595808795E+04  0.00000000000E+00 0. -1.
         -2   -1    0    0    0  501 -0.00000000000E+00 -0.00000000000E+00 -0.76020268206E+01  0.76020268206E+01  0.00000000000E+00 0.  1.
         25    2    1    2    0    0  0.18230960614E+01 -0.31877376544E+02  0.13319940073E+04  0.13382357945E+04  0.12509002912E+03 0.  0.
          5    1    3    3  502    0  0.76474283254E+01  0.32037127514E+02  0.11919646337E+03  0.12373411001E+03  0.41800000000E+01 0.  1.
         -5    1    3    3    0  502 -0.58243322640E+01 -0.63914504059E+02  0.12127975439E+04  0.12145016844E+04  0.41800000000E+01 0.  1.
        -11    1    1    2    0    0  0.59404116458E+01 -0.32026356365E+02  0.17087268022E+03  0.17394955832E+03  0.00000000000E+00 0. -1.
         11    1    1    2    0    0 -0.77635077072E+01  0.63903732910E+02  0.34911216516E+03  0.35499755350E+03  0.00000000000E+00 0.  1.
</event>
<event>
 7    1  0.2594791E-009  0.1491498E+03  0.7561462E-02  0.1201522E+00
          1   -1    0    0  501    0  0.00000000000E+00  0.00000000000E+00  0.12966478933E+04  0.12966478933E+04  0.00000000000E+00 0. -1.
         -1   -1    0    0    0  501 -0.00000000000E+00 -0.00000000000E+00 -0.56751516755E+02  0.56751516755E+02  0.00000000000E+00 0.  1.
         25    2    1    2    0    0  0.14580690310E+02  0.13638996687E+03  0.11535330278E+04  0.11683752112E+04  0.12508944157E+03 0.  0.
          5    1    3    3  502    0  0.40102068723E+02  0.77644594565E+02  0.97008913262E+03  0.97402631207E+03  0.41800000000E+01 0. -1.
         -5    1    3    3    0  502 -0.25521378413E+02  0.58745372305E+02  0.18344389514E+03  0.19434889912E+03  0.41800000000E+01 0. -1.
        -11    1    1    2    0    0 -0.33758234348E+02 -0.99105439946E+02  0.20098347668E+02  0.10660886545E+03  0.00000000000E+00 0.  1.
         11    1    1    2    0    0  0.19177544038E+02 -0.37284526925E+02  0.66265001154E+02  0.78415333458E+02  0.00000000000E+00 0. -1.
</event>
<event>
 7    1  0.3207104E-009  0.1925902E+03  0.7561462E-02  0.1156146E+00
         -2   -1    0    0    0  501 -0.00000000000E+00  0.00000000000E+00  0.13191571905E+03  0.13191571905E+03  0.00000000000E+00 0.  1.
          2   -1    0    0  501    0  0.00000000000E+00 -0.00000000000E+00 -0.36901988843E+03  0.36901988843E+03  0.00000000000E+00 0. -1.
         25    2    1    2    0    0 -0.81001679111E+02 -0.16117507482E+03 -0.49374791262E+02  0.22499983447E+03  0.12509348000E+03 0.  0.
          5    1    3    3  502    0 -0.23958924439E+02 -0.11723056139E+03  0.24001497465E+02  0.12210888118E+03  0.41800000000E+01 0. -1.
         -5    1    3    3    0  502 -0.57042754672E+02 -0.43944513438E+02 -0.73376288727E+02  0.10289095329E+03  0.41800000000E+01 0. -1.
        -11    1    1    2    0    0  0.39146979930E+01  0.84528298309E+02 -0.42969397553E+02  0.94903778647E+02  0.00000000000E+00 0.  1.
         11    1    1    2    0    0  0.77086981118E+02  0.76646776516E+02 -0.14475998056E+03  0.18103199436E+03  0.00000000000E+00 0. -1.
</event>
<event>
 7    1  0.2594791E-009  0.1330462E+03  0.7561462E-02  0.1223004E+00
          2   -1    0    0  501    0  0.00000000000E+00  0.00000000000E+00  0.18300822474E+03  0.18300822474E+03  0.00000000000E+00 0. -1.
         -2   -1    0    0    0  501 -0.00000000000E+00 -0.00000000000E+00 -0.17756208791E+03  0.17756208791E+03  0.00000000000E+00 0.  1.
         25    2    1    2    0    0  0.58288861221E+02  0.77589708150E+02  0.10638411235E+03  0.19074395673E+03  0.12509166045E+03 0.  0.
          5    1    3    3  502    0  0.12349171236E+02 -0.34531672444E+02  0.21143831908E+02  0.42537894397E+02  0.41800000000E+01 0. -1.
         -5    1    3    3    0  502  0.45939689985E+02  0.11212138059E+03  0.85240280441E+02  0.14820606233E+03  0.41800000000E+01 0. -1.
        -11    1    1    2    0    0 -0.44693964456E+02 -0.82217774069E+02 -0.11598260359E+03  0.14902777314E+03  0.00000000000E+00 0.  1.
         11    1    1    2    0    0 -0.13594896765E+02  0.46280659193E+01  0.15044628071E+02  0.20798582788E+02  0.00000000000E+00 0. -1.
</event>
<event>
 7    1  0.2594791E-009  0.1068812E+03  0.7561462E-02  0.1266457E+00
          1   -1    0    0  501    0  0.00000000000E+00  0.00000000000E+00  0.42765372555E+03  0.42765372555E+03  0.00000000000E+00 0. -1.
         -1   -1    0    0    0  501 -0.00000000000E+00 -0.00000000000E+00 -0.31620133116E+02  0.31620133116E+02  0.00000000000E+00 0.  1.
         25    2    1    2    0    0  0.60005214367E+02 -0.15455755624E+01  0.28652376795E+03  0.31834961984E+03  0.12509035255E+03 0.  0.
          5    1    3    3  502    0  0.46491678518E+02 -0.55678288897E+02  0.99954936430E+02  0.12357188087E+03  0.41800000000E+01 0. -1.
         -5    1    3    3    0  502  0.13513535849E+02  0.54132713335E+02  0.18656883152E+03  0.19477773897E+03  0.41800000000E+01 0. -1.
        -11    1    1    2    0    0 -0.42530893134E+02 -0.27935244930E+02  0.83966522332E+02  0.98181625840E+02  0.00000000000E+00 0.  1.
         11    1    1    2    0    0 -0.17474321234E+02  0.29480820492E+02  0.25543302151E+02  0.42742612979E+02  0.00000000000E+00 0. -1.
</event>
<event>
 7    1  0.2594791E-009  0.9400502E+02  0.7561462E-02  0.1293433E+00
          1   -1    0    0  501    0  0.00000000000E+00  0.00000000000E+00  0.19487270494E+03  0.19487270494E+03  0.00000000000E+00 0. -1.
         -1   -1    0    0    0  501 -0.00000000000E+00 -0.00000000000E+00 -0.86803951056E+02  0.86803951056E+02  0.00000000000E+00 0.  1.
         25    2    1    2    0    0  0.54033090984E+02  0.17930716748E+02  0.10579843320E+03  0.17344063020E+03  0.12508900117E+03 0.  0.
          5    1    3    3  502    0  0.57297597599E+02  0.35331876091E+02  0.13900676156E+01  0.67459327352E+02  0.41800000000E+01 0.  1.
         -5    1    3    3    0  502 -0.32645066155E+01 -0.17401159343E+02  0.10440836558E+03  0.10598130285E+03  0.41800000000E+01 0.  1.
        -11    1    1    2    0    0 -0.51953152795E+02 -0.48892802088E+02  0.17809349176E+02  0.73531007741E+02  0.00000000000E+00 0.  1.
         11    1    1    2    0    0 -0.20799381886E+01  0.30962085340E+02 -0.15539028492E+02  0.34705018052E+02  0.00000000000E+00 0. -1.
</event>
<event>
 7    1  0.2594791E-009  0.1370629E+03  0.7561462E-02  0.1217337E+00
         -1   -1    0    0    0  501 -0.00000000000E+00  0.00000000000E+00  0.28126503911E+02  0.28126503911E+02  0.00000000000E+00 0.  1.
          1   -1    0    0  501    0  0.00000000000E+00 -0.00000000000E+00 -0.11404557193E+04  0.11404557193E+04  0.00000000000E+00 0. -1.
         25    2    1    2    0    0 -0.10613203089E+03  0.13015846021E+01 -0.89467749500E+03  0.90959512158E+03  0.12509901296E+03 0.  0.
          5    1    3    3  502    0 -0.39117063532E+02 -0.41247419002E+02 -0.64626977616E+03  0.64877853710E+03  0.41800000000E+01 0. -1.
         -5    1    3    3    0  502 -0.67014967354E+02  0.42549003604E+02 -0.24840771884E+03  0.26081658447E+03  0.41800000000E+01 0. -1.
        -11    1    1    2    0    0  0.11933708038E+03  0.10666830619E+02 -0.20382237906E+03  0.23642902156E+03  0.00000000000E+00 0.  1.
         11    1    1    2    0    0 -0.13205049493E+02 -0.11968415221E+02 -0.13829341329E+02  0.22558080074E+02  0.00000000000E+00 0. -1.
</event>
<event>
 7    1  0.2594791E-009  0.1598846E+03  0.7561462E-02  0.1188827E+00
         -1   -1    0    0    0  501 -0.00000000000E+00  0.00000000000E+00  0.61937851147E+03  0.61937851147E+03  0.00000000000E+00 0.  1.
          1   -1    0    0  501    0  0.00000000000E+00 -0.00000000000E+00 -0.68817187226E+02  0.68817187226E+02  0.00000000000E+00 0. -1.
         25    2    1    2    0    0 -0.49839680465E+02  0.13567610643E+03  0.12748572191E+03  0.22976482864E+03  0.12508903863E+03 0.  0.
          5    1    3    3  502    0 -0.79171941791E+02  0.92470675609E+02  0.40760114250E+02  0.12844407938E+03  0.41800000000E+01 0. -1.
         -5    1    3    3    0  502  0.29332261325E+02  0.43205430821E+02  0.86725607662E+02  0.10132074926E+03  0.41800000000E+01 0. -1.
        -11    1    1    2    0    0  0.18422675721E+02 -0.75224815061E+02  0.35023359883E+03  0.35869449610E+03  0.00000000000E+00 0.  1.
         11    1    1    2    0    0  0.31417004744E+02 -0.60451291369E+02  0.72842003501E+02  0.99736373953E+02  0.00000000000E+00 0. -1.
</event>
<event>
 7    1  0.2594791E-009  0.1225939E+03  0.7561462E-02  0.1238878E+00
         -1   -1    0    0    0  501 -0.00000000000E+00  0.00000000000E+00  0.38148728272E+03  0.38148728272E+03  0.00000000000E+00 0.  1.
          1   -1    0    0  501    0  0.00000000000E+00 -0.00000000000E+00 -0.85960128665E+02  0.85960128665E+02  0.00000000000E+00 0. -1.
         25    2    1    2    0    0 -0.35310152053E+02  0.74539572416E+02  0.48046666403E+01  0.14991179454E+03  0.12508999411E+03 0.  0.
          5    1    3    3  502    0 -0.56425902391E+02 -0.14353396978E+02  0.18850002116E+01  0.58403151381E+02  0.41800000000E+01 0.  1.
         -5    1    3    3    0  502  0.21115750338E+02  0.88892969395E+02  0.29196664287E+01  0.91508643156E+02  0.41800000000E+01 0.  1.
        -11    1    1    2    0    0  0.38828540792E+02 -0.26098651664E+02  0.24944987685E+03  0.25379920461E+03  0.00000000000E+00 0.  1.
         11    1    1    2    0    0 -0.35183887392E+01 -0.48440920752E+02  0.41272610568E+02  0.63736412244E+02  0.00000000000E+00 0. -1.
</event>
<event>
 7    1  0.2594791E-009  0.8173378E+02  0.7561462E-02  0.1324202E+00
          2   -1    0    0  501    0  0.00000000000E+00  0.00000000000E+00  0.56433389969E+02  0.56433389969E+02  0.00000000000E+00 0. -1.
         -2   -1    0    0    0  501 -0.00000000000E+00 -0.00000000000E+00 -0.21330786993E+03  0.21330786993E+03  0.00000000000E+00 0.  1.
         25    2    1    2    0    0  0.11375412299E+02  0.14606333879E+02 -0.94328040244E+02  0.15775833427E+03  0.12508864002E+03 0.  0.
          5    1    3    3  502    0  0.66614646520E+02 -0.52533582457E+01 -0.58140173017E+02  0.88672774978E+02  0.41800000000E+01 0. -1.
         -5    1    3    3    0  502 -0.55239234221E+02  0.19859692125E+02 -0.36187867227E+02  0.69085559295E+02  0.41800000000E+01 0. -1.
        -11    1    1    2    0    0  0.61445960460E+01 -0.18691948363E+02 -0.82676440266E+02  0.84985520939E+02  0.00000000000E+00 0.  1.
         11    1    1    2    0    0 -0.17520008345E+02  0.40856144841E+01  0.20130000545E+02  0.26997404691E+02  0.00000000000E+00 0. -1.
</event>
<event>
 7    1  0.2594791E-009  0.1110472E+03  0.7561462E-02  0.1258643E+00
          2   -1    0    0  501    0  0.00000000000E+00  0.00000000000E+00  0.82901502715E+03  0.82901502715E+03  0.00000000000E+00 0. -1.
         -2   -1    0    0    0  501 -0.00000000000E+00 -0.00000000000E+00 -0.22683068865E+02  0.22683068865E+02  0.00000000000E+00 0.  1.
         25    2    1    2    0    0  0.59102249043E+01 -0.82748871095E+02  0.48540480128E+03  0.50808287328E+03  0.12509228031E+03 0.  0.
          5    1    3    3  502    0 -0.17304137455E+02 -0.73976868191E+02  0.47465864400E+03  0.48071853607E+03  0.41800000000E+01 0.  1.
         -5    1    3    3    0  502  0.23214362360E+02 -0.87720029044E+01  0.10746157282E+02  0.27364337212E+02  0.41800000000E+01 0.  1.
        -11    1    1    2    0    0  0.30934410544E+02  0.77724412832E+02  0.19200111124E+03  0.20943363823E+03  0.00000000000E+00 0. -1.
         11    1    1    2    0    0 -0.36844635448E+02  0.50244582634E+01  0.12892604577E+03  0.13418158450E+03  0.00000000000E+00 0.  1.
</event>
<event>
 7    1  0.2594791E-009  0.2221316E+03  0.7561462E-02  0.1132304E+00
          1   -1    0    0  501    0  0.00000000000E+00  0.00000000000E+00  0.24590798716E+03  0.24590798716E+03  0.00000000000E+00 0. -1.
         -1   -1    0    0    0  501 -0.00000000000E+00 -0.00000000000E+00 -0.28283901190E+03  0.28283901190E+03  0.00000000000E+00 0.  1.
         25    2    1    2    0    0 -0.10967917792E+03 -0.17280954512E+03 -0.14733982599E+03  0.28151284542E+03  0.12509115421E+03 0.  0.
          5    1    3    3  502    0  0.12378909431E+02 -0.53676559426E+02 -0.81881966036E+02  0.98775195228E+02  0.41800000000E+01 0. -1.
         -5    1    3    3    0  502 -0.12205808735E+03 -0.11913298569E+03 -0.65457859958E+02  0.18273765019E+03  0.41800000000E+01 0. -1.
        -11    1    1    2    0    0  0.16740418867E+02  0.97106504623E+02  0.69476947043E+02  0.12056932045E+03  0.00000000000E+00 0.  1.
         11    1    1    2    0    0  0.92938759055E+02  0.75703040496E+02  0.40931854208E+02  0.12666483318E+03  0.00000000000E+00 0. -1.
</event>
<event>
 7    1  0.2594791E-009  0.1124921E+03  0.7561462E-02  0.1256023E+00
          2   -1    0    0  501    0  0.00000000000E+00  0.00000000000E+00  0.16331613122E+03  0.16331613122E+03  0.00000000000E+00 0. -1.
         -2   -1    0    0    0  501 -0.00000000000E+00 -0.00000000000E+00 -0.12012302256E+03  0.12012302256E+03  0.00000000000E+00 0.  1.
         25    2    1    2    0    0  0.84359806730E+02 -0.28514763827E+02  0.25593413296E+02  0.15566603031E+03  0.12508885418E+03 0.  0.
          5    1    3    3  502    0  0.92973170644E+02 -0.22462102748E+02  0.64305471607E+02  0.11533092646E+03  0.41800000000E+01 0. -1.
         -5    1    3    3    0  502 -0.86133639140E+01 -0.60526610790E+01 -0.38712058310E+02  0.40335103851E+02  0.41800000000E+01 0. -1.
        -11    1    1    2    0    0  0.72823832154E+01  0.25183463945E+02  0.24406890171E+02  0.35818099466E+02  0.00000000000E+00 0. -1.
         11    1    1    2    0    0 -0.91642189946E+02  0.33312998828E+01 -0.68071948099E+01  0.91955023996E+02  0.00000000000E+00 0.  1.
</event>
<event>
 7    1  0.2594791E-009  0.1372698E+03  0.7561462E-02  0.1217051E+00
         -2   -1    0    0    0  501 -0.00000000000E+00  0.00000000000E+00  0.21389869553E+02  0.21389869553E+02  0.00000000000E+00 0.  1.
          2   -1    0    0  501    0  0.00000000000E+00 -0.00000000000E+00 -0.15699108655E+04  0.15699108655E+04  0.00000000000E+00 0. -1.
         25    2    1    2    0    0  0.59700331637E+02 -0.67988041000E+02 -0.13202369523E+04  0.13292325290E+04  0.12508797924E+03 0.  0.
          5    1    3    3  502    0 -0.15506188856E+02  0.24728087286E+02 -0.14686602938E+03  0.14979660604E+03  0.41800000000E+01 0. -1.
         -5    1    3    3    0  502  0.75206520493E+02 -0.92716128286E+02 -0.11733709230E+04  0.11794359230E+04  0.41800000000E+01 0. -1.
        -11    1    1    2    0    0 -0.75545371764E+02  0.24667654356E+02 -0.17065713964E+03  0.18825370030E+03  0.00000000000E+00 0. -1.
         11    1    1    2    0    0  0.15845040127E+02  0.43320386644E+02 -0.57626903942E+02  0.73814505712E+02  0.00000000000E+00 0.  1.
</event>
<event>
 7    1  0.2594791E-009  0.1445555E+03  0.7561462E-02  0.1207327E+00
         -1   -1    0    0    0  501 -0.00000000000E+00  0.00000000000E+00  0.45863445720E+02  0.45863445720E+02  0.00000000000E+00 0.  1.
          1   -1    0    0  501    0  0.00000000000E+00 -0.00000000000E+00 -0.67194146601E+03  0.67194146601E+03  0.00000000000E+00 0. -1.
         25    2    1    2    0    0  0.89900306835E+02  0.70140102520E+02 -0.48936517698E+03  0.51780419132E+03  0.12506480303E+03 0.  0.
          5    1    3    3  502    0 -0.90128811788E+01  0.50795814266E+02 -0.28768471450E+03  0.29230363345E+03  0.41800000000E+01 0. -1.
         -5    1    3    3    0  502  0.98913188014E+02  0.19344288254E+02 -0.20168046249E+03  0.22550055787E+03  0.41800000000E+01 0. -1.
        -11    1    1    2    0    0 -0.61655783882E+01  0.15514658606E+02  0.18992796379E+01  0.16802566817E+02  0.00000000000E+00 0.  1.
         11    1    1    2    0    0 -0.83734728447E+02 -0.85654761126E+02 -0.13861212294E+03  0.18319815359E+03  0.00000000000E+00 0. -1.
</event>
<event>
 7    1  0.2594791E-009  0.1452844E+03  0.7561462E-02  0.1206390E+00
         -1   -1    0    0    0  501 -0.00000000000E+00  0.00000000000E+00  0.36315100013E+03  0.36315100013E+03  0.00000000000E+00 0.  1.
          1   -1    0    0  501    0  0.00000000000E+00 -0.00000000000E+00 -0.81119726340E+02  0.81119726340E+02  0.00000000000E+00 0. -1.
         25    2    1    2    0    0  0.98919561672E+02  0.76332130973E+02  0.91214602671E+02  0.19894628441E+03  0.12509135238E+03 0.  0.
          5    1    3    3  502    0  0.12103503299E+03  0.75312888595E+02  0.48468139253E+02  0.15062583883E+03  0.41800000000E+01 0.  1.
         -5    1    3    3    0  502 -0.22115471318E+02  0.10192423781E+01  0.42746463418E+02  0.48320445584E+02  0.41800000000E+01 0.  1.
        -11    1    1    2    0    0 -0.47968577983E+02 -0.43913886183E+02  0.16905606337E+03  0.18113355966E+03  0.00000000000E+00 0.  1.
         11    1    1    2    0    0 -0.50950983688E+02 -0.32418244790E+02  0.21760607757E+02  0.64190882406E+02  0.00000000000E+00 0. -1.
</event>
<event>
 7    1  0.2594791E-009  0.1130329E+03  0.7561462E-02  0.1255054E+00
         -1   -1    0    0    0  501 -0.00000000000E+00  0.00000000000E+00  0.15316338986E+03  0.15316338986E+03  0.00000000000E+00 0.  1.
          1   -1    0    0  501    0  0.00000000000E+00 -0.00000000000E+00 -0.11311012457E+03  0.11311012457E+03  0.00000000000E+00 0. -1.
         25    2    1    2    0    0 -0.75302759309E+02 -0.81797800237E+01  0.13622305596E+02  0.14685661182E+03  0.12507550866E+03 0.  0.
          5    1    3    3  502    0 -0.10625411713E+03 -0.20339721146E+02  0.25626521522E+02  0.11125570848E+03  0.41800000000E+01 0. -1.
         -5    1    3    3    0  502  0.30951357822E+02  0.12159941123E+02 -0.12004215926E+02  0.35600903347E+02  0.41800000000E+01 0. -1.
        -11    1    1    2    0    0  0.72137018688E+02  0.17679906199E+02 -0.15868543720E+02  0.75948266788E+02  0.00000000000E+00 0. -1.
         11    1    1    2    0    0  0.31657406211E+01 -0.95001261750E+01  0.42299503416E+02  0.43468635823E+02  0.00000000000E+00 0.  1.
</event>
<event>
 7    1  0.2594791E-009  0.1300437E+03  0.7561462E-02  0.1227391E+00
          2   -1    0    0  501    0  0.00000000000E+00  0.00000000000E+00  0.25325374892E+03  0.25325374892E+03  0.00000000000E+00 0. -1.
         -2   -1    0    0    0  501 -0.00000000000E+00 -0.00000000000E+00 -0.20845644139E+03  0.20845644139E+03  0.00000000000E+00 0.  1.
         25    2    1    2    0    0 -0.73012726890E+02  0.79035992153E+02 -0.14849115152E+03  0.22197760010E+03  0.12508751545E+03 0.  0.
          5    1    3    3  502    0  0.10386787395E+02  0.14471431617E+02 -0.10701467010E+03  0.10856758127E+03  0.41800000000E+01 0. -1.
         -5    1    3    3    0  502 -0.83399514285E+02  0.64564560537E+02 -0.41476481421E+02  0.11341001883E+03  0.41800000000E+01 0. -1.
        -11    1    1    2    0    0  0.46519293704E+01 -0.66590150564E+02  0.61576503228E+02  0.90816046758E+02  0.00000000000E+00 0.  1.
         11    1    1    2    0    0  0.68360797519E+02 -0.12445841589E+02  0.13171195582E+03  0.14891654346E+03  0.00000000000E+00 0. -1.
</event>
<event>
 7    1  0.2594791E-009  0.8333821E+02  0.7561462E-02  0.1319836E+00
         -4   -1    0    0    0  501 -0.00000000000E+00  0.00000000000E+00  0.40779934772E+02  0.40779934772E+02  0.00000000000E+00 0.  1.
          4   -1    0    0  501    0  0.00000000000E+00 -0.00000000000E+00 -0.36583165095E+03  0.36583165095E+03  0.00000000000E+00 0. -1.
         25    2    1    2    0    0 -0.30309319807E+02 -0.18170049888E+02 -0.11001201858E+03  0.17029219810E+03  0.12509189791E+03 0.  0.
          5    1    3    3  502    0 -0.57241261131E+02  0.26561160120E+02 -0.97867034436E+02  0.11652247007E+03  0.41800000000E+01 0. -1.
         -5    1    3    3    0  502  0.26931941324E+02 -0.44731210009E+02 -0.12144984147E+02  0.53769728028E+02  0.41800000000E+01 0. -1.
        -11    1    1    2    0    0  0.22260706244E+02  0.29623832411E+02 -0.21872647317E+03  0.22184314403E+03  0.00000000000E+00 0. -1.
         11    1    1    2    0    0  0.80486135631E+01 -0.11453782522E+02  0.36867755725E+01  0.14476243590E+02  0.00000000000E+00 0.  1.
</event>
<event>
 7    1  0.2594791E-009  0.1013170E+03  0.7561462E-02  0.1277551E+00
          1   -1    0    0  501    0  0.00000000000E+00  0.00000000000E+00  0.30468737169E+03  0.30468737169E+03  0.00000000000E+00 0.  1.
         -1   -1    0    0    0  501 -0.00000000000E+00 -0.00000000000E+00 -0.40714344398E+02  0.40714344398E+02  0.00000000000E+00 0. -1.
         25    2    1    2    0    0  0.21947563180E+02 -0.96332807624E+00  0.12063057557E+03  0.17516332008E+03  0.12509128430E+03 0.  0.
          5    1    3    3  502    0 -0.38565312378E+02 -0.36125181338E+02  0.73746234244E+02  0.90820105212E+02  0.41800000000E+01 0.  1.
         -5    1    3    3    0  502  0.60512875557E+02  0.35161853262E+02  0.46884341328E+02  0.84343214871E+02  0.41800000000E+01 0.  1.
        -11    1    1    2    0    0  0.25851689206E+02  0.14754611359E+02  0.99737040908E+02  0.10408403201E+03  0.00000000000E+00 0. -1.
         11    1    1    2    0    0 -0.47799252386E+02 -0.13791283282E+02  0.43605410816E+02  0.66154363995E+02  0.00000000000E+00 0.  1.
</event>
<event>
 7    1  0.2597868E-009  0.1507179E+03  0.7561462E-02  0.1199594E+00
         -1   -1    0    0    0  501 -0.00000000000E+00  0.00000000000E+00  0.33687451673E+02  0.33687451673E+02  0.00000000000E+00 0.  1.
          1   -1    0    0  501    0  0.00000000000E+00 -0.00000000000E+00 -0.89135542537E+03  0.89135542537E+03  0.00000000000E+00 0. -1.
         25    2    1    2    0    0  0.11443678803E+03 -0.38893822307E+02 -0.29788199702E+03  0.34494975786E+03  0.12509253947E+03 0.  0.
          5    1    3    3  502    0 -0.13868397239E+02 -0.11075325917E+02 -0.13251272091E+03  0.13376131312E+03  0.41800000000E+01 0. -1.
         -5    1    3    3    0  502  0.12830518527E+03 -0.27818496390E+02 -0.16536927612E+03  0.21118844474E+03  0.41800000000E+01 0. -1.
        -11    1    1    2    0    0 -0.10377379688E+03 -0.76922359781E+01 -0.36645169310E+03  0.38093964717E+03  0.00000000000E+00 0.  1.
         11    1    1    2    0    0 -0.10662991147E+02  0.46586058285E+02 -0.19333428358E+03  0.19915347201E+03  0.00000000000E+00 0. -1.
</event>
<event>
 6    1  0.2594791E-009  0.1612515E+03  0.7561462E-02  0.1187291E+00
         -2   -1    0    0    0  501 -0.00000000000E+00  0.00000000000E+00  0.15474480460E+02  0.15474480460E+02  0.00000000000E+00 0.  1.
          2   -1    0    0  501    0  0.00000000000E+00 -0.00000000000E+00 -0.25745176637E+04  0.25745176637E+04  0.00000000000E+00 0. -1.
          5    1    1    2  502    0  0.95301190749E+02 -0.12862838639E+03 -0.17210859647E+04  0.17285201616E+04  0.41800000000E+01 0.  1.
         -5    1    1    2    0  502 -0.12337014522E+02  0.20898688500E+02 -0.24884092150E+03  0.25005646107E+03  0.41800000000E+01 0.  1.
        -11    1    1    2    0    0 -0.93413930145E+01  0.26544196162E+02 -0.28002821856E+02  0.39699042875E+02  0.00000000000E+00 0.  1.
         11    1    1    2    0    0 -0.73622783212E+02  0.81185501730E+02 -0.56111347521E+03  0.57171647865E+03  0.00000000000E+00 0. -1.
</event>
<event>
 7    1  0.2594791E-009  0.1041541E+03  0.7561462E-02  0.1271795E+00
         -1   -1    0    0    0  501 -0.00000000000E+00  0.00000000000E+00  0.57279618418E+02  0.57279618418E+02  0.00000000000E+00 0.  1.
          1   -1    0    0  501    0  0.00000000000E+00 -0.00000000000E+00 -0.22224555738E+03  0.22224555738E+03  0.00000000000E+00 0. -1.
         25    2    1    2    0    0  0.35509604793E+02  0.33197192927E+02 -0.99291954382E+02  0.16694251706E+03  0.12509167097E+03 0.  0.
          5    1    3    3  502    0 -0.29727029094E+02 -0.29633294091E+02 -0.20863891046E+02  0.47059565733E+02  0.41800000000E+01 0. -1.
         -5    1    3    3    0  502  0.65236633886E+02  0.62830487019E+02 -0.78428063336E+02  0.11988295133E+03  0.41800000000E+01 0. -1.
        -11    1    1    2    0    0 -0.66452716920E+01 -0.44103220253E+02 -0.68345732828E+02  0.81611230039E+02  0.00000000000E+00 0. -1.
         11    1    1    2    0    0 -0.28864333101E+02  0.10906027326E+02  0.26717482429E+01  0.30971428705E+02  0.00000000000E+00 0.  1.
</event>
<event>
 7    1  0.2594791E-009  0.1109397E+03  0.7561462E-02  0.1258839E+00
         -1   -1    0    0    0  501 -0.00000000000E+00  0.00000000000E+00  0.47335932308E+02  0.47335932308E+02  0.00000000000E+00 0.  1.
          1   -1    0    0  501    0  0.00000000000E+00 -0.00000000000E+00 -0.28449800754E+03  0.28449800754E+03  0.00000000000E+00 0. -1.
         25    2    1    2    0    0  0.10555365592E+02 -0.24636935772E+02 -0.88503951314E+02  0.15556095142E+03  0.12509143001E+03 0.  0.
          5    1    3    3  502    0  0.62110858986E+02 -0.39076695914E+02 -0.42872069836E+02  0.85089563047E+02  0.41800000000E+01 0.  1.
         -5    1    3    3    0  502 -0.51555493394E+02  0.14439760142E+02 -0.45631881478E+02  0.70471388373E+02  0.41800000000E+01 0.  1.
        -11    1    1    2    0    0 -0.43827574399E+02  0.38782462890E+02 -0.89138796347E+02  0.10663330024E+03  0.00000000000E+00 0.  1.
         11    1    1    2    0    0  0.33272208807E+02 -0.14145527119E+02 -0.59519327571E+02  0.69639688187E+02  0.00000000000E+00 0. -1.
</event>
<event>
 7    1  0.2594791E-009  0.1424859E+03  0.7561462E-02  0.1210023E+00
         -1   -1    0    0    0  501 -0.00000000000E+00  0.00000000000E+00  0.15521505081E+03  0.15521505081E+03  0.00000000000E+00 0.  1.
          1   -1    0    0  501    0  0.00000000000E+00 -0.00000000000E+00 -0.28940792864E+03  0.28940792864E+03  0.00000000000E+00 0. -1.
         25    2    1    2    0    0  0.10676676409E+03 -0.17736366698E+02  0.83175782574E+02  0.18514662151E+03  0.12508932821E+03 0.  0.
          5    1    3    3  502    0 -0.26541357943E+02  0.38822353178E+00 -0.94834384161E-01  0.26871468001E+02  0.41800000000E+01 0.  1.
         -5    1    3    3    0  502  0.13330812203E+03 -0.18124590230E+02  0.83270616958E+02  0.15827515351E+03  0.41800000000E+01 0.  1.
        -11    1    1    2    0    0 -0.16833775439E+02 -0.19852289123E+02 -0.59935629919E+01  0.26709776792E+02  0.00000000000E+00 0.  1.
         11    1    1    2    0    0 -0.89932988647E+02  0.37588655822E+02 -0.21137509741E+03  0.23276658114E+03  0.00000000000E+00 0. -1.
</event>
<event>
 7    1  0.2594791E-009  0.1037070E+03  0.7561462E-02  0.1272688E+00
          2   -1    0    0  501    0  0.00000000000E+00  0.00000000000E+00  0.35595216633E+03  0.35595216633E+03  0.00000000000E+00 0. -1.
         -2   -1    0    0    0  501 -0.00000000000E+00 -0.00000000000E+00 -0.41062661777E+02  0.41062661777E+02  0.00000000000E+00 0.  1.
         25    2    1    2    0    0  0.39876601536E+00 -0.31832019680E+02  0.24379272810E+03  0.27585389347E+03  0.12508812806E+03 0.  0.
          5    1    3    3  502    0  0.97889960137E+01  0.47704485846E+02  0.92266240111E+02  0.10441299669E+03  0.41800000000E+01 0. -1.
         -5    1    3    3    0  502 -0.93902299984E+01 -0.79536505526E+02  0.15152648798E+03  0.17144089679E+03  0.41800000000E+01 0. -1.
        -11    1    1    2    0    0 -0.86179031963E+00 -0.23244325493E+02 -0.81559003803E+01  0.24648733461E+02  0.00000000000E+00 0.  1.
         11    1    1    2    0    0  0.46302430427E+00  0.55076345173E+02  0.79252676837E+02  0.96512201171E+02  0.00000000000E+00 0. -1.
</event>
<event>
 7    1  0.2594791E-009  0.1568296E+03  0.7561462E-02  0.1192323E+00
          1   -1    0    0  501    0  0.00000000000E+00  0.00000000000E+00  0.12559230470E+04  0.12559230470E+04  0.00000000000E+00 0. -1.
         -1   -1    0    0    0  501 -0.00000000000E+00 -0.00000000000E+00 -0.21485410407E+02  0.21485410407E+02  0.00000000000E+00 0.  1.
         25    2    1    2    0    0 -0.74960927655E+02 -0.86410124513E+02  0.47708658246E+03  0.50630581365E+03  0.12509244373E+03 0.  0.
          5    1    3    3  502    0 -0.49604790588E+02 -0.11838365233E+03  0.36753691539E+03  0.38932785794E+03  0.41800000000E+01 0. -1.
         -5    1    3    3    0  502 -0.25356137068E+02  0.31973527820E+02  0.10954966707E+03  0.11697795571E+03  0.41800000000E+01 0. -1.
        -11    1    1    2    0    0  0.59688077944E+02  0.10461875279E+03  0.65933397424E+03  0.67024550701E+03  0.00000000000E+00 0.  1.
         11    1    1    2    0    0  0.15272849711E+02 -0.18208628272E+02  0.98017079884E+02  0.10085713674E+03  0.00000000000E+00 0. -1.
</event>
<event>
 7    1  0.2594791E-009  0.1008267E+03  0.7561462E-02  0.1278567E+00
          2   -1    0    0  501    0  0.00000000000E+00  0.00000000000E+00  0.15305509926E+03  0.15305509926E+03  0.00000000000E+00 0. -1.
         -2   -1    0    0    0  501 -0.00000000000E+00 -0.00000000000E+00 -0.84834368334E+02  0.84834368334E+02  0.00000000000E+00 0.  1.
         25    2    1    2    0    0  0.27605778498E-01 -0.11178360204E+02  0.74256289371E+02  0.14590098599E+03  0.12509254455E+03 0.  0.
          5    1    3    3  502    0  0.58496492689E+02 -0.23741811473E+02  0.23983345173E+02  0.67662297586E+02  0.41800000000E+01 0. -1.
         -5    1    3    3    0  502 -0.58468886910E+02  0.12563451270E+02  0.50272944199E+02  0.78238688401E+02  0.41800000000E+01 0. -1.
        -11    1    1    2    0    0  0.38803316753E+02  0.56135703065E+01  0.20874467198E+02  0.44417934930E+02  0.00000000000E+00 0. -1.
         11    1    1    2    0    0 -0.38830922532E+02  0.55647898972E+01 -0.26910025642E+02  0.47570546679E+02  0.00000000000E+00 0.  1.
</event>
<event>
 7    1  0.2594791E-009  0.7343495E+02  0.7561462E-02  0.1348787E+00
         -2   -1    0    0    0  501 -0.00000000000E+00  0.00000000000E+00  0.16207984964E+02  0.16207984964E+02  0.00000000000E+00 0.  1.
          2   -1    0    0  501    0  0.00000000000E+00 -0.00000000000E+00 -0.11301591359E+04  0.11301591359E+04  0.00000000000E+00 0. -1.
         25    2    1    2    0    0 -0.28199646790E+02  0.36713812936E+02 -0.89163015577E+03  0.90155139948E+03  0.12508983605E+03 0.  0.
          5    1    3    3  502    0 -0.15819122410E+02  0.78704220763E+01 -0.84494731476E+03  0.84514236983E+03  0.41800000000E+01 0. -1.
         -5    1    3    3    0  502 -0.12380524380E+02  0.28843390860E+02 -0.46682841018E+02  0.56409029647E+02  0.41800000000E+01 0. -1.
        -11    1    1    2    0    0 -0.14077794310E+00 -0.60224748309E+02 -0.96806224875E+02  0.11401089993E+03  0.00000000000E+00 0.  1.
         11    1    1    2    0    0  0.28340424733E+02  0.23510935373E+02 -0.12551477029E+03  0.13080482146E+03  0.00000000000E+00 0. -1.
</event>
<event>
 7    1  0.2594791E-009  0.1068575E+03  0.7561462E-02  0.1266503E+00
          1   -1    0    0  501    0  0.00000000000E+00  0.00000000000E+00  0.16264222640E+03  0.16264222640E+03  0.00000000000E+00 0. -1.
         -1   -1    0    0    0  501 -0.00000000000E+00 -0.00000000000E+00 -0.76786721340E+02  0.76786721340E+02  0.00000000000E+00 0.  1.
         25    2    1    2    0    0  0.24429361806E+02  0.44517281142E+01  0.58089329449E+02  0.14011830541E+03  0.12506861203E+03 0.  0.
          5    1    3    3  502    0  0.74187904271E+02  0.14532271739E+02  0.26702357061E+02  0.80283997999E+02  0.41800000000E+01 0.  1.
         -5    1    3    3    0  502 -0.49758542465E+02 -0.10080543625E+02  0.31386972388E+02  0.59834307414E+02  0.41800000000E+01 0.  1.
        -11    1    1    2    0    0 -0.19230219861E+02  0.38902333011E+02 -0.64031649070E+01  0.43865628805E+02  0.00000000000E+00 0.  1.
         11    1    1    2    0    0 -0.51991419445E+01 -0.43354061125E+02  0.34169340519E+02  0.55445013523E+02  0.00000000000E+00 0. -1.
</event>
<event>
 7    1  0.2594791E-009  0.1402842E+03  0.7561462E-02  0.1212947E+00
          2   -1    0    0  501    0  0.00000000000E+00  0.00000000000E+00  0.17634384293E+03  0.17634384293E+03  0.00000000000E+00 0. -1.
         -2   -1    0    0    0  501 -0.00000000000E+00 -0.00000000000E+00 -0.18680050063E+03  0.18680050063E+03  0.00000000000E+00 0.  1.
         25    2    1    2    0    0 -0.13937905591E+02 -0.98474516391E+02 -0.11220712538E+03  0.19526518030E+03  0.12508619453E+03 0.  0.
          5    1    3    3  502    0  0.44473678808E+02 -0.86277172525E+02 -0.51182513511E+02  0.10981247969E+03  0.41800000000E+01 0. -1.
         -5    1    3    3    0  502 -0.58411584399E+02 -0.12197343866E+02 -0.61024611865E+02  0.85452700617E+02  0.41800000000E+01 0. -1.
        -11    1    1    2    0    0  0.60759682972E+01  0.10971235163E+03  0.62746011294E+02  0.12653370864E+03  0.00000000000E+00 0.  1.
         11    1    1    2    0    0  0.78619372940E+01 -0.11237835235E+02  0.39004456385E+02  0.41345454607E+02  0.00000000000E+00 0. -1.
</event>
<event>
 7    1  0.2594791E-009  0.1689001E+03  0.7561462E-02  0.1179000E+00
         -1   -1    0    0    0  501 -0.00000000000E+00  0.00000000000E+00  0.75996393160E+03  0.75996393160E+03  0.00000000000E+00 0.  1.
          1   -1    0    0  501    0  0.00000000000E+00 -0.00000000000E+00 -0.44299052406E+02  0.44299052406E+02  0.00000000000E+00 0. -1.
         25    2    1    2    0    0  0.84752370076E+02  0.10316095735E+03  0.49109351781E+03  0.52406586309E+03  0.12508812202E+03 0.  0.
          5    1    3    3  502    0  0.11187289998E+03  0.73198833039E+02  0.29647221751E+03  0.32524892477E+03  0.41800000000E+01 0.  1.
         -5    1    3    3    0  502 -0.27120529900E+02  0.29962124316E+02  0.19462130030E+03  0.19881693832E+03  0.41800000000E+01 0.  1.
        -11    1    1    2    0    0 -0.89305176206E+02 -0.11794705521E+03  0.21783501354E+03  0.26332302492E+03  0.00000000000E+00 0.  1.
         11    1    1    2    0    0  0.45528061295E+01  0.14786097853E+02  0.67363478515E+01  0.16874095998E+02  0.00000000000E+00 0. -1.
</event>
<event>
 7    1  0.2594791E-009  0.6792584E+02  0.7561462E-02  0.1367292E+00
         -4   -1    0    0    0  501 -0.00000000000E+00  0.00000000000E+00  0.80435156756E+02  0.80435156756E+02  0.00000000000E+00 0.  1.
          4   -1    0    0  501    0  0.00000000000E+00 -0.00000000000E+00 -0.15981657339E+03  0.15981657339E+03  0.00000000000E+00 0. -1.
         25    2    1    2    0    0 -0.27601813618E+02 -0.18956791427E+02 -0.42679591256E+02  0.13634518625E+03  0.12508893735E+03 0.  0.
          5    1    3    3  502    0  0.72644136323E+01 -0.40967698206E+01 -0.81440357474E+02  0.81972919028E+02  0.41800000000E+01 0. -1.
         -5    1    3    3    0  502 -0.34866227250E+02 -0.14860021607E+02  0.38760766218E+02  0.54372267220E+02  0.41800000000E+01 0. -1.
        -11    1    1    2    0    0 -0.77591802677E+01  0.44244400464E+02  0.30179212289E+01  0.45020880704E+02  0.00000000000E+00 0.  1.
         11    1    1    2    0    0  0.35360993885E+02 -0.25287609036E+02 -0.39719746607E+02  0.58885663195E+02  0.00000000000E+00 0. -1.
</event>
<event>
 7    1  0.2594791E-009  0.1011601E+03  0.7561462E-02  0.1277875E+00
          1   -1    0    0  501    0  0.00000000000E+00  0.00000000000E+00  0.48955865287E+02  0.48955865287E+02  0.00000000000E+00 0.  1.
         -1   -1    0    0    0  501 -0.00000000000E+00 -0.00000000000E+00 -0.27904923502E+03  0.27904923502E+03  0.00000000000E+00 0. -1.
         25    2    1    2    0    0  0.39821670574E+02  0.13327986629E+02 -0.12618899656E+03  0.18257873597E+03  0.12509169158E+03 0.  0.
          5    1    3    3  502    0  0.63464390633E+02  0.42981268902E+02 -0.36271722316E+02  0.84901287356E+02  0.41800000000E+01 0. -1.
         -5    1    3    3    0  502 -0.23642720060E+02 -0.29653282273E+02 -0.89917274240E+02  0.97677448616E+02  0.41800000000E+01 0. -1.
        -11    1    1    2    0    0 -0.12509619894E+02  0.32069225914E+02 -0.80415085512E+02  0.87472920487E+02  0.00000000000E+00 0. -1.
         11    1    1    2    0    0 -0.27312050680E+02 -0.45397212543E+02 -0.23489287667E+02  0.57953443850E+02  0.00000000000E+00 0.  1.
</event>
<event>
 7    1  0.2594791E-009  0.9057757E+02  0.7561462E-02  0.1301459E+00
         -2   -1    0    0    0  501 -0.00000000000E+00  0.00000000000E+00  0.25722979705E+03  0.25722979705E+03  0.00000000000E+00 0. -1.
          2   -1    0    0  501    0  0.00000000000E+00 -0.00000000000E+00 -0.55359262350E+02  0.55359262350E+02  0.00000000000E+00 0.  1.
         25    2    1    2    0    0  0.18159866898E+00  0.43692816037E+02  0.85186467899E+02  0.15752493984E+03  0.12509307418E+03 0.  0.
          5    1    3    3  502    0 -0.57913461245E+02  0.44254331930E+02  0.58019318893E+02  0.93253035622E+02  0.41800000000E+01 0.  1.
         -5    1    3    3    0  502  0.58095059914E+02 -0.56151589296E+00  0.27167149006E+02  0.64271904217E+02  0.41800000000E+01 0.  1.
        -11    1    1    2    0    0  0.11283679614E+02 -0.13440289846E+02 -0.12722046445E+02  0.21675176644E+02  0.00000000000E+00 0.  1.
         11    1    1    2    0    0 -0.11465278283E+02 -0.30252526191E+02  0.12940611325E+03  0.13338894292E+03  0.00000000000E+00 0. -1.
</event>
<event>
 7    1  0.2594791E-009  0.1144572E+03  0.7561462E-02  0.1252532E+00
          1   -1    0    0  501    0  0.00000000000E+00  0.00000000000E+00  0.32544504208E+03  0.32544504208E+03  0.00000000000E+00 0. -1.
         -1   -1    0    0    0  501 -0.00000000000E+00 -0.00000000000E+00 -0.55894789402E+02  0.55894789402E+02  0.00000000000E+00 0.  1.
         25    2    1    2    0    0  0.28394277365E+02  0.61274501553E+02  0.20669947511E+03  0.25086424456E+03  0.12508955456E+03 0.  0.
          5    1    3    3  502    0  0.67792339231E+02  0.73613685506E+02  0.13629357485E+03  0.16913954859E+03  0.41800000000E+01 0. -1.
         -5    1    3    3    0  502 -0.39398061867E+02 -0.12339183953E+02  0.70405900260E+02  0.81724695967E+02  0.41800000000E+01 0. -1.
        -11    1    1    2    0    0 -0.42441881575E+02 -0.27224379301E+02  0.76135896493E+02  0.91318973246E+02  0.00000000000E+00 0. -1.
         11    1    1    2    0    0  0.14047604210E+02 -0.34050122252E+02 -0.13285118929E+02  0.39156613674E+02  0.00000000000E+00 0.  1.
</event>
<event>
 7    1  0.2594791E-009  0.9755853E+02  0.7561462E-02  0.1285515E+00
         -3   -1    0    0    0  501 -0.00000000000E+00  0.00000000000E+00  0.26979286552E+03  0.26979286552E+03  0.00000000000E+00 0.  1.
          3   -1    0    0  501    0  0.00000000000E+00 -0.00000000000E+00 -0.51443426729E+02  0.51443426729E+02  0.00000000000E+00 0. -1.
         25    2    1    2    0    0 -0.31158377228E+02 -0.85499952622E+01  0.16590444068E+03  0.21027388071E+03  0.12508746772E+03 0.  0.
          5    1    3    3  502    0  0.34753634329E+02  0.32142424814E+02  0.89812317907E+02  0.10161041000E+03  0.41800000000E+01 0. -1.
         -5    1    3    3    0  502 -0.65912011557E+02 -0.40692420076E+02  0.76092122771E+02  0.10866347071E+03  0.41800000000E+01 0. -1.
        -11    1    1    2    0    0  0.49409497195E+02 -0.10037366080E+01 -0.52520746138E+01  0.49697989778E+02  0.00000000000E+00 0. -1.
         11    1    1    2    0    0 -0.18251119967E+02  0.95537318702E+01  0.57697072727E+02  0.61264421763E+02  0.00000000000E+00 0.  1.
</event>
<event>
 7    1  0.2594791E-009  0.1411708E+03  0.7561462E-02  0.1211762E+00
         -2   -1    0    0    0  501 -0.00000000000E+00  0.00000000000E+00  0.38597936483E+02  0.38597936483E+02  0.00000000000E+00 0.  1.
          2   -1    0    0  501    0  0.00000000000E+00 -0.00000000000E+00 -0.76509739803E+03  0.76509739803E+03  0.00000000000E+00 0. -1.
         25    2    1    2    0    0 -0.66608124716E+02 -0.87250423653E+02 -0.56219193504E+03  0.58630756490E+03  0.12509000815E+03 0.  0.
          5    1    3    3  502    0 -0.79444453842E+02 -0.24852489336E+02 -0.44610415357E+03  0.45382315466E+03  0.41800000000E+01 0.  1.
         -5    1    3    3    0  502  0.12836329126E+02 -0.62397934317E+02 -0.11608778147E+03  0.13248441025E+03  0.41800000000E+01 0.  1.
        -11    1    1    2    0    0  0.26298165351E+02 -0.11341902245E+02 -0.10933939412E+02  0.30655884891E+02  0.00000000000E+00 0.  1.
         11    1    1    2    0    0  0.40309959365E+02  0.98592325899E+02 -0.15337358710E+03  0.18673188471E+03  0.00000000000E+00 0. -1.
</event>
<event>
 7    1  0.2594791E-009  0.3515651E+03  0.7561462E-02  0.1061974E+00
         -1   -1    0    0    0  501 -0.00000000000E+00  0.00000000000E+00  0.56850246763E+03  0.56850246763E+03  0.00000000000E+00 0.  1.
          1   -1    0    0  501    0  0.00000000000E+00 -0.00000000000E+00 -0.25154025254E+03  0.25154025254E+03  0.00000000000E+00 0. -1.
         25    2    1    2    0    0 -0.28017604856E+03 -0.20341881283E+03  0.27462356060E+03  0.45928522117E+03  0.12508790009E+03 0.  0.
          5    1    3    3  502    0 -0.11655673165E+03 -0.83301393442E+02  0.19317194483E+03  0.24053579050E+03  0.41800000000E+01 0.  1.
         -5    1    3    3    0  502 -0.16361931691E+03 -0.12011741939E+03  0.81451615770E+02  0.21874943067E+03  0.41800000000E+01 0.  1.
        -11    1    1    2    0    0  0.24591385776E+03  0.13564521643E+03  0.19796546809E+02  0.28154067813E+03  0.00000000000E+00 0.  1.
         11    1    1    2    0    0  0.34262190800E+02  0.67773596406E+02  0.22542107674E+02  0.79216820856E+02  0.00000000000E+00 0. -1.
</event>
<event>
 7    1  0.2594791E-009  0.1843851E+03  0.7561462E-02  0.1163625E+00
         -1   -1    0    0    0  501 -0.00000000000E+00  0.00000000000E+00  0.30346291165E+02  0.30346291165E+02  0.00000000000E+00 0.  1.
          1   -1    0    0  501    0  0.00000000000E+00 -0.00000000000E+00 -0.15255229990E+04  0.15255229990E+04  0.00000000000E+00 0. -1.
         25    2    1    2    0    0  0.10702312923E+03 -0.13835566442E+03 -0.96220623760E+03  0.98594552112E+03  0.12510590262E+03 0.  0.
          5    1    3    3  502    0  0.63359945187E+01 -0.62129055803E+02 -0.13093906123E+03  0.14512985412E+03  0.41800000000E+01 0. -1.
         -5    1    3    3    0  502  0.10068713471E+03 -0.76226608616E+02 -0.83126717638E+03  0.84081566700E+03  0.41800000000E+01 0. -1.
        -11    1    1    2    0    0 -0.57488491615E+02  0.10621472269E+03 -0.46237783244E+03  0.47789094354E+03  0.00000000000E+00 0. -1.
         11    1    1    2    0    0 -0.49534637611E+02  0.32140941730E+02 -0.70592637754E+02  0.92032825468E+02  0.00000000000E+00 0.  1.
</event>
<event>
 7    1  0.2594791E-009  0.1101458E+03  0.7561462E-02  0.1260300E+00
         -2   -1    0    0    0  501 -0.00000000000E+00  0.00000000000E+00  0.39221260686E+02  0.39221260686E+02  0.00000000000E+00 0. -1.
          2   -1    0    0  501    0  0.00000000000E+00 -0.00000000000E+00 -0.49577450419E+03  0.49577450419E+03  0.00000000000E+00 0.  1.
         25    2    1    2    0    0 -0.85061540802E+02 -0.13384001761E+02 -0.27175222145E+03  0.31129482105E+03  0.12506237852E+03 0.  0.
          5    1    3    3  502    0 -0.17448867609E+02 -0.21571021088E+02  0.29800525053E+01  0.28215687916E+02  0.41800000000E+01 0. -1.
         -5    1    3    3    0  502 -0.67612673193E+02  0.81870193267E+01 -0.27473227396E+03  0.28307913313E+03  0.41800000000E+01 0. -1.
        -11    1    1    2    0    0 -0.74341517627E+01  0.29225761166E+02 -0.29104982158E+02  0.41910758936E+02  0.00000000000E+00 0. -1.
         11    1    1    2    0    0  0.92495692565E+02 -0.15841759405E+02 -0.15569603990E+03  0.18179018490E+03  0.00000000000E+00 0.  1.
</event>
<event>
 7    1  0.2594791E-009  0.7581603E+02  0.7561462E-02  0.1341363E+00
          1   -1    0    0  501    0  0.00000000000E+00  0.00000000000E+00  0.40293631555E+03  0.40293631555E+03  0.00000000000E+00 0. -1.
         -1   -1    0    0    0  501 -0.00000000000E+00 -0.00000000000E+00 -0.44243608918E+02  0.44243608918E+02  0.00000000000E+00 0.  1.
         25    2    1    2    0    0 -0.44770364559E+02  0.56714120365E+02  0.25992781121E+03  0.29737354075E+03  0.12509068193E+03 0.  0.
          5    1    3    3  502    0 -0.25541395700E+02  0.26010572002E+02  0.25827434156E+03  0.26086782220E+03  0.41800000000E+01 0. -1.
         -5    1    3    3    0  502 -0.19228968859E+02  0.30703548363E+02  0.16534696542E+01  0.36505718557E+02  0.41800000000E+01 0. -1.
        -11    1    1    2    0    0  0.14041041758E+02 -0.42222050175E+02  0.10609646995E+03  0.11504917780E+03  0.00000000000E+00 0. -1.
         11    1    1    2    0    0  0.30729322801E+02 -0.14492070190E+02 -0.73315745337E+01  0.34757205919E+02  0.00000000000E+00 0.  1.
</event>
<event>
 7    1  0.2594791E-009  0.1153910E+03  0.7561462E-02  0.1250900E+00
         -2   -1    0    0    0  501 -0.00000000000E+00  0.00000000000E+00  0.35960454112E+02  0.35960454112E+02  0.00000000000E+00 0.  1.
          2   -1    0    0  501    0  0.00000000000E+00 -0.00000000000E+00 -0.48831873821E+03  0.48831873821E+03  0.00000000000E+00 0. -1.
         25    2    1    2    0    0  0.71369288045E+02 -0.19755752049E+02 -0.26511024888E+03  0.30234881832E+03  0.12508996308E+03 0.  0.
          5    1    3    3  502    0  0.57637615420E+02 -0.56412251590E+02 -0.24535366521E+03  0.25830278797E+03  0.41800000000E+01 0.  1.
         -5    1    3    3    0  502  0.13731672626E+02  0.36656499541E+02 -0.19756583679E+02  0.44046030359E+02  0.41800000000E+01 0.  1.
        -11    1    1    2    0    0 -0.11594941533E+02  0.44483519953E+02 -0.12054327875E+03  0.12901127187E+03  0.00000000000E+00 0. -1.
         11    1    1    2    0    0 -0.59774346512E+02 -0.24727767904E+02 -0.66704756468E+02  0.92919102137E+02  0.00000000000E+00 0.  1.
</event>
<event>
 7    1  0.2594791E-009  0.6073280E+02  0.7561462E-02  0.1394782E+00
          1   -1    0    0  501    0  0.00000000000E+00  0.00000000000E+00  0.15540082920E+03  0.15540082920E+03  0.00000000000E+00 0. -1.
         -1   -1    0    0    0  501 -0.00000000000E+00 -0.00000000000E+00 -0.75826469134E+02  0.75826469134E+02  0.00000000000E+00 0.  1.
         25    2    1    2    0    0  0.82595619629E+01 -0.29858704039E+01  0.43030281860E+02  0.13257698246E+03  0.12509162776E+03 0.  0.
          5    1    3    3  502    0 -0.24141143393E+02 -0.11169939225E+02 -0.36993266398E+02  0.45755180094E+02  0.41800000000E+01 0.  1.
         -5    1    3    3    0  502  0.32400705356E+02  0.81840688214E+01  0.80023548258E+02  0.86821802365E+02  0.41800000000E+01 0.  1.
        -11    1    1    2    0    0  0.19685197700E+02  0.20065663788E+02  0.54483952190E+02  0.61307739463E+02  0.00000000000E+00 0. -1.
         11    1    1    2    0    0 -0.27944759663E+02 -0.17079793384E+02 -0.17939873983E+02  0.37342576413E+02  0.00000000000E+00 0.  1.
</event>
<event>
 7    1  0.2594791E-009  0.1158621E+03  0.7561462E-02  0.1250084E+00
          4   -1    0    0  501    0  0.00000000000E+00  0.00000000000E+00  0.56996926261E+02  0.56996926261E+02  0.00000000000E+00 0. -1.
         -4   -1    0    0    0  501 -0.00000000000E+00 -0.00000000000E+00 -0.42649948061E+03  0.42649948061E+03  0.00000000000E+00 0.  1.
         25    2    1    2    0    0 -0.66513171337E+02 -0.50672933939E+02 -0.31665272283E+03  0.35058093337E+03  0.12508515408E+03 0.  0.
          5    1    3    3  502    0  0.10785153259E+02  0.21414415913E+02 -0.10206397679E+02  0.26392038445E+02  0.41800000000E+01 0. -1.
         -5    1    3    3    0  502 -0.77298324596E+02 -0.72087349851E+02 -0.30644632515E+03  0.32418889492E+03  0.41800000000E+01 0. -1.
        -11    1    1    2    0    0  0.28145176130E+02 -0.99589093465E+01  0.15656553314E+02  0.33711399799E+02  0.00000000000E+00 0. -1.
         11    1    1    2    0    0  0.38367995207E+02  0.60631843285E+02 -0.68506384837E+02  0.99204073706E+02  0.00000000000E+00 0.  1.
</event>
<event>
 7    1  0.2594791E-009  0.2686992E+03  0.7561462E-02  0.1102026E+00
          1   -1    0    0  501    0  0.00000000000E+00  0.00000000000E+00  0.20530160071E+04  0.20530160071E+04  0.00000000000E+00 0.  1.
         -1   -1    0    0    0  501 -0.00000000000E+00 -0.00000000000E+00 -0.39646887296E+02  0.39646887296E+02  0.00000000000E+00 0. -1.
         25    2    1    2    0    0 -0.14834800112E+03  0.20642732577E+03  0.77306575223E+03  0.82334457891E+03  0.12508504343E+03 0.  0.
          5    1    3    3  502    0 -0.44007966808E+02  0.65940752863E+01  0.55905568034E+02  0.71575749445E+02  0.41800000000E+01 0. -1.
         -5    1    3    3    0  502 -0.10434003431E+03  0.19983325048E+03  0.71716018420E+03  0.75176882947E+03  0.41800000000E+01 0. -1.
        -11    1    1    2    0    0  0.59220675683E+02 -0.23437044767E+02  0.22649308062E+03  0.23527749375E+03  0.00000000000E+00 0. -1.
         11    1    1    2    0    0  0.89127325438E+02 -0.18299028100E+03  0.10138102869E+04  0.10340408217E+04  0.00000000000E+00 0.  1.
</event>
<event>
 7    1  0.2594791E-009  0.1203499E+03  0.7561462E-02  0.1242521E+00
         -1   -1    0    0    0  501 -0.00000000000E+00  0.00000000000E+00  0.39970739883E+02  0.39970739883E+02  0.00000000000E+00 0.  1.
          1   -1    0    0  501    0  0.00000000000E+00 -0.00000000000E+00 -0.42177098893E+03  0.42177098893E+03  0.00000000000E+00 0. -1.
         25    2    1    2    0    0  0.11729058507E+02  0.68652066421E+02 -0.23413110632E+03  0.27443503240E+03  0.12508611044E+03 0.  0.
          5    1    3    3  502    0 -0.38925132599E+02  0.71926422316E+02 -0.90546667720E+02  0.12208500158E+03  0.41800000000E+01 0.  1.
         -5    1    3    3    0  502  0.50654191106E+02 -0.32743558944E+01 -0.14358443860E+03  0.15235003082E+03  0.41800000000E+01 0.  1.
        -11    1    1    2    0    0 -0.33945645781E+02  0.18121204287E+01 -0.19025494336E+02  0.38955873532E+02  0.00000000000E+00 0.  1.
         11    1    1    2    0    0  0.22216587274E+02 -0.70464186850E+02 -0.12864364839E+03  0.14835082288E+03  0.00000000000E+00 0. -1.
</event>
<event>
 7    1  0.2594791E-009  0.1379329E+03  0.7561462E-02  0.1216138E+00
         -2   -1    0    0    0  501 -0.00000000000E+00  0.00000000000E+00  0.64138204904E+02  0.64138204904E+02  0.00000000000E+00 0.  1.
          2   -1    0    0  501    0  0.00000000000E+00 -0.00000000000E+00 -0.65609631361E+03  0.65609631361E+03  0.00000000000E+00 0. -1.
         25    2    1    2    0    0  0.11398151761E+02  0.10710804997E+03 -0.54402503717E+03  0.56851847281E+03  0.12509180880E+03 0.  0.
          5    1    3    3  502    0  0.63742935000E+02  0.28847468028E+02 -0.20581037543E+03  0.21741830928E+03  0.41800000000E+01 0. -1.
         -5    1    3    3    0  502 -0.52344783239E+02  0.78260581944E+02 -0.33821466174E+03  0.35110016353E+03  0.41800000000E+01 0. -1.
        -11    1    1    2    0    0 -0.15770340847E+02 -0.26752800799E+02 -0.62633996885E+02  0.69910182140E+02  0.00000000000E+00 0. -1.
         11    1    1    2    0    0  0.43721890865E+01 -0.80355249173E+02  0.14700925350E+02  0.81805863563E+02  0.00000000000E+00 0.  1.
</event>
<event>
 7    1  0.2594791E-009  0.1120046E+03  0.7561462E-02  0.1256902E+00
          1   -1    0    0  501    0  0.00000000000E+00  0.00000000000E+00  0.55917015559E+03  0.55917015559E+03  0.00000000000E+00 0. -1.
         -1   -1    0    0    0  501 -0.00000000000E+00 -0.00000000000E+00 -0.25007007323E+02  0.25007007323E+02  0.00000000000E+00 0.  1.
         25    2    1    2    0    0  0.85964577301E+01 -0.38618221644E+02  0.23588884414E+03  0.26991943669E+03  0.12509072462E+03 0.  0.
          5    1    3    3  502    0  0.59927017558E+02 -0.48346102890E+02  0.11874496403E+03  0.14158542291E+03  0.41800000000E+01 0.  1.
         -5    1    3    3    0  502 -0.51330559828E+02  0.97278812461E+01  0.11714388012E+03  0.12833401379E+03  0.41800000000E+01 0.  1.
        -11    1    1    2    0    0  0.35609976190E+02 -0.26884854992E+00  0.70320195806E+02  0.78823046261E+02  0.00000000000E+00 0.  1.
         11    1    1    2    0    0 -0.44206433920E+02  0.38887070194E+02  0.22795410832E+03  0.23543467996E+03  0.00000000000E+00 0. -1.
</event>
<event>
 7    1  0.2594791E-009  0.1890847E+03  0.7561462E-02  0.1159289E+00
         -1   -1    0    0    0  501 -0.00000000000E+00  0.00000000000E+00  0.18705466045E+02  0.18705466045E+02  0.00000000000E+00 0.  1.
          1   -1    0    0  501    0  0.00000000000E+00 -0.00000000000E+00 -0.35161573442E+04  0.35161573442E+04  0.00000000000E+00 0. -1.
         25    2    1    2    0    0  0.63130195385E+02  0.15997607702E+03 -0.28683072738E+04  0.28761787020E+04  0.12505815597E+03 0.  0.
          5    1    3    3  502    0 -0.28254791131E+02  0.36912416189E+02 -0.11798435237E+04  0.11807663073E+04  0.41800000000E+01 0. -1.
         -5    1    3    3    0  502  0.91384986516E+02  0.12306366083E+03 -0.16884637501E+04  0.16954123948E+04  0.41800000000E+01 0. -1.
        -11    1    1    2    0    0 -0.93061772021E+01 -0.86903057239E+02 -0.17559884916E+03  0.19614714405E+03  0.00000000000E+00 0.  1.
         11    1    1    2    0    0 -0.53824018183E+02 -0.73073019777E+02 -0.45354575519E+03  0.46253696415E+03  0.00000000000E+00 0. -1.
</event>
<event>
 7    1  0.2594791E-009  0.1221862E+03  0.7561462E-02  0.1239533E+00
         -2   -1    0    0    0  501 -0.00000000000E+00  0.00000000000E+00  0.36758267046E+02  0.36758267046E+02  0.00000000000E+00 0.  1.
          2   -1    0    0  501    0  0.00000000000E+00 -0.00000000000E+00 -0.50395617987E+03  0.50395617987E+03  0.00000000000E+00 0. -1.
         25    2    1    2    0    0  0.45929136757E+02 -0.50398136456E+02 -0.34503432697E+03  0.37328971839E+03  0.12508824608E+03 0.  0.
          5    1    3    3  502    0 -0.42230957704E+02 -0.44867957965E+01 -0.92661335111E+02  0.10201558974E+03  0.41800000000E+01 0. -1.
         -5    1    3    3    0  502  0.88160094461E+02 -0.45911340660E+02 -0.25237299186E+03  0.27127412865E+03  0.41800000000E+01 0. -1.
        -11    1    1    2    0    0 -0.58066151250E+02  0.86145417298E+01 -0.10569424372E+03  0.12090145328E+03  0.00000000000E+00 0. -1.
         11    1    1    2    0    0  0.12137014493E+02  0.41783594726E+02 -0.16469342134E+02  0.46523275243E+02  0.00000000000E+00 0.  1.
</event>
<event>
 7    1  0.3087578E-009  0.1499190E+03  0.7561462E-02  0.1200573E+00
         -1   -1    0    0    0  501 -0.00000000000E+00  0.00000000000E+00  0.51231226088E+03  0.51231226088E+03  0.00000000000E+00 0.  1.
          1   -1    0    0  501    0  0.00000000000E+00 -0.00000000000E+00 -0.69800569045E+02  0.69800569045E+02  0.00000000000E+00 0. -1.
         25    2    1    2    0    0  0.62499038279E+02  0.13450479492E+03  0.16613898009E+03  0.25543753646E+03  0.12509398340E+03 0.  0.
          5    1    3    3  502    0  0.49280118690E+02  0.10449445326E+03  0.18442121003E+03  0.21766091971E+03  0.41800000000E+01 0.  1.
         -5    1    3    3    0  502  0.13218919589E+02  0.30010341655E+02 -0.18282229937E+02  0.37776616747E+02  0.41800000000E+01 0.  1.
        -11    1    1    2    0    0 -0.36537543382E+02 -0.10824739715E+03  0.11874829567E+03  0.16478364236E+03  0.00000000000E+00 0. -1.
         11    1    1    2    0    0 -0.25961494897E+02 -0.26257397773E+02  0.15762441608E+03  0.16189165111E+03  0.00000000000E+00 0.  1.
</event>
<event>
 7    1  0.2594791E-009  0.1776731E+03  0.7561462E-02  0.1170074E+00
         -2   -1    0    0    0  501 -0.00000000000E+00  0.00000000000E+00  0.13065028828E+03  0.13065028828E+03  0.00000000000E+00 0.  1.
          2   -1    0    0  501    0  0.00000000000E+00 -0.00000000000E+00 -0.39728021986E+03  0.39728021986E+03  0.00000000000E+00 0. -1.
         25    2    1    2    0    0  0.11893126634E+03 -0.11355392741E+03 -0.60052075564E+01  0.20670979030E+03  0.12511488459E+03 0.  0.
          5    1    3    3  502    0  0.31738639584E+01 -0.14370719320E+02 -0.46481838896E+02  0.48934903017E+02  0.41800000000E+01 0.  1.
         -5    1    3    3    0  502  0.11575740238E+03 -0.99183208091E+02  0.40476631339E+02  0.15777488729E+03  0.41800000000E+01 0.  1.
        -11    1    1    2    0    0 -0.46588448944E+01  0.62024661236E+02 -0.93805842829E+02  0.11255354098E+03  0.00000000000E+00 0.  1.
         11    1    1    2    0    0 -0.11427242145E+03  0.51529266174E+02 -0.16681888120E+03  0.20866717686E+03  0.00000000000E+00 0. -1.
</event>
<event>
 7    1  0.2594791E-009  0.1080136E+03  0.7561462E-02  0.1264293E+00
          1   -1    0    0  501    0  0.00000000000E+00  0.00000000000E+00  0.68737082990E+03  0.68737082990E+03  0.00000000000E+00 0.  1.
         -1   -1    0    0    0  501 -0.00000000000E+00 -0.00000000000E+00 -0.23784661991E+02  0.23784661991E+02  0.00000000000E+00 0. -1.
         25    2    1    2    0    0  0.36738576297E+02 -0.11817734960E+02  0.51805775920E+03  0.53434142279E+03  0.12509009711E+03 0.  0.
          5    1    3    3  502    0  0.58793038398E+01  0.55713930249E+02  0.20344976794E+03  0.21106370771E+03  0.41800000000E+01 0.  1.
         -5    1    3    3    0  502  0.30859272457E+02 -0.67531665209E+02  0.31460799126E+03  0.32327771508E+03  0.41800000000E+01 0.  1.
        -11    1    1    2    0    0 -0.60655629600E+02  0.67082701150E+01  0.13852969185E+03  0.15137563150E+03  0.00000000000E+00 0. -1.
         11    1    1    2    0    0  0.23917053303E+02  0.51094648451E+01  0.69987168620E+01  0.25438437597E+02  0.00000000000E+00 0.  1.
</event>
<event>
 7    1  0.2594791E-009  0.1105421E+03  0.7561462E-02  0.1259569E+00
         -2   -1    0    0    0  501 -0.00000000000E+00  0.00000000000E+00  0.10395962581E+02  0.10395962581E+02  0.00000000000E+00 0.  1.
          2   -1    0    0  501    0  0.00000000000E+00 -0.00000000000E+00 -0.12929790951E+04  0.12929790951E+04  0.00000000000E+00 0. -1.
         25    2    1    2    0    0 -0.36133347140E+02 -0.12408899990E+02 -0.84609362712E+03  0.85614370199E+03  0.12509201829E+03 0.  0.
          5    1    3    3  502    0 -0.94549346571E+01  0.55280938566E+02 -0.30210137609E+03  0.30729154201E+03  0.41800000000E+01 0. -1.
         -5    1    3    3    0  502 -0.26678412482E+02 -0.67689838556E+02 -0.54399225103E+03  0.54885215998E+03  0.41800000000E+01 0. -1.
        -11    1    1    2    0    0 -0.27483946528E+02  0.27492888161E+01 -0.72210156447E+02  0.77312564308E+02  0.00000000000E+00 0.  1.
         11    1    1    2    0    0  0.63617293668E+02  0.96596111742E+01 -0.36427934898E+03  0.36991879141E+03  0.00000000000E+00 0. -1.
</event>
<event>
 7    1  0.2594791E-009  0.9562147E+02  0.7561462E-02  0.1289782E+00
          2   -1    0    0  501    0  0.00000000000E+00  0.00000000000E+00  0.15255637223E+04  0.15255637223E+04  0.00000000000E+00 0. -1.
         -2   -1    0    0    0  501 -0.00000000000E+00 -0.00000000000E+00 -0.98990342788E+01  0.98990342788E+01  0.00000000000E+00 0.  1.
         25    2    1    2    0    0  0.10770077762E+01 -0.42031071605E+02  0.11500195475E+04  0.11575664413E+04  0.12508931002E+03 0.  0.
          5    1    3    3  502    0  0.30923756548E+02 -0.55245774118E+02  0.28745095403E+03  0.29437034099E+03  0.41800000000E+01 0.  1.
         -5    1    3    3    0  502 -0.29846748771E+02  0.13214702514E+02  0.86256859348E+03  0.86319610033E+03  0.41800000000E+01 0.  1.
        -11    1    1    2    0    0 -0.35072254232E+02  0.48925923262E+02  0.21176290643E+03  0.22015298664E+03  0.00000000000E+00 0.  1.
         11    1    1    2    0    0  0.33995246456E+02 -0.68948516573E+01  0.15388223405E+03  0.15774332860E+03  0.00000000000E+00 0. -1.
</event>
<event>
 7    1  0.2594791E-009  0.1313873E+03  0.7561462E-02  0.1225412E+00
         -1   -1    0    0    0  501 -0.00000000000E+00  0.00000000000E+00  0.26558077241E+02  0.26558077241E+02  0.00000000000E+00 0.  1.
          1   -1    0    0  501    0  0.00000000000E+00 -0.00000000000E+00 -0.90796525525E+03  0.90796525525E+03  0.00000000000E+00 0. -1.
         25    2    1    2    0    0 -0.10689677752E+03  0.42430763021E+01 -0.38503856473E+03  0.41875434692E+03  0.12512226817E+03 0.  0.
          5    1    3    3  502    0 -0.31247725852E+00 -0.24131429948E+02 -0.78073170909E+01  0.25707005923E+02  0.41800000000E+01 0.  1.
         -5    1    3    3    0  502 -0.10658430026E+03  0.28374506250E+02 -0.37723124764E+03  0.39304734100E+03  0.41800000000E+01 0.  1.
        -11    1    1    2    0    0  0.65809229250E+02 -0.36875614560E+02 -0.18140548868E+03  0.19646530718E+03  0.00000000000E+00 0.  1.
         11    1    1    2    0    0  0.41087548270E+02  0.32632538258E+02 -0.31496312460E+03  0.31930367839E+03  0.00000000000E+00 0. -1.
</event>
<event>
 7    1  0.2594791E-009  0.1052664E+03  0.7561462E-02  0.1269596E+00
         -3   -1    0    0    0  501 -0.00000000000E+00  0.00000000000E+00  0.74375793001E+02  0.74375793001E+02  0.00000000000E+00 0.  1.
          3   -1    0    0  501    0  0.00000000000E+00 -0.00000000000E+00 -0.20759017140E+03  0.20759017140E+03  0.00000000000E+00 0. -1.
         25    2    1    2    0    0 -0.32471097003E+02 -0.68734205835E+01 -0.13043460366E+03  0.18374273974E+03  0.12508634028E+03 0.  0.
          5    1    3    3  502    0 -0.71112791211E+02  0.19684838090E+02 -0.10977375531E+03  0.13233394001E+03  0.41800000000E+01 0. -1.
         -5    1    3    3    0  502  0.38641694208E+02 -0.26558258674E+02 -0.20660848356E+02  0.51408799732E+02  0.41800000000E+01 0. -1.
        -11    1    1    2    0    0 -0.27848194716E+02  0.87929808207E+01 -0.20082298217E+02  0.35442025370E+02  0.00000000000E+00 0. -1.
         11    1    1    2    0    0  0.60319291718E+02 -0.19195602372E+01  0.17302523484E+02  0.62781199286E+02  0.00000000000E+00 0.  1.
</event>
<event>
 7    1  0.2915058E-009  0.1259165E+03  0.7561462E-02  0.1233644E+00
         -1   -1    0    0    0  501 -0.00000000000E+00  0.00000000000E+00  0.68832335271E+02  0.68832335271E+02  0.00000000000E+00 0.  1.
          1   -1    0    0  501    0  0.00000000000E+00 -0.00000000000E+00 -0.38892698449E+03  0.38892698449E+03  0.00000000000E+00 0. -1.
         25    2    1    2    0    0  0.33544920967E+02  0.90629690219E+02 -0.27626241220E+03  0.31828732660E+03  0.12508756695E+03 0.  0.
          5    1    3    3  502    0  0.71468645573E+01 -0.29851531205E+02 -0.86936664762E+02  0.92291102866E+02  0.41800000000E+01 0.  1.
         -5    1    3    3    0  502  0.26398056410E+02  0.12048122142E+03 -0.18932574744E+03  0.22599622374E+03  0.41800000000E+01 0.  1.
        -11    1    1    2    0    0 -0.23740708951E+02 -0.46164813127E+02  0.24465346916E+02  0.57387842199E+02  0.00000000000E+00 0.  1.
         11    1    1    2    0    0 -0.98042120157E+01 -0.44464877092E+02 -0.68297583935E+02  0.82084150963E+02  0.00000000000E+00 0. -1.
</event>
<event>
 7    1  0.2594791E-009  0.7305315E+02  0.7561462E-02  0.1350008E+00
         -1   -1    0    0    0  501 -0.00000000000E+00  0.00000000000E+00  0.34318332477E+03  0.34318332477E+03  0.00000000000E+00 0.  1.
          1   -1    0    0  501    0  0.00000000000E+00 -0.00000000000E+00 -0.76527239722E+02  0.76527239722E+02  0.00000000000E+00 0. -1.
         25    2    1    2    0    0  0.32221321433E+02  0.52414404775E+00  0.29150313228E+03  0.31884159513E+03  0.12508956141E+03 0.  0.
          5    1    3    3  502    0  0.38688678561E+02  0.11103369554E+02  0.16781568429E+02  0.43808584811E+02  0.41800000000E+01 0. -1.
         -5    1    3    3    0  502 -0.64673571280E+01 -0.10579225506E+02  0.27472156385E+03  0.27503301032E+03  0.41800000000E+01 0. -1.
        -11    1    1    2    0    0 -0.62356207453E+02  0.12309130580E+01 -0.96116244533E+00  0.62375761223E+02  0.00000000000E+00 0.  1.
         11    1    1    2    0    0  0.30134886021E+02 -0.17550571058E+01 -0.23885884786E+02  0.38493208140E+02  0.00000000000E+00 0. -1.
</event>
<event>
 7    1  0.2594791E-009  0.1537312E+03  0.7561462E-02  0.1195962E+00
          1   -1    0    0  501    0  0.00000000000E+00  0.00000000000E+00  0.11113978184E+03  0.11113978184E+03  0.00000000000E+00 0. -1.
         -1   -1    0    0    0  501 -0.00000000000E+00 -0.00000000000E+00 -0.26244289556E+03  0.26244289556E+03  0.00000000000E+00 0.  1.
         25    2    1    2    0    0 -0.87316774743E+01  0.12827647736E+03 -0.48457855345E+02  0.18582041671E+03  0.12509982688E+03 0.  0.
          5    1    3    3  502    0 -0.28555430117E+02  0.13232642681E+03 -0.72904792948E+02  0.15381247367E+03  0.41800000000E+01 0. -1.
         -5    1    3    3    0  502  0.19823752643E+02 -0.40499494533E+01  0.24446937603E+02  0.32007943039E+02  0.41800000000E+01 0. -1.
        -11    1    1    2    0    0 -0.26092058946E+02 -0.10791696648E+03 -0.51289347497E+02  0.12230071284E+03  0.00000000000E+00 0. -1.
         11    1    1    2    0    0  0.34823736420E+02 -0.20359510884E+02 -0.51555910875E+02  0.65461547857E+02  0.00000000000E+00 0.  1.
</event>
<event>
 7    1  0.2594791E-009  0.1585393E+03  0.7561462E-02  0.1190356E+00
         -1   -1    0    0    0  501 -0.00000000000E+00  0.00000000000E+00  0.87189373449E+02  0.87189373449E+02  0.00000000000E+00 0.  1.
          1   -1    0    0  501    0  0.00000000000E+00 -0.00000000000E+00 -0.64263048636E+03  0.64263048636E+03  0.00000000000E+00 0. -1.
         25    2    1    2    0    0  0.12679061406E+03  0.47957545258E+02 -0.39215750707E+02  0.18857835456E+03  0.12509250475E+03 0.  0.
          5    1    3    3  502    0  0.57592074266E+02 -0.18286773079E+02  0.32594305026E+02  0.68783095365E+02  0.41800000000E+01 0.  1.
         -5    1    3    3    0  502  0.69198539799E+02  0.66244318337E+02 -0.71810055733E+02  0.11979525920E+03  0.41800000000E+01 0.  1.
        -11    1    1    2    0    0 -0.58577382104E+02  0.22317968422E+02 -0.24441288098E+03  0.25232331996E+03  0.00000000000E+00 0.  1.
         11    1    1    2    0    0 -0.68213231961E+02 -0.70275513680E+02 -0.27181248122E+03  0.28891818528E+03  0.00000000000E+00 0. -1.
</event>
<event>
 7    1  0.3405100E-009  0.2104334E+03  0.7561462E-02  0.1141223E+00
         -2   -1    0    0    0  501 -0.00000000000E+00  0.00000000000E+00  0.65823876531E+02  0.65823876531E+02  0.00000000000E+00 0.  1.
          2   -1    0    0  501    0  0.00000000000E+00 -0.00000000000E+00 -0.77297096789E+03  0.77297096789E+03  0.00000000000E+00 0. -1.
         25    2    1    2    0    0  0.17571262026E+03  0.54464556221E+02 -0.23303623591E+03  0.32217137768E+03  0.12508875465E+03 0.  0.
          5    1    3    3  502    0  0.15610520574E+03 -0.30499598527E+01 -0.19698426212E+03  0.25139293832E+03  0.41800000000E+01 0.  1.
         -5    1    3    3    0  502  0.19607414528E+02  0.57514516074E+02 -0.36051973794E+02  0.70778439359E+02  0.41800000000E+01 0.  1.
        -11    1    1    2    0    0 -0.10463276927E+03 -0.76199486362E+02 -0.27062106257E+03  0.29998356227E+03  0.00000000000E+00 0.  1.
         11    1    1    2    0    0 -0.71079850991E+02  0.21734930141E+02 -0.20348979288E+03  0.21663990448E+03  0.00000000000E+00 0. -1.
</event>
<event>
 7    1  0.2883422E-009  0.1119700E+03  0.7561462E-02  0.1256965E+00
         -2   -1    0    0    0  501 -0.00000000000E+00  0.00000000000E+00  0.54022755404E+02  0.54022755404E+02  0.00000000000E+00 0.  1.
          2   -1    0    0  501    0  0.00000000000E+00 -0.00000000000E+00 -0.34391323042E+03  0.34391323042E+03  0.00000000000E+00 0. -1.
         25    2    1    2    0    0 -0.55440727516E+02  0.60676071646E+02 -0.14622817138E+03  0.20925550853E+03  0.12509967948E+03 0.  0.
          5    1    3    3  502    0 -0.83872042806E+02  0.11808051679E+02 -0.11962122523E+03  0.14663103210E+03  0.41800000000E+01 0. -1.
         -5    1    3    3    0  502  0.28431315290E+02  0.48868019966E+02 -0.26606946150E+02  0.62624476429E+02  0.41800000000E+01 0. -1.
        -11    1    1    2    0    0  0.39967321132E+02 -0.39251597825E+02 -0.15925262531E+02  0.58238206333E+02  0.00000000000E+00 0.  1.
         11    1    1    2    0    0  0.15473406385E+02 -0.21424473821E+02 -0.12773704110E+03  0.13044227096E+03  0.00000000000E+00 0. -1.
</event>
<event>
 7    1  0.2594791E-009  0.1142975E+03  0.7561462E-02  0.1252812E+00
         -2   -1    0    0    0  501 -0.00000000000E+00  0.00000000000E+00  0.35286034885E+03  0.35286034885E+03  0.00000000000E+00 0.  1.
          2   -1    0    0  501    0  0.00000000000E+00 -0.00000000000E+00 -0.52430633418E+02  0.52430633418E+02  0.00000000000E+00 0. -1.
         25    2    1    2    0    0 -0.41669954534E+02  0.54766662639E+02  0.10353291546E+03  0.17635240942E+03  0.12508131466E+03 0.  0.
          5    1    3    3  502    0 -0.24500879061E+01  0.76597503974E+02  0.10638598059E+03  0.13118166721E+03  0.41800000000E+01 0.  1.
         -5    1    3    3    0  502 -0.39219866628E+02 -0.21830841335E+02 -0.28530651270E+01  0.45170742216E+02  0.41800000000E+01 0.  1.
        -11    1    1    2    0    0 -0.20999068753E+02  0.33860989701E+01  0.87768318876E+02  0.90308938390E+02  0.00000000000E+00 0.  1.
         11    1    1    2    0    0  0.62669023288E+02 -0.58152761609E+02  0.10912848109E+03  0.13862963445E+03  0.00000000000E+00 0. -1.
</event>
<event>
 7    1  0.2594791E-009  0.8102871E+02  0.7561462E-02  0.1326157E+00
         -1   -1    0    0    0  501 -0.00000000000E+00  0.00000000000E+00  0.50323957440E+03  0.50323957440E+03  0.00000000000E+00 0.  1.
          1   -1    0    0  501    0  0.00000000000E+00 -0.00000000000E+00 -0.26814719495E+02  0.26814719495E+02  0.00000000000E+00 0. -1.
         25    2    1    2    0    0 -0.24382306898E+02 -0.30442652961E+02  0.30537740482E+03  0.33230142892E+03  0.12509048038E+03 0.  0.
          5    1    3    3  502    0 -0.34057638873E+02  0.21136812470E+01  0.11223747846E+02  0.36164005997E+02  0.41800000000E+01 0.  1.
         -5    1    3    3    0  502  0.96753319754E+01 -0.32556334208E+02  0.29415365697E+03  0.29613742292E+03  0.41800000000E+01 0.  1.
        -11    1    1    2    0    0  0.29835383739E+02  0.58076867021E+02  0.14649656674E+03  0.16038801910E+03  0.00000000000E+00 0.  1.
         11    1    1    2    0    0 -0.54530768411E+01 -0.27634214060E+02  0.24550883350E+02  0.37364845872E+02  0.00000000000E+00 0. -1.
</event>
<event>
 7    1  0.2594791E-009  0.1301138E+03  0.7561462E-02  0.1227287E+00
          2   -1    0    0  501    0  0.00000000000E+00  0.00000000000E+00  0.13154493467E+03  0.13154493467E+03  0.00000000000E+00 0. -1.
         -2   -1    0    0    0  501 -0.00000000000E+00 -0.00000000000E+00 -0.14952165893E+03  0.14952165893E+03  0.00000000000E+00 0.  1.
         25    2    1    2    0    0 -0.82587146054E+02 -0.34712072304E+02 -0.15754609637E+02  0.15466607269E+03  0.12509125333E+03 0.  0.
          5    1    3    3  502    0  0.23809174042E+02 -0.22419579043E+02 -0.32365731248E+02  0.46200944278E+02  0.41800000000E+01 0. -1.
         -5    1    3    3    0  502 -0.10639632010E+03 -0.12292493261E+02  0.16611121611E+02  0.10846512841E+03  0.41800000000E+01 0. -1.
        -11    1    1    2    0    0  0.86618750992E+02  0.52865428801E+02  0.13082487180E+02  0.10231672911E+03  0.00000000000E+00 0. -1.
         11    1    1    2    0    0 -0.40316049377E+01 -0.18153356497E+02 -0.15304601805E+02  0.24083791788E+02  0.00000000000E+00 0.  1.
</event>
<event>
 7    1  0.3055685E-009  0.9712843E+02  0.7561462E-02  0.1286453E+00
          1   -1    0    0  501    0  0.00000000000E+00  0.00000000000E+00  0.19022645216E+03  0.19022645216E+03  0.00000000000E+00 0. -1.
         -1   -1    0    0    0  501 -0.00000000000E+00 -0.00000000000E+00 -0.89276973203E+02  0.89276973203E+02  0.00000000000E+00 0.  1.
         25    2    1    2    0    0 -0.50056118744E+02 -0.51329368795E+02  0.47189800101E+02  0.15170509871E+03  0.12508893083E+03 0.  0.
          5    1    3    3  502    0  0.80954492504E+01  0.52704744315E+01 -0.34748678109E+02  0.36307812240E+02  0.41800000000E+01 0. -1.
         -5    1    3    3    0  502 -0.58151567994E+02 -0.56599843227E+02  0.81938478210E+02  0.11539728647E+03  0.41800000000E+01 0. -1.
        -11    1    1    2    0    0  0.69368504671E+02  0.39458167144E+02  0.12579630978E+02  0.80790986565E+02  0.00000000000E+00 0.  1.
         11    1    1    2    0    0 -0.19312385927E+02  0.11871201651E+02  0.41180047883E+02  0.47007340091E+02  0.00000000000E+00 0. -1.
</event>
<event>
 7    1  0.2594791E-009  0.1131618E+03  0.7561462E-02  0.1254824E+00
          2   -1    0    0  501    0  0.00000000000E+00  0.00000000000E+00  0.15701638325E+03  0.15701638325E+03  0.00000000000E+00 0. -1.
         -2   -1    0    0    0  501 -0.00000000000E+00 -0.00000000000E+00 -0.20416408594E+03  0.20416408594E+03  0.00000000000E+00 0.  1.
         25    2    1    2    0    0  0.11052370675E+03 -0.35226223471E+00 -0.11752654646E+03  0.20414697240E+03  0.12509150001E+03 0.  0.
          5    1    3    3  502    0  0.40525173612E+01  0.19498967690E+01  0.25245865211E+02  0.25981745604E+02  0.41800000000E+01 0.  1.
         -5    1    3    3    0  502  0.10647118939E+03 -0.23021590037E+01 -0.14277241167E+03  0.17816522680E+03  0.41800000000E+01 0.  1.
        -11    1    1    2    0    0 -0.67204874064E+02  0.13058390418E+02  0.85401985382E+02  0.10945554242E+03  0.00000000000E+00 0. -1.
         11    1    1    2    0    0 -0.43318832686E+02 -0.12706128184E+02 -0.15023141607E+02  0.47577954375E+02  0.00000000000E+00 0.  1.
</event>
<event>
 6    1  0.2594791E-009  0.1033127E+03  0.7561462E-02  0.1273480E+00
          1   -1    0    0  501    0  0.00000000000E+00  0.00000000000E+00  0.22703288046E+03  0.22703288046E+03  0.00000000000E+00 0. -1.
         -1   -1    0    0    0  501 -0.00000000000E+00 -0.00000000000E+00 -0.62910976616E+02  0.62910976616E+02  0.00000000000E+00 0.  1.
          5    1    1    2  502    0 -0.22765246008E+02 -0.68400142458E+02  0.44543476898E+02  0.84843559851E+02  0.41800000000E+01 0. -1.
         -5    1    1    2    0  502  0.16827126601E+02  0.38045207082E+02  0.10191925431E+03  0.11016168467E+03  0.41800000000E+01 0. -1.
        -11    1    1    2    0    0  0.30864167543E+02  0.51419064792E+02  0.59427110555E+01  0.60264690134E+02  0.00000000000E+00 0.  1.
         11    1    1    2    0    0 -0.24926048137E+02 -0.21064129415E+02  0.11716461583E+02  0.34673922417E+02  0.00000000000E+00 0. -1.
</event>
<event>
 7    1  0.2594791E-009  0.1380451E+03  0.7561462E-02  0.1215984E+00
         -2   -1    0    0    0  501 -0.00000000000E+00  0.00000000000E+00  0.27428228170E+02  0.27428228170E+02  0.00000000000E+00 0. -1.
          2   -1    0    0  501    0  0.00000000000E+00 -0.00000000000E+00 -0.12601774168E+04  0.12601774168E+04  0.00000000000E+00 0.  1.
         25    2    1    2    0    0 -0.10267588912E+03  0.33903412695E+02 -0.10225092541E+04  0.10357923463E+04  0.12509528512E+03 0.  0.
          5    1    3    3  502    0 -0.20241604443E+02 -0.45322670279E+02 -0.36844872960E+03  0.37180076080E+03  0.41800000000E+01 0. -1.
         -5    1    3    3    0  502 -0.82434284681E+02  0.79226082974E+02 -0.65406052449E+03  0.66399158550E+03  0.41800000000E+01 0. -1.
        -11    1    1    2    0    0  0.64067639832E+02 -0.35462695886E+02 -0.54315633962E+02  0.91172656898E+02  0.00000000000E+00 0. -1.
         11    1    1    2    0    0  0.38608249291E+02  0.15592831910E+01 -0.15592430054E+03  0.16064064173E+03  0.00000000000E+00 0.  1.
</event>
<event>
 7    1  0.2594791E-009  0.1029844E+03  0.7561462E-02  0.1274142E+00
         -3   -1    0    0    0  501 -0.00000000000E+00  0.00000000000E+00  0.60312442982E+03  0.60312442982E+03  0.00000000000E+00 0.  1.
          3   -1    0    0  501    0  0.00000000000E+00 -0.00000000000E+00 -0.24833034109E+02  0.24833034109E+02  0.00000000000E+00 0. -1.
         25    2    1    2    0    0 -0.59819715307E+02 -0.41329915352E+02  0.30715086800E+03  0.33952239955E+03  0.12508894371E+03 0.  0.
          5    1    3    3  502    0 -0.63135292228E+01 -0.60486185492E+02  0.25530400792E+03  0.26248056717E+03  0.41800000000E+01 0. -1.
         -5    1    3    3    0  502 -0.53506186085E+02  0.19156270140E+02  0.51846860086E+02  0.77041832376E+02  0.41800000000E+01 0. -1.
        -11    1    1    2    0    0  0.54429672577E+02  0.89027709274E+01  0.22576245053E+03  0.23240166234E+03  0.00000000000E+00 0.  1.
         11    1    1    2    0    0  0.53900427302E+01  0.32427144424E+02  0.45378077179E+02  0.56033402044E+02  0.00000000000E+00 0. -1.
</event>
<event>
 7    1  0.2594791E-009  0.1659754E+03  0.7561462E-02  0.1182111E+00
         -2   -1    0    0    0  501 -0.00000000000E+00  0.00000000000E+00  0.85968976896E+02  0.85968976896E+02  0.00000000000E+00 0.  1.
          2   -1    0    0  501    0  0.00000000000E+00 -0.00000000000E+00 -0.34895566350E+03  0.34895566350E+03  0.00000000000E+00 0. -1.
         25    2    1    2    0    0 -0.10514612453E+03 -0.81679765026E+02 -0.11359178982E+03  0.21512262406E+03  0.12508939664E+03 0.  0.
          5    1    3    3  502    0 -0.12141463705E+03 -0.92535031942E+02 -0.11989234011E+03  0.19415429906E+03  0.41800000000E+01 0.  1.
         -5    1    3    3    0  502  0.16268512523E+02  0.10855266916E+02  0.63005502856E+01  0.20968325003E+02  0.41800000000E+01 0.  1.
        -11    1    1    2    0    0  0.31806224287E+02 -0.17175312147E+02 -0.20417537899E+02  0.41515094901E+02  0.00000000000E+00 0. -1.
         11    1    1    2    0    0  0.73339900238E+02  0.98855077174E+02 -0.12897735888E+03  0.17828692143E+03  0.00000000000E+00 0.  1.
</event>
<event>
 7    1  0.2594791E-009  0.2122567E+03  0.7561462E-02  0.1139791E+00
          1   -1    0    0  501    0  0.00000000000E+00  0.00000000000E+00  0.93773326882E+03  0.93773326882E+03  0.00000000000E+00 0. -1.
         -1   -1    0    0    0  501 -0.00000000000E+00 -0.00000000000E+00 -0.65131675164E+02  0.65131675164E+02  0.00000000000E+00 0.  1.
         25    2    1    2    0    0  0.82755263896E+02  0.18597914068E+03  0.27067072398E+03  0.36103955992E+03  0.12510095336E+03 0.  0.
          5    1    3    3  502    0  0.16250499832E+02  0.10560667544E+03  0.22081337899E+03  0.24534235139E+03  0.41800000000E+01 0.  1.
         -5    1    3    3    0  502  0.66504764064E+02  0.80372465238E+02  0.49857344992E+02  0.11569720853E+03  0.41800000000E+01 0.  1.
        -11    1    1    2    0    0 -0.62345356758E+01 -0.90982190613E+02  0.35333879377E+03  0.36491770528E+03  0.00000000000E+00 0.  1.
         11    1    1    2    0    0 -0.76520728220E+02 -0.94996950070E+02  0.24859207590E+03  0.27690767879E+03  0.00000000000E+00 0. -1.
</event>
<event>
 7    1  0.2594791E-009  0.1026735E+03  0.7561462E-02  0.1274772E+00
          1   -1    0    0  501    0  0.00000000000E+00  0.00000000000E+00  0.19397043212E+03  0.19397043212E+03  0.00000000000E+00 0. -1.
         -1   -1    0    0    0  501 -0.00000000000E+00 -0.00000000000E+00 -0.11600416217E+03  0.11600416217E+03  0.00000000000E+00 0.  1.
         25    2    1    2    0    0 -0.20985699221E+02 -0.51230000930E+01 -0.63788157508E+02  0.14206659671E+03  0.12508934471E+03 0.  0.
          5    1    3    3  502    0 -0.63583237823E+02  0.23475420656E+02 -0.11837368484E+02  0.68931264312E+02  0.41800000000E+01 0.  1.
         -5    1    3    3    0  502  0.42597538602E+02 -0.28598420749E+02 -0.51950789024E+02  0.73135332395E+02  0.41800000000E+01 0.  1.
        -11    1    1    2    0    0 -0.31528759567E+02 -0.64654117869E+01  0.78750298876E+02  0.85073343666E+02  0.00000000000E+00 0.  1.
         11    1    1    2    0    0  0.52514458788E+02  0.11588411880E+02  0.63004128575E+02  0.82834653915E+02  0.00000000000E+00 0. -1.
</event>
<event>
 7    1  0.2594791E-009  0.8372845E+02  0.7561462E-02  0.1318792E+00
          3   -1    0    0  501    0  0.00000000000E+00  0.00000000000E+00  0.15418272783E+02  0.15418272783E+02  0.00000000000E+00 0. -1.
         -3   -1    0    0    0  501 -0.00000000000E+00 -0.00000000000E+00 -0.88140979714E+03  0.88140979714E+03  0.00000000000E+00 0.  1.
         25    2    1    2    0    0  0.15117417843E+02 -0.36567382469E+02 -0.43036101116E+03  0.44991543498E+03  0.12509032308E+03 0.  0.
          5    1    3    3  502    0  0.33457932932E+02 -0.35862929051E+02 -0.53941789910E+02  0.73025831422E+02  0.41800000000E+01 0.  1.
         -5    1    3    3    0  502 -0.18340515088E+02 -0.70445341837E+00 -0.37641922125E+03  0.37688960356E+03  0.41800000000E+01 0.  1.
        -11    1    1    2    0    0 -0.45251969195E+02  0.49099309771E+02 -0.27383100111E+03  0.28185439522E+03  0.00000000000E+00 0. -1.
         11    1    1    2    0    0  0.30134551351E+02 -0.12531927302E+02 -0.16179951210E+03  0.16505823973E+03  0.00000000000E+00 0.  1.
</event>
<event>
 7    1  0.2594791E-009  0.8822195E+02  0.7561462E-02  0.1307216E+00
         -1   -1    0    0    0  501 -0.00000000000E+00  0.00000000000E+00  0.21596815781E+03  0.21596815781E+03  0.00000000000E+00 0.  1.
          1   -1    0    0  501    0  0.00000000000E+00 -0.00000000000E+00 -0.86652668417E+02  0.86652668417E+02  0.00000000000E+00 0. -1.
         25    2    1    2    0    0  0.44741270002E+02  0.45215022117E+02  0.99798948568E+01  0.14070331325E+03  0.12510653296E+03 0.  0.
          5    1    3    3  502    0  0.65992235994E+01  0.24044334776E+02 -0.56030677241E+02  0.61470228395E+02  0.41800000000E+01 0. -1.
         -5    1    3    3    0  502  0.38142046402E+02  0.21170687342E+02  0.66010572097E+02  0.79233084850E+02  0.41800000000E+01 0. -1.
        -11    1    1    2    0    0 -0.45485493674E+02  0.14406864180E+02  0.68976099383E+02  0.83870079029E+02  0.00000000000E+00 0.  1.
         11    1    1    2    0    0  0.74422367259E+00 -0.59621886297E+02  0.50359495154E+02  0.78047433953E+02  0.00000000000E+00 0. -1.
</event>
<event>
 7    1  0.2594791E-009  0.2691960E+03  0.7561462E-02  0.1101741E+00
          4   -1    0    0  501    0  0.00000000000E+00  0.00000000000E+00  0.39730487075E+03  0.39730487075E+03  0.00000000000E+00 0. -1.
         -4   -1    0    0    0  501 -0.00000000000E+00 -0.00000000000E+00 -0.19138998631E+03  0.19138998631E+03  0.00000000000E+00 0.  1.
         25    2    1    2    0    0  0.17933538857E+03  0.17192860351E+03  0.15478224748E+03  0.31831731545E+03  0.12509093846E+03 0.  0.
          5    1    3    3  502    0  0.76274200297E+02  0.30777415195E+01  0.20369768331E+02  0.79117798160E+02  0.41800000000E+01 0.  1.
         -5    1    3    3    0  502  0.10306118827E+03  0.16885086199E+03  0.13441247914E+03  0.23919951729E+03  0.41800000000E+01 0.  1.
        -11    1    1    2    0    0 -0.65652372120E+02 -0.12479723027E+03  0.13353894152E+02  0.14164359900E+03  0.00000000000E+00 0.  1.
         11    1    1    2    0    0 -0.11368301645E+03 -0.47131373243E+02  0.37778742816E+02  0.12873394261E+03  0.00000000000E+00 0. -1.
</event>
<event>
 7    1  0.2594791E-009  0.9116778E+02  0.7561462E-02  0.1300048E+00
          1   -1    0    0  501    0  0.00000000000E+00  0.00000000000E+00  0.11259399270E+03  0.11259399270E+03  0.00000000000E+00 0. -1.
         -1   -1    0    0    0  501 -0.00000000000E+00 -0.00000000000E+00 -0.17288729768E+03  0.17288729768E+03  0.00000000000E+00 0.  1.
         25    2    1    2    0    0 -0.27480288351E+02 -0.46396680406E+02  0.36438314435E+02  0.14100676013E+03  0.12508931786E+03 0.  0.
          5    1    3    3  502    0  0.59547164594E+01 -0.64961389343E+02  0.65694510348E+02  0.92675141453E+02  0.41800000000E+01 0. -1.
         -5    1    3    3    0  502 -0.33435004810E+02  0.18564708938E+02 -0.29256195913E+02  0.48331618677E+02  0.41800000000E+01 0. -1.
        -11    1    1    2    0    0 -0.17871342698E+02  0.15078250062E+02  0.91486680763E+01  0.25108497413E+02  0.00000000000E+00 0. -1.
         11    1    1    2    0    0  0.45351631049E+02  0.31318430343E+02 -0.10588028749E+03  0.11936603285E+03  0.00000000000E+00 0.  1.
</event>
<event>
 7    1  0.2594791E-009  0.1219266E+03  0.7561462E-02  0.1239952E+00
          2   -1    0    0  501    0  0.00000000000E+00  0.00000000000E+00  0.30830375526E+03  0.30830375526E+03  0.00000000000E+00 0. -1.
         -2   -1    0    0    0  501 -0.00000000000E+00 -0.00000000000E+00 -0.64063851482E+02  0.64063851482E+02  0.00000000000E+00 0.  1.
         25    2    1    2    0    0  0.75571992809E+02 -0.38552276651E+02  0.16222265230E+03  0.22172375212E+03  0.12509128348E+03 0.  0.
          5    1    3    3  502    0 -0.21830596796E+02  0.22446097305E+02  0.60222668554E+02  0.68004738426E+02  0.41800000000E+01 0. -1.
         -5    1    3    3    0  502  0.97402589604E+02 -0.60998373956E+02  0.10199998375E+03  0.15371901370E+03  0.41800000000E+01 0. -1.
        -11    1    1    2    0    0 -0.23417926189E+02 -0.10500317720E+02  0.74328740836E+02  0.78634710234E+02  0.00000000000E+00 0. -1.
         11    1    1    2    0    0 -0.52154066620E+02  0.49052594371E+02  0.76885106402E+01  0.72009144387E+02  0.00000000000E+00 0.  1.
</event>
<event>
 7    1  0.2594791E-009  0.1253445E+03  0.7561462E-02  0.1234532E+00
         -1   -1    0    0    0  501 -0.00000000000E+00  0.00000000000E+00  0.32097721454E+02  0.32097721454E+02  0.00000000000E+00 0.  1.
          1   -1    0    0  501    0  0.00000000000E+00 -0.00000000000E+00 -0.55547226156E+03  0.55547226156E+03  0.00000000000E+00 0. -1.
         25    2    1    2    0    0  0.73516108482E+02 -0.13128723560E+02 -0.23676350116E+03  0.27801466412E+03  0.12513279505E+03 0.  0.
          5    1    3    3  502    0  0.86138433053E+02  0.30877983130E+02 -0.10984452685E+03  0.14302647297E+03  0.41800000000E+01 0. -1.
         -5    1    3    3    0  502 -0.12622324571E+02 -0.44006706690E+02 -0.12691897430E+03  0.13498819115E+03  0.41800000000E+01 0. -1.
        -11    1    1    2    0    0 -0.13232299412E+02 -0.34072736900E+02 -0.58929683222E+02  0.69345170792E+02  0.00000000000E+00 0.  1.
         11    1    1    2    0    0 -0.60283809070E+02  0.47201460461E+02 -0.22768135573E+03  0.24021014811E+03  0.00000000000E+00 0. -1.
</event>
<event>
 7    1  0.2594791E-009  0.2622307E+03  0.7561462E-02  0.1105810E+00
         -3   -1    0    0    0  501 -0.00000000000E+00  0.00000000000E+00  0.25192553849E+03  0.25192553849E+03  0.00000000000E+00 0.  1.
          3   -1    0    0  501    0  0.00000000000E+00 -0.00000000000E+00 -0.51484797890E+03  0.51484797890E+03  0.00000000000E+00 0. -1.
         25    2    1    2    0    0  0.16986831022E+03  0.18997488457E+03 -0.37773853852E+03  0.47252464543E+03  0.12508971769E+03 0.  0.
          5    1    3    3  502    0  0.13018667228E+03  0.11567936620E+03 -0.15074992041E+03  0.23037642307E+03  0.41800000000E+01 0.  1.
         -5    1    3    3    0  502  0.39681637940E+02  0.74295518375E+02 -0.22698861811E+03  0.24214822236E+03  0.41800000000E+01 0.  1.
        -11    1    1    2    0    0 -0.14007422805E+03 -0.10266315134E+03  0.10117728394E+03  0.20099093211E+03  0.00000000000E+00 0. -1.
         11    1    1    2    0    0 -0.29794082172E+02 -0.87311733233E+02  0.13638814178E+02  0.93257939848E+02  0.00000000000E+00 0.  1.
</event>
<event>
 7    1  0.4084699E-009  0.2526186E+03  0.7561462E-02  0.1111661E+00
         -2   -1    0    0    0  501 -0.00000000000E+00  0.00000000000E+00  0.30410696953E+03  0.30410696953E+03  0.00000000000E+00 0.  1.
          2   -1    0    0  501    0  0.00000000000E+00 -0.00000000000E+00 -0.23234452875E+03  0.23234452875E+03  0.00000000000E+00 0. -1.
         25    2    1    2    0    0  0.23311603644E+03  0.60667773291E+02  0.99987558583E+01  0.27160826426E+03  0.12508960362E+03 0.  0.
          5    1    3    3  502    0  0.74323858674E+02 -0.31312321822E+02  0.31734177729E+02  0.86769971201E+02  0.41800000000E+01 0. -1.
         -5    1    3    3    0  502  0.15879217777E+03  0.91980095113E+02 -0.21735421871E+02  0.18483829306E+03  0.41800000000E+01 0. -1.
        -11    1    1    2    0    0 -0.12890880099E+03 -0.31245200827E+02  0.80201652789E+02  0.15500337628E+03  0.00000000000E+00 0.  1.
         11    1    1    2    0    0 -0.10420723545E+03 -0.29422572463E+02 -0.18437967871E+02  0.10983985774E+03  0.00000000000E+00 0. -1.
</event>
<event>
 7    1  0.2594791E-009  0.1192786E+03  0.7561462E-02  0.1244292E+00
         -2   -1    0    0    0  501 -0.00000000000E+00  0.00000000000E+00  0.45744336338E+03  0.45744336338E+03  0.00000000000E+00 0. -1.
          2   -1    0    0  501    0  0.00000000000E+00 -0.00000000000E+00 -0.39928703339E+02  0.39928703339E+02  0.00000000000E+00 0.  1.
         25    2    1    2    0    0  0.59756726307E+02 -0.13111351285E+02  0.13597314565E+03  0.19462863859E+03  0.12509531066E+03 0.  0.
          5    1    3    3  502    0  0.37896643998E+02 -0.65940386162E+02  0.10424697324E+03  0.12910923276E+03  0.41800000000E+01 0.  1.
         -5    1    3    3    0  502  0.21860082309E+02  0.52829034878E+02  0.31726172408E+02  0.65519405830E+02  0.41800000000E+01 0.  1.
        -11    1    1    2    0    0 -0.55955523252E+02 -0.28832026261E+02  0.21472664146E+03  0.22376290326E+03  0.00000000000E+00 0.  1.
         11    1    1    2    0    0 -0.38012030547E+01  0.41943377546E+02  0.66814872926E+02  0.78980524870E+02  0.00000000000E+00 0. -1.
</event>
<event>
 7    1  0.2594791E-009  0.1015125E+03  0.7561462E-02  0.1277147E+00
          1   -1    0    0  501    0  0.00000000000E+00  0.00000000000E+00  0.55382461926E+03  0.55382461926E+03  0.00000000000E+00 0. -1.
         -1   -1    0    0    0  501 -0.00000000000E+00 -0.00000000000E+00 -0.36730313037E+02  0.36730313037E+02  0.00000000000E+00 0.  1.
         25    2    1    2    0    0 -0.38489591930E+02  0.61018060397E+02  0.38778897435E+03  0.41380559810E+03  0.12510048768E+03 0.  0.
          5    1    3    3  502    0 -0.39418149503E+02  0.19671115282E+02  0.29659881308E+02  0.53272171402E+02  0.41800000000E+01 0. -1.
         -5    1    3    3    0  502  0.92855757334E+00  0.41346945115E+02  0.35812909304E+03  0.36053342670E+03  0.41800000000E+01 0. -1.
        -11    1    1    2    0    0  0.35616805699E+02 -0.85465270517E+02  0.11707510308E+03  0.14926301978E+03  0.00000000000E+00 0.  1.
         11    1    1    2    0    0  0.28727862312E+01  0.24447210121E+02  0.12230228794E+02  0.27486314408E+02  0.00000000000E+00 0. -1.
</event>
<event>
 7    1  0.2594791E-009  0.1708312E+03  0.7561462E-02  0.1176984E+00
          3   -1    0    0  501    0  0.00000000000E+00  0.00000000000E+00  0.71494784528E+03  0.71494784528E+03  0.00000000000E+00 0. -1.
         -3   -1    0    0    0  501 -0.00000000000E+00 -0.00000000000E+00 -0.57210678116E+02  0.57210678116E+02  0.00000000000E+00 0.  1.
         25    2    1    2    0    0  0.15693345160E+03  0.60408700147E+02  0.40437392762E+03  0.45545908454E+03  0.12508950822E+03 0.  0.
          5    1    3    3  502    0  0.15040405108E+02  0.20418999995E+02  0.72609949040E+00  0.25712817175E+02  0.41800000000E+01 0. -1.
         -5    1    3    3    0  502  0.14189304649E+03  0.39989700152E+02  0.40364782813E+03  0.42974626736E+03  0.41800000000E+01 0. -1.
        -11    1    1    2    0    0 -0.89884763842E+02 -0.29067257484E+02  0.21156992868E+03  0.23170241896E+03  0.00000000000E+00 0. -1.
         11    1    1    2    0    0 -0.67048687760E+02 -0.31341442663E+02  0.41793310866E+02  0.84997019899E+02  0.00000000000E+00 0.  1.
</event>
<event>
 7    1  0.2594791E-009  0.9229295E+02  0.7561462E-02  0.1297392E+00
         -2   -1    0    0    0  501 -0.00000000000E+00  0.00000000000E+00  0.67959750422E+02  0.67959750422E+02  0.00000000000E+00 0. -1.
          2   -1    0    0  501    0  0.00000000000E+00 -0.00000000000E+00 -0.18933259539E+03  0.18933259539E+03  0.00000000000E+00 0.  1.
         25    2    1    2    0    0 -0.57239889558E+01 -0.33085195345E+02 -0.86231230574E+02  0.15559976991E+03  0.12509224224E+03 0.  0.
          5    1    3    3  502    0  0.43161141135E+02  0.26886563888E+02 -0.43885215159E+02  0.67299003940E+02  0.41800000000E+01 0. -1.
         -5    1    3    3    0  502 -0.48885130090E+02 -0.59971759233E+02 -0.42346015415E+02  0.88300765970E+02  0.41800000000E+01 0. -1.
        -11    1    1    2    0    0  0.18021042224E+02 -0.27166103047E+01 -0.55706868447E+02  0.58612226766E+02  0.00000000000E+00 0.  1.
         11    1    1    2    0    0 -0.12297053268E+02  0.35801805649E+02  0.20565254057E+02  0.43080349131E+02  0.00000000000E+00 0. -1.
</event>
<event>
 7    1  0.2594791E-009  0.9322992E+02  0.7561462E-02  0.1295213E+00
          1   -1    0    0  501    0  0.00000000000E+00  0.00000000000E+00  0.54225820305E+03  0.54225820305E+03  0.00000000000E+00 0. -1.
         -1   -1    0    0    0  501 -0.00000000000E+00 -0.00000000000E+00 -0.40743305044E+02  0.40743305044E+02  0.00000000000E+00 0.  1.
         25    2    1    2    0    0  0.29182102515E+02 -0.53611102857E+02  0.28970042745E+03  0.32140271798E+03  0.12509046327E+03 0.  0.
          5    1    3    3  502    0  0.10128612473E+02 -0.51875400148E+02  0.29908964861E+02  0.60874169483E+02  0.41800000000E+01 0. -1.
         -5    1    3    3    0  502  0.19053490042E+02 -0.17357027095E+01  0.25979146259E+03  0.26052854850E+03  0.41800000000E+01 0. -1.
        -11    1    1    2    0    0 -0.53680491936E+02  0.67067926667E+02  0.54309162721E+02  0.10163260873E+03  0.00000000000E+00 0.  1.
         11    1    1    2    0    0  0.24498389421E+02 -0.13456823810E+02  0.15750530783E+03  0.15996618138E+03  0.00000000000E+00 0. -1.
</event>
<event>
 7    1  0.2594791E-009  0.8717458E+02  0.7561462E-02  0.1309842E+00
         -2   -1    0    0    0  501 -0.00000000000E+00  0.00000000000E+00  0.26655053247E+02  0.26655053247E+02  0.00000000000E+00 0.  1.
          2   -1    0    0  501    0  0.00000000000E+00 -0.00000000000E+00 -0.61615106251E+03  0.61615106251E+03  0.00000000000E+00 0. -1.
         25    2    1    2    0    0 -0.34217706469E+02  0.20453278776E+02 -0.46377177689E+03  0.48199683598E+03  0.12508997085E+03 0.  0.
          5    1    3    3  502    0  0.38984247354E+02  0.81897248001E+01 -0.64961940791E+02  0.76317555552E+02  0.41800000000E+01 0. -1.
         -5    1    3    3    0  502 -0.73201953824E+02  0.12263553976E+02 -0.39880983610E+03  0.40567928043E+03  0.41800000000E+01 0. -1.
        -11    1    1    2    0    0  0.42004316765E+02 -0.45521561731E+01 -0.13454897503E+03  0.14102663377E+03  0.00000000000E+00 0. -1.
         11    1    1    2    0    0 -0.77866102958E+01 -0.15901122603E+02  0.88247426549E+01  0.19782646002E+02  0.00000000000E+00 0.  1.
</event>
<event>
 7    1  0.2594791E-009  0.1423709E+03  0.7561462E-02  0.1210174E+00
          2   -1    0    0  501    0  0.00000000000E+00  0.00000000000E+00  0.38684438775E+03  0.38684438775E+03  0.00000000000E+00 0. -1.
         -2   -1    0    0    0  501 -0.00000000000E+00 -0.00000000000E+00 -0.85634127969E+02  0.85634127969E+02  0.00000000000E+00 0.  1.
         25    2    1    2    0    0 -0.78295971107E+02  0.66541529987E+02  0.27670054320E+02  0.16423313354E+03  0.12509538737E+03 0.  0.
          5    1    3    3  502    0 -0.96694101342E+02  0.75270359740E+02 -0.80841159052E+01  0.12287473955E+03  0.41800000000E+01 0. -1.
         -5    1    3    3    0  502  0.18398130235E+02 -0.87288297527E+01  0.35754170225E+02  0.41358393991E+02  0.41800000000E+01 0. -1.
        -11    1    1    2    0    0  0.36540798514E+02 -0.87355122481E+02  0.16787658493E+03  0.19273996769E+03  0.00000000000E+00 0. -1.
         11    1    1    2    0    0  0.41755172593E+02  0.20813592494E+02  0.10566362054E+03  0.11550541449E+03  0.00000000000E+00 0.  1.
</event>
<event>
 7    1  0.2594791E-009  0.1228532E+03  0.7561462E-02  0.1238463E+00
         -4   -1    0    0    0  501 -0.00000000000E+00  0.00000000000E+00  0.17938674016E+03  0.17938674016E+03  0.00000000000E+00 0. -1.
          4   -1    0    0  501    0  0.00000000000E+00 -0.00000000000E+00 -0.11381235878E+03  0.11381235878E+03  0.00000000000E+00 0.  1.
         25    2    1    2    0    0  0.80649985946E+02 -0.38330156177E+02  0.70297509100E+01  0.15384937229E+03  0.12508633359E+03 0.  0.
          5    1    3    3  502    0  0.67524292995E+02 -0.62790420953E+02  0.48114637805E+02  0.10408966269E+03  0.41800000000E+01 0.  1.
         -5    1    3    3    0  502  0.13125692952E+02  0.24460264776E+02 -0.41084886895E+02  0.49759709601E+02  0.41800000000E+01 0.  1.
        -11    1    1    2    0    0 -0.38339566939E+02  0.64894485870E+02  0.26028031069E+02  0.79741301035E+02  0.00000000000E+00 0. -1.
         11    1    1    2    0    0 -0.42310419007E+02 -0.26564329694E+02  0.32516599398E+02  0.59608425621E+02  0.00000000000E+00 0.  1.
</event>
<event>
 7    1  0.2594791E-009  0.1005981E+03  0.7561462E-02  0.1279043E+00
          2   -1    0    0  501    0  0.00000000000E+00  0.00000000000E+00  0.86096087916E+03  0.86096087916E+03  0.00000000000E+00 0. -1.
         -2   -1    0    0    0  501 -0.00000000000E+00 -0.00000000000E+00 -0.17979668915E+02  0.17979668915E+02  0.00000000000E+00 0.  1.
         25    2    1    2    0    0  0.26805072321E+02 -0.45560173085E+02  0.42148504973E+03  0.44283468901E+03  0.12513462100E+03 0.  0.
          5    1    3    3  502    0  0.55839615190E+02 -0.49569880797E+02  0.13098863627E+03  0.15083345431E+03  0.41800000000E+01 0. -1.
         -5    1    3    3    0  502 -0.29034542869E+02  0.40097077122E+01  0.29049641346E+03  0.29200123470E+03  0.41800000000E+01 0. -1.
        -11    1    1    2    0    0  0.25936714747E+02 -0.16925970051E+01  0.37451495867E+02  0.45587197755E+02  0.00000000000E+00 0.  1.
         11    1    1    2    0    0 -0.52741787068E+02  0.47252770090E+02  0.38404466464E+03  0.39051866130E+03  0.00000000000E+00 0. -1.
</event>
<event>
 7    1  0.2594791E-009  0.1042812E+03  0.7561462E-02  0.1271542E+00
         -2   -1    0    0    0  501 -0.00000000000E+00  0.00000000000E+00  0.49764444341E+03  0.49764444341E+03  0.00000000000E+00 0.  1.
          2   -1    0    0  501    0  0.00000000000E+00 -0.00000000000E+00 -0.26661561758E+02  0.26661561758E+02  0.00000000000E+00 0. -1.
         25    2    1    2    0    0 -0.12599418241E+02 -0.12603059144E+01  0.18273571263E+03  0.22180984270E+03  0.12508769698E+03 0.  0.
          5    1    3    3  502    0 -0.55596416779E+02 -0.37583407725E+02  0.79223921558E+02  0.10391042413E+03  0.41800000000E+01 0. -1.
         -5    1    3    3    0  502  0.42996998539E+02  0.36323101811E+02  0.10351179107E+03  0.11789941857E+03  0.41800000000E+01 0. -1.
        -11    1    1    2    0    0  0.54390298172E+01  0.42591138828E+02  0.20295835785E+03  0.20745043546E+03  0.00000000000E+00 0.  1.
         11    1    1    2    0    0  0.71603884233E+01 -0.41330832914E+02  0.85288811170E+02  0.95045727008E+02  0.00000000000E+00 0. -1.
</event>
<event>
 7    1  0.2594791E-009  0.1135174E+03  0.7561462E-02  0.1254191E+00
         -1   -1    0    0    0  501 -0.00000000000E+00  0.00000000000E+00  0.40196147099E+02  0.40196147099E+02  0.00000000000E+00 0.  1.
          1   -1    0    0  501    0  0.00000000000E+00 -0.00000000000E+00 -0.46155454948E+03  0.46155454948E+03  0.00000000000E+00 0. -1.
         25    2    1    2    0    0 -0.65919941078E+02 -0.40385222673E+02 -0.28528919207E+03  0.32095845536E+03  0.12509197462E+03 0.  0.
          5    1    3    3  502    0 -0.82853260355E+02  0.16725824946E+02 -0.13614477927E+03  0.16030374073E+03  0.41800000000E+01 0. -1.
         -5    1    3    3    0  502  0.16933319277E+02 -0.57111047618E+02 -0.14914441280E+03  0.16065471463E+03  0.41800000000E+01 0. -1.
        -11    1    1    2    0    0  0.53055023785E+02  0.16498668739E+02 -0.14246658259E+03  0.15291752278E+03  0.00000000000E+00 0. -1.
         11    1    1    2    0    0  0.12864917293E+02  0.23886553934E+02  0.63973722782E+01  0.27874718435E+02  0.00000000000E+00 0.  1.
</event>
<event>
 7    1  0.2594791E-009  0.1435487E+03  0.7561462E-02  0.1208632E+00
         -2   -1    0    0    0  501 -0.00000000000E+00  0.00000000000E+00  0.14352359408E+02  0.14352359408E+02  0.00000000000E+00 0.  1.
          2   -1    0    0  501    0  0.00000000000E+00 -0.00000000000E+00 -0.14480608920E+04  0.14480608920E+04  0.00000000000E+00 0. -1.
         25    2    1    2    0    0 -0.94472178627E+02  0.22008869186E+02 -0.81386572965E+03  0.82911473346E+03  0.12507770582E+03 0.  0.
          5    1    3    3  502    0 -0.99456295262E+02 -0.31436722169E+02 -0.52659986369E+03  0.53684700894E+03  0.41800000000E+01 0. -1.
         -5    1    3    3    0  502  0.49841166345E+01  0.53445591355E+02 -0.28726586596E+03  0.29226772453E+03  0.41800000000E+01 0. -1.
        -11    1    1    2    0    0 -0.84783547212E+00 -0.32914522421E+02 -0.12660596828E+03  0.13081726115E+03  0.00000000000E+00 0.  1.
         11    1    1    2    0    0  0.95320014100E+02  0.10905653234E+02 -0.49323683470E+03  0.50248125683E+03  0.00000000000E+00 0. -1.
</event>
<event>
 7    1  0.2594791E-009  0.1291669E+03  0.7561462E-02  0.1228697E+00
         -2   -1    0    0    0  501 -0.00000000000E+00  0.00000000000E+00  0.84509462599E+02  0.84509462599E+02  0.00000000000E+00 0.  1.
          2   -1    0    0  501    0  0.00000000000E+00 -0.00000000000E+00 -0.32274983070E+03  0.32274983070E+03  0.00000000000E+00 0. -1.
         25    2    1    2    0    0  0.10028219619E+02  0.12043298123E+03 -0.10451634054E+03  0.20291750478E+03  0.12508868913E+03 0.  0.
          5    1    3    3  502    0 -0.11196446666E+02  0.21905034443E+01 -0.79134661756E+02  0.80062012307E+02  0.41800000000E+01 0.  1.
         -5    1    3    3    0  502  0.21224666285E+02  0.11824247779E+03 -0.25381678787E+02  0.12285549247E+03  0.41800000000E+01 0.  1.
        -11    1    1    2    0    0 -0.22957286540E+02 -0.90619904127E+02 -0.34027659147E+02  0.99483092112E+02  0.00000000000E+00 0.  1.
         11    1    1    2    0    0  0.12929066921E+02 -0.29813077106E+02 -0.99696368411E+02  0.10485869641E+03  0.00000000000E+00 0. -1.
</event>
<event>
 7    1  0.2594791E-009  0.6303544E+02  0.7561462E-02  0.1385518E+00
          3   -1    0    0  501    0  0.00000000000E+00  0.00000000000E+00  0.13163311962E+03  0.13163311962E+03  0.00000000000E+00 0. -1.
         -3   -1    0    0    0  501 -0.00000000000E+00 -0.00000000000E+00 -0.89453964113E+02  0.89453964113E+02  0.00000000000E+00 0.  1.
         25    2    1    2    0    0 -0.18645536815E+02 -0.13763512736E+02  0.63757280352E+01  0.12735521730E+03  0.12506642690E+03 0.  0.
          5    1    3    3  502    0  0.12812294178E+02  0.14999264485E+02 -0.51527977336E+02  0.55332970872E+02  0.41800000000E+01 0. -1.
         -5    1    3    3    0  502 -0.31457830992E+02 -0.28762777221E+02  0.57903705371E+02  0.72022246424E+02  0.41800000000E+01 0. -1.
        -11    1    1    2    0    0 -0.20475810328E+02 -0.26603362236E+01  0.45713956131E+02  0.50160761383E+02  0.00000000000E+00 0. -1.
         11    1    1    2    0    0  0.39121347142E+02  0.16423848959E+02 -0.99105286623E+01  0.43571105049E+02  0.00000000000E+00 0.  1.
</event>
<event>
 7    1  0.2594791E-009  0.1178963E+03  0.7561462E-02  0.1246608E+00
         -4   -1    0    0    0  501 -0.00000000000E+00  0.00000000000E+00  0.17056114550E+03  0.17056114550E+03  0.00000000000E+00 0. -1.
          4   -1    0    0  501    0  0.00000000000E+00 -0.00000000000E+00 -0.88008886650E+02  0.88008886650E+02  0.00000000000E+00 0.  1.
         25    2    1    2    0    0  0.98638654723E+00  0.47903880422E+02  0.12950600794E+02  0.13457374754E+03  0.12508645310E+03 0.  0.
          5    1    3    3  502    0 -0.21986221977E+02 -0.38448192623E+02  0.50130404949E+01  0.44768967464E+02  0.41800000000E+01 0.  1.
         -5    1    3    3    0  502  0.22972608525E+02  0.86352073044E+02  0.79375602996E+01  0.89804780079E+02  0.41800000000E+01 0.  1.
        -11    1    1    2    0    0 -0.25464069899E+01  0.26905799314E+02  0.12016041245E+02  0.29576873947E+02  0.00000000000E+00 0. -1.
         11    1    1    2    0    0  0.15600204426E+01 -0.74809679736E+02  0.57585616812E+02  0.94419410661E+02  0.00000000000E+00 0.  1.
</event>
<event>
 7    1  0.2594791E-009  0.1179513E+03  0.7561462E-02  0.1246515E+00
          1   -1    0    0  501    0  0.00000000000E+00  0.00000000000E+00  0.84989122240E+03  0.84989122240E+03  0.00000000000E+00 0. -1.
         -1   -1    0    0    0  501 -0.00000000000E+00 -0.00000000000E+00 -0.27060590890E+02  0.27060590890E+02  0.00000000000E+00 0.  1.
         25    2    1    2    0    0 -0.94530554292E+02  0.44670430501E+02  0.37262249698E+03  0.40672337262E+03  0.12507958873E+03 0.  0.
          5    1    3    3  502    0 -0.37787200324E+01  0.10093070872E+01 -0.97405135868E+01  0.11298116251E+02  0.41800000000E+01 0. -1.
         -5    1    3    3    0  502 -0.90751834260E+02  0.43661123414E+02  0.38236301057E+03  0.39542525637E+03  0.41800000000E+01 0. -1.
        -11    1    1    2    0    0 -0.83258853610E+01 -0.22737771913E+02  0.40043162898E+02  0.46795101597E+02  0.00000000000E+00 0.  1.
         11    1    1    2    0    0  0.10285643965E+03 -0.21932658588E+02  0.41016497162E+03  0.42343333907E+03  0.00000000000E+00 0. -1.
</event>
<event>
 7    1  0.2594791E-009  0.1821345E+03  0.7561462E-02  0.1165753E+00
         -2   -1    0    0    0  501 -0.00000000000E+00  0.00000000000E+00  0.11910187002E+03  0.11910187002E+03  0.00000000000E+00 0.  1.
          2   -1    0    0  501    0  0.00000000000E+00 -0.00000000000E+00 -0.38846837869E+03  0.38846837869E+03  0.00000000000E+00 0. -1.
         25    2    1    2    0    0 -0.15304713456E+03  0.93326584159E+02 -0.80064354537E+02  0.23279024267E+03  0.12509084502E+03 0.  0.
          5    1    3    3  502    0 -0.10778405658E+03  0.59749640075E+02  0.12916471060E+02  0.12398278093E+03  0.41800000000E+01 0.  1.
         -5    1    3    3    0  502 -0.45263077983E+02  0.33576944085E+02 -0.92980825596E+02  0.10880746174E+03  0.41800000000E+01 0.  1.
        -11    1    1    2    0    0  0.21545464280E+02 -0.33842971007E+02 -0.92964995071E+02  0.10125237788E+03  0.00000000000E+00 0. -1.
         11    1    1    2    0    0  0.13150167028E+03 -0.59483613153E+02 -0.96337159061E+02  0.17352762816E+03  0.00000000000E+00 0.  1.
</event>
<event>
 7    1  0.2594791E-009  0.1633592E+03  0.7561462E-02  0.1184956E+00
          2   -1    0    0  501    0  0.00000000000E+00  0.00000000000E+00  0.37348995149E+03  0.37348995149E+03  0.00000000000E+00 0. -1.
         -2   -1    0    0    0  501 -0.00000000000E+00 -0.00000000000E+00 -0.83931159530E+02  0.83931159530E+02  0.00000000000E+00 0.  1.
         25    2    1    2    0    0  0.14108527517E+03  0.32154731579E+02  0.15919207776E+03  0.24885550746E+03  0.12509182362E+03 0.  0.
          5    1    3    3  502    0  0.15020100603E+03  0.74941837812E+01  0.16316537597E+03  0.22193899459E+03  0.41800000000E+01 0.  1.
         -5    1    3    3    0  502 -0.91157308521E+01  0.24660547798E+02 -0.39732982071E+01  0.26916512874E+02  0.41800000000E+01 0.  1.
        -11    1    1    2    0    0 -0.85488238318E+02 -0.12673417827E+00  0.11373776824E+03  0.14228329092E+03  0.00000000000E+00 0. -1.
         11    1    1    2    0    0 -0.55597036856E+02 -0.32027997401E+02  0.16628945959E+02  0.66282312636E+02  0.00000000000E+00 0.  1.
</event>
<event>
 7    1  0.2594791E-009  0.1207167E+03  0.7561462E-02  0.1241919E+00
         -2   -1    0    0    0  501 -0.00000000000E+00  0.00000000000E+00  0.34761958208E+02  0.34761958208E+02  0.00000000000E+00 0.  1.
          2   -1    0    0  501    0  0.00000000000E+00 -0.00000000000E+00 -0.53180223653E+03  0.53180223653E+03  0.00000000000E+00 0. -1.
         25    2    1    2    0    0  0.13891125299E+01  0.56117278469E+02 -0.18122775737E+03  0.22725145774E+03  0.12509454994E+03 0.  0.
          5    1    3    3  502    0  0.48136788617E+02 -0.13602177320E+02 -0.91125523972E+02  0.10403606666E+03  0.41800000000E+01 0. -1.
         -5    1    3    3    0  502 -0.46747676087E+02  0.69719455789E+02 -0.90102233403E+02  0.12321539108E+03  0.41800000000E+01 0. -1.
        -11    1    1    2    0    0 -0.45968387253E+02 -0.21486735774E+02 -0.66272521079E+02  0.83467475648E+02  0.00000000000E+00 0.  1.
         11    1    1    2    0    0  0.44579274723E+02 -0.34630542695E+02 -0.24953999987E+03  0.25584526135E+03  0.00000000000E+00 0. -1.
</event>
<event>
 7    1  0.2594791E-009  0.8808099E+02  0.7561462E-02  0.1307567E+00
          2   -1    0    0  501    0  0.00000000000E+00  0.00000000000E+00  0.11188777237E+04  0.11188777237E+04  0.00000000000E+00 0. -1.
         -2   -1    0    0    0  501 -0.00000000000E+00 -0.00000000000E+00 -0.13458329532E+02  0.13458329532E+02  0.00000000000E+00 0.  1.
         25    2    1    2    0    0 -0.52043645090E+02  0.98909376956E+01  0.52560288248E+03  0.54287422564E+03  0.12509061972E+03 0.  0.
          5    1    3    3  502    0 -0.54173401673E+02 -0.48518053285E+01  0.79003178431E+02  0.96006625115E+02  0.41800000000E+01 0.  1.
         -5    1    3    3    0  502  0.21297565828E+01  0.14742743024E+02  0.44659970405E+03  0.44686760052E+03  0.41800000000E+01 0.  1.
        -11    1    1    2    0    0  0.49655684967E+02 -0.47345468610E+02  0.36539044273E+03  0.37177608326E+03  0.00000000000E+00 0.  1.
         11    1    1    2    0    0  0.23879601227E+01  0.37454530914E+02  0.21442606895E+03  0.21768574434E+03  0.00000000000E+00 0. -1.
</event>
<event>
 7    1  0.2594791E-009  0.2235079E+03  0.7561462E-02  0.1131294E+00
          2   -1    0    0  501    0  0.00000000000E+00  0.00000000000E+00  0.76259542891E+03  0.76259542891E+03  0.00000000000E+00 0. -1.
         -2   -1    0    0    0  501 -0.00000000000E+00 -0.00000000000E+00 -0.70087025126E+02  0.70087025126E+02  0.00000000000E+00 0.  1.
         25    2    1    2    0    0  0.19768306511E+03 -0.29078883237E+02  0.42892262926E+03  0.48943415844E+03  0.12508796055E+03 0.  0.
          5    1    3    3  502    0  0.17466635829E+03 -0.69128003388E+02  0.36415413149E+03  0.40977154788E+03  0.41800000000E+01 0.  1.
         -5    1    3    3    0  502  0.23016706817E+02  0.40049120151E+02  0.64768497774E+02  0.79662610562E+02  0.41800000000E+01 0.  1.
        -11    1    1    2    0    0 -0.85283621242E+02 -0.23772853442E+02  0.15387553766E+03  0.17752781670E+03  0.00000000000E+00 0. -1.
         11    1    1    2    0    0 -0.11239944387E+03  0.52851736679E+02  0.10971023686E+03  0.16572047889E+03  0.00000000000E+00 0.  1.
</event>
<event>
 7    1  0.2594791E-009  0.1211417E+03  0.7561462E-02  0.1241225E+00
          1   -1    0    0  501    0  0.00000000000E+00  0.00000000000E+00  0.72437539947E+02  0.72437539947E+02  0.00000000000E+00 0. -1.
         -1   -1    0    0    0  501 -0.00000000000E+00 -0.00000000000E+00 -0.27568478168E+03  0.27568478168E+03  0.00000000000E+00 0.  1.
         25    2    1    2    0    0  0.75212591652E+02  0.42430043981E+02 -0.15158272460E+03  0.21465754076E+03  0.12507315793E+03 0.  0.
          5    1    3    3  502    0  0.78879098415E+01 -0.37938745323E+02 -0.13529198294E+02  0.41256261644E+02  0.41800000000E+01 0. -1.
         -5    1    3    3    0  502  0.67324681811E+02  0.80368789305E+02 -0.13805352631E+03  0.17340127912E+03  0.41800000000E+01 0. -1.
        -11    1    1    2    0    0 -0.43676370330E+02  0.22047409879E+01  0.15927839954E+02  0.46542263521E+02  0.00000000000E+00 0. -1.
         11    1    1    2    0    0 -0.31536221322E+02 -0.44634784969E+02 -0.67592357088E+02  0.86922517343E+02  0.00000000000E+00 0.  1.
</event>
<event>
 7    1  0.2594791E-009  0.1024762E+03  0.7561462E-02  0.1275173E+00
         -1   -1    0    0    0  501 -0.00000000000E+00  0.00000000000E+00  0.74246781200E+02  0.74246781200E+02  0.00000000000E+00 0.  1.
          1   -1    0    0  501    0  0.00000000000E+00 -0.00000000000E+00 -0.25929128028E+03  0.25929128028E+03  0.00000000000E+00 0. -1.
         25    2    1    2    0    0 -0.47182718039E+01 -0.56875181543E+02 -0.17783503593E+03  0.22479089858E+03  0.12509436324E+03 0.  0.
          5    1    3    3  502    0 -0.32828110161E+02  0.30857134596E+02 -0.56336163779E+02  0.72257064164E+02  0.41800000000E+01 0.  1.
         -5    1    3    3    0  502  0.28109838357E+02 -0.87732316138E+02 -0.12149887215E+03  0.15253383442E+03  0.41800000000E+01 0.  1.
        -11    1    1    2    0    0  0.20291082275E+02  0.37391260541E+02  0.38046137264E+02  0.57073136811E+02  0.00000000000E+00 0.  1.
         11    1    1    2    0    0 -0.15572810471E+02  0.19483921002E+02 -0.45255600416E+02  0.51674026092E+02  0.00000000000E+00 0. -1.
</event>
<event>
 7    1  0.2594791E-009  0.1166134E+03  0.7561462E-02  0.1248791E+00
         -1   -1    0    0    0  501 -0.00000000000E+00  0.00000000000E+00  0.60609911226E+02  0.60609911226E+02  0.00000000000E+00 0.  1.
          1   -1    0    0  501    0  0.00000000000E+00 -0.00000000000E+00 -0.25617498429E+03  0.25617498429E+03  0.00000000000E+00 0. -1.
         25    2    1    2    0    0 -0.27983175247E+02 -0.54745235278E+02 -0.11901552669E+03  0.18328245278E+03  0.12509061924E+03 0.  0.
          5    1    3    3  502    0  0.22214722148E+02 -0.74139976794E+02 -0.39012569526E+02  0.86773746145E+02  0.41800000000E+01 0. -1.
         -5    1    3    3    0  502 -0.50197897395E+02  0.19394741515E+02 -0.80002957161E+02  0.96508706632E+02  0.41800000000E+01 0. -1.
        -11    1    1    2    0    0  0.12086840600E+02  0.75014388251E+02 -0.32856805277E+02  0.82781760149E+02  0.00000000000E+00 0.  1.
         11    1    1    2    0    0  0.15896334647E+02 -0.20269152973E+02 -0.43692741096E+02  0.50720682585E+02  0.00000000000E+00 0. -1.
</event>
<event>
 7    1  0.2594791E-009  0.1809437E+03  0.7561462E-02  0.1166893E+00
         -1   -1    0    0    0  501 -0.00000000000E+00  0.00000000000E+00  0.11597337498E+03  0.11597337498E+03  0.00000000000E+00 0.  1.
          1   -1    0    0  501    0  0.00000000000E+00 -0.00000000000E+00 -0.40688212579E+03  0.40688212579E+03  0.00000000000E+00 0. -1.
         25    2    1    2    0    0  0.47536212147E+02  0.15437986024E+03 -0.26406558764E+03  0.33387187236E+03  0.12508780862E+03 0.  0.
          5    1    3    3  502    0 -0.15494595015E+02  0.12533516703E+03 -0.12169361934E+03  0.17543031653E+03  0.41800000000E+01 0. -1.
         -5    1    3    3    0  502  0.63030807162E+02  0.29044693201E+02 -0.14237196830E+03  0.15844155583E+03  0.41800000000E+01 0. -1.
        -11    1    1    2    0    0 -0.54272355221E+02 -0.13838151603E+03  0.92520724751E+01  0.14893130418E+03  0.00000000000E+00 0.  1.
         11    1    1    2    0    0  0.67361430744E+01 -0.15998344210E+02 -0.36095235645E+02  0.40052324243E+02  0.00000000000E+00 0. -1.
</event>
<event>
 7    1  0.2594791E-009  0.1068443E+03  0.7561462E-02  0.1266528E+00
         -4   -1    0    0    0  501 -0.00000000000E+00  0.00000000000E+00  0.13996122851E+03  0.13996122851E+03  0.00000000000E+00 0.  1.
          4   -1    0    0  501    0  0.00000000000E+00 -0.00000000000E+00 -0.11360506389E+03  0.11360506389E+03  0.00000000000E+00 0. -1.
         25    2    1    2    0    0  0.30143070909E+02 -0.35225860988E+02 -0.32037102128E+02  0.13719037142E+03  0.12508139787E+03 0.  0.
          5    1    3    3  502    0  0.51913382133E+02 -0.62420274459E+02 -0.52309421216E+02  0.96669735988E+02  0.41800000000E+01 0.  1.
         -5    1    3    3    0  502 -0.21770311224E+02  0.27194413471E+02  0.20272319089E+02  0.40520635435E+02  0.41800000000E+01 0.  1.
        -11    1    1    2    0    0 -0.56686464353E+02  0.41230868239E+02  0.54699557902E+02  0.88912211598E+02  0.00000000000E+00 0. -1.
         11    1    1    2    0    0  0.26543393444E+02 -0.60050072509E+01  0.36937088468E+01  0.27463709375E+02  0.00000000000E+00 0.  1.
</event>
<event>
 7    1  0.2594791E-009  0.8316231E+02  0.7561462E-02  0.1320309E+00
          1   -1    0    0  501    0  0.00000000000E+00  0.00000000000E+00  0.46203288518E+03  0.46203288518E+03  0.00000000000E+00 0. -1.
         -1   -1    0    0    0  501 -0.00000000000E+00 -0.00000000000E+00 -0.28632493421E+02  0.28632493421E+02  0.00000000000E+00 0.  1.
         25    2    1    2    0    0  0.66002696240E+00 -0.31642249639E+02  0.22505946963E+03  0.25942424641E+03  0.12508999624E+03 0.  0.
          5    1    3    3  502    0 -0.30782038310E+02 -0.35455259619E+02  0.18871720149E+02  0.50776210360E+02  0.41800000000E+01 0.  1.
         -5    1    3    3    0  502  0.31442065272E+02  0.38130099794E+01  0.20618774948E+03  0.20864803605E+03  0.41800000000E+01 0.  1.
        -11    1    1    2    0    0 -0.40041190123E+02  0.66316960548E+01  0.15569955703E+03  0.16090254305E+03  0.00000000000E+00 0. -1.
         11    1    1    2    0    0  0.39381163161E+02  0.25010553584E+02  0.52641365091E+02  0.70338589132E+02  0.00000000000E+00 0.  1.
</event>
<event>
 7    1  0.2705321E-009  0.8287179E+02  0.7561462E-02  0.1321094E+00
         -2   -1    0    0    0  501 -0.00000000000E+00  0.00000000000E+00  0.22206198929E+03  0.22206198929E+03  0.00000000000E+00 0.  1.
          2   -1    0    0  501    0  0.00000000000E+00 -0.00000000000E+00 -0.72175908970E+02  0.72175908970E+02  0.00000000000E+00 0. -1.
         25    2    1    2    0    0 -0.19095863151E+02  0.59477538779E+02  0.61770053405E+02  0.15285943214E+03  0.12509291302E+03 0.  0.
          5    1    3    3  502    0 -0.35152519638E+02  0.10072733093E+02  0.87362021914E+02  0.94798496095E+02  0.41800000000E+01 0.  1.
         -5    1    3    3    0  502  0.16056656488E+02  0.49404805685E+02 -0.25591968509E+02  0.58060936046E+02  0.41800000000E+01 0.  1.
        -11    1    1    2    0    0 -0.47840658553E+01 -0.51386025788E+02  0.19997262801E+01  0.51646973170E+02  0.00000000000E+00 0. -1.
         11    1    1    2    0    0  0.23879929006E+02 -0.80915129904E+01  0.86116300632E+02  0.89731492946E+02  0.00000000000E+00 0.  1.
</event>
<event>
 7    1  0.2594791E-009  0.1169851E+03  0.7561462E-02  0.1248155E+00
         -2   -1    0    0    0  501 -0.00000000000E+00  0.00000000000E+00  0.17368216936E+02  0.17368216936E+02  0.00000000000E+00 0.  1.
          2   -1    0    0  501    0  0.00000000000E+00 -0.00000000000E+00 -0.83319464180E+03  0.83319464180E+03  0.00000000000E+00 0. -1.
         25    2    1    2    0    0  0.13958424384E+02  0.46699820684E+02 -0.42138425308E+03  0.44225347452E+03  0.12509091140E+03 0.  0.
          5    1    3    3  502    0  0.68115844842E+02  0.40959360419E+02 -0.25506003536E+03  0.26719006636E+03  0.41800000000E+01 0.  1.
         -5    1    3    3    0  502 -0.54157420458E+02  0.57404602654E+01 -0.16632421772E+03  0.17506340816E+03  0.41800000000E+01 0.  1.
        -11    1    1    2    0    0  0.34408686046E+02 -0.29435448779E+01 -0.20659111681E+03  0.20945766082E+03  0.00000000000E+00 0.  1.
         11    1    1    2    0    0 -0.48367110429E+02 -0.43756275807E+02 -0.18785105498E+03  0.19885172340E+03  0.00000000000E+00 0. -1.
</event>
<event>
 7    1  0.2779052E-009  0.1301665E+03  0.7561462E-02  0.1227209E+00
          2   -1    0    0  501    0  0.00000000000E+00  0.00000000000E+00  0.15391708802E+03  0.15391708802E+03  0.00000000000E+00 0. -1.
         -2   -1    0    0    0  501 -0.00000000000E+00 -0.00000000000E+00 -0.13661300877E+03  0.13661300877E+03  0.00000000000E+00 0.  1.
         25    2    1    2    0    0 -0.96204610158E+02 -0.19374584721E+01  0.18079637122E+02  0.15884960574E+03  0.12508894117E+03 0.  0.
          5    1    3    3  502    0 -0.12630105118E+03 -0.40287419665E+01  0.76860675755E+01  0.12666781093E+03  0.41800000000E+01 0.  1.
         -5    1    3    3    0  502  0.30096441024E+02  0.20912834944E+01  0.10393569546E+02  0.32181794805E+02  0.41800000000E+01 0.  1.
        -11    1    1    2    0    0  0.71910526520E+02  0.18235841035E+02 -0.38787300472E+02  0.83714541154E+02  0.00000000000E+00 0.  1.
         11    1    1    2    0    0  0.24294083638E+02 -0.16298382563E+02  0.38011742596E+02  0.47965949893E+02  0.00000000000E+00 0. -1.
</event>
<event>
 7    1  0.2594791E-009  0.7949166E+02  0.7561462E-02  0.1330500E+00
         -1   -1    0    0    0  501 -0.00000000000E+00  0.00000000000E+00  0.29294034807E+02  0.29294034807E+02  0.00000000000E+00 0.  1.
          1   -1    0    0  501    0  0.00000000000E+00 -0.00000000000E+00 -0.45195057546E+03  0.45195057546E+03  0.00000000000E+00 0. -1.
         25    2    1    2    0    0  0.39533475538E+01 -0.25881721435E+02 -0.30162624063E+03  0.32758129491E+03  0.12508246588E+03 0.  0.
          5    1    3    3  502    0 -0.25742601118E+02 -0.38139055782E+02 -0.32444334423E+02  0.56456853653E+02  0.41800000000E+01 0. -1.
         -5    1    3    3    0  502  0.29695948672E+02  0.12257334347E+02 -0.26918190621E+03  0.27112444125E+03  0.41800000000E+01 0. -1.
        -11    1    1    2    0    0  0.32584264467E+02  0.29122691413E+02 -0.10480963396E+03  0.11355582247E+03  0.00000000000E+00 0. -1.
         11    1    1    2    0    0 -0.36537612020E+02 -0.32409699778E+01 -0.16220666054E+02  0.40107492888E+02  0.00000000000E+00 0.  1.
</event>
<event>
 7    1  0.2594791E-009  0.9527305E+02  0.7561462E-02  0.1290562E+00
          1   -1    0    0  501    0  0.00000000000E+00  0.00000000000E+00  0.59975799496E+03  0.59975799496E+03  0.00000000000E+00 0. -1.
         -1   -1    0    0    0  501 -0.00000000000E+00 -0.00000000000E+00 -0.29322177349E+02  0.29322177349E+02  0.00000000000E+00 0.  1.
         25    2    1    2    0    0 -0.44186863223E+02  0.56632307533E+02  0.40636978656E+03  0.43121137749E+03  0.12508857466E+03 0.  0.
          5    1    3    3  502    0 -0.49998686770E+02  0.41168104121E+02  0.40886924374E+03  0.41398817900E+03  0.41800000000E+01 0. -1.
         -5    1    3    3    0  502  0.58118235472E+01  0.15464203412E+02 -0.24994571782E+01  0.17223198492E+02  0.41800000000E+01 0. -1.
        -11    1    1    2    0    0  0.48581200382E+02  0.31286267245E+01  0.55192375653E+02  0.73594290987E+02  0.00000000000E+00 0.  1.
         11    1    1    2    0    0 -0.43943371589E+01 -0.59760934257E+02  0.10887365540E+03  0.12427450383E+03  0.00000000000E+00 0. -1.
</event>
<event>
 6    1  0.2594791E-009  0.9463599E+02  0.7561462E-02  0.1291998E+00
          2   -1    0    0  501    0  0.00000000000E+00  0.00000000000E+00  0.76197901365E+03  0.76197901365E+03  0.00000000000E+00 0. -1.
         -2   -1    0    0    0  501 -0.00000000000E+00 -0.00000000000E+00 -0.18408976301E+02  0.18408976301E+02  0.00000000000E+00 0.  1.
          5    1    1    2  502    0 -0.43620495538E+02  0.59787180259E+02  0.20022443147E+03  0.21350538614E+03  0.41800000000E+01 0. -1.
         -5    1    1    2    0  502  0.45760912511E+02 -0.18385790251E+02  0.28518710343E+03  0.28944991754E+03  0.41800000000E+01 0. -1.
        -11    1    1    2    0    0  0.46358807047E+01 -0.52469929519E+02  0.25911939715E+03  0.26441907434E+03  0.00000000000E+00 0. -1.
         11    1    1    2    0    0 -0.67762976777E+01  0.11068539512E+02 -0.96089469945E+00  0.13013611941E+02  0.00000000000E+00 0.  1.
</event>
<event>
 7    1  0.2594791E-009  0.7310605E+02  0.7561462E-02  0.1349838E+00
          1   -1    0    0  501    0  0.00000000000E+00  0.00000000000E+00  0.13640992899E+03  0.13640992899E+03  0.00000000000E+00 0. -1.
         -1   -1    0    0    0  501 -0.00000000000E+00 -0.00000000000E+00 -0.10512056010E+03  0.10512056010E+03  0.00000000000E+00 0.  1.
         25    2    1    2    0    0 -0.40723033134E+01 -0.38341672851E+02  0.50043699945E+02  0.14013836377E+03  0.12509085324E+03 0.  0.
          5    1    3    3  502    0 -0.24907770835E+02 -0.23026164608E+02  0.87781657697E+02  0.94200282020E+02  0.41800000000E+01 0. -1.
         -5    1    3    3    0  502  0.20835467521E+02 -0.15315508242E+02 -0.37737957753E+02  0.45938081750E+02  0.41800000000E+01 0. -1.
        -11    1    1    2    0    0 -0.11042238333E+02  0.59122215713E+02  0.11985299147E+02  0.61327113203E+02  0.00000000000E+00 0. -1.
         11    1    1    2    0    0  0.15114541646E+02 -0.20780542862E+02 -0.30739630204E+02  0.40065012117E+02  0.00000000000E+00 0.  1.
</event>
<event>
 7    1  0.2594791E-009  0.1603240E+03  0.7561462E-02  0.1188331E+00
         -2   -1    0    0    0  501 -0.00000000000E+00  0.00000000000E+00  0.64313253987E+02  0.64313253987E+02  0.00000000000E+00 0.  1.
          2   -1    0    0  501    0  0.00000000000E+00 -0.00000000000E+00 -0.48909915736E+03  0.48909915736E+03  0.00000000000E+00 0. -1.
         25    2    1    2    0    0  0.48101986142E+02  0.11173762665E+03 -0.11619133610E+03  0.20963803937E+03  0.12509429518E+03 0.  0.
          5    1    3    3  502    0 -0.25730356757E+02  0.94921776298E+02 -0.60414364251E+02  0.11549702456E+03  0.41800000000E+01 0.  1.
         -5    1    3    3    0  502  0.73832342898E+02  0.16815850351E+02 -0.55776971852E+02  0.94141014812E+02  0.41800000000E+01 0.  1.
        -11    1    1    2    0    0  0.21712820678E+02 -0.44160864253E+02 -0.14913730145E+03  0.15704637276E+03  0.00000000000E+00 0.  1.
         11    1    1    2    0    0 -0.69814806820E+02 -0.67576762396E+02 -0.15945726581E+03  0.18672799921E+03  0.00000000000E+00 0. -1.
</event>
<event>
 7    1  0.2594791E-009  0.3104997E+03  0.7561462E-02  0.1080107E+00
         -1   -1    0    0    0  501 -0.00000000000E+00  0.00000000000E+00  0.16630081780E+03  0.16630081780E+03  0.00000000000E+00 0.  1.
          1   -1    0    0  501    0  0.00000000000E+00 -0.00000000000E+00 -0.77973173463E+03  0.77973173463E+03  0.00000000000E+00 0. -1.
         25    2    1    2    0    0 -0.27782086835E+03  0.95379311087E+02 -0.54416460913E+03  0.63090808141E+03  0.12509291541E+03 0.  0.
          5    1    3    3  502    0 -0.59795742132E-01 -0.18474126481E+02 -0.28630911563E+02  0.34329264800E+02  0.41800000000E+01 0.  1.
         -5    1    3    3    0  502 -0.27776107261E+03  0.11385343757E+03 -0.51553369756E+03  0.59657881661E+03  0.41800000000E+01 0.  1.
        -11    1    1    2    0    0  0.12640713612E+03 -0.71812823833E+01 -0.58758772211E+02  0.13958126017E+03  0.00000000000E+00 0. -1.
         11    1    1    2    0    0  0.15141373223E+03 -0.88198028704E+02 -0.10507535496E+02  0.17554321085E+03  0.00000000000E+00 0.  1.
</event>
<event>
 7    1  0.2594791E-009  0.1024149E+03  0.7561462E-02  0.1275298E+00
          2   -1    0    0  501    0  0.00000000000E+00  0.00000000000E+00  0.11821811305E+04  0.11821811305E+04  0.00000000000E+00 0. -1.
         -2   -1    0    0    0  501 -0.00000000000E+00 -0.00000000000E+00 -0.11822674647E+02  0.11822674647E+02  0.00000000000E+00 0.  1.
         25    2    1    2    0    0 -0.22203887570E+02 -0.40568674849E+02  0.69296609590E+03  0.70568255056E+03  0.12508805738E+03 0.  0.
          5    1    3    3  502    0 -0.16333135474E+02 -0.72275793699E+02  0.63413918587E+03  0.63846733755E+03  0.41800000000E+01 0. -1.
         -5    1    3    3    0  502 -0.58707520964E+01  0.31707118851E+02  0.58826910032E+02  0.67215213010E+02  0.41800000000E+01 0. -1.
        -11    1    1    2    0    0  0.37881785181E+02 -0.14711056697E+02  0.12983758263E+03  0.13604867769E+03  0.00000000000E+00 0.  1.
         11    1    1    2    0    0 -0.15677897611E+02  0.55279731545E+02  0.34755477733E+03  0.35227257690E+03  0.00000000000E+00 0. -1.
</event>
<event>
 7    1  0.2594791E-009  0.1173562E+03  0.7561462E-02  0.1247523E+00
          2   -1    0    0  501    0  0.00000000000E+00  0.00000000000E+00  0.70055445838E+02  0.70055445838E+02  0.00000000000E+00 0. -1.
         -2   -1    0    0    0  501 -0.00000000000E+00 -0.00000000000E+00 -0.28581828876E+03  0.28581828876E+03  0.00000000000E+00 0.  1.
         25    2    1    2    0    0  0.75079354465E+02  0.46832783536E+02 -0.84557203832E+02  0.17500387786E+03  0.12508484107E+03 0.  0.
          5    1    3    3  502    0 -0.30073504633E+02  0.22660818940E+02 -0.47688929692E+02  0.60906771471E+02  0.41800000000E+01 0.  1.
         -5    1    3    3    0  502  0.10515285910E+03  0.24171964597E+02 -0.36868274140E+02  0.11409710639E+03  0.41800000000E+01 0.  1.
        -11    1    1    2    0    0 -0.36287381671E+02 -0.27348897608E+02 -0.30272279823E+01  0.45540096379E+02  0.00000000000E+00 0. -1.
         11    1    1    2    0    0 -0.38791972794E+02 -0.19483885928E+02 -0.12817841110E+03  0.13532976035E+03  0.00000000000E+00 0.  1.
</event>
<event>
 7    1  0.2594791E-009  0.2686301E+03  0.7561462E-02  0.1102066E+00
         -1   -1    0    0    0  501 -0.00000000000E+00  0.00000000000E+00  0.92292922631E+02  0.92292922631E+02  0.00000000000E+00 0.  1.
          1   -1    0    0  501    0  0.00000000000E+00 -0.00000000000E+00 -0.13885699854E+04  0.13885699854E+04  0.00000000000E+00 0. -1.
         25    2    1    2    0    0 -0.80234403977E+02  0.24399341986E+03 -0.19401376476E+03  0.34534154396E+03  0.12509633307E+03 0.  0.
          5    1    3    3  502    0  0.18767518705E+02  0.11139272430E+03 -0.11727343715E+03  0.16288367090E+03  0.41800000000E+01 0.  1.
         -5    1    3    3    0  502 -0.99001922682E+02  0.13260069557E+03 -0.76740327615E+02  0.18245787306E+03  0.41800000000E+01 0.  1.
        -11    1    1    2    0    0  0.26740813870E+02 -0.13057178302E+03 -0.74645858466E+03  0.75826412302E+03  0.00000000000E+00 0. -1.
         11    1    1    2    0    0  0.53493590107E+02 -0.11342163685E+03 -0.35580471336E+03  0.37725724107E+03  0.00000000000E+00 0.  1.
</event>
<event>
 7    1  0.2594791E-009  0.8559198E+02  0.7561462E-02  0.1313892E+00
         -1   -1    0    0    0  501 -0.00000000000E+00  0.00000000000E+00  0.52346395775E+02  0.52346395775E+02  0.00000000000E+00 0.  1.
          1   -1    0    0  501    0  0.00000000000E+00 -0.00000000000E+00 -0.30242727218E+03  0.30242727218E+03  0.00000000000E+00 0. -1.
         25    2    1    2    0    0  0.44411559191E+02 -0.20149478700E+02 -0.19587998477E+03  0.23747445097E+03  0.12508700312E+03 0.  0.
          5    1    3    3  502    0 -0.18526985043E+01 -0.20336650010E+02  0.12281063890E+02  0.24193155140E+02  0.41800000000E+01 0.  1.
         -5    1    3    3    0  502  0.46264257695E+02  0.18717130993E+00 -0.20816104866E+03  0.21328129583E+03  0.41800000000E+01 0.  1.
        -11    1    1    2    0    0 -0.77069971123E+01 -0.35993886280E+02 -0.16323813069E+02  0.40266916037E+02  0.00000000000E+00 0.  1.
         11    1    1    2    0    0 -0.36704562078E+02  0.56143364980E+02 -0.37877078573E+02  0.77032300951E+02  0.00000000000E+00 0. -1.
</event>
<event>
 7    1  0.2594791E-009  0.1158812E+03  0.7561462E-02  0.1250051E+00
          1   -1    0    0  501    0  0.00000000000E+00  0.00000000000E+00  0.15710001061E+02  0.15710001061E+02  0.00000000000E+00 0. -1.
         -1   -1    0    0    0  501 -0.00000000000E+00 -0.00000000000E+00 -0.99311842746E+03  0.99311842746E+03  0.00000000000E+00 0.  1.
         25    2    1    2    0    0  0.57901171868E+02  0.23593400317E+02 -0.56098672686E+03  0.57815392788E+03  0.12508661948E+03 0.  0.
          5    1    3    3  502    0 -0.35952785307E+02  0.41886261950E+01 -0.25193189175E+03  0.25455313363E+03  0.41800000000E+01 0.  1.
         -5    1    3    3    0  502  0.93853957175E+02  0.19404774122E+02 -0.30905483511E+03  0.32360079425E+03  0.41800000000E+01 0.  1.
        -11    1    1    2    0    0 -0.22647815295E+02  0.28557117028E+02 -0.73701231280E+02  0.82221067633E+02  0.00000000000E+00 0. -1.
         11    1    1    2    0    0 -0.35253356574E+02 -0.52150517345E+02 -0.34272046826E+03  0.34845343301E+03  0.00000000000E+00 0.  1.
</event>
<event>
 7    1  0.2594791E-009  0.1258213E+03  0.7561462E-02  0.1233791E+00
          1   -1    0    0  501    0  0.00000000000E+00  0.00000000000E+00  0.48391004846E+03  0.48391004846E+03  0.00000000000E+00 0. -1.
         -1   -1    0    0    0  501 -0.00000000000E+00 -0.00000000000E+00 -0.44005676165E+02  0.44005676165E+02  0.00000000000E+00 0.  1.
         25    2    1    2    0    0  0.63302571746E+02  0.70368415957E+02  0.19800706295E+03  0.25260682418E+03  0.12507790010E+03 0.  0.
          5    1    3    3  502    0  0.84371247715E+02  0.20875664185E+02  0.63616539784E+02  0.10779071078E+03  0.41800000000E+01 0. -1.
         -5    1    3    3    0  502 -0.21068675970E+02  0.49492751772E+02  0.13439052316E+03  0.14481611340E+03  0.41800000000E+01 0. -1.
        -11    1    1    2    0    0  0.76280609414E+01 -0.25798737798E+02  0.14386816909E+03  0.14636192218E+03  0.00000000000E+00 0. -1.
         11    1    1    2    0    0 -0.70930632687E+02 -0.44569678159E+02  0.98029140259E+02  0.12894697827E+03  0.00000000000E+00 0.  1.
</event>
<event>
 7    1  0.3930379E-009  0.8916626E+02  0.7561462E-02  0.1304883E+00
         -4   -1    0    0    0  501 -0.00000000000E+00  0.00000000000E+00  0.21425048611E+03  0.21425048611E+03  0.00000000000E+00 0.  1.
          4   -1    0    0  501    0  0.00000000000E+00 -0.00000000000E+00 -0.64919165813E+02  0.64919165813E+02  0.00000000000E+00 0. -1.
         25    2    1    2    0    0  0.65740665136E+01  0.20681430407E+02  0.13343846594E+03  0.18418566529E+03  0.12509034811E+03 0.  0.
          5    1    3    3  502    0  0.15818014811E+02 -0.44769104129E+02  0.98213857877E+02  0.10916921066E+03  0.41800000000E+01 0.  1.
         -5    1    3    3    0  502 -0.92439482978E+01  0.65450534536E+02  0.35224608067E+02  0.75016454626E+02  0.41800000000E+01 0.  1.
        -11    1    1    2    0    0  0.18188302444E+02 -0.32310659486E+02  0.42789616654E+02  0.56619293140E+02  0.00000000000E+00 0.  1.
         11    1    1    2    0    0 -0.24762368958E+02  0.11629229079E+02 -0.26896762297E+02  0.38364693501E+02  0.00000000000E+00 0. -1.
</event>
<event>
 7    1  0.2594791E-009  0.1098861E+03  0.7561462E-02  0.1260781E+00
         -1   -1    0    0    0  501 -0.00000000000E+00  0.00000000000E+00  0.18985472658E+02  0.18985472658E+02  0.00000000000E+00 0.  1.
          1   -1    0    0  501    0  0.00000000000E+00 -0.00000000000E+00 -0.85792331428E+03  0.85792331428E+03  0.00000000000E+00 0. -1.
         25    2    1    2    0    0  0.60349477302E+01  0.61948911785E+02 -0.56666833696E+03  0.58363699752E+03  0.12508018428E+03 0.  0.
          5    1    3    3  502    0  0.60785045433E+02  0.17773137549E+02 -0.18682430381E+03  0.19731066636E+03  0.41800000000E+01 0.  1.
         -5    1    3    3    0  502 -0.54750097702E+02  0.44175774236E+02 -0.37984403315E+03  0.38632633116E+03  0.41800000000E+01 0.  1.
        -11    1    1    2    0    0  0.22454529962E+02 -0.63137922702E+01 -0.13268231553E+02  0.26834974514E+02  0.00000000000E+00 0.  1.
         11    1    1    2    0    0 -0.28489477692E+02 -0.55635119514E+02 -0.25900127311E+03  0.26643681490E+03  0.00000000000E+00 0. -1.
</event>
<event>
 7    1  0.2594791E-009  0.1132236E+03  0.7561462E-02  0.1254714E+00
          2   -1    0    0  501    0  0.00000000000E+00  0.00000000000E+00  0.15461502708E+03  0.15461502708E+03  0.00000000000E+00 0. -1.
         -2   -1    0    0    0  501 -0.00000000000E+00 -0.00000000000E+00 -0.12135055682E+03  0.12135055682E+03  0.00000000000E+00 0.  1.
         25    2    1    2    0    0 -0.53229097555E+02 -0.41965191588E+02 -0.29599688272E+02  0.14531950035E+03  0.12508877449E+03 0.  0.
          5    1    3    3  502    0 -0.50319756316E+02 -0.84156957980E+02 -0.10420416726E+02  0.98694118046E+02  0.41800000000E+01 0.  1.
         -5    1    3    3    0  502 -0.29093412394E+01  0.42191766392E+02 -0.19179271546E+02  0.46625382302E+02  0.41800000000E+01 0.  1.
        -11    1    1    2    0    0 -0.65533638391E+01  0.21723558230E+02 -0.17360003685E+02  0.28569726770E+02  0.00000000000E+00 0.  1.
         11    1    1    2    0    0  0.59782461394E+02  0.20241633358E+02  0.80224162214E+02  0.10207635678E+03  0.00000000000E+00 0. -1.
</event>
<event>
 7    1  0.3467956E-009  0.1349827E+03  0.7561462E-02  0.1220244E+00
          1   -1    0    0  501    0  0.00000000000E+00  0.00000000000E+00  0.47340447123E+03  0.47340447123E+03  0.00000000000E+00 0. -1.
         -1   -1    0    0    0  501 -0.00000000000E+00 -0.00000000000E+00 -0.58087015452E+02  0.58087015452E+02  0.00000000000E+00 0.  1.
         25    2    1    2    0    0  0.44754384362E+02 -0.10745103092E+03  0.14761721502E+03  0.22580360238E+03  0.12509094976E+03 0.  0.
          5    1    3    3  502    0  0.58491551247E+02 -0.12002034873E+03  0.80354180113E+02  0.15588589525E+03  0.41800000000E+01 0. -1.
         -5    1    3    3    0  502 -0.13737166884E+02  0.12569317816E+02  0.67263034910E+02  0.69917707126E+02  0.41800000000E+01 0. -1.
        -11    1    1    2    0    0 -0.11309112246E+02  0.45666610498E+02  0.25518124329E+02  0.53521117360E+02  0.00000000000E+00 0.  1.
         11    1    1    2    0    0 -0.33445272116E+02  0.61784420419E+02  0.24218211643E+03  0.25216676694E+03  0.00000000000E+00 0. -1.
</event>
<event>
 7    1  0.2594791E-009  0.1314433E+03  0.7561462E-02  0.1225330E+00
          2   -1    0    0  501    0  0.00000000000E+00  0.00000000000E+00  0.31399186796E+03  0.31399186796E+03  0.00000000000E+00 0. -1.
         -2   -1    0    0    0  501 -0.00000000000E+00 -0.00000000000E+00 -0.55422968735E+02  0.55422968735E+02  0.00000000000E+00 0.  1.
         25    2    1    2    0    0 -0.61796805219E+02  0.42030087572E+02  0.15420547302E+03  0.21218621620E+03  0.12513308531E+03 0.  0.
          5    1    3    3  502    0 -0.92417541788E+02 -0.12684355653E+01  0.95665639130E+02  0.13308643007E+03  0.41800000000E+01 0.  1.
         -5    1    3    3    0  502  0.30620736569E+02  0.43298523137E+02  0.58539833889E+02  0.79099786129E+02  0.41800000000E+01 0.  1.
        -11    1    1    2    0    0  0.13963158204E+02  0.28622887786E+02  0.22572618757E+02  0.39035402006E+02  0.00000000000E+00 0. -1.
         11    1    1    2    0    0  0.47833647015E+02 -0.70652975358E+02  0.81790807449E+02  0.11819321849E+03  0.00000000000E+00 0.  1.
</event>
<event>
 7    1  0.2594791E-009  0.1414636E+03  0.7561462E-02  0.1211373E+00
         -1   -1    0    0    0  501 -0.00000000000E+00  0.00000000000E+00  0.65176272823E+02  0.65176272823E+02  0.00000000000E+00 0.  1.
          1   -1    0    0  501    0  0.00000000000E+00 -0.00000000000E+00 -0.33111463898E+03  0.33111463898E+03  0.00000000000E+00 0. -1.
         25    2    1    2    0    0  0.27904127120E+02  0.90146988803E+02 -0.18546757471E+03  0.24279777094E+03  0.12508963348E+03 0.  0.
          5    1    3    3  502    0 -0.46880739545E+02  0.43602750303E+02 -0.10697241408E+03  0.12473801885E+03  0.41800000000E+01 0.  1.
         -5    1    3    3    0  502  0.74784866665E+02  0.46544238500E+02 -0.78495160637E+02  0.11805975209E+03  0.41800000000E+01 0.  1.
        -11    1    1    2    0    0 -0.55585868991E+02 -0.27339983126E+02 -0.34817218064E+02  0.71059849300E+02  0.00000000000E+00 0.  1.
         11    1    1    2    0    0  0.27681741871E+02 -0.62807005677E+02 -0.45653573377E+02  0.82433291559E+02  0.00000000000E+00 0. -1.
</event>
<event>
 7    1  0.2594791E-009  0.1221957E+03  0.7561462E-02  0.1239518E+00
         -1   -1    0    0    0  501 -0.00000000000E+00  0.00000000000E+00  0.55173316194E+02  0.55173316194E+02  0.00000000000E+00 0.  1.
          1   -1    0    0  501    0  0.00000000000E+00 -0.00000000000E+00 -0.37007861697E+03  0.37007861697E+03  0.00000000000E+00 0. -1.
         25    2    1    2    0    0  0.85889130123E+02 -0.47775258498E+02 -0.21205379692E+03  0.26509127893E+03  0.12508859012E+03 0.  0.
          5    1    3    3  502    0  0.58742493444E+02  0.25280928381E+02 -0.15700724478E+03  0.16958346969E+03  0.41800000000E+01 0. -1.
         -5    1    3    3    0  502  0.27146636679E+02 -0.73056186879E+02 -0.55046552133E+02  0.95507809241E+02  0.41800000000E+01 0. -1.
        -11    1    1    2    0    0 -0.15782153565E+02  0.23009289746E+02  0.58056395768E+01  0.28499284845E+02  0.00000000000E+00 0.  1.
         11    1    1    2    0    0 -0.70106976558E+02  0.24765968752E+02 -0.10865714343E+03  0.13166136939E+03  0.00000000000E+00 0. -1.
</event>
<event>
 7    1  0.2594791E-009  0.8311252E+02  0.7561462E-02  0.1320444E+00
          1   -1    0    0  501    0  0.00000000000E+00  0.00000000000E+00  0.52747673283E+02  0.52747673283E+02  0.00000000000E+00 0. -1.
         -1   -1    0    0    0  501 -0.00000000000E+00 -0.00000000000E+00 -0.29569649917E+03  0.29569649917E+03  0.00000000000E+00 0.  1.
         25    2    1    2    0    0 -0.36011773008E+01 -0.30759947870E+02 -0.21229424400E+03  0.24834976283E+03  0.12509842441E+03 0.  0.
          5    1    3    3  502    0 -0.28125766779E+00 -0.79568015998E+02 -0.12661962708E+03  0.14960331092E+03  0.41800000000E+01 0. -1.
         -5    1    3    3    0  502 -0.33199196330E+01  0.48808068127E+02 -0.85674616919E+02  0.98746451911E+02  0.41800000000E+01 0. -1.
        -11    1    1    2    0    0 -0.88057262532E+01  0.10656188329E+02  0.31068358915E+02  0.34004971552E+02  0.00000000000E+00 0. -1.
         11    1    1    2    0    0  0.12406903554E+02  0.20103759542E+02 -0.61722940807E+02  0.66089438078E+02  0.00000000000E+00 0.  1.
</event>
<event>
 7    1  0.2594791E-009  0.2014039E+03  0.7561462E-02  0.1148560E+00
         -2   -1    0    0    0  501 -0.00000000000E+00  0.00000000000E+00  0.16425199468E+03  0.16425199468E+03  0.00000000000E+00 0.  1.
          2   -1    0    0  501    0  0.00000000000E+00 -0.00000000000E+00 -0.25370616111E+03  0.25370616111E+03  0.00000000000E+00 0. -1.
         25    2    1    2    0    0 -0.13319351385E+03  0.10976079023E+03 -0.49931571223E+02  0.21892505942E+03  0.12508827536E+03 0.  0.
          5    1    3    3  502    0 -0.14953389499E+03  0.71135559487E+02 -0.58954022925E+02  0.17582293023E+03  0.41800000000E+01 0.  1.
         -5    1    3    3    0  502  0.16340381139E+02  0.38625230747E+02  0.90224517023E+01  0.43102129190E+02  0.41800000000E+01 0.  1.
        -11    1    1    2    0    0  0.43018997795E+02  0.10903892569E+02 -0.70452031400E+01  0.44935108008E+02  0.00000000000E+00 0. -1.
         11    1    1    2    0    0  0.90174516059E+02 -0.12066468280E+03 -0.32477392069E+02  0.15409798836E+03  0.00000000000E+00 0.  1.
</event>
<event>
 7    1  0.2594791E-009  0.9876906E+02  0.7561462E-02  0.1282906E+00
         -2   -1    0    0    0  501 -0.00000000000E+00  0.00000000000E+00  0.56182959950E+02  0.56182959950E+02  0.00000000000E+00 0.  1.
          2   -1    0    0  501    0  0.00000000000E+00 -0.00000000000E+00 -0.21624240836E+03  0.21624240836E+03  0.00000000000E+00 0. -1.
         25    2    1    2    0    0 -0.21380639993E+02 -0.77745033977E+01 -0.10354330595E+03  0.16396994080E+03  0.12508937048E+03 0.  0.
          5    1    3    3  502    0 -0.64576490586E+02 -0.37108525410E+02 -0.56717182211E+02  0.93709535014E+02  0.41800000000E+01 0. -1.
         -5    1    3    3    0  502  0.43195850593E+02  0.29334022013E+02 -0.46826123742E+02  0.70260405781E+02  0.41800000000E+01 0. -1.
        -11    1    1    2    0    0  0.43714777570E+02 -0.62919675856E+01  0.20535803299E+01  0.44212982554E+02  0.00000000000E+00 0.  1.
         11    1    1    2    0    0 -0.22334137577E+02  0.14066470983E+02 -0.58569722789E+02  0.64242444963E+02  0.00000000000E+00 0. -1.
</event>
<event>
 7    1  0.2594791E-009  0.1446262E+03  0.7561462E-02  0.1207236E+00
         -2   -1    0    0    0  501 -0.00000000000E+00  0.00000000000E+00  0.98712666111E+02  0.98712666111E+02  0.00000000000E+00 0. -1.
          2   -1    0    0  501    0  0.00000000000E+00 -0.00000000000E+00 -0.40001614435E+03  0.40001614435E+03  0.00000000000E+00 0.  1.
         25    2    1    2    0    0 -0.58774931774E+02  0.10278053853E+03 -0.30351427141E+03  0.34898086985E+03  0.12509357644E+03 0.  0.
          5    1    3    3  502    0  0.74368307360E+01 -0.22425588869E+02 -0.86791182637E+02  0.90046628316E+02  0.41800000000E+01 0. -1.
         -5    1    3    3    0  502 -0.66211762510E+02  0.12520612740E+03 -0.21672308877E+03  0.25893424154E+03  0.41800000000E+01 0. -1.
        -11    1    1    2    0    0  0.49013570566E+02 -0.50487409890E+02 -0.40800454057E+02  0.81338709778E+02  0.00000000000E+00 0.  1.
         11    1    1    2    0    0  0.97613612073E+01 -0.52293128638E+02  0.43011247226E+02  0.68409230834E+02  0.00000000000E+00 0. -1.
</event>
<event>
 7    1  0.2594791E-009  0.9214514E+02  0.7561462E-02  0.1297739E+00
          3   -1    0    0  501    0  0.00000000000E+00  0.00000000000E+00  0.24231545488E+03  0.24231545488E+03  0.00000000000E+00 0. -1.
         -3   -1    0    0    0  501 -0.00000000000E+00 -0.00000000000E+00 -0.71701461164E+02  0.71701461164E+02  0.00000000000E+00 0.  1.
         25    2    1    2    0    0  0.22355016878E+02 -0.69056369739E+02  0.11454626180E+03  0.18449269931E+03  0.12509268974E+03 0.  0.
          5    1    3    3  502    0  0.23919445885E+02 -0.30789337517E+02 -0.20367179507E+02  0.44186169751E+02  0.41800000000E+01 0. -1.
         -5    1    3    3    0  502 -0.15644290066E+01 -0.38267032222E+02  0.13491344131E+03  0.14030652956E+03  0.41800000000E+01 0. -1.
        -11    1    1    2    0    0 -0.47137319586E+02  0.19242428972E+02  0.53459759761E+02  0.73825089801E+02  0.00000000000E+00 0. -1.
         11    1    1    2    0    0  0.24782302707E+02  0.49813940767E+02  0.26079721595E+01  0.55699126932E+02  0.00000000000E+00 0.  1.
</event>
<event>
 7    1  0.2594791E-009  0.1416905E+03  0.7561462E-02  0.1211072E+00
         -2   -1    0    0    0  501 -0.00000000000E+00  0.00000000000E+00  0.19985451927E+02  0.19985451927E+02  0.00000000000E+00 0.  1.
          2   -1    0    0  501    0  0.00000000000E+00 -0.00000000000E+00 -0.16595714052E+04  0.16595714052E+04  0.00000000000E+00 0. -1.
         25    2    1    2    0    0  0.11354895565E+03  0.83818024341E+02 -0.95640517873E+03  0.97482278163E+03  0.12509901343E+03 0.  0.
          5    1    3    3  502    0  0.73358257540E+02  0.60377700684E+02 -0.88101398174E+03  0.88613204947E+03  0.41800000000E+01 0. -1.
         -5    1    3    3    0  502  0.40190698105E+02  0.23440323657E+02 -0.75391196992E+02  0.88690732161E+02  0.41800000000E+01 0. -1.
        -11    1    1    2    0    0 -0.19091260760E+02 -0.92128694124E+01 -0.15423724073E+02  0.26215347880E+02  0.00000000000E+00 0.  1.
         11    1    1    2    0    0 -0.94457694886E+02 -0.74605154929E+02 -0.66775705047E+03  0.67851872761E+03  0.00000000000E+00 0. -1.
</event>
<event>
 7    1  0.2594791E-009  0.9207043E+02  0.7561462E-02  0.1297914E+00
          2   -1    0    0  501    0  0.00000000000E+00  0.00000000000E+00  0.17113482528E+04  0.17113482528E+04  0.00000000000E+00 0. -1.
         -2   -1    0    0    0  501 -0.00000000000E+00 -0.00000000000E+00 -0.11601107822E+02  0.11601107822E+02  0.00000000000E+00 0.  1.
         25    2    1    2    0    0 -0.56122489386E+02  0.26050007877E+02  0.12903665477E+04  0.12978912580E+04  0.12509018204E+03 0.  0.
          5    1    3    3  502    0 -0.16563681941E+02  0.29395299299E+02  0.80741082604E+02  0.87607271390E+02  0.41800000000E+01 0.  1.
         -5    1    3    3    0  502 -0.39558807445E+02 -0.33452914214E+01  0.12096254650E+04  0.12102839866E+04  0.41800000000E+01 0.  1.
        -11    1    1    2    0    0  0.36367462483E+00  0.30677657127E+02  0.69105568279E+02  0.75609724726E+02  0.00000000000E+00 0. -1.
         11    1    1    2    0    0  0.55758814761E+02 -0.56727665004E+02  0.34027502902E+03  0.34944837784E+03  0.00000000000E+00 0.  1.
</event>
<event>
 7    1  0.2594791E-009  0.1256179E+03  0.7561462E-02  0.1234107E+00
         -1   -1    0    0    0  501 -0.00000000000E+00  0.00000000000E+00  0.21273369025E+02  0.21273369025E+02  0.00000000000E+00 0.  1.
          1   -1    0    0  501    0  0.00000000000E+00 -0.00000000000E+00 -0.11653521161E+04  0.11653521161E+04  0.00000000000E+00 0. -1.
         25    2    1    2    0    0  0.64485372727E+02 -0.82946152359E+01 -0.96557535684E+03  0.97581269792E+03  0.12508991861E+03 0.  0.
          5    1    3    3  502    0 -0.25520675546E+02 -0.38121322566E+02 -0.31692777098E+03  0.32025805928E+03  0.41800000000E+01 0.  1.
         -5    1    3    3    0  502  0.90006048273E+02  0.29826707330E+02 -0.64864758586E+03  0.65555463864E+03  0.41800000000E+01 0.  1.
        -11    1    1    2    0    0 -0.78147825256E+02  0.30745018099E+02 -0.15093737018E+03  0.17272645555E+03  0.00000000000E+00 0.  1.
         11    1    1    2    0    0  0.13662452529E+02 -0.22450402863E+02 -0.27566020065E+02  0.38086331670E+02  0.00000000000E+00 0. -1.
</event>
<event>
 7    1  0.2594791E-009  0.1308854E+03  0.7561462E-02  0.1226148E+00
          2   -1    0    0  501    0  0.00000000000E+00  0.00000000000E+00  0.33508155191E+03  0.33508155191E+03  0.00000000000E+00 0. -1.
         -2   -1    0    0    0  501 -0.00000000000E+00 -0.00000000000E+00 -0.10071712660E+03  0.10071712660E+03  0.00000000000E+00 0.  1.
         25    2    1    2    0    0  0.40487870614E+02 -0.11193795474E+03  0.22647192695E+03  0.28478830583E+03  0.12508186144E+03 0.  0.
          5    1    3    3  502    0 -0.57161232920E+01 -0.87901460587E+02  0.21343641154E+03  0.23093703689E+03  0.41800000000E+01 0. -1.
         -5    1    3    3    0  502  0.46203993906E+02 -0.24036494157E+02  0.13035515413E+02  0.53851268938E+02  0.41800000000E+01 0. -1.
        -11    1    1    2    0    0 -0.43561087644E+02  0.10147486139E+03 -0.27644915104E+02  0.11383741556E+03  0.00000000000E+00 0.  1.
         11    1    1    2    0    0  0.30732170306E+01  0.10463093352E+02  0.35537413465E+02  0.37172957122E+02  0.00000000000E+00 0. -1.
</event>
<event>
 7    1  0.2594791E-009  0.9286653E+02  0.7561462E-02  0.1296055E+00
         -2   -1    0    0    0  501 -0.00000000000E+00  0.00000000000E+00  0.27250555802E+02  0.27250555802E+02  0.00000000000E+00 0.  1.
          2   -1    0    0  501    0  0.00000000000E+00 -0.00000000000E+00 -0.52686796543E+03  0.52686796543E+03  0.00000000000E+00 0. -1.
         25    2    1    2    0    0  0.44330375466E+02  0.69413132255E+00 -0.34651815367E+03  0.37106247283E+03  0.12508742508E+03 0.  0.
          5    1    3    3  502    0  0.23132574926E+02 -0.43894769109E+02 -0.50475647455E+02  0.70902257819E+02  0.41800000000E+01 0. -1.
         -5    1    3    3    0  502  0.21197800540E+02  0.44588900432E+02 -0.29604250621E+03  0.30016021501E+03  0.41800000000E+01 0. -1.
        -11    1    1    2    0    0  0.19564822910E+02  0.93979955555E+01 -0.90400069397E+02  0.92969226968E+02  0.00000000000E+00 0. -1.
         11    1    1    2    0    0 -0.63895198376E+02 -0.10092126878E+02 -0.62699186556E+02  0.90086821429E+02  0.00000000000E+00 0.  1.
</event>
<event>
 7    1  0.2594791E-009  0.9609958E+02  0.7561462E-02  0.1288719E+00
         -1   -1    0    0    0  501 -0.00000000000E+00  0.00000000000E+00  0.10587182606E+03  0.10587182606E+03  0.00000000000E+00 0.  1.
          1   -1    0    0  501    0  0.00000000000E+00 -0.00000000000E+00 -0.12923468096E+03  0.12923468096E+03  0.00000000000E+00 0. -1.
         25    2    1    2    0    0  0.23726289454E+02  0.41604551911E+02 -0.10295082687E+02  0.13433744151E+03  0.12508670558E+03 0.  0.
          5    1    3    3  502    0  0.24102496917E+02 -0.24422899503E+02 -0.47258588038E+02  0.58551301618E+02  0.41800000000E+01 0.  1.
         -5    1    3    3    0  502 -0.37620746291E+00  0.66027451414E+02  0.36963505352E+02  0.75786139895E+02  0.41800000000E+01 0.  1.
        -11    1    1    2    0    0  0.10281753353E+02 -0.54229493709E+02  0.12241503754E+02  0.56536774352E+02  0.00000000000E+00 0.  1.
         11    1    1    2    0    0 -0.34008042807E+02  0.12624941798E+02 -0.25309275964E+02  0.44232291154E+02  0.00000000000E+00 0. -1.
</event>
<event>
 7    1  0.2594791E-009  0.8484278E+02  0.7561462E-02  0.1315844E+00
          2   -1    0    0  501    0  0.00000000000E+00  0.00000000000E+00  0.19508546846E+04  0.19508546846E+04  0.00000000000E+00 0. -1.
         -2   -1    0    0    0  501 -0.00000000000E+00 -0.00000000000E+00 -0.10571976547E+02  0.10571976547E+02  0.00000000000E+00 0.  1.
         25    2    1    2    0    0  0.35226807855E+02  0.22752694520E+02  0.16163518751E+04  0.16217254635E+04  0.12506590888E+03 0.  0.
          5    1    3    3  502    0  0.18455045735E+02 -0.34582883584E+02  0.18653270986E+03  0.19065279646E+03  0.41800000000E+01 0.  1.
         -5    1    3    3    0  502  0.16771762121E+02  0.57335578104E+02  0.14298191653E+04  0.14310726670E+04  0.41800000000E+01 0.  1.
        -11    1    1    2    0    0  0.14346527471E+02  0.27865812512E+01  0.42884816252E+01  0.15230855530E+02  0.00000000000E+00 0.  1.
         11    1    1    2    0    0 -0.49573335326E+02 -0.25539275772E+02  0.31964235128E+03  0.32447034211E+03  0.00000000000E+00 0. -1.
</event>
<event>
 7    1  0.2594791E-009  0.1264644E+03  0.7561462E-02  0.1232798E+00
         -1   -1    0    0    0  501 -0.00000000000E+00  0.00000000000E+00  0.23195772866E+03  0.23195772866E+03  0.00000000000E+00 0.  1.
          1   -1    0    0  501    0  0.00000000000E+00 -0.00000000000E+00 -0.96002440720E+02  0.96002440720E+02  0.00000000000E+00 0. -1.
         25    2    1    2    0    0 -0.94501265491E+02 -0.38118327657E+02  0.83983303165E+02  0.18189166405E+03  0.12509151113E+03 0.  0.
          5    1    3    3  502    0 -0.11408145798E+03 -0.34903207240E+02  0.10025775917E+03  0.15589067838E+03  0.41800000000E+01 0.  1.
         -5    1    3    3    0  502  0.19580192491E+02 -0.32151204169E+01 -0.16274456010E+02  0.26000985667E+02  0.41800000000E+01 0.  1.
        -11    1    1    2    0    0  0.47382839150E+02 -0.71698336019E+01 -0.17191029953E+02  0.50912390149E+02  0.00000000000E+00 0. -1.
         11    1    1    2    0    0  0.47118426340E+02  0.45288161259E+02  0.69163014731E+02  0.95156115188E+02  0.00000000000E+00 0.  1.
</event>
<event>
 7    1  0.2594791E-009  0.1464911E+03  0.7561462E-02  0.1204852E+00
         -2   -1    0    0    0  501 -0.00000000000E+00  0.00000000000E+00  0.42985495809E+02  0.42985495809E+02  0.00000000000E+00 0.  1.
          2   -1    0    0  501    0  0.00000000000E+00 -0.00000000000E+00 -0.78865472929E+03  0.78865472929E+03  0.00000000000E+00 0. -1.
         25    2    1    2    0    0  0.86006713059E+02  0.11191018440E+03 -0.28866462154E+03  0.34481113926E+03  0.12508562653E+03 0.  0.
          5    1    3    3  502    0  0.17046153665E+02 -0.26361667816E+01  0.79354805831E+01  0.19441321513E+02  0.41800000000E+01 0. -1.
         -5    1    3    3    0  502  0.68960559394E+02  0.11454635118E+03 -0.29660010213E+03  0.32536981775E+03  0.41800000000E+01 0. -1.
        -11    1    1    2    0    0 -0.67103608483E+02 -0.93427986266E+02 -0.44137396414E+03  0.45611693578E+03  0.00000000000E+00 0. -1.
         11    1    1    2    0    0 -0.18903104577E+02 -0.18482198134E+02 -0.15630647803E+02  0.30712150059E+02  0.00000000000E+00 0.  1.
</event>
<event>
 7    1  0.2594791E-009  0.7859611E+02  0.7561462E-02  0.1333083E+00
         -2   -1    0    0    0  501 -0.00000000000E+00  0.00000000000E+00  0.18931419095E+02  0.18931419095E+02  0.00000000000E+00 0. -1.
          2   -1    0    0  501    0  0.00000000000E+00 -0.00000000000E+00 -0.82934446831E+03  0.82934446831E+03  0.00000000000E+00 0.  1.
         25    2    1    2    0    0  0.17432248079E+02 -0.57371486967E+02 -0.37786438638E+03  0.40252411363E+03  0.12509515086E+03 0.  0.
          5    1    3    3  502    0  0.33023330597E+01 -0.30372085573E+02 -0.86434920532E+01  0.32024230523E+02  0.41800000000E+01 0.  1.
         -5    1    3    3    0  502  0.14129915019E+02 -0.26999401394E+02 -0.36922089433E+03  0.37049988311E+03  0.41800000000E+01 0.  1.
        -11    1    1    2    0    0 -0.19453177350E+02 -0.14145400477E+02 -0.39517310538E+02  0.46261607147E+02  0.00000000000E+00 0. -1.
         11    1    1    2    0    0  0.20209292713E+01  0.71516887444E+02 -0.39303135229E+03  0.39949016662E+03  0.00000000000E+00 0.  1.
</event>
<event>
 7    1  0.2606815E-009  0.7635705E+02  0.7561462E-02  0.1339719E+00
         -1   -1    0    0    0  501 -0.00000000000E+00  0.00000000000E+00  0.12192963629E+03  0.12192963629E+03  0.00000000000E+00 0. -1.
          1   -1    0    0  501    0  0.00000000000E+00 -0.00000000000E+00 -0.12647476170E+03  0.12647476170E+03  0.00000000000E+00 0.  1.
         25    2    1    2    0    0 -0.51973902561E+02 -0.25222851091E+02  0.13644624853E+02  0.13845464035E+03  0.12508410323E+03 0.  0.
          5    1    3    3  502    0 -0.70362571103E+02 -0.19333111779E+02  0.55763119233E+02  0.91932902107E+02  0.41800000000E+01 0.  1.
         -5    1    3    3    0  502  0.18388668542E+02 -0.58897393124E+01 -0.42118494380E+02  0.46521738239E+02  0.41800000000E+01 0.  1.
        -11    1    1    2    0    0  0.16868451223E+02  0.16713003819E+02  0.37015116612E+02  0.43977130433E+02  0.00000000000E+00 0. -1.
         11    1    1    2    0    0  0.35105451338E+02  0.85098472719E+01 -0.55204866880E+02  0.65972627213E+02  0.00000000000E+00 0.  1.
</event>
<event>
 7    1  0.2594791E-009  0.9477299E+02  0.7561462E-02  0.1291688E+00
          1   -1    0    0  501    0  0.00000000000E+00  0.00000000000E+00  0.11547596473E+04  0.11547596473E+04  0.00000000000E+00 0.  1.
         -1   -1    0    0    0  501 -0.00000000000E+00 -0.00000000000E+00 -0.16626662607E+02  0.16626662607E+02  0.00000000000E+00 0. -1.
         25    2    1    2    0    0 -0.45445168140E+02 -0.72119829248E+02  0.70514186882E+03  0.72120666901E+03  0.12508985241E+03 0.  0.
          5    1    3    3  502    0 -0.15768504186E+01 -0.33462285405E+02  0.35445542330E+02  0.48949666729E+02  0.41800000000E+01 0.  1.
         -5    1    3    3    0  502 -0.43868317721E+02 -0.38657543843E+02  0.66969632649E+03  0.67225700228E+03  0.41800000000E+01 0.  1.
        -11    1    1    2    0    0  0.25200024167E+02  0.32810765190E+01  0.24041743146E+02  0.34983025808E+02  0.00000000000E+00 0. -1.
         11    1    1    2    0    0  0.20245143973E+02  0.68838752729E+02  0.40894937275E+03  0.41519661512E+03  0.00000000000E+00 0.  1.
</event>
<event>
 7    1  0.2594791E-009  0.1379811E+03  0.7561462E-02  0.1216072E+00
         -2   -1    0    0    0  501 -0.00000000000E+00  0.00000000000E+00  0.23329503559E+03  0.23329503559E+03  0.00000000000E+00 0.  1.
          2   -1    0    0  501    0  0.00000000000E+00 -0.00000000000E+00 -0.11824530502E+03  0.11824530502E+03  0.00000000000E+00 0. -1.
         25    2    1    2    0    0 -0.13680237636E+02 -0.12189861927E+03  0.75859551333E+02  0.19091320636E+03  0.12508700393E+03 0.  0.
          5    1    3    3  502    0  0.30908121296E+02 -0.24146985503E+02  0.73441835999E+02  0.83364048281E+02  0.41800000000E+01 0.  1.
         -5    1    3    3    0  502 -0.44588358932E+02 -0.97751633767E+02  0.24177153341E+01  0.10754915808E+03  0.41800000000E+01 0.  1.
        -11    1    1    2    0    0  0.26474682909E+02  0.57003706438E+02  0.64264086598E+02  0.89889956108E+02  0.00000000000E+00 0.  1.
         11    1    1    2    0    0 -0.12794445273E+02  0.64894912832E+02 -0.25073907357E+02  0.70737178142E+02  0.00000000000E+00 0. -1.
</event>
<event>
 7    1  0.2594791E-009  0.3323550E+03  0.7561462E-02  0.1070100E+00
          1   -1    0    0  501    0  0.00000000000E+00  0.00000000000E+00  0.16409370417E+04  0.16409370417E+04  0.00000000000E+00 0. -1.
         -1   -1    0    0    0  501 -0.00000000000E+00 -0.00000000000E+00 -0.70741191514E+02  0.70741191514E+02  0.00000000000E+00 0.  1.
         25    2    1    2    0    0 -0.20031373967E+03  0.24973402521E+03  0.77754593090E+03  0.85012822939E+03  0.12509058360E+03 0.  0.
          5    1    3    3  502    0 -0.44347229813E+02  0.11758468948E+03  0.41809046294E+03  0.43658898702E+03  0.41800000000E+01 0. -1.
         -5    1    3    3    0  502 -0.15596650986E+03  0.13214933573E+03  0.35945546796E+03  0.41353924237E+03  0.41800000000E+01 0. -1.
        -11    1    1    2    0    0  0.74129926656E+02 -0.16942400570E+03  0.49534377856E+03  0.52873925398E+03  0.00000000000E+00 0.  1.
         11    1    1    2    0    0  0.12618381301E+03 -0.80310019509E+02  0.29730614074E+03  0.33281074986E+03  0.00000000000E+00 0. -1.
</event>
<event>
 7    1  0.2594791E-009  0.2531240E+03  0.7561462E-02  0.1111346E+00
         -1   -1    0    0    0  501 -0.00000000000E+00  0.00000000000E+00  0.86983316440E+02  0.86983316440E+02  0.00000000000E+00 0.  1.
          1   -1    0    0  501    0  0.00000000000E+00 -0.00000000000E+00 -0.83798351236E+03  0.83798351236E+03  0.00000000000E+00 0. -1.
         25    2    1    2    0    0 -0.62035354115E+02  0.23139441481E+03 -0.29049695549E+03  0.39677215139E+03  0.12509156087E+03 0.  0.
          5    1    3    3  502    0  0.27235514115E+02  0.12334617505E+03 -0.10544648627E+03  0.16459795259E+03  0.41800000000E+01 0. -1.
         -5    1    3    3    0  502 -0.89270868230E+02  0.10804823976E+03 -0.18505046922E+03  0.23217419880E+03  0.41800000000E+01 0. -1.
        -11    1    1    2    0    0  0.28698087830E+02 -0.95453906394E+02 -0.98756961434E+02  0.14031381230E+03  0.00000000000E+00 0.  1.
         11    1    1    2    0    0  0.33337266285E+02 -0.13594050842E+03 -0.36174627900E+03  0.38788086511E+03  0.00000000000E+00 0. -1.
</event>
<event>
 7    1  0.2769067E-009  0.1161090E+03  0.7561462E-02  0.1249658E+00
          2   -1    0    0  501    0  0.00000000000E+00  0.00000000000E+00  0.16632472757E+03  0.16632472757E+03  0.00000000000E+00 0. -1.
         -2   -1    0    0    0  501 -0.00000000000E+00 -0.00000000000E+00 -0.12447471075E+03  0.12447471075E+03  0.00000000000E+00 0.  1.
         25    2    1    2    0    0  0.87050796390E+02  0.22792566199E+02  0.49076367554E+02  0.16172005389E+03  0.12509014250E+03 0.  0.
          5    1    3    3  502    0  0.10438733435E+03  0.44229736490E+02  0.63830585945E+02  0.13017219851E+03  0.41800000000E+01 0. -1.
         -5    1    3    3    0  502 -0.17336537961E+02 -0.21437170291E+02 -0.14754218391E+02  0.31547855377E+02  0.41800000000E+01 0. -1.
        -11    1    1    2    0    0 -0.59361412515E+02 -0.93088035614E+01 -0.48753692686E+02  0.77377992156E+02  0.00000000000E+00 0. -1.
         11    1    1    2    0    0 -0.27689383874E+02 -0.13483762638E+02  0.41527341953E+02  0.51701392282E+02  0.00000000000E+00 0.  1.
</event>
<event>
 7    1  0.2594791E-009  0.8929259E+02  0.7561462E-02  0.1304574E+00
         -3   -1    0    0    0  501 -0.00000000000E+00  0.00000000000E+00  0.41065776836E+03  0.41065776836E+03  0.00000000000E+00 0.  1.
          3   -1    0    0  501    0  0.00000000000E+00 -0.00000000000E+00 -0.39267571016E+02  0.39267571016E+02  0.00000000000E+00 0. -1.
         25    2    1    2    0    0 -0.17928362367E+02  0.59895926706E+02  0.24625047475E+03  0.28318890162E+03  0.12509080491E+03 0.  0.
          5    1    3    3  502    0 -0.38495223233E+02  0.40834595449E+02  0.27546323137E+02  0.62654758124E+02  0.41800000000E+01 0.  1.
         -5    1    3    3    0  502  0.20566860867E+02  0.19061331258E+02  0.21870415161E+03  0.22053414349E+03  0.41800000000E+01 0.  1.
        -11    1    1    2    0    0  0.11979310822E+02  0.14792242663E+02 -0.20234129979E+01  0.19141800619E+02  0.00000000000E+00 0. -1.
         11    1    1    2    0    0  0.59490515445E+01 -0.74688169369E+02  0.12716313559E+03  0.14759463714E+03  0.00000000000E+00 0.  1.
</event>
<event>
 7    1  0.2594791E-009  0.1056944E+03  0.7561462E-02  0.1268758E+00
          1   -1    0    0  501    0  0.00000000000E+00  0.00000000000E+00  0.74147322498E+03  0.74147322498E+03  0.00000000000E+00 0. -1.
         -1   -1    0    0    0  501 -0.00000000000E+00 -0.00000000000E+00 -0.29766749945E+02  0.29766749945E+02  0.00000000000E+00 0.  1.
         25    2    1    2    0    0 -0.23398205985E+02  0.61088766552E+02  0.59663276206E+03  0.61310435395E+03  0.12508789958E+03 0.  0.
          5    1    3    3  502    0  0.20673364579E+02 -0.28411148485E+02  0.89609386154E+02  0.96342596229E+02  0.41800000000E+01 0. -1.
         -5    1    3    3    0  502 -0.44071570565E+02  0.89499915038E+02  0.50702337590E+03  0.51676175772E+03  0.41800000000E+01 0. -1.
        -11    1    1    2    0    0  0.29181043479E+01 -0.54590027371E+02  0.12349790933E+03  0.13505672893E+03  0.00000000000E+00 0. -1.
         11    1    1    2    0    0  0.20480101638E+02 -0.64987391812E+01 -0.84241963509E+01  0.23078892049E+02  0.00000000000E+00 0.  1.
</event>
<event>
 7    1  0.2594791E-009  0.1400935E+03  0.7561462E-02  0.1213203E+00
          2   -1    0    0  501    0  0.00000000000E+00  0.00000000000E+00  0.52996537011E+03  0.52996537011E+03  0.00000000000E+00 0. -1.
         -2   -1    0    0    0  501 -0.00000000000E+00 -0.00000000000E+00 -0.45691964338E+02  0.45691964338E+02  0.00000000000E+00 0.  1.
         25    2    1    2    0    0 -0.52742367394E+02 -0.90393259792E+02  0.19117663491E+03  0.25129387820E+03  0.12508960288E+03 0.  0.
          5    1    3    3  502    0  0.26133743672E+02 -0.69519512186E+01 -0.10082326791E+01  0.27382313948E+02  0.41800000000E+01 0. -1.
         -5    1    3    3    0  502 -0.78876111066E+02 -0.83441308573E+02  0.19218486759E+03  0.22391156425E+03  0.41800000000E+01 0. -1.
        -11    1    1    2    0    0  0.42110091776E+02  0.10880239388E+03  0.26069665201E+03  0.28561156334E+03  0.00000000000E+00 0.  1.
         11    1    1    2    0    0  0.10632275618E+02 -0.18409134089E+02  0.32400118852E+02  0.38751892913E+02  0.00000000000E+00 0. -1.
</event>
<event>
 7    1  0.2594791E-009  0.8844549E+02  0.7561462E-02  0.1306660E+00
         -4   -1    0    0    0  501 -0.00000000000E+00  0.00000000000E+00  0.16330548383E+03  0.16330548383E+03  0.00000000000E+00 0.  1.
          4   -1    0    0  501    0  0.00000000000E+00 -0.00000000000E+00 -0.74356153922E+02  0.74356153922E+02  0.00000000000E+00 0. -1.
         25    2    1    2    0    0  0.10327227176E+01  0.11102747435E+02  0.29689739047E+02  0.12904422669E+03  0.12508634746E+03 0.  0.
          5    1    3    3  502    0 -0.89361456792E+01  0.66317949800E+02  0.28267214052E+02  0.72762854229E+02  0.41800000000E+01 0. -1.
         -5    1    3    3    0  502  0.99688683968E+01 -0.55215202365E+02  0.14225249947E+01  0.56281372466E+02  0.41800000000E+01 0. -1.
        -11    1    1    2    0    0 -0.24827174300E+02  0.43536368586E+01 -0.14854621420E+02  0.29257520660E+02  0.00000000000E+00 0. -1.
         11    1    1    2    0    0  0.23794451583E+02 -0.15456384294E+02  0.74114212278E+02  0.79359890392E+02  0.00000000000E+00 0.  1.
</event>
<event>
 7    1  0.2594791E-009  0.9947326E+02  0.7561462E-02  0.1281408E+00
         -2   -1    0    0    0  501 -0.00000000000E+00  0.00000000000E+00  0.28090343294E+02  0.28090343294E+02  0.00000000000E+00 0.  1.
          2   -1    0    0  501    0  0.00000000000E+00 -0.00000000000E+00 -0.67788552630E+03  0.67788552630E+03  0.00000000000E+00 0. -1.
         25    2    1    2    0    0  0.37806167718E+02 -0.56381094475E+02 -0.22885167872E+03  0.26949844728E+03  0.12509271800E+03 0.  0.
          5    1    3    3  502    0  0.18101212659E+02  0.48238131575E+01  0.10324934947E+02  0.21794489092E+02  0.41800000000E+01 0.  1.
         -5    1    3    3    0  502  0.19704955059E+02 -0.61204907632E+02 -0.23917661367E+03  0.24770395818E+03  0.41800000000E+01 0.  1.
        -11    1    1    2    0    0  0.28293822661E+02 -0.22211211905E+00 -0.96032575526E+02  0.10011416132E+03  0.00000000000E+00 0. -1.
         11    1    1    2    0    0 -0.66099990380E+02  0.56603206594E+02 -0.32491092876E+03  0.33636326100E+03  0.00000000000E+00 0.  1.
</event>
<event>
 7    1  0.2594791E-009  0.1778803E+03  0.7561462E-02  0.1169870E+00
          1   -1    0    0  501    0  0.00000000000E+00  0.00000000000E+00  0.46901909232E+03  0.46901909232E+03  0.00000000000E+00 0. -1.
         -1   -1    0    0    0  501 -0.00000000000E+00 -0.00000000000E+00 -0.86588901950E+02  0.86588901950E+02  0.00000000000E+00 0.  1.
         25    2    1    2    0    0  0.10726028064E+02  0.16123397572E+03  0.12861197806E+03  0.24145780052E+03  0.12509750569E+03 0.  0.
          5    1    3    3  502    0  0.24055026109E+02  0.15286215411E+03  0.14934232884E+03  0.21509552767E+03  0.41800000000E+01 0.  1.
         -5    1    3    3    0  502 -0.13328998045E+02  0.83718216078E+01 -0.20730350789E+02  0.26362272849E+02  0.41800000000E+01 0.  1.
        -11    1    1    2    0    0  0.36311269623E+02 -0.37028511914E+02  0.81244171256E+02  0.96385861823E+02  0.00000000000E+00 0.  1.
         11    1    1    2    0    0 -0.47037297687E+02 -0.12420546380E+03  0.17257404106E+03  0.21776433193E+03  0.00000000000E+00 0. -1.
</event>
<event>
 7    1  0.2594791E-009  0.1197136E+03  0.7561462E-02  0.1243570E+00
          3   -1    0    0  501    0  0.00000000000E+00  0.00000000000E+00  0.41773731297E+03  0.41773731297E+03  0.00000000000E+00 0. -1.
         -3   -1    0    0    0  501 -0.00000000000E+00 -0.00000000000E+00 -0.40689146159E+02  0.40689146159E+02  0.00000000000E+00 0.  1.
         25    2    1    2    0    0 -0.25362870620E+02  0.68435666708E+02  0.21674659926E+03  0.26067551364E+03  0.12508364977E+03 0.  0.
          5    1    3    3  502    0 -0.30159115032E+02 -0.31995444009E+02  0.64151316178E+02  0.77885457078E+02  0.41800000000E+01 0.  1.
         -5    1    3    3    0  502  0.47962444122E+01  0.10043111072E+03  0.15259528308E+03  0.18279005656E+03  0.41800000000E+01 0.  1.
        -11    1    1    2    0    0  0.44848718139E+02 -0.54956121405E+02  0.54839974635E+02  0.89660501987E+02  0.00000000000E+00 0.  1.
         11    1    1    2    0    0 -0.19485847519E+02 -0.13479545302E+02  0.10546159292E+03  0.10809044350E+03  0.00000000000E+00 0. -1.
</event>
<event>
 7    1  0.2594791E-009  0.8908034E+02  0.7561462E-02  0.1305094E+00
         -2   -1    0    0    0  501 -0.00000000000E+00  0.00000000000E+00  0.31553043421E+03  0.31553043421E+03  0.00000000000E+00 0.  1.
          2   -1    0    0  501    0  0.00000000000E+00 -0.00000000000E+00 -0.42495254885E+02  0.42495254885E+02  0.00000000000E+00 0. -1.
         25    2    1    2    0    0  0.98791443442E+01 -0.89946566539E+01  0.17803013801E+03  0.21799215474E+03  0.12508936066E+03 0.  0.
          5    1    3    3  502    0  0.63718821593E+02  0.16474543366E+02  0.88153082137E+02  0.11009058586E+03  0.41800000000E+01 0.  1.
         -5    1    3    3    0  502 -0.53839677249E+02 -0.25469200020E+02  0.89877055869E+02  0.10790156888E+03  0.41800000000E+01 0.  1.
        -11    1    1    2    0    0 -0.30444111933E+02  0.10529180057E+01 -0.10522060910E+02  0.32228347050E+02  0.00000000000E+00 0. -1.
         11    1    1    2    0    0  0.20564967589E+02  0.79417386482E+01  0.10552710223E+03  0.10780518731E+03  0.00000000000E+00 0.  1.
</event>
<event>
 7    1  0.2594791E-009  0.9828171E+02  0.7561462E-02  0.1283951E+00
         -1   -1    0    0    0  501 -0.00000000000E+00  0.00000000000E+00  0.21091387288E+03  0.21091387288E+03  0.00000000000E+00 0.  1.
          1   -1    0    0  501    0  0.00000000000E+00 -0.00000000000E+00 -0.74385165377E+02  0.74385165377E+02  0.00000000000E+00 0. -1.
         25    2    1    2    0    0  0.30644236590E+02  0.38445799998E+02  0.31977624443E+02  0.13815263494E+03  0.12508570382E+03 0.  0.
          5    1    3    3  502    0  0.55228780015E+02  0.10056342513E+02 -0.31331483065E+02  0.64424237658E+02  0.41800000000E+01 0. -1.
         -5    1    3    3    0  502 -0.24584543425E+02  0.28389457485E+02  0.63309107508E+02  0.73728397278E+02  0.41800000000E+01 0. -1.
        -11    1    1    2    0    0  0.31835128455E+02 -0.18882782791E+02  0.27966691293E+02  0.46391493957E+02  0.00000000000E+00 0.  1.
         11    1    1    2    0    0 -0.62479365045E+02 -0.19563017207E+02  0.76584391765E+02  0.10075490936E+03  0.00000000000E+00 0. -1.
</event>
<event>
 7    1  0.2594791E-009  0.9333543E+02  0.7561462E-02  0.1294970E+00
          2   -1    0    0  501    0  0.00000000000E+00  0.00000000000E+00  0.26901607072E+04  0.26901607072E+04  0.00000000000E+00 0. -1.
         -2   -1    0    0    0  501 -0.00000000000E+00 -0.00000000000E+00 -0.82574550471E+01  0.82574550471E+01  0.00000000000E+00 0.  1.
         25    2    1    2    0    0 -0.23119341890E+02 -0.32783479063E+02  0.23014787440E+04  0.23052250571E+04  0.12509554041E+03 0.  0.
          5    1    3    3  502    0 -0.26567955516E+01  0.31007186816E+02  0.16497704472E+04  0.16500692425E+04  0.41800000000E+01 0. -1.
         -5    1    3    3    0  502 -0.20462546339E+02 -0.63790665878E+02  0.65170829681E+03  0.65515581458E+03  0.41800000000E+01 0. -1.
        -11    1    1    2    0    0  0.50889801998E+02  0.32488332025E+02  0.33134573687E+03  0.33680151574E+03  0.00000000000E+00 0. -1.
         11    1    1    2    0    0 -0.27770460108E+02  0.29514703714E+00  0.49078771225E+02  0.56391589367E+02  0.00000000000E+00 0.  1.
</event>
<event>
 7    1  0.2594791E-009  0.1415997E+03  0.7561462E-02  0.1211192E+00
         -2   -1    0    0    0  501 -0.00000000000E+00  0.00000000000E+00  0.26203888261E+02  0.26203888261E+02  0.00000000000E+00 0. -1.
          2   -1    0    0  501    0  0.00000000000E+00 -0.00000000000E+00 -0.19902997906E+04  0.19902997906E+04  0.00000000000E+00 0.  1.
         25    2    1    2    0    0  0.13385653197E+02  0.12147642833E+03 -0.16786857344E+04  0.16877703029E+04  0.12508837742E+03 0.  0.
          5    1    3    3  502    0 -0.29765581446E+02  0.11275212713E+03 -0.85861158312E+03  0.86650467690E+03  0.41800000000E+01 0. -1.
         -5    1    3    3    0  502  0.43151234644E+02  0.87243011978E+01 -0.82007415131E+03  0.82126562605E+03  0.41800000000E+01 0. -1.
        -11    1    1    2    0    0 -0.42805758366E+01 -0.58468451101E+02 -0.30678332302E+02  0.66166783030E+02  0.00000000000E+00 0. -1.
         11    1    1    2    0    0 -0.91050773609E+01 -0.63007977229E+02 -0.25473183556E+03  0.26256659284E+03  0.00000000000E+00 0.  1.
</event>
<event>
 7    1  0.2594791E-009  0.1627196E+03  0.7561462E-02  0.1185660E+00
          2   -1    0    0  501    0  0.00000000000E+00  0.00000000000E+00  0.45274053902E+03  0.45274053902E+03  0.00000000000E+00 0. -1.
         -2   -1    0    0    0  501 -0.00000000000E+00 -0.00000000000E+00 -0.80008592905E+02  0.80008592905E+02  0.00000000000E+00 0.  1.
         25    2    1    2    0    0 -0.41315685706E+02  0.77786391592E+02  0.30177272738E+03  0.33833512508E+03  0.12508464843E+03 0.  0.
          5    1    3    3  502    0  0.13595135751E+02 -0.24466954278E+02  0.11472508992E+03  0.11816420026E+03  0.41800000000E+01 0. -1.
         -5    1    3    3    0  502 -0.54910821457E+02  0.10225334587E+03  0.18704763746E+03  0.22017092482E+03  0.41800000000E+01 0. -1.
        -11    1    1    2    0    0 -0.30742309937E+02  0.35360070396E+02  0.18843306773E+02  0.50502419831E+02  0.00000000000E+00 0.  1.
         11    1    1    2    0    0  0.72057995643E+02 -0.11314646199E+03  0.52115911960E+02  0.14391158701E+03  0.00000000000E+00 0. -1.
</event>
<event>
 7    1  0.2594791E-009  0.1251514E+03  0.7561462E-02  0.1234833E+00
          2   -1    0    0  501    0  0.00000000000E+00  0.00000000000E+00  0.82563580749E+02  0.82563580749E+02  0.00000000000E+00 0. -1.
         -2   -1    0    0    0  501 -0.00000000000E+00 -0.00000000000E+00 -0.29068510656E+03  0.29068510656E+03  0.00000000000E+00 0.  1.
         25    2    1    2    0    0 -0.76597118567E+02  0.79148989631E+02 -0.10415147394E+03  0.19653302234E+03  0.12508404460E+03 0.  0.
          5    1    3    3  502    0 -0.39559985539E+02 -0.34673836155E+00 -0.10113907175E+03  0.10868163101E+03  0.41800000000E+01 0.  1.
         -5    1    3    3    0  502 -0.37037133029E+02  0.79495727993E+02 -0.30124021890E+01  0.87851391332E+02  0.41800000000E+01 0.  1.
        -11    1    1    2    0    0 -0.64240403879E+01 -0.19397872888E+02  0.10690104513E+02  0.23061311800E+02  0.00000000000E+00 0. -1.
         11    1    1    2    0    0  0.83021158955E+02 -0.59751116743E+02 -0.11466015638E+03  0.15365435317E+03  0.00000000000E+00 0.  1.
</event>
<event>
 7    1  0.2594791E-009  0.2761410E+03  0.7561462E-02  0.1097815E+00
         -3   -1    0    0    0  501 -0.00000000000E+00  0.00000000000E+00  0.87708213017E+02  0.87708213017E+02  0.00000000000E+00 0.  1.
          3   -1    0    0  501    0  0.00000000000E+00 -0.00000000000E+00 -0.90836979747E+03  0.90836979747E+03  0.00000000000E+00 0. -1.
         25    2    1    2    0    0  0.25985796336E+03  0.21349244950E+02 -0.43677921489E+03  0.52383712172E+03  0.12508915281E+03 0.  0.
          5    1    3    3  502    0  0.61136395233E+02  0.46635910986E+02 -0.19605036957E+03  0.21063187513E+03  0.41800000000E+01 0.  1.
         -5    1    3    3    0  502  0.19872156812E+03 -0.25286666036E+02 -0.24072884533E+03  0.31320524659E+03  0.41800000000E+01 0.  1.
        -11    1    1    2    0    0 -0.20507987666E+03  0.20317281416E+02 -0.29397570238E+03  0.35901568395E+03  0.00000000000E+00 0.  1.
         11    1    1    2    0    0 -0.54778086696E+02 -0.41666526365E+02 -0.89906667183E+02  0.11322520482E+03  0.00000000000E+00 0. -1.
</event>
<event>
 7    1  0.2594791E-009  0.1067883E+03  0.7561462E-02  0.1266636E+00
         -2   -1    0    0    0  501 -0.00000000000E+00  0.00000000000E+00  0.22282140784E+02  0.22282140784E+02  0.00000000000E+00 0.  1.
          2   -1    0    0  501    0  0.00000000000E+00 -0.00000000000E+00 -0.59189101846E+03  0.59189101846E+03  0.00000000000E+00 0. -1.
         25    2    1    2    0    0  0.37422381579E+02  0.90013238294E+01 -0.32761640435E+03  0.35279041550E+03  0.12508841032E+03 0.  0.
          5    1    3    3  502    0  0.11711592464E+02 -0.51402876330E+02 -0.22320606987E+03  0.22938578665E+03  0.41800000000E+01 0. -1.
         -5    1    3    3    0  502  0.25710789115E+02  0.60404200159E+02 -0.10441033448E+03  0.12340462884E+03  0.41800000000E+01 0. -1.
        -11    1    1    2    0    0 -0.20436171006E+01 -0.44643237710E+02 -0.78253145163E+02  0.90115202780E+02  0.00000000000E+00 0.  1.
         11    1    1    2    0    0 -0.35378764478E+02  0.35641913880E+02 -0.16373932816E+03  0.17126754097E+03  0.00000000000E+00 0. -1.
</event>
<event>
 7    1  0.2594791E-009  0.1034379E+03  0.7561462E-02  0.1273228E+00
          2   -1    0    0  501    0  0.00000000000E+00  0.00000000000E+00  0.50551193958E+03  0.50551193958E+03  0.00000000000E+00 0. -1.
         -2   -1    0    0    0  501 -0.00000000000E+00 -0.00000000000E+00 -0.32322247012E+02  0.32322247012E+02  0.00000000000E+00 0.  1.
         25    2    1    2    0    0 -0.42192905790E+01 -0.53469078446E+02  0.35723735400E+03  0.38228645455E+03  0.12509061305E+03 0.  0.
          5    1    3    3  502    0  0.15951447157E+02  0.22151095263E+02  0.23800154943E+03  0.23959826714E+03  0.41800000000E+01 0. -1.
         -5    1    3    3    0  502 -0.20170737736E+02 -0.75620173709E+02  0.11923580458E+03  0.14268818741E+03  0.41800000000E+01 0. -1.
        -11    1    1    2    0    0  0.43349676123E+02  0.14629817808E+02  0.70744052836E+02  0.84249314541E+02  0.00000000000E+00 0. -1.
         11    1    1    2    0    0 -0.39130385544E+02  0.38839260638E+02  0.45208285730E+02  0.71298417502E+02  0.00000000000E+00 0.  1.
</event>
<event>
 7    1  0.2594791E-009  0.1920830E+03  0.7561462E-02  0.1156596E+00
         -2   -1    0    0    0  501 -0.00000000000E+00  0.00000000000E+00  0.37663143539E+02  0.37663143539E+02  0.00000000000E+00 0.  1.
          2   -1    0    0  501    0  0.00000000000E+00 -0.00000000000E+00 -0.10181109138E+04  0.10181109138E+04  0.00000000000E+00 0. -1.
         25    2    1    2    0    0 -0.15814420965E+03 -0.38175705746E+02 -0.55238571911E+03  0.58927476878E+03  0.12509114634E+03 0.  0.
          5    1    3    3  502    0 -0.21528580159E+02 -0.62624718982E+02 -0.17517634875E+03  0.18732207759E+03  0.41800000000E+01 0. -1.
         -5    1    3    3    0  502 -0.13661562950E+03  0.24449013236E+02 -0.37720937036E+03  0.40195269119E+03  0.41800000000E+01 0. -1.
        -11    1    1    2    0    0  0.87392229247E+02  0.58721808910E+02 -0.30941776916E+03  0.32684095283E+03  0.00000000000E+00 0.  1.
         11    1    1    2    0    0  0.70751980407E+02 -0.20546103164E+02 -0.11864428195E+03  0.13965833568E+03  0.00000000000E+00 0. -1.
</event>
<event>
 7    1  0.2594791E-009  0.9292057E+02  0.7561462E-02  0.1295929E+00
          1   -1    0    0  501    0  0.00000000000E+00  0.00000000000E+00  0.34372264081E+03  0.34372264081E+03  0.00000000000E+00 0. -1.
         -1   -1    0    0    0  501 -0.00000000000E+00 -0.00000000000E+00 -0.51258947440E+02  0.51258947440E+02  0.00000000000E+00 0.  1.
         25    2    1    2    0    0 -0.59734225241E+02  0.15741208935E+02  0.98354986193E+02  0.17069701727E+03  0.12509118703E+03 0.  0.
          5    1    3    3  502    0 -0.71991905341E+02  0.20225102143E+02  0.36277296708E+01  0.74983478273E+02  0.41800000000E+01 0.  1.
         -5    1    3    3    0  502  0.12257680100E+02 -0.44838932077E+01  0.94727256522E+02  0.95713539000E+02  0.41800000000E+01 0.  1.
        -11    1    1    2    0    0  0.23836130200E+02 -0.45003875004E+02  0.44360222289E+02  0.67537687182E+02  0.00000000000E+00 0.  1.
         11    1    1    2    0    0  0.35898095041E+02  0.29262666069E+02  0.14974848489E+03  0.15674688380E+03  0.00000000000E+00 0. -1.
</event>
<event>
 7    1  0.2594791E-009  0.1413449E+03  0.7561462E-02  0.1211531E+00
         -1   -1    0    0    0  501 -0.00000000000E+00  0.00000000000E+00  0.11274206907E+03  0.11274206907E+03  0.00000000000E+00 0. -1.
          1   -1    0    0  501    0  0.00000000000E+00 -0.00000000000E+00 -0.22427747393E+03  0.22427747393E+03  0.00000000000E+00 0.  1.
         25    2    1    2    0    0 -0.94545964887E+02  0.65670692441E+02 -0.50888120355E+02  0.17744860445E+03  0.12508727796E+03 0.  0.
          5    1    3    3  502    0 -0.30401107583E+02 -0.19821575353E+02  0.26750813609E+02  0.45279141119E+02  0.41800000000E+01 0.  1.
         -5    1    3    3    0  502 -0.64144857304E+02  0.85492267793E+02 -0.77638933964E+02  0.13216946333E+03  0.41800000000E+01 0.  1.
        -11    1    1    2    0    0  0.53674521134E+01  0.16856253481E+02  0.86521707042E+01  0.19692711380E+02  0.00000000000E+00 0. -1.
         11    1    1    2    0    0  0.89178512774E+02 -0.82526945921E+02 -0.69299455207E+02  0.13987822717E+03  0.00000000000E+00 0.  1.
</event>
<event>
 7    1  0.2624441E-009  0.1095667E+03  0.7561462E-02  0.1261374E+00
          1   -1    0    0  501    0  0.00000000000E+00  0.00000000000E+00  0.28226690937E+03  0.28226690937E+03  0.00000000000E+00 0. -1.
         -1   -1    0    0    0  501 -0.00000000000E+00 -0.00000000000E+00 -0.61655859118E+02  0.61655859118E+02  0.00000000000E+00 0.  1.
         25    2    1    2    0    0 -0.55848669668E+02 -0.48762264657E+02  0.11340176826E+03  0.18440523297E+03  0.12509395087E+03 0.  0.
          5    1    3    3  502    0 -0.70252796149E+02  0.16912028516E+02  0.33102547419E+02  0.79590973866E+02  0.41800000000E+01 0.  1.
         -5    1    3    3    0  502  0.14404126481E+02 -0.65674293173E+02  0.80299220837E+02  0.10481425910E+03  0.41800000000E+01 0.  1.
        -11    1    1    2    0    0  0.12440448588E+02 -0.19959403325E+01 -0.15400136692E+02  0.19897556358E+02  0.00000000000E+00 0.  1.
         11    1    1    2    0    0  0.43408221080E+02  0.50758204989E+02  0.12260941868E+03  0.13961997916E+03  0.00000000000E+00 0. -1.
</event>
<event>
 6    1  0.2594791E-009  0.8814594E+02  0.7561462E-02  0.1307405E+00
         -4   -1    0    0    0  501 -0.00000000000E+00  0.00000000000E+00  0.72241973339E+02  0.72241973339E+02  0.00000000000E+00 0.  1.
          4   -1    0    0  501    0  0.00000000000E+00 -0.00000000000E+00 -0.18203159841E+03  0.18203159841E+03  0.00000000000E+00 0. -1.
          5    1    1    2  502    0 -0.40565321669E+02 -0.22435561389E+01 -0.67123024471E+02  0.78571952250E+02  0.41800000000E+01 0.  1.
         -5    1    1    2    0  502  0.61608970104E+02  0.30534296314E+02 -0.43514597931E+01  0.69024749555E+02  0.41800000000E+01 0.  1.
        -11    1    1    2    0    0  0.19397519837E+02 -0.55952447885E+01 -0.54056844063E+02  0.57703664789E+02  0.00000000000E+00 0. -1.
         11    1    1    2    0    0 -0.40441168273E+02 -0.22695495387E+02  0.15741703253E+02  0.48973205158E+02  0.00000000000E+00 0.  1.
</event>
<event>
 7    1  0.2594791E-009  0.1379056E+03  0.7561462E-02  0.1216175E+00
          2   -1    0    0  501    0  0.00000000000E+00  0.00000000000E+00  0.40952899263E+03  0.40952899263E+03  0.00000000000E+00 0. -1.
         -2   -1    0    0    0  501 -0.00000000000E+00 -0.00000000000E+00 -0.66833244791E+02  0.66833244791E+02  0.00000000000E+00 0.  1.
         25    2    1    2    0    0  0.92993458316E+02 -0.76104701570E+02  0.13330570763E+03  0.21876441631E+03  0.12509096397E+03 0.  0.
          5    1    3    3  502    0  0.45386073917E+02 -0.67471653653E+02  0.50016995387E+01  0.81577013616E+02  0.41800000000E+01 0.  1.
         -5    1    3    3    0  502  0.47607384400E+02 -0.86330479164E+01  0.12830400809E+03  0.13718740270E+03  0.41800000000E+01 0.  1.
        -11    1    1    2    0    0 -0.14108205270E+02  0.64577460492E+02  0.65257585902E+02  0.92886179689E+02  0.00000000000E+00 0.  1.
         11    1    1    2    0    0 -0.78885253046E+02  0.11527241078E+02  0.14413245430E+03  0.16471164142E+03  0.00000000000E+00 0. -1.
</event>
<event>
 7    1  0.2594791E-009  0.1097076E+03  0.7561462E-02  0.1261112E+00
          2   -1    0    0  501    0  0.00000000000E+00  0.00000000000E+00  0.37605355825E+02  0.37605355825E+02  0.00000000000E+00 0. -1.
         -2   -1    0    0    0  501 -0.00000000000E+00 -0.00000000000E+00 -0.44252954756E+03  0.44252954756E+03  0.00000000000E+00 0.  1.
         25    2    1    2    0    0  0.23391682076E+02  0.59832190348E+02 -0.18333622412E+03  0.23105359619E+03  0.12508609613E+03 0.  0.
          5    1    3    3  502    0 -0.28276744339E+02  0.11035706832E+01  0.31549339262E+01  0.28778779452E+02  0.41800000000E+01 0. -1.
         -5    1    3    3    0  502  0.51668426415E+02  0.58728619665E+02 -0.18649115805E+03  0.20227481673E+03  0.41800000000E+01 0. -1.
        -11    1    1    2    0    0 -0.47946369774E+00  0.24796392032E+02 -0.34725408291E+02  0.42672531261E+02  0.00000000000E+00 0.  1.
         11    1    1    2    0    0 -0.22912218378E+02 -0.84628582380E+02 -0.18686255933E+03  0.20640877594E+03  0.00000000000E+00 0. -1.
</event>
<event>
 7    1  0.2594791E-009  0.1049036E+03  0.7561462E-02  0.1270310E+00
         -1   -1    0    0    0  501 -0.00000000000E+00  0.00000000000E+00  0.50618919159E+02  0.50618919159E+02  0.00000000000E+00 0.  1.
          1   -1    0    0  501    0  0.00000000000E+00 -0.00000000000E+00 -0.24180700198E+03  0.24180700198E+03  0.00000000000E+00 0. -1.
         25    2    1    2    0    0  0.14753503434E+02  0.18841786690E+01 -0.90784987322E+02  0.15527634320E+03  0.12509041866E+03 0.  0.
          5    1    3    3  502    0 -0.25779735784E+02 -0.48657470073E+02 -0.65328054403E+02  0.85541634676E+02  0.41800000000E+01 0. -1.
         -5    1    3    3    0  502  0.40533239218E+02  0.50541648741E+02 -0.25456932919E+02  0.69734708522E+02  0.41800000000E+01 0. -1.
        -11    1    1    2    0    0  0.98388877918E+01  0.39945032645E+02 -0.65613387369E+02  0.77443695341E+02  0.00000000000E+00 0.  1.
         11    1    1    2    0    0 -0.24592391226E+02 -0.41829211314E+02 -0.34789708127E+02  0.59705882598E+02  0.00000000000E+00 0. -1.
</event>
<event>
 7    1  0.2594791E-009  0.1146406E+03  0.7561462E-02  0.1252210E+00
          2   -1    0    0  501    0  0.00000000000E+00  0.00000000000E+00  0.41833479484E+02  0.41833479484E+02  0.00000000000E+00 0. -1.
         -2   -1    0    0    0  501 -0.00000000000E+00 -0.00000000000E+00 -0.40678170407E+03  0.40678170407E+03  0.00000000000E+00 0.  1.
         25    2    1    2    0    0 -0.44804499579E+02 -0.52552949361E+02 -0.23379525695E+03  0.27400267645E+03  0.12509192163E+03 0.  0.
          5    1    3    3  502    0 -0.50371584679E+02 -0.78626356148E+02 -0.97522107728E+02  0.13508306452E+03  0.41800000000E+01 0.  1.
         -5    1    3    3    0  502  0.55670850999E+01  0.26073406787E+02 -0.13627314922E+03  0.13891961193E+03  0.41800000000E+01 0.  1.
        -11    1    1    2    0    0 -0.14376789668E+02 -0.13788973669E+02 -0.54574223271E+01  0.20654571757E+02  0.00000000000E+00 0. -1.
         11    1    1    2    0    0  0.59181289247E+02  0.66341923030E+02 -0.12569554531E+03  0.15395793536E+03  0.00000000000E+00 0.  1.
</event>
<event>
 7    1  0.2594791E-009  0.1077805E+03  0.7561462E-02  0.1264736E+00
         -2   -1    0    0    0  501 -0.00000000000E+00  0.00000000000E+00  0.32997332381E+03  0.32997332381E+03  0.00000000000E+00 0.  1.
          2   -1    0    0  501    0  0.00000000000E+00 -0.00000000000E+00 -0.41511682688E+02  0.41511682688E+02  0.00000000000E+00 0. -1.
         25    2    1    2    0    0  0.25664571710E+02  0.70570764250E+01  0.10526699878E+03  0.16564158529E+03  0.12509005227E+03 0.  0.
          5    1    3    3  502    0 -0.38676883842E+02  0.34143831236E+02  0.20311612372E+02  0.55603386159E+02  0.41800000000E+01 0.  1.
         -5    1    3    3    0  502  0.64341455552E+02 -0.27086754811E+02  0.84955386408E+02  0.11003819913E+03  0.41800000000E+01 0.  1.
        -11    1    1    2    0    0 -0.57497855037E+02  0.90213228418E+01  0.11271471705E+03  0.12685422752E+03  0.00000000000E+00 0.  1.
         11    1    1    2    0    0  0.31833283327E+02 -0.16078399267E+02  0.70479925294E+02  0.78989193690E+02  0.00000000000E+00 0. -1.
</event>
<event>
 7    1  0.2594791E-009  0.1138020E+03  0.7561462E-02  0.1253687E+00
          2   -1    0    0  501    0  0.00000000000E+00  0.00000000000E+00  0.31551706044E+03  0.31551706044E+03  0.00000000000E+00 0. -1.
         -2   -1    0    0    0  501 -0.00000000000E+00 -0.00000000000E+00 -0.49977658868E+02  0.49977658868E+02  0.00000000000E+00 0.  1.
         25    2    1    2    0    0 -0.43050655797E+01  0.60957036409E+02  0.12170858706E+03  0.18491864208E+03  0.12509048783E+03 0.  0.
          5    1    3    3  502    0  0.54518674262E+02  0.57555050063E+02  0.60132201873E+02  0.99590279310E+02  0.41800000000E+01 0.  1.
         -5    1    3    3    0  502 -0.58823739841E+02  0.34019863461E+01  0.61576385188E+02  0.85328362769E+02  0.41800000000E+01 0.  1.
        -11    1    1    2    0    0  0.15992451672E+02 -0.71584855458E+02  0.58571622990E+02  0.93865782164E+02  0.00000000000E+00 0.  1.
         11    1    1    2    0    0 -0.11687386093E+02  0.10627819050E+02  0.85259191523E+02  0.86710295066E+02  0.00000000000E+00 0. -1.
</event>
<event>
 7    1  0.2594791E-009  0.1186060E+03  0.7561462E-02  0.1245415E+00
         -2   -1    0    0    0  501 -0.00000000000E+00  0.00000000000E+00  0.73472928206E+02  0.73472928206E+02  0.00000000000E+00 0.  1.
          2   -1    0    0  501    0  0.00000000000E+00 -0.00000000000E+00 -0.23357789258E+03  0.23357789258E+03  0.00000000000E+00 0. -1.
         25    2    1    2    0    0  0.30418330379E+02 -0.60844856164E+02 -0.67086852567E+02  0.15740353106E+03  0.12509138443E+03 0.  0.
          5    1    3    3  502    0 -0.55211262445E+01 -0.79216958716E+02 -0.81949432039E+02  0.11418840219E+03  0.41800000000E+01 0. -1.
         -5    1    3    3    0  502  0.35939456623E+02  0.18372102552E+02  0.14862579472E+02  0.43215128869E+02  0.41800000000E+01 0. -1.
        -11    1    1    2    0    0 -0.55113433144E+02  0.71451473726E+02 -0.74374540792E+02  0.11693748727E+03  0.00000000000E+00 0. -1.
         11    1    1    2    0    0  0.24695102765E+02 -0.10606617562E+02 -0.18643571014E+02  0.32709802458E+02  0.00000000000E+00 0.  1.
</event>
<event>
 7    1  0.2594791E-009  0.1138097E+03  0.7561462E-02  0.1253673E+00
          1   -1    0    0  501    0  0.00000000000E+00  0.00000000000E+00  0.10536852231E+04  0.10536852231E+04  0.00000000000E+00 0. -1.
         -1   -1    0    0    0  501 -0.00000000000E+00 -0.00000000000E+00 -0.12308075846E+02  0.12308075846E+02  0.00000000000E+00 0.  1.
         25    2    1    2    0    0  0.14798169452E+02  0.32624880300E+02  0.60911509652E+03  0.62285735330E+03  0.12508682232E+03 0.  0.
          5    1    3    3  502    0  0.25834335510E+02  0.78494105090E+02  0.39122323213E+03  0.39987726515E+03  0.41800000000E+01 0.  1.
         -5    1    3    3    0  502 -0.11036166058E+02 -0.45869224790E+02  0.21789186438E+03  0.22298008814E+03  0.41800000000E+01 0.  1.
        -11    1    1    2    0    0  0.22846065291E+02  0.21641910445E+02  0.14626076815E+03  0.14960791184E+03  0.00000000000E+00 0.  1.
         11    1    1    2    0    0 -0.37644234743E+02 -0.54266790744E+02  0.28600128261E+03  0.29352803382E+03  0.00000000000E+00 0. -1.
</event>
<event>
 7    1  0.2594791E-009  0.6426441E+02  0.7561462E-02  0.1380760E+00
          4   -1    0    0  501    0  0.00000000000E+00  0.00000000000E+00  0.32938127345E+02  0.32938127345E+02  0.00000000000E+00 0. -1.
         -4   -1    0    0    0  501 -0.00000000000E+00 -0.00000000000E+00 -0.39229501073E+03  0.39229501073E+03  0.00000000000E+00 0.  1.
         25    2    1    2    0    0  0.22366819290E+02  0.23357218986E+02 -0.23405205308E+03  0.26734517574E+03  0.12508894898E+03 0.  0.
          5    1    3    3  502    0 -0.59841292702E+00  0.34997878559E+02 -0.36150278457E+01  0.35436569078E+02  0.41800000000E+01 0.  1.
         -5    1    3    3    0  502  0.22965232217E+02 -0.11640659574E+02 -0.23043702523E+03  0.23190860666E+03  0.41800000000E+01 0.  1.
        -11    1    1    2    0    0  0.20287278470E+02 -0.61507735793E+01  0.31640277072E+01  0.21434009300E+02  0.00000000000E+00 0. -1.
         11    1    1    2    0    0 -0.42654097760E+02 -0.17206445406E+02 -0.12846885801E+03  0.13645395303E+03  0.00000000000E+00 0.  1.
</event>
<event>
 7    1  0.2594791E-009  0.1003495E+03  0.7561462E-02  0.1279563E+00
         -2   -1    0    0    0  501 -0.00000000000E+00  0.00000000000E+00  0.55483767182E+03  0.55483767182E+03  0.00000000000E+00 0.  1.
          2   -1    0    0  501    0  0.00000000000E+00 -0.00000000000E+00 -0.26135287212E+02  0.26135287212E+02  0.00000000000E+00 0. -1.
         25    2    1    2    0    0  0.11101247041E+02 -0.57595089328E+02  0.34008175108E+03  0.36707406234E+03  0.12508931940E+03 0.  0.
          5    1    3    3  502    0  0.52546283101E+02 -0.27056297741E+02  0.28683958567E+03  0.29289516114E+03  0.41800000000E+01 0. -1.
         -5    1    3    3    0  502 -0.41445036060E+02 -0.30538791587E+02  0.53242165416E+02  0.74178901204E+02  0.41800000000E+01 0. -1.
        -11    1    1    2    0    0  0.27676902276E+02  0.36009419120E+02  0.46457060035E+02  0.64968820307E+02  0.00000000000E+00 0. -1.
         11    1    1    2    0    0 -0.38778149316E+02  0.21585670208E+02  0.14216357349E+03  0.14893007638E+03  0.00000000000E+00 0.  1.
</event>
<event>
 7    1  0.2594791E-009  0.1069758E+03  0.7561462E-02  0.1266275E+00
         -4   -1    0    0    0  501 -0.00000000000E+00  0.00000000000E+00  0.20739360002E+02  0.20739360002E+02  0.00000000000E+00 0.  1.
          4   -1    0    0  501    0  0.00000000000E+00 -0.00000000000E+00 -0.65307228783E+03  0.65307228783E+03  0.00000000000E+00 0. -1.
         25    2    1    2    0    0  0.20587279267E-01  0.42297778063E+02 -0.39338949519E+03  0.41496487384E+03  0.12510575182E+03 0.  0.
          5    1    3    3  502    0  0.42693504478E+02 -0.15066314147E+02 -0.25623839685E+03  0.26024088373E+03  0.41800000000E+01 0.  1.
         -5    1    3    3    0  502 -0.42672917199E+02  0.57364092210E+02 -0.13715109835E+03  0.15472399011E+03  0.41800000000E+01 0.  1.
        -11    1    1    2    0    0  0.43549651779E+02 -0.22298221366E+02 -0.90848627112E+02  0.10318554111E+03  0.00000000000E+00 0.  1.
         11    1    1    2    0    0 -0.43570239059E+02 -0.19999556696E+02 -0.14809480552E+03  0.15566123288E+03  0.00000000000E+00 0. -1.
</event>
<event>
 7    1  0.2594791E-009  0.9802322E+02  0.7561462E-02  0.1284509E+00
          2   -1    0    0  501    0  0.00000000000E+00  0.00000000000E+00  0.39370285860E+03  0.39370285860E+03  0.00000000000E+00 0. -1.
         -2   -1    0    0    0  501 -0.00000000000E+00 -0.00000000000E+00 -0.38779188616E+02  0.38779188616E+02  0.00000000000E+00 0.  1.
         25    2    1    2    0    0 -0.21196953049E+02  0.49477796211E+02  0.16015283607E+03  0.21023327272E+03  0.12510689399E+03 0.  0.
          5    1    3    3  502    0 -0.45662435839E+02 -0.32977998405E+01  0.71914826950E+01  0.46530886021E+02  0.41800000000E+01 0. -1.
         -5    1    3    3    0  502  0.24465482790E+02  0.52775596051E+02  0.15296135337E+03  0.16370238670E+03  0.41800000000E+01 0. -1.
        -11    1    1    2    0    0  0.48174119427E+02 -0.41600766334E+02  0.71115131622E+02  0.95439674600E+02  0.00000000000E+00 0.  1.
         11    1    1    2    0    0 -0.26977166378E+02 -0.78770298765E+01  0.12365570229E+03  0.12680909989E+03  0.00000000000E+00 0. -1.
</event>
<event>
 7    1  0.2594791E-009  0.6592223E+02  0.7561462E-02  0.1374536E+00
         -2   -1    0    0    0  501 -0.00000000000E+00  0.00000000000E+00  0.22873375365E+03  0.22873375365E+03  0.00000000000E+00 0.  1.
          2   -1    0    0  501    0  0.00000000000E+00 -0.00000000000E+00 -0.70932905202E+02  0.70932905202E+02  0.00000000000E+00 0. -1.
         25    2    1    2    0    0 -0.28963750101E+02  0.25339784463E+02  0.23205580967E+02  0.13292019020E+03  0.12509306327E+03 0.  0.
          5    1    3    3  502    0 -0.41061403271E+02  0.91151210397E+01 -0.44949273236E+02  0.61701165586E+02  0.41800000000E+01 0.  1.
         -5    1    3    3    0  502  0.12097653170E+02  0.16224663423E+02  0.68154854203E+02  0.71219024613E+02  0.41800000000E+01 0.  1.
        -11    1    1    2    0    0  0.46480118103E+02 -0.19982104285E+02  0.26506083442E+02  0.57116182733E+02  0.00000000000E+00 0. -1.
         11    1    1    2    0    0 -0.17516368002E+02 -0.53576801777E+01  0.10808918404E+03  0.10963028592E+03  0.00000000000E+00 0.  1.
</event>
<event>
 7    1  0.2594791E-009  0.2104796E+03  0.7561462E-02  0.1141187E+00
         -2   -1    0    0    0  501 -0.00000000000E+00  0.00000000000E+00  0.85479675941E+02  0.85479675941E+02  0.00000000000E+00 0.  1.
          2   -1    0    0  501    0  0.00000000000E+00 -0.00000000000E+00 -0.84783679904E+03  0.84783679904E+03  0.00000000000E+00 0. -1.
         25    2    1    2    0    0  0.19377950491E+03 -0.74269222997E+02 -0.62122916322E+03  0.66681327862E+03  0.12509141175E+03 0.  0.
          5    1    3    3  502    0  0.49356323302E+02 -0.42807686875E+02 -0.68943340964E+02  0.95074714666E+02  0.41800000000E+01 0. -1.
         -5    1    3    3    0  502  0.14442318161E+03 -0.31461536121E+02 -0.55228582226E+03  0.57173856395E+03  0.41800000000E+01 0. -1.
        -11    1    1    2    0    0 -0.23844892439E+02  0.69289068670E+01  0.12433232145E+02  0.27770018138E+02  0.00000000000E+00 0.  1.
         11    1    1    2    0    0 -0.16993461247E+03  0.67340316130E+02 -0.15356119202E+03  0.23873317823E+03  0.00000000000E+00 0. -1.
</event>
<event>
 7    1  0.2594791E-009  0.1008958E+03  0.7561462E-02  0.1278423E+00
          1   -1    0    0  501    0  0.00000000000E+00  0.00000000000E+00  0.70097852581E+02  0.70097852581E+02  0.00000000000E+00 0. -1.
         -1   -1    0    0    0  501 -0.00000000000E+00 -0.00000000000E+00 -0.22960253341E+03  0.22960253341E+03  0.00000000000E+00 0.  1.
         25    2    1    2    0    0  0.59237867569E+02  0.26567753314E+01 -0.12346179603E+03  0.18548966219E+03  0.12508963303E+03 0.  0.
          5    1    3    3  502    0  0.33740220312E+02  0.40519285890E+02 -0.12889950317E+03  0.13932971439E+03  0.41800000000E+01 0.  1.
         -5    1    3    3    0  502  0.25497647257E+02 -0.37862510559E+02  0.54377071438E+01  0.46159947795E+02  0.41800000000E+01 0.  1.
        -11    1    1    2    0    0 -0.62824034664E+02 -0.34052926955E+02 -0.40749759626E+02  0.82261802042E+02  0.00000000000E+00 0.  1.
         11    1    1    2    0    0  0.35861670953E+01  0.31396151623E+02  0.47068748196E+01  0.31948921762E+02  0.00000000000E+00 0. -1.
</event>
<event>
 7    1  0.2594791E-009  0.1424717E+03  0.7561462E-02  0.1210041E+00
          2   -1    0    0  501    0  0.00000000000E+00  0.00000000000E+00  0.27424182994E+02  0.27424182994E+02  0.00000000000E+00 0. -1.
         -2   -1    0    0    0  501 -0.00000000000E+00 -0.00000000000E+00 -0.96241506533E+03  0.96241506533E+03  0.00000000000E+00 0.  1.
         25    2    1    2    0    0 -0.97405738561E+02 -0.34505440009E+02 -0.69039024132E+03  0.70920252957E+03  0.12510411402E+03 0.  0.
          5    1    3    3  502    0 -0.11280086793E+03 -0.52067514508E+02 -0.42645642440E+03  0.44420447565E+03  0.41800000000E+01 0. -1.
         -5    1    3    3    0  502  0.15395129370E+02  0.17562074499E+02 -0.26393381692E+03  0.26499805392E+03  0.41800000000E+01 0. -1.
        -11    1    1    2    0    0  0.65876654357E+02  0.65357122296E+02 -0.15245411973E+03  0.17847561639E+03  0.00000000000E+00 0.  1.
         11    1    1    2    0    0  0.31529084204E+02 -0.30851682287E+02 -0.92146521291E+02  0.10216110237E+03  0.00000000000E+00 0. -1.
</event>
<event>
 7    1  0.2594791E-009  0.1118091E+03  0.7561462E-02  0.1257256E+00
          2   -1    0    0  501    0  0.00000000000E+00  0.00000000000E+00  0.86645327381E+02  0.86645327381E+02  0.00000000000E+00 0. -1.
         -2   -1    0    0    0  501 -0.00000000000E+00 -0.00000000000E+00 -0.16170231539E+03  0.16170231539E+03  0.00000000000E+00 0.  1.
         25    2    1    2    0    0 -0.17592150866E+02  0.31447902801E+02 -0.84653074412E+01  0.13044544168E+03  0.12508356192E+03 0.  0.
          5    1    3    3  502    0 -0.14190669492E+02  0.79974618378E+02 -0.62187472687E+01  0.81568743419E+02  0.41800000000E+01 0. -1.
         -5    1    3    3    0  502 -0.34014813744E+01 -0.48526715577E+02 -0.22465601725E+01  0.48876698261E+02  0.41800000000E+01 0. -1.
        -11    1    1    2    0    0 -0.23194499965E+02  0.18002518790E+02 -0.37181706954E+02  0.47376733144E+02  0.00000000000E+00 0.  1.
         11    1    1    2    0    0  0.40786650831E+02 -0.49450421591E+02 -0.29409973618E+02  0.70525467951E+02  0.00000000000E+00 0. -1.
</event>
<event>
 7    1  0.2594791E-009  0.8554531E+02  0.7561462E-02  0.1314013E+00
          4   -1    0    0  501    0  0.00000000000E+00  0.00000000000E+00  0.31549518521E+02  0.31549518521E+02  0.00000000000E+00 0. -1.
         -4   -1    0    0    0  501 -0.00000000000E+00 -0.00000000000E+00 -0.42352917829E+03  0.42352917829E+03  0.00000000000E+00 0.  1.
         25    2    1    2    0    0  0.31955973027E+01 -0.16547458211E+02 -0.29173332242E+03  0.31786583719E+03  0.12508528622E+03 0.  0.
          5    1    3    3  502    0 -0.13294416710E+02  0.33539754096E+02 -0.20876864651E+02  0.41892391888E+02  0.41800000000E+01 0. -1.
         -5    1    3    3    0  502  0.16490014013E+02 -0.50087212307E+02 -0.27085645777E+03  0.27597344530E+03  0.41800000000E+01 0. -1.
        -11    1    1    2    0    0 -0.34034917149E+02 -0.15499524791E+02 -0.80073296168E+02  0.88376148441E+02  0.00000000000E+00 0.  1.
         11    1    1    2    0    0  0.30839319846E+02  0.32046983002E+02 -0.20173041182E+02  0.48836711178E+02  0.00000000000E+00 0. -1.
</event>
<event>
 7    1  0.2594791E-009  0.1081205E+03  0.7561462E-02  0.1264090E+00
          2   -1    0    0  501    0  0.00000000000E+00  0.00000000000E+00  0.12535720833E+04  0.12535720833E+04  0.00000000000E+00 0. -1.
         -2   -1    0    0    0  501 -0.00000000000E+00 -0.00000000000E+00 -0.23736822897E+02  0.23736822897E+02  0.00000000000E+00 0.  1.
         25    2    1    2    0    0  0.53873695209E+02 -0.83274576457E+02  0.98279190382E+03  0.99567307177E+03  0.12509160454E+03 0.  0.
          5    1    3    3  502    0  0.43045810449E+02 -0.20201131637E+02  0.10273774827E+03  0.11328523662E+03  0.41800000000E+01 0.  1.
         -5    1    3    3    0  502  0.10827884761E+02 -0.63073444820E+02  0.88005415554E+03  0.88238783515E+03  0.41800000000E+01 0.  1.
        -11    1    1    2    0    0 -0.47923730701E+02  0.45327167738E+02  0.55283652066E+02  0.86066940722E+02  0.00000000000E+00 0.  1.
         11    1    1    2    0    0 -0.59499645082E+01  0.37947408719E+02  0.19175970448E+03  0.19556889366E+03  0.00000000000E+00 0. -1.
</event>
<event>
 7    1  0.2594791E-009  0.6372659E+02  0.7561462E-02  0.1382827E+00
         -1   -1    0    0    0  501 -0.00000000000E+00  0.00000000000E+00  0.12944800010E+03  0.12944800010E+03  0.00000000000E+00 0.  1.
          1   -1    0    0  501    0  0.00000000000E+00 -0.00000000000E+00 -0.15603329617E+03  0.15603329617E+03  0.00000000000E+00 0. -1.
         25    2    1    2    0    0 -0.12735463268E+02  0.46140991851E+02 -0.92807692986E+02  0.16296138060E+03  0.12510779567E+03 0.  0.
          5    1    3    3  502    0 -0.15366417032E+02  0.39557086735E+02  0.21914861739E+02  0.47943961542E+02  0.41800000000E+01 0.  1.
         -5    1    3    3    0  502  0.26309537644E+01  0.65839051166E+01 -0.11472255472E+03  0.11501741906E+03  0.41800000000E+01 0.  1.
        -11    1    1    2    0    0  0.36277132694E+02 -0.20091251327E+02  0.75556990518E+02  0.86189022228E+02  0.00000000000E+00 0.  1.
         11    1    1    2    0    0 -0.23541669426E+02 -0.26049740524E+02 -0.93345935927E+01  0.36330893442E+02  0.00000000000E+00 0. -1.
</event>
<event>
 7    1  0.2594791E-009  0.7902282E+02  0.7561462E-02  0.1331848E+00
          2   -1    0    0  501    0  0.00000000000E+00  0.00000000000E+00  0.14249630596E+03  0.14249630596E+03  0.00000000000E+00 0. -1.
         -2   -1    0    0    0  501 -0.00000000000E+00 -0.00000000000E+00 -0.95881286602E+02  0.95881286602E+02  0.00000000000E+00 0.  1.
         25    2    1    2    0    0 -0.10171155245E+01  0.24170687857E+02  0.61054353596E+02  0.14127836648E+03  0.12508671419E+03 0.  0.
          5    1    3    3  502    0  0.56445579795E+02  0.23855287037E+01  0.55706259540E+02  0.79450953283E+02  0.41800000000E+01 0. -1.
         -5    1    3    3    0  502 -0.57462695319E+02  0.21785159154E+02  0.53480940557E+01  0.61827413198E+02  0.41800000000E+01 0. -1.
        -11    1    1    2    0    0  0.14368615474E+02 -0.28579032666E+01  0.37025289458E+02  0.39818297065E+02  0.00000000000E+00 0. -1.
         11    1    1    2    0    0 -0.13351499949E+02 -0.21312784591E+02 -0.51464623691E+02  0.57280929022E+02  0.00000000000E+00 0.  1.
</event>
<event>
 7    1  0.2594791E-009  0.1594233E+03  0.7561462E-02  0.1189349E+00
         -1   -1    0    0    0  501 -0.00000000000E+00  0.00000000000E+00  0.20561850716E+02  0.20561850716E+02  0.00000000000E+00 0.  1.
          1   -1    0    0  501    0  0.00000000000E+00 -0.00000000000E+00 -0.14635825370E+04  0.14635825370E+04  0.00000000000E+00 0. -1.
         25    2    1    2    0    0  0.10295503134E+03  0.56809252236E+02 -0.10482264260E+04  0.10621919584E+04  0.12508431877E+03 0.  0.
          5    1    3    3  502    0  0.82209366929E+02  0.95347146571E+02 -0.83829607901E+03  0.84770705250E+03  0.41800000000E+01 0.  1.
         -5    1    3    3    0  502  0.20745664406E+02 -0.38537894335E+02 -0.20993034696E+03  0.21448490592E+03  0.41800000000E+01 0.  1.
        -11    1    1    2    0    0 -0.42402148910E+02 -0.74596207188E+02 -0.23067535500E+03  0.24611715861E+03  0.00000000000E+00 0.  1.
         11    1    1    2    0    0 -0.60552882425E+02  0.17786954952E+02 -0.16411890528E+03  0.17583527066E+03  0.00000000000E+00 0. -1.
</event>
<event>
 7    1  0.2594791E-009  0.2014512E+03  0.7561462E-02  0.1148520E+00
         -2   -1    0    0    0  501 -0.00000000000E+00  0.00000000000E+00  0.83748635867E+03  0.83748635867E+03  0.00000000000E+00 0.  1.
          2   -1    0    0  501    0  0.00000000000E+00 -0.00000000000E+00 -0.50526119726E+02  0.50526119726E+02  0.00000000000E+00 0. -1.
         25    2    1    2    0    0 -0.31585619115E+02  0.16984965193E+03  0.46216573270E+03  0.50900963194E+03  0.12508831012E+03 0.  0.
          5    1    3    3  502    0  0.25366722915E+02 -0.70054088963E+01  0.44594022928E+02  0.51948490509E+02  0.41800000000E+01 0.  1.
         -5    1    3    3    0  502 -0.56952342030E+02  0.17685506083E+03  0.41757170978E+03  0.45706114143E+03  0.41800000000E+01 0.  1.
        -11    1    1    2    0    0 -0.26163178309E+02 -0.74221495191E+02  0.94005663536E+02  0.12259856045E+03  0.00000000000E+00 0.  1.
         11    1    1    2    0    0  0.57748797424E+02 -0.95628156739E+02  0.23078884270E+03  0.25640428600E+03  0.00000000000E+00 0. -1.
</event>
<event>
 7    1  0.2594791E-009  0.2899407E+03  0.7561462E-02  0.1090380E+00
         -1   -1    0    0    0  501 -0.00000000000E+00  0.00000000000E+00  0.27615565226E+03  0.27615565226E+03  0.00000000000E+00 0.  1.
          1   -1    0    0  501    0  0.00000000000E+00 -0.00000000000E+00 -0.33421807516E+03  0.33421807516E+03  0.00000000000E+00 0. -1.
         25    2    1    2    0    0 -0.14558423520E+03 -0.24062197087E+03  0.61873402796E+01  0.30787134966E+03  0.12511108007E+03 0.  0.
          5    1    3    3  502    0 -0.11733693393E+03 -0.14703239261E+03 -0.50460022298E+02  0.19480802547E+03  0.41800000000E+01 0.  1.
         -5    1    3    3    0  502 -0.28247301273E+02 -0.93589578267E+02  0.56647362577E+02  0.11306332419E+03  0.41800000000E+01 0.  1.
        -11    1    1    2    0    0  0.31247665999E+02  0.13379946874E+03 -0.13770800192E+02  0.13808819429E+03  0.00000000000E+00 0.  1.
         11    1    1    2    0    0  0.11433656920E+03  0.10682250213E+03 -0.50478962984E+02  0.16441418346E+03  0.00000000000E+00 0. -1.
</event>
<event>
 7    1  0.2594791E-009  0.9223115E+02  0.7561462E-02  0.1297537E+00
         -2   -1    0    0    0  501 -0.00000000000E+00  0.00000000000E+00  0.57827074807E+02  0.57827074807E+02  0.00000000000E+00 0.  1.
          2   -1    0    0  501    0  0.00000000000E+00 -0.00000000000E+00 -0.22994598975E+03  0.22994598975E+03  0.00000000000E+00 0. -1.
         25    2    1    2    0    0  0.24844025715E+02  0.28060825929E+02 -0.80710336425E+02  0.15351428240E+03  0.12509133035E+03 0.  0.
          5    1    3    3  502    0 -0.38177686565E+01 -0.43732933608E+02 -0.35958740974E+01  0.44244180973E+02  0.41800000000E+01 0. -1.
         -5    1    3    3    0  502  0.28661794371E+02  0.71793759537E+02 -0.77114462328E+02  0.10927010142E+03  0.41800000000E+01 0. -1.
        -11    1    1    2    0    0  0.11796101870E+02 -0.23147512668E+02 -0.93685121655E+02  0.97220663347E+02  0.00000000000E+00 0. -1.
         11    1    1    2    0    0 -0.36640127585E+02 -0.49133132609E+01  0.22765431358E+01  0.37038118814E+02  0.00000000000E+00 0.  1.
</event>
<event>
 7    1  0.2594791E-009  0.7732314E+02  0.7561462E-02  0.1336824E+00
          2   -1    0    0  501    0  0.00000000000E+00  0.00000000000E+00  0.80599984254E+02  0.80599984254E+02  0.00000000000E+00 0. -1.
         -2   -1    0    0    0  501 -0.00000000000E+00 -0.00000000000E+00 -0.20174141434E+03  0.20174141434E+03  0.00000000000E+00 0.  1.
         25    2    1    2    0    0 -0.28842025104E+02  0.27008131941E+02 -0.96047565022E+01  0.13153417238E+03  0.12509070930E+03 0.  0.
          5    1    3    3  502    0  0.32600684453E+02  0.35731721968E+02  0.30677934301E+02  0.57429684263E+02  0.41800000000E+01 0.  1.
         -5    1    3    3    0  502 -0.61442709557E+02 -0.87235900264E+01 -0.40282690803E+02  0.74104488116E+02  0.41800000000E+01 0.  1.
        -11    1    1    2    0    0  0.12359993765E+02 -0.24205870999E+02 -0.12587898161E+03  0.12877970200E+03  0.00000000000E+00 0.  1.
         11    1    1    2    0    0  0.16482031339E+02 -0.28022609422E+01  0.14342308025E+02  0.22027524212E+02  0.00000000000E+00 0. -1.
</event>
<event>
 7    1  0.2594791E-009  0.7176779E+02  0.7561462E-02  0.1354183E+00
         -4   -1    0    0    0  501 -0.00000000000E+00  0.00000000000E+00  0.61105749923E+02  0.61105749923E+02  0.00000000000E+00 0.  1.
          4   -1    0    0  501    0  0.00000000000E+00 -0.00000000000E+00 -0.30834574448E+03  0.30834574448E+03  0.00000000000E+00 0. -1.
         25    2    1    2    0    0 -0.31466829505E+02 -0.33159307885E+02 -0.41263193909E+02  0.13942523561E+03  0.12508814530E+03 0.  0.
          5    1    3    3  502    0 -0.30279361900E+01 -0.62707947230E+01  0.44408143552E+02  0.45144732559E+02  0.41800000000E+01 0. -1.
         -5    1    3    3    0  502 -0.28438893315E+02 -0.26888513162E+02 -0.85671337462E+02  0.94280503051E+02  0.41800000000E+01 0. -1.
        -11    1    1    2    0    0  0.38724328558E+02 -0.19179589906E+02 -0.13358965353E+03  0.14040522007E+03  0.00000000000E+00 0.  1.
         11    1    1    2    0    0 -0.72574990532E+01  0.52338897792E+02 -0.72387147111E+02  0.89621038721E+02  0.00000000000E+00 0. -1.
</event>
<event>
 7    1  0.2594791E-009  0.2141669E+03  0.7561462E-02  0.1138308E+00
         -2   -1    0    0    0  501 -0.00000000000E+00  0.00000000000E+00  0.14997777620E+03  0.14997777620E+03  0.00000000000E+00 0.  1.
          2   -1    0    0  501    0  0.00000000000E+00 -0.00000000000E+00 -0.35292890102E+03  0.35292890102E+03  0.00000000000E+00 0. -1.
         25    2    1    2    0    0 -0.12725902499E+03 -0.14927643268E+03 -0.14509990434E+03  0.27419086124E+03  0.12509329860E+03 0.  0.
          5    1    3    3  502    0 -0.11803545337E+02 -0.10905270202E+03 -0.78040152324E+02  0.13468315884E+03  0.41800000000E+01 0. -1.
         -5    1    3    3    0  502 -0.11545547966E+03 -0.40223730663E+02 -0.67059752013E+02  0.13950770241E+03  0.41800000000E+01 0. -1.
        -11    1    1    2    0    0  0.86929260269E+02  0.98098122482E+02 -0.87016712294E+02  0.15732719455E+03  0.00000000000E+00 0.  1.
         11    1    1    2    0    0  0.40329764725E+02  0.51178310197E+02  0.29165491809E+02  0.71388621431E+02  0.00000000000E+00 0. -1.
</event>
<event>
 7    1  0.2594791E-009  0.1191219E+03  0.7561462E-02  0.1244553E+00
         -2   -1    0    0    0  501 -0.00000000000E+00  0.00000000000E+00  0.27883771894E+02  0.27883771894E+02  0.00000000000E+00 0.  1.
          2   -1    0    0  501    0  0.00000000000E+00 -0.00000000000E+00 -0.60683872415E+03  0.60683872415E+03  0.00000000000E+00 0. -1.
         25    2    1    2    0    0 -0.30011460819E+02 -0.51422705312E+02 -0.42280544858E+03  0.44492487622E+03  0.12509482695E+03 0.  0.
          5    1    3    3  502    0 -0.74970410320E+02 -0.13824940871E+02 -0.18874552209E+03  0.20360264223E+03  0.41800000000E+01 0. -1.
         -5    1    3    3    0  502  0.44958949500E+02 -0.37597764441E+02 -0.23405992649E+03  0.24132223399E+03  0.41800000000E+01 0. -1.
        -11    1    1    2    0    0  0.71128588476E+01  0.72001006911E+02 -0.13253438557E+03  0.15099702354E+03  0.00000000000E+00 0. -1.
         11    1    1    2    0    0  0.22898601972E+02 -0.20578301599E+02 -0.23615118097E+02  0.38800596280E+02  0.00000000000E+00 0.  1.
</event>
<event>
 7    1  0.2594791E-009  0.1520100E+03  0.7561462E-02  0.1198025E+00
         -2   -1    0    0    0  501 -0.00000000000E+00  0.00000000000E+00  0.21070743149E+03  0.21070743149E+03  0.00000000000E+00 0. -1.
          2   -1    0    0  501    0  0.00000000000E+00 -0.00000000000E+00 -0.19348561345E+03  0.19348561345E+03  0.00000000000E+00 0.  1.
         25    2    1    2    0    0  0.10457317914E+03  0.10702424986E+03  0.10044907737E+03  0.21937869226E+03  0.12508898281E+03 0.  0.
          5    1    3    3  502    0  0.69124895538E+02  0.75741794782E+02  0.12834019452E+03  0.16432817345E+03  0.41800000000E+01 0. -1.
         -5    1    3    3    0  502  0.35448283598E+02  0.31282455081E+02 -0.27891117147E+02  0.55050518814E+02  0.41800000000E+01 0. -1.
        -11    1    1    2    0    0 -0.88955264378E+02 -0.68226487751E+02 -0.88272039370E+02  0.14268793091E+03  0.00000000000E+00 0.  1.
         11    1    1    2    0    0 -0.15617914758E+02 -0.38797762113E+02  0.50447800384E+01  0.42126421780E+02  0.00000000000E+00 0. -1.
</event>
<event>
 7    1  0.2594791E-009  0.8387241E+02  0.7561462E-02  0.1318408E+00
         -2   -1    0    0    0  501 -0.00000000000E+00  0.00000000000E+00  0.24593568333E+03  0.24593568333E+03  0.00000000000E+00 0.  1.
          2   -1    0    0  501    0  0.00000000000E+00 -0.00000000000E+00 -0.67693867227E+02  0.67693867227E+02  0.00000000000E+00 0. -1.
         25    2    1    2    0    0  0.52663852889E+02 -0.11702596493E+02  0.82248841774E+02  0.15913129479E+03  0.12508982710E+03 0.  0.
          5    1    3    3  502    0  0.23111410151E+02  0.37414377352E+02  0.90846491794E+02  0.10101747563E+03  0.41800000000E+01 0. -1.
         -5    1    3    3    0  502  0.29552442738E+02 -0.49116973846E+02 -0.85976500203E+01  0.58113819160E+02  0.41800000000E+01 0. -1.
        -11    1    1    2    0    0 -0.53295611029E+02 -0.10707612309E+01  0.11775379542E+03  0.12925759173E+03  0.00000000000E+00 0.  1.
         11    1    1    2    0    0  0.63175814034E+00  0.12773357724E+02 -0.21760821095E+02  0.25240664029E+02  0.00000000000E+00 0. -1.
</event>
<event>
 7    1  0.2594791E-009  0.1164552E+03  0.7561462E-02  0.1249062E+00
          1   -1    0    0  501    0  0.00000000000E+00  0.00000000000E+00  0.95516138926E+02  0.95516138926E+02  0.00000000000E+00 0. -1.
         -1   -1    0    0    0  501 -0.00000000000E+00 -0.00000000000E+00 -0.20996980418E+03  0.20996980418E+03  0.00000000000E+00 0.  1.
         25    2    1    2    0    0  0.79283570077E+02 -0.62853669921E+01 -0.15513937812E+02  0.14904246004E+03  0.12509029661E+03 0.  0.
          5    1    3    3  502    0 -0.23433917263E+02 -0.16618636434E+01 -0.36894474953E+02  0.43938422265E+02  0.41800000000E+01 0.  1.
         -5    1    3    3    0  502  0.10271748734E+03 -0.46235033487E+01  0.21380537140E+02  0.10510403778E+03  0.41800000000E+01 0.  1.
        -11    1    1    2    0    0 -0.33430317425E+02  0.37831221990E+02 -0.99107589293E+01  0.51449107115E+02  0.00000000000E+00 0. -1.
         11    1    1    2    0    0 -0.45853252652E+02 -0.31545854998E+02 -0.89028968517E+02  0.10499437595E+03  0.00000000000E+00 0.  1.
</event>
<event>
 7    1  0.2594791E-009  0.1224229E+03  0.7561462E-02  0.1239153E+00
          2   -1    0    0  501    0  0.00000000000E+00  0.00000000000E+00  0.20370571175E+03  0.20370571175E+03  0.00000000000E+00 0. -1.
         -2   -1    0    0    0  501 -0.00000000000E+00 -0.00000000000E+00 -0.14955437523E+03  0.14955437523E+03  0.00000000000E+00 0.  1.
         25    2    1    2    0    0  0.90212134749E+02 -0.46319596210E+02  0.12188545765E+03  0.20195907409E+03  0.12509064142E+03 0.  0.
          5    1    3    3  502    0  0.11245337036E+03 -0.37175792317E+02  0.13030635781E+03  0.17613920440E+03  0.41800000000E+01 0. -1.
         -5    1    3    3    0  502 -0.22241235612E+02 -0.91438038932E+01 -0.84209001604E+01  0.25819869688E+02  0.41800000000E+01 0. -1.
        -11    1    1    2    0    0 -0.13890415213E+02  0.11511950328E+02  0.22008921331E+02  0.28458061306E+02  0.00000000000E+00 0. -1.
         11    1    1    2    0    0 -0.76321719536E+02  0.34807645883E+02 -0.89743042466E+02  0.12284295159E+03  0.00000000000E+00 0.  1.
</event>
<event>
 7    1  0.2594791E-009  0.1670174E+03  0.7561462E-02  0.1180994E+00
         -2   -1    0    0    0  501 -0.00000000000E+00  0.00000000000E+00  0.11805217894E+03  0.11805217894E+03  0.00000000000E+00 0.  1.
          2   -1    0    0  501    0  0.00000000000E+00 -0.00000000000E+00 -0.26948307474E+03  0.26948307474E+03  0.00000000000E+00 0. -1.
         25    2    1    2    0    0  0.29398271894E+02  0.13230913899E+03 -0.12871955712E+03  0.22491512600E+03  0.12509245728E+03 0.  0.
          5    1    3    3  502    0  0.74803413179E+01 -0.20531675720E+02  0.23051779552E+01  0.22367196058E+02  0.41800000000E+01 0.  1.
         -5    1    3    3    0  502  0.21917930576E+02  0.15284081471E+03 -0.13102473507E+03  0.20254792994E+03  0.41800000000E+01 0.  1.
        -11    1    1    2    0    0  0.23761563163E+02 -0.13893974222E+02 -0.17695683658E+02  0.32722952552E+02  0.00000000000E+00 0. -1.
         11    1    1    2    0    0 -0.53159835056E+02 -0.11841516477E+03 -0.50156550291E+01  0.12989717513E+03  0.00000000000E+00 0.  1.
</event>
<event>
 7    1  0.2594791E-009  0.2202736E+03  0.7561462E-02  0.1133679E+00
         -3   -1    0    0    0  501 -0.00000000000E+00  0.00000000000E+00  0.70941873119E+03  0.70941873119E+03  0.00000000000E+00 0.  1.
          3   -1    0    0  501    0  0.00000000000E+00 -0.00000000000E+00 -0.82953505496E+02  0.82953505496E+02  0.00000000000E+00 0. -1.
         25    2    1    2    0    0 -0.16120367787E+03  0.13035375857E+03  0.22551581904E+03  0.33088367838E+03  0.12509154986E+03 0.  0.
          5    1    3    3  502    0 -0.14332748852E+03  0.78404824146E+02  0.22201154797E+03  0.27567496304E+03  0.41800000000E+01 0.  1.
         -5    1    3    3    0  502 -0.17876189350E+02  0.51948934429E+02  0.35042710739E+01  0.55208715342E+02  0.41800000000E+01 0.  1.
        -11    1    1    2    0    0  0.58665963096E+02 -0.98512107359E+02  0.26119211957E+03  0.28525016012E+03  0.00000000000E+00 0.  1.
         11    1    1    2    0    0  0.10253771478E+03 -0.31841651216E+02  0.13975728709E+03  0.17623839819E+03  0.00000000000E+00 0. -1.
</event>
<event>
 7    1  0.2594791E-009  0.8670737E+02  0.7561462E-02  0.1311027E+00
          1   -1    0    0  501    0  0.00000000000E+00  0.00000000000E+00  0.29088461105E+03  0.29088461105E+03  0.00000000000E+00 0. -1.
         -1   -1    0    0    0  501 -0.00000000000E+00 -0.00000000000E+00 -0.60034159729E+02  0.60034159729E+02  0.00000000000E+00 0.  1.
         25    2    1    2    0    0 -0.22954709498E+02 -0.57394713777E+02  0.18575682607E+03  0.23232336723E+03  0.12508987437E+03 0.  0.
          5    1    3    3  502    0  0.10576221958E+01 -0.31288021072E+02  0.19326341472E+03  0.19582716536E+03  0.41800000000E+01 0. -1.
         -5    1    3    3    0  502 -0.24012331694E+02 -0.26106692705E+02 -0.75065886430E+01  0.36496201863E+02  0.41800000000E+01 0. -1.
        -11    1    1    2    0    0  0.53497909870E+02  0.18380857230E+02  0.89625402376E+01  0.57273112370E+02  0.00000000000E+00 0.  1.
         11    1    1    2    0    0 -0.30543200372E+02  0.39013856546E+02  0.36131085009E+02  0.61322291179E+02  0.00000000000E+00 0. -1.
</event>
<event>
 7    1  0.2594791E-009  0.1023319E+03  0.7561462E-02  0.1275467E+00
         -2   -1    0    0    0  501 -0.00000000000E+00  0.00000000000E+00  0.27817568392E+02  0.27817568392E+02  0.00000000000E+00 0.  1.
          2   -1    0    0  501    0  0.00000000000E+00 -0.00000000000E+00 -0.49951390653E+03  0.49951390653E+03  0.00000000000E+00 0. -1.
         25    2    1    2    0    0 -0.24334099760E+02 -0.81838213585E+01 -0.17536527819E+03  0.21693038637E+03  0.12508672348E+03 0.  0.
          5    1    3    3  502    0 -0.56801480693E+02 -0.48808267738E+02 -0.93730393326E+02  0.12004796642E+03  0.41800000000E+01 0. -1.
         -5    1    3    3    0  502  0.32467380933E+02  0.40624446380E+02 -0.81634884865E+02  0.96882419949E+02  0.41800000000E+01 0. -1.
        -11    1    1    2    0    0 -0.53366075918E+01  0.36250868353E+02 -0.58063633906E+02  0.68658505805E+02  0.00000000000E+00 0.  1.
         11    1    1    2    0    0  0.29670707352E+02 -0.28067046995E+02 -0.23826742604E+03  0.24174258275E+03  0.00000000000E+00 0. -1.
</event>
<event>
 7    1  0.2594791E-009  0.1229949E+03  0.7561462E-02  0.1238237E+00
          1   -1    0    0  501    0  0.00000000000E+00  0.00000000000E+00  0.30359813946E+03  0.30359813946E+03  0.00000000000E+00 0. -1.
         -1   -1    0    0    0  501 -0.00000000000E+00 -0.00000000000E+00 -0.77412841283E+02  0.77412841283E+02  0.00000000000E+00 0.  1.
         25    2    1    2    0    0 -0.94949840029E+02 -0.51093599987E+02  0.12747460891E+03  0.20862239539E+03  0.12508996707E+03 0.  0.
          5    1    3    3  502    0 -0.17908463383E+02 -0.57011667651E+02  0.47593416881E+00  0.59906111728E+02  0.41800000000E+01 0. -1.
         -5    1    3    3    0  502 -0.77041376646E+02  0.59180676636E+01  0.12699867474E+03  0.14871628367E+03  0.41800000000E+01 0. -1.
        -11    1    1    2    0    0  0.71112594199E+02  0.44808282155E+02  0.15328504742E+02  0.85438552545E+02  0.00000000000E+00 0.  1.
         11    1    1    2    0    0  0.23837245830E+02  0.62853178329E+01  0.83382184524E+02  0.86950032806E+02  0.00000000000E+00 0. -1.
</event>
<event>
 7    1  0.2594791E-009  0.1303407E+03  0.7561462E-02  0.1226951E+00
         -2   -1    0    0    0  501 -0.00000000000E+00  0.00000000000E+00  0.97132406117E+02  0.97132406117E+02  0.00000000000E+00 0.  1.
          2   -1    0    0  501    0  0.00000000000E+00 -0.00000000000E+00 -0.18027292762E+03  0.18027292762E+03  0.00000000000E+00 0. -1.
         25    2    1    2    0    0 -0.69466703072E+02  0.18906744615E+02 -0.57096600322E+02  0.15521195634E+03  0.12509053439E+03 0.  0.
          5    1    3    3  502    0  0.24890145026E+01  0.58783482584E+02 -0.39476769787E+02  0.70975916836E+02  0.41800000000E+01 0.  1.
         -5    1    3    3    0  502 -0.71955717574E+02 -0.39876737969E+02 -0.17619830535E+02  0.84236039501E+02  0.41800000000E+01 0.  1.
        -11    1    1    2    0    0  0.34639832052E+02  0.38743550674E+02 -0.13287829018E+02  0.53642772890E+02  0.00000000000E+00 0.  1.
         11    1    1    2    0    0  0.34826871020E+02 -0.57650295288E+02 -0.12756092167E+02  0.68550604514E+02  0.00000000000E+00 0. -1.
</event>
<event>
 7    1  0.2594791E-009  0.1091852E+03  0.7561462E-02  0.1262086E+00
          2   -1    0    0  501    0  0.00000000000E+00  0.00000000000E+00  0.96062096177E+03  0.96062096177E+03  0.00000000000E+00 0. -1.
         -2   -1    0    0    0  501 -0.00000000000E+00 -0.00000000000E+00 -0.14485102602E+02  0.14485102602E+02  0.00000000000E+00 0.  1.
         25    2    1    2    0    0  0.13429587907E+01  0.40363661399E+02  0.62278552668E+03  0.63650613480E+03  0.12508884323E+03 0.  0.
          5    1    3    3  502    0  0.31140158247E+02 -0.30197925530E+02  0.36375180099E+03  0.36635292996E+03  0.41800000000E+01 0. -1.
         -5    1    3    3    0  502 -0.29797199456E+02  0.70561586930E+02  0.25903372569E+03  0.27015320485E+03  0.41800000000E+01 0. -1.
        -11    1    1    2    0    0 -0.45366500124E+02 -0.20828850522E+02  0.20112586749E+03  0.20722831592E+03  0.00000000000E+00 0. -1.
         11    1    1    2    0    0  0.44023541333E+02 -0.19534810878E+02  0.12222446500E+03  0.13137161365E+03  0.00000000000E+00 0.  1.
</event>
<event>
 7    1  0.2594791E-009  0.9957671E+02  0.7561462E-02  0.1281189E+00
          2   -1    0    0  501    0  0.00000000000E+00  0.00000000000E+00  0.35735726546E+03  0.35735726546E+03  0.00000000000E+00 0. -1.
         -2   -1    0    0    0  501 -0.00000000000E+00 -0.00000000000E+00 -0.34208419717E+02  0.34208419717E+02  0.00000000000E+00 0.  1.
         25    2    1    2    0    0 -0.51451666676E+01 -0.16408289515E+02  0.16571672056E+03  0.20833799757E+03  0.12508790930E+03 0.  0.
          5    1    3    3  502    0 -0.78223208899E+01 -0.62695426426E+02  0.14330677746E+03  0.15667230152E+03  0.41800000000E+01 0.  1.
         -5    1    3    3    0  502  0.26771542222E+01  0.46287136912E+02  0.22409943101E+02  0.51665696047E+02  0.41800000000E+01 0.  1.
        -11    1    1    2    0    0 -0.11651408679E+02  0.50205796509E+02  0.11737128673E+03  0.12818890855E+03  0.00000000000E+00 0. -1.
         11    1    1    2    0    0  0.16796575346E+02 -0.33797506994E+02  0.40060838456E+02  0.55038779058E+02  0.00000000000E+00 0.  1.
</event>
<event>
 7    1  0.2594791E-009  0.1432134E+03  0.7561462E-02  0.1209069E+00
          2   -1    0    0  501    0  0.00000000000E+00  0.00000000000E+00  0.15727766861E+04  0.15727766861E+04  0.00000000000E+00 0. -1.
         -2   -1    0    0    0  501 -0.00000000000E+00 -0.00000000000E+00 -0.14596012768E+02  0.14596012768E+02  0.00000000000E+00 0.  1.
         25    2    1    2    0    0 -0.40220928900E+02  0.91252823002E+02  0.10118793646E+04  0.10244472943E+04  0.12509040568E+03 0.  0.
          5    1    3    3  502    0 -0.54540733658E+02  0.11237610033E+03  0.93543597670E+03  0.94374838726E+03  0.41800000000E+01 0.  1.
         -5    1    3    3    0  502  0.14319804758E+02 -0.21123277328E+02  0.76443387881E+02  0.80698907081E+02  0.41800000000E+01 0.  1.
        -11    1    1    2    0    0 -0.29949349929E+02 -0.23837678935E+02  0.14055182679E+03  0.14567091169E+03  0.00000000000E+00 0.  1.
         11    1    1    2    0    0  0.70170278829E+02 -0.67415144067E+02  0.40574948196E+03  0.41725449283E+03  0.00000000000E+00 0. -1.
</event>
<event>
 7    1  0.2594791E-009  0.1283567E+03  0.7561462E-02  0.1229915E+00
         -2   -1    0    0    0  501 -0.00000000000E+00  0.00000000000E+00  0.12424621942E+03  0.12424621942E+03  0.00000000000E+00 0.  1.
          2   -1    0    0  501    0  0.00000000000E+00 -0.00000000000E+00 -0.21274271175E+03  0.21274271175E+03  0.00000000000E+00 0. -1.
         25    2    1    2    0    0 -0.84836016163E+02 -0.21390348666E+02  0.32926536279E+02  0.15616181196E+03  0.12509059944E+03 0.  0.
          5    1    3    3  502    0  0.11732341915E+02 -0.27513565750E+02  0.49417354217E+02  0.57915381764E+02  0.41800000000E+01 0.  1.
         -5    1    3    3    0  502 -0.96568358078E+02  0.61232170836E+01 -0.16490817938E+02  0.98246430192E+02  0.41800000000E+01 0.  1.
        -11    1    1    2    0    0  0.10045185410E+03  0.37500251629E+02 -0.11555090617E+03  0.15763519842E+03  0.00000000000E+00 0. -1.
         11    1    1    2    0    0 -0.15615837942E+02 -0.16109902963E+02 -0.58721224310E+01  0.23191920790E+02  0.00000000000E+00 0.  1.
</event>
<event>
 7    1  0.2594791E-009  0.8973096E+02  0.7561462E-02  0.1303505E+00
         -2   -1    0    0    0  501 -0.00000000000E+00  0.00000000000E+00  0.10688596558E+03  0.10688596558E+03  0.00000000000E+00 0.  1.
          2   -1    0    0  501    0  0.00000000000E+00 -0.00000000000E+00 -0.17007411456E+03  0.17007411456E+03  0.00000000000E+00 0. -1.
         25    2    1    2    0    0 -0.56636084204E+02 -0.46053164446E+02 -0.21886655615E+01  0.14484808119E+03  0.12509051274E+03 0.  0.
          5    1    3    3  502    0 -0.21377546773E+02 -0.18367288968E+02 -0.63023169509E+02  0.69164652135E+02  0.41800000000E+01 0. -1.
         -5    1    3    3    0  502 -0.35258537431E+02 -0.27685875479E+02  0.60834503947E+02  0.75683429053E+02  0.41800000000E+01 0. -1.
        -11    1    1    2    0    0  0.36963387651E+02 -0.16421249026E+02  0.29726968761E+01  0.40555965936E+02  0.00000000000E+00 0.  1.
         11    1    1    2    0    0  0.19672696553E+02  0.62474413473E+02 -0.63972180300E+02  0.91556033011E+02  0.00000000000E+00 0. -1.
</event>
<event>
 7    1  0.2594791E-009  0.1816193E+03  0.7561462E-02  0.1166245E+00
         -1   -1    0    0    0  501 -0.00000000000E+00  0.00000000000E+00  0.16388865519E+03  0.16388865519E+03  0.00000000000E+00 0.  1.
          1   -1    0    0  501    0  0.00000000000E+00 -0.00000000000E+00 -0.21804226300E+03  0.21804226300E+03  0.00000000000E+00 0. -1.
         25    2    1    2    0    0  0.21730353890E+02  0.15202498281E+03 -0.11007453404E+02  0.19837687875E+03  0.12509363818E+03 0.  0.
          5    1    3    3  502    0  0.53917548919E+02  0.14044254078E+03  0.20249767566E+02  0.15185102841E+03  0.41800000000E+01 0.  1.
         -5    1    3    3    0  502 -0.32187195029E+02  0.11582442031E+02 -0.31257220971E+02  0.46525850342E+02  0.41800000000E+01 0.  1.
        -11    1    1    2    0    0 -0.41704263182E+02 -0.22815120133E+02 -0.84281996295E+01  0.48278461276E+02  0.00000000000E+00 0. -1.
         11    1    1    2    0    0  0.19973909292E+02 -0.12920986268E+03 -0.34717954778E+02  0.13527557817E+03  0.00000000000E+00 0.  1.
</event>
<event>
 6    1  0.2594791E-009  0.1501554E+03  0.7561462E-02  0.1200282E+00
          3   -1    0    0  501    0  0.00000000000E+00  0.00000000000E+00  0.12149700165E+03  0.12149700165E+03  0.00000000000E+00 0. -1.
         -3   -1    0    0    0  501 -0.00000000000E+00 -0.00000000000E+00 -0.26113834923E+03  0.26113834923E+03  0.00000000000E+00 0.  1.
          5    1    1    2  502    0  0.59523149400E+02 -0.58822848354E+02  0.32116414480E+02  0.89733323142E+02  0.41800000000E+01 0.  1.
         -5    1    1    2    0  502  0.69881223851E+02  0.17426960121E+02 -0.66409491372E+02  0.98054970961E+02  0.41800000000E+01 0.  1.
        -11    1    1    2    0    0 -0.29942725791E+02 -0.11075248914E+02  0.10293177725E+02  0.33543665184E+02  0.00000000000E+00 0. -1.
         11    1    1    2    0    0 -0.99461647461E+02  0.52471137148E+02 -0.11564144841E+03  0.16130339159E+03  0.00000000000E+00 0.  1.
</event>
<event>
 7    1  0.2594791E-009  0.1024844E+03  0.7561462E-02  0.1275157E+00
         -1   -1    0    0    0  501 -0.00000000000E+00  0.00000000000E+00  0.41174329971E+02  0.41174329971E+02  0.00000000000E+00 0.  1.
          1   -1    0    0  501    0  0.00000000000E+00 -0.00000000000E+00 -0.40539961989E+03  0.40539961989E+03  0.00000000000E+00 0. -1.
         25    2    1    2    0    0 -0.69001879495E+02  0.13805649054E+02 -0.19895904700E+03  0.24532442250E+03  0.12509002588E+03 0.  0.
          5    1    3    3  502    0  0.54833847633E-01  0.29317061737E+02 -0.16329641404E+03  0.16595988779E+03  0.41800000000E+01 0.  1.
         -5    1    3    3    0  502 -0.69056713343E+02 -0.15511412683E+02 -0.35662632956E+02  0.79364534715E+02  0.41800000000E+01 0.  1.
        -11    1    1    2    0    0  0.65073261649E+02  0.21803902709E+02 -0.14417675417E+03  0.15967741230E+03  0.00000000000E+00 0. -1.
         11    1    1    2    0    0  0.39286178459E+01 -0.35609551763E+02 -0.21089488753E+02  0.41572115063E+02  0.00000000000E+00 0.  1.
</event>
<event>
 7    1  0.2594791E-009  0.9009712E+02  0.7561462E-02  0.1302617E+00
          1   -1    0    0  501    0  0.00000000000E+00  0.00000000000E+00  0.92066093579E+02  0.92066093579E+02  0.00000000000E+00 0. -1.
         -1   -1    0    0    0  501 -0.00000000000E+00 -0.00000000000E+00 -0.15259003930E+03  0.15259003930E+03  0.00000000000E+00 0.  1.
         25    2    1    2    0    0 -0.12709366300E+02 -0.34876456631E+02 -0.72160256024E+01  0.13068005334E+03  0.12508920856E+03 0.  0.
          5    1    3    3  502    0  0.13281668476E+02  0.38723392795E+02 -0.28030104340E+02  0.49790189961E+02  0.41800000000E+01 0. -1.
         -5    1    3    3    0  502 -0.25991034776E+02 -0.73599849426E+02  0.20814078738E+02  0.80889863382E+02  0.41800000000E+01 0. -1.
        -11    1    1    2    0    0  0.30160983027E+02  0.12872550450E+02 -0.72763020400E+02  0.79811306153E+02  0.00000000000E+00 0.  1.
         11    1    1    2    0    0 -0.17451616727E+02  0.22003906181E+02  0.19455100279E+02  0.34164773385E+02  0.00000000000E+00 0. -1.
</event>
<event>
 7    1  0.2594791E-009  0.1036088E+03  0.7561462E-02  0.1272885E+00
         -1   -1    0    0    0  501 -0.00000000000E+00  0.00000000000E+00  0.42331835348E+02  0.42331835348E+02  0.00000000000E+00 0.  1.
          1   -1    0    0  501    0  0.00000000000E+00 -0.00000000000E+00 -0.42462531003E+03  0.42462531003E+03  0.00000000000E+00 0. -1.
         25    2    1    2    0    0 -0.33940503146E+02 -0.11364062043E+01 -0.33980090590E+03  0.36368179324E+03  0.12508613798E+03 0.  0.
          5    1    3    3  502    0 -0.59150573673E+02  0.42209100954E+02 -0.14183067219E+03  0.15941709615E+03  0.41800000000E+01 0. -1.
         -5    1    3    3    0  502  0.25210070527E+02 -0.43345507158E+02 -0.19797023370E+03  0.20426469710E+03  0.41800000000E+01 0. -1.
        -11    1    1    2    0    0  0.14423617684E+02  0.38963975906E+02  0.21355624660E+01  0.41602797893E+02  0.00000000000E+00 0.  1.
         11    1    1    2    0    0  0.19516885462E+02 -0.37827569701E+02 -0.44628131245E+02  0.61672554237E+02  0.00000000000E+00 0. -1.
</event>
<event>
 7    1  0.2594791E-009  0.3866727E+03  0.7561462E-02  0.1048495E+00
         -1   -1    0    0    0  501 -0.00000000000E+00  0.00000000000E+00  0.10921046090E+03  0.10921046090E+03  0.00000000000E+00 0.  1.
          1   -1    0    0  501    0  0.00000000000E+00 -0.00000000000E+00 -0.17083284184E+04  0.17083284184E+04  0.00000000000E+00 0. -1.
         25    2    1    2    0    0  0.16897916118E+02  0.37802056515E+03 -0.11806232804E+04  0.12460753907E+04  0.12508981519E+03 0.  0.
          5    1    3    3  502    0 -0.44340111083E+02  0.23294878237E+03 -0.62252245992E+03  0.66617029817E+03  0.41800000000E+01 0.  1.
         -5    1    3    3    0  502  0.61238027201E+02  0.14507178279E+03 -0.55810082045E+03  0.57990509252E+03  0.41800000000E+01 0.  1.
        -11    1    1    2    0    0 -0.79652569904E+00 -0.17334683692E+03 -0.25819647405E+03  0.31099064220E+03  0.00000000000E+00 0. -1.
         11    1    1    2    0    0 -0.16101390419E+02 -0.20467372824E+03 -0.16029820303E+03  0.26047284637E+03  0.00000000000E+00 0.  1.
</event>
<event>
 7    1  0.2594791E-009  0.1144336E+03  0.7561462E-02  0.1252573E+00
          1   -1    0    0  501    0  0.00000000000E+00  0.00000000000E+00  0.27790940435E+03  0.27790940435E+03  0.00000000000E+00 0. -1.
         -1   -1    0    0    0  501 -0.00000000000E+00 -0.00000000000E+00 -0.47455374546E+02  0.47455374546E+02  0.00000000000E+00 0.  1.
         25    2    1    2    0    0  0.39008024239E+02 -0.13888546462E+01  0.12014040722E+03  0.17780761887E+03  0.12513303725E+03 0.  0.
          5    1    3    3  502    0  0.28097233446E+02 -0.62539852012E+02  0.59009613286E+02  0.90555477345E+02  0.41800000000E+01 0. -1.
         -5    1    3    3    0  502  0.10910790792E+02  0.61150997366E+02  0.61130793930E+02  0.87252141527E+02  0.41800000000E+01 0. -1.
        -11    1    1    2    0    0  0.26789074976E+02 -0.14175053790E+02  0.36918161934E+02  0.47765441153E+02  0.00000000000E+00 0.  1.
         11    1    1    2    0    0 -0.65797099214E+02  0.15563908436E+02  0.73395460659E+02  0.99791718876E+02  0.00000000000E+00 0. -1.
</event>
<event>
 7    1  0.2594791E-009  0.1137003E+03  0.7561462E-02  0.1253867E+00
          1   -1    0    0  501    0  0.00000000000E+00  0.00000000000E+00  0.11137052902E+04  0.11137052902E+04  0.00000000000E+00 0. -1.
         -1   -1    0    0    0  501 -0.00000000000E+00 -0.00000000000E+00 -0.15219149699E+02  0.15219149699E+02  0.00000000000E+00 0.  1.
         25    2    1    2    0    0  0.10258226373E+02 -0.51540652589E+02  0.82447610275E+03  0.83556611856E+03  0.12509286311E+03 0.  0.
          5    1    3    3  502    0 -0.50324995323E+02 -0.90112928622E+01  0.50508841130E+03  0.50768650187E+03  0.41800000000E+01 0.  1.
         -5    1    3    3    0  502  0.60583221697E+02 -0.42529359727E+02  0.31938769145E+03  0.32787961669E+03  0.41800000000E+01 0.  1.
        -11    1    1    2    0    0  0.12192030436E+02  0.71132025916E+02  0.16007746183E+03  0.17559386237E+03  0.00000000000E+00 0.  1.
         11    1    1    2    0    0 -0.22450256809E+02 -0.19591373327E+02  0.11393257596E+03  0.11776445900E+03  0.00000000000E+00 0. -1.
</event>
<event>
 7    1  0.2594791E-009  0.1417637E+03  0.7561462E-02  0.1210975E+00
          2   -1    0    0  501    0  0.00000000000E+00  0.00000000000E+00  0.10160401328E+04  0.10160401328E+04  0.00000000000E+00 0.  1.
         -2   -1    0    0    0  501 -0.00000000000E+00 -0.00000000000E+00 -0.23283823591E+02  0.23283823591E+02  0.00000000000E+00 0. -1.
         25    2    1    2    0    0 -0.10375407020E+03  0.69024504095E+01  0.43124896181E+03  0.46090802650E+03  0.12509192988E+03 0.  0.
          5    1    3    3  502    0 -0.11371255636E+03  0.44047340067E+02  0.35543564646E+03  0.37579606812E+03  0.41800000000E+01 0.  1.
         -5    1    3    3    0  502  0.99584861546E+01 -0.37144889658E+02  0.75813315353E+02  0.85111958379E+02  0.41800000000E+01 0.  1.
        -11    1    1    2    0    0  0.10864727524E+03  0.62168700018E+01  0.54886946434E+03  0.55955390158E+03  0.00000000000E+00 0.  1.
         11    1    1    2    0    0 -0.48932050400E+01 -0.13119320411E+02  0.12637883036E+02  0.18862028291E+02  0.00000000000E+00 0. -1.
</event>
<event>
 7    1  0.2594791E-009  0.7814723E+02  0.7561462E-02  0.1334393E+00
          1   -1    0    0  501    0  0.00000000000E+00  0.00000000000E+00  0.76973874483E+03  0.76973874483E+03  0.00000000000E+00 0. -1.
         -1   -1    0    0    0  501 -0.00000000000E+00 -0.00000000000E+00 -0.16878587123E+02  0.16878587123E+02  0.00000000000E+00 0.  1.
         25    2    1    2    0    0 -0.21639864329E+01 -0.33240657544E+02  0.46808238520E+03  0.48565196276E+03  0.12508831059E+03 0.  0.
          5    1    3    3  502    0  0.29982843970E+02 -0.37699267787E+02  0.43965585939E+03  0.44230640151E+03  0.41800000000E+01 0. -1.
         -5    1    3    3    0  502 -0.32146830403E+02  0.44586102424E+01  0.28426525818E+02  0.43345561252E+02  0.41800000000E+01 0. -1.
        -11    1    1    2    0    0  0.27135152554E+00 -0.20973428508E+02  0.14997917873E+02  0.25785574951E+02  0.00000000000E+00 0.  1.
         11    1    1    2    0    0  0.18926349074E+01  0.54214086052E+02  0.26977985463E+03  0.27517979424E+03  0.00000000000E+00 0. -1.
</event>
<event>
 7    1  0.2594791E-009  0.1440285E+03  0.7561462E-02  0.1208009E+00
         -2   -1    0    0    0  501 -0.00000000000E+00  0.00000000000E+00  0.19455344873E+03  0.19455344873E+03  0.00000000000E+00 0. -1.
          2   -1    0    0  501    0  0.00000000000E+00 -0.00000000000E+00 -0.11730411281E+03  0.11730411281E+03  0.00000000000E+00 0.  1.
         25    2    1    2    0    0  0.86528280161E+02  0.46134280996E+02  0.29839801562E+01  0.15897177951E+03  0.12509039689E+03 0.  0.
          5    1    3    3  502    0 -0.95480365595E+01 -0.31302720751E+02 -0.10848586613E+02  0.34730239850E+02  0.41800000000E+01 0.  1.
         -5    1    3    3    0  502  0.96076316720E+02  0.77437001747E+02  0.13832566770E+02  0.12424153966E+03  0.41800000000E+01 0.  1.
        -11    1    1    2    0    0  0.14837993823E+02  0.78112365430E+01  0.12597270952E+01  0.16815718521E+02  0.00000000000E+00 0.  1.
         11    1    1    2    0    0 -0.10136627398E+03 -0.53945517539E+02  0.73005628671E+02  0.13607006350E+03  0.00000000000E+00 0. -1.
</event>
<event>
 7    1  0.2594791E-009  0.1095916E+03  0.7561462E-02  0.1261328E+00
          2   -1    0    0  501    0  0.00000000000E+00  0.00000000000E+00  0.41058818607E+03  0.41058818607E+03  0.00000000000E+00 0. -1.
         -2   -1    0    0    0  501 -0.00000000000E+00 -0.00000000000E+00 -0.57019845810E+02  0.57019845810E+02  0.00000000000E+00 0.  1.
         25    2    1    2    0    0 -0.12716868463E+00 -0.46459313307E+02  0.33895285167E+03  0.36427779455E+03  0.12510312537E+03 0.  0.
          5    1    3    3  502    0 -0.60876699439E+02 -0.13867029375E+02  0.19119470675E+03  0.20117444005E+03  0.41800000000E+01 0.  1.
         -5    1    3    3    0  502  0.60749530755E+02 -0.32592283932E+02  0.14775814492E+03  0.16310335450E+03  0.41800000000E+01 0.  1.
        -11    1    1    2    0    0 -0.36439428361E+02  0.15387027769E+02 -0.19843962285E+02  0.44253535474E+02  0.00000000000E+00 0.  1.
         11    1    1    2    0    0  0.36566597045E+02  0.31072285538E+02  0.34459450874E+02  0.59076701859E+02  0.00000000000E+00 0. -1.
</event>
<event>
 7    1  0.2594791E-009  0.1800099E+03  0.7561462E-02  0.1167793E+00
          1   -1    0    0  501    0  0.00000000000E+00  0.00000000000E+00  0.46798197557E+03  0.46798197557E+03  0.00000000000E+00 0. -1.
         -1   -1    0    0    0  501 -0.00000000000E+00 -0.00000000000E+00 -0.82178103835E+02  0.82178103835E+02  0.00000000000E+00 0.  1.
         25    2    1    2    0    0 -0.13885196013E+03 -0.81385391892E+02  0.24193391914E+03  0.31635900250E+03  0.12509016103E+03 0.  0.
          5    1    3    3  502    0 -0.10120364731E+03 -0.10485896336E+03  0.12795507588E+03  0.19397823143E+03  0.41800000000E+01 0. -1.
         -5    1    3    3    0  502 -0.37648312822E+02  0.23473571469E+02  0.11397884326E+03  0.12238077107E+03  0.41800000000E+01 0. -1.
        -11    1    1    2    0    0  0.22098121716E+02 -0.70544868184E+01 -0.62922853597E+01  0.24035091485E+02  0.00000000000E+00 0.  1.
         11    1    1    2    0    0  0.11675383842E+03  0.88439878710E+02  0.15016223795E+03  0.20976598542E+03  0.00000000000E+00 0. -1.
</event>
<event>
 7    1  0.2594791E-009  0.9806384E+02  0.7561462E-02  0.1284421E+00
          4   -1    0    0  501    0  0.00000000000E+00  0.00000000000E+00  0.42997823573E+03  0.42997823573E+03  0.00000000000E+00 0. -1.
         -4   -1    0    0    0  501 -0.00000000000E+00 -0.00000000000E+00 -0.28988690557E+02  0.28988690557E+02  0.00000000000E+00 0.  1.
         25    2    1    2    0    0  0.89828408858E+01  0.11606925555E+02  0.17903615336E+03  0.21890166807E+03  0.12509430012E+03 0.  0.
          5    1    3    3  502    0 -0.67817908845E+01  0.67136443673E+02  0.10582609885E+03  0.12557838331E+03  0.41800000000E+01 0.  1.
         -5    1    3    3    0  502  0.15764631770E+02 -0.55529518118E+02  0.73210054515E+02  0.93323284765E+02  0.41800000000E+01 0.  1.
        -11    1    1    2    0    0  0.10643264259E+02  0.26072258066E+02  0.22242360243E+02  0.35885433032E+02  0.00000000000E+00 0.  1.
         11    1    1    2    0    0 -0.19626105145E+02 -0.37679183621E+02  0.19971103157E+03  0.20417982518E+03  0.00000000000E+00 0. -1.
</event>
<event>
 7    1  0.2594791E-009  0.1012254E+03  0.7561462E-02  0.1277740E+00
         -2   -1    0    0    0  501 -0.00000000000E+00  0.00000000000E+00  0.16069963960E+02  0.16069963960E+02  0.00000000000E+00 0.  1.
          2   -1    0    0  501    0  0.00000000000E+00 -0.00000000000E+00 -0.10225561548E+04  0.10225561548E+04  0.00000000000E+00 0. -1.
         25    2    1    2    0    0  0.25625909609E+02  0.53966064938E+02 -0.68845598182E+03  0.70227345425E+03  0.12508933696E+03 0.  0.
          5    1    3    3  502    0  0.69036010409E+02  0.48076724500E+02 -0.30901400074E+03  0.32028810035E+03  0.41800000000E+01 0. -1.
         -5    1    3    3    0  502 -0.43410100799E+02  0.58893404374E+01 -0.37944198109E+03  0.38198535390E+03  0.41800000000E+01 0. -1.
        -11    1    1    2    0    0  0.12422704035E+02 -0.17894145510E+02 -0.10135883186E+02  0.24026238720E+02  0.00000000000E+00 0.  1.
         11    1    1    2    0    0 -0.38048613644E+02 -0.36071919428E+02 -0.30789432580E+03  0.31232642576E+03  0.00000000000E+00 0. -1.
</event>
<event>
 7    1  0.2594791E-009  0.1286702E+03  0.7561462E-02  0.1229442E+00
         -2   -1    0    0    0  501 -0.00000000000E+00  0.00000000000E+00  0.81305002030E+02  0.81305002030E+02  0.00000000000E+00 0.  1.
          2   -1    0    0  501    0  0.00000000000E+00 -0.00000000000E+00 -0.31477709910E+03  0.31477709910E+03  0.00000000000E+00 0. -1.
         25    2    1    2    0    0 -0.81260210847E+02  0.55430635633E+02 -0.20062325878E+03  0.25607348784E+03  0.12509261360E+03 0.  0.
          5    1    3    3  502    0 -0.73953314079E+02 -0.14915816351E+01 -0.18050340448E+03  0.19511603960E+03  0.41800000000E+01 0.  1.
         -5    1    3    3    0  502 -0.73068967687E+01  0.56922217268E+02 -0.20119854301E+02  0.60957448242E+02  0.41800000000E+01 0.  1.
        -11    1    1    2    0    0  0.37090083330E+02  0.17059808021E+02 -0.36892271232E+02  0.55025003479E+02  0.00000000000E+00 0. -1.
         11    1    1    2    0    0  0.44170127517E+02 -0.72490443654E+02  0.40434329485E+01  0.84983609808E+02  0.00000000000E+00 0.  1.
</event>
<event>
 7    1  0.2594791E-009  0.1193206E+03  0.7561462E-02  0.1244222E+00
         -1   -1    0    0    0  501 -0.00000000000E+00  0.00000000000E+00  0.16385396543E+02  0.16385396543E+02  0.00000000000E+00 0.  1.
          1   -1    0    0  501    0  0.00000000000E+00 -0.00000000000E+00 -0.95320845745E+03  0.95320845745E+03  0.00000000000E+00 0. -1.
         25    2    1    2    0    0 -0.32745737745E+02 -0.53243713372E+02 -0.52009978157E+03  0.53857028294E+03  0.12508793117E+03 0.  0.
          5    1    3    3  502    0 -0.14262929428E+02  0.35162421823E+02 -0.72565022447E+02  0.81993792125E+02  0.41800000000E+01 0.  1.
         -5    1    3    3    0  502 -0.18482808317E+02 -0.88406135196E+02 -0.44753475912E+03  0.45657649082E+03  0.41800000000E+01 0.  1.
        -11    1    1    2    0    0  0.61168700244E+02  0.16045563904E+02 -0.23286382969E+03  0.24129781016E+03  0.00000000000E+00 0. -1.
         11    1    1    2    0    0 -0.28422962499E+02  0.37198149468E+02 -0.18385944965E+03  0.18972576089E+03  0.00000000000E+00 0.  1.
</event>
<event>
 7    1  0.2594791E-009  0.2757714E+03  0.7561462E-02  0.1098021E+00
         -2   -1    0    0    0  501 -0.00000000000E+00  0.00000000000E+00  0.20963545077E+03  0.20963545077E+03  0.00000000000E+00 0. -1.
          2   -1    0    0  501    0  0.00000000000E+00 -0.00000000000E+00 -0.10404665627E+04  0.10404665627E+04  0.00000000000E+00 0.  1.
         25    2    1    2    0    0  0.48876461713E+02  0.25615609148E+03  0.78541949661E+02  0.29969902690E+03  0.12508324091E+03 0.  0.
          5    1    3    3  502    0  0.44893829748E+02  0.26882895448E+03  0.83226293196E+02  0.28500622974E+03  0.41800000000E+01 0. -1.
         -5    1    3    3    0  502  0.39826319652E+01 -0.12672862997E+02 -0.46843435351E+01  0.14692797156E+02  0.41800000000E+01 0. -1.
        -11    1    1    2    0    0 -0.29614660516E+02 -0.51001341862E+02 -0.33580158768E+03  0.34094115515E+03  0.00000000000E+00 0.  1.
         11    1    1    2    0    0 -0.19261801197E+02 -0.20515474962E+03 -0.57357147393E+03  0.60946183144E+03  0.00000000000E+00 0. -1.
</event>
<event>
 7    1  0.2594791E-009  0.1140795E+03  0.7561462E-02  0.1253196E+00
         -2   -1    0    0    0  501 -0.00000000000E+00  0.00000000000E+00  0.25192076592E+03  0.25192076592E+03  0.00000000000E+00 0.  1.
          2   -1    0    0  501    0  0.00000000000E+00 -0.00000000000E+00 -0.65874326622E+02  0.65874326622E+02  0.00000000000E+00 0. -1.
         25    2    1    2    0    0 -0.22531885002E+02  0.56653159015E+02  0.63635099691E+02  0.15300928013E+03  0.12508056454E+03 0.  0.
          5    1    3    3  502    0  0.15878802905E+02 -0.28962103447E+02 -0.87508151564E+01  0.34423668946E+02  0.41800000000E+01 0.  1.
         -5    1    3    3    0  502 -0.38410687908E+02  0.85615262462E+02  0.72385914848E+02  0.11858561119E+03  0.41800000000E+01 0.  1.
        -11    1    1    2    0    0  0.31970195465E+02  0.10093469282E+02  0.75645047940E+02  0.82741433382E+02  0.00000000000E+00 0. -1.
         11    1    1    2    0    0 -0.94383104623E+01 -0.66746628297E+02  0.46766291662E+02  0.82044379023E+02  0.00000000000E+00 0.  1.
</event>
<event>
 7    1  0.2594791E-009  0.1286285E+03  0.7561462E-02  0.1229505E+00
         -2   -1    0    0    0  501 -0.00000000000E+00  0.00000000000E+00  0.92990534759E+02  0.92990534759E+02  0.00000000000E+00 0.  1.
          2   -1    0    0  501    0  0.00000000000E+00 -0.00000000000E+00 -0.23443375814E+03  0.23443375814E+03  0.00000000000E+00 0. -1.
         25    2    1    2    0    0 -0.10002972434E+03 -0.38382700475E+01 -0.76525569753E+02  0.17754927547E+03  0.12508758662E+03 0.  0.
          5    1    3    3  502    0  0.27979274397E+02 -0.81514953957E+00 -0.30017898294E+02  0.41255919364E+02  0.41800000000E+01 0.  1.
         -5    1    3    3    0  502 -0.12800899874E+03 -0.30231205079E+01 -0.46507671459E+02  0.13629335611E+03  0.41800000000E+01 0.  1.
        -11    1    1    2    0    0  0.60979595836E+02  0.82861466232E+01 -0.85629112254E+02  0.10544911664E+03  0.00000000000E+00 0. -1.
         11    1    1    2    0    0  0.39050128502E+02 -0.44478765758E+01  0.20711458629E+02  0.44425900786E+02  0.00000000000E+00 0.  1.
</event>
<event>
 7    1  0.2594791E-009  0.1009595E+03  0.7561462E-02  0.1278291E+00
          2   -1    0    0  501    0  0.00000000000E+00  0.00000000000E+00  0.58965225375E+03  0.58965225375E+03  0.00000000000E+00 0. -1.
         -2   -1    0    0    0  501 -0.00000000000E+00 -0.00000000000E+00 -0.43280449267E+02  0.43280449267E+02  0.00000000000E+00 0.  1.
         25    2    1    2    0    0 -0.28547467474E+01  0.71861975154E+02  0.47894711513E+03  0.50021028019E+03  0.12509073614E+03 0.  0.
          5    1    3    3  502    0  0.22837933914E+02  0.57210702733E+02  0.46151205786E+03  0.46562376193E+03  0.41800000000E+01 0. -1.
         -5    1    3    3    0  502 -0.25692680662E+02  0.14651272421E+02  0.17435057275E+02  0.34586518260E+02  0.41800000000E+01 0. -1.
        -11    1    1    2    0    0 -0.28659006734E+02 -0.73357579298E+02  0.31269622575E+02  0.84737609144E+02  0.00000000000E+00 0. -1.
         11    1    1    2    0    0  0.31513753481E+02  0.14956041434E+01  0.36155066782E+02  0.47984813683E+02  0.00000000000E+00 0.  1.
</event>
<event>
 7    1  0.2594791E-009  0.9734023E+02  0.7561462E-02  0.1285991E+00
          1   -1    0    0  501    0  0.00000000000E+00  0.00000000000E+00  0.34077492212E+02  0.34077492212E+02  0.00000000000E+00 0. -1.
         -1   -1    0    0    0  501 -0.00000000000E+00 -0.00000000000E+00 -0.61227825199E+03  0.61227825199E+03  0.00000000000E+00 0.  1.
         25    2    1    2    0    0  0.37832828464E+02 -0.64264247319E+02 -0.18666238795E+03  0.23675374029E+03  0.12509304567E+03 0.  0.
          5    1    3    3  502    0  0.12856660494E+02 -0.31849843034E+02  0.98559764445E+01  0.35976643701E+02  0.41800000000E+01 0. -1.
         -5    1    3    3    0  502  0.24976167970E+02 -0.32414404285E+02 -0.19651836439E+03  0.20077709659E+03  0.41800000000E+01 0. -1.
        -11    1    1    2    0    0 -0.39909345078E+02 -0.12755983399E+02 -0.10993797819E+03  0.11765130677E+03  0.00000000000E+00 0.  1.
         11    1    1    2    0    0  0.20765166136E+01  0.77020230718E+02 -0.28160039364E+03  0.29195069714E+03  0.00000000000E+00 0. -1.
</event>
<event>
 7    1  0.2594791E-009  0.9886937E+02  0.7561462E-02  0.1282692E+00
         -2   -1    0    0    0  501 -0.00000000000E+00  0.00000000000E+00  0.24869374870E+02  0.24869374870E+02  0.00000000000E+00 0.  1.
          2   -1    0    0  501    0  0.00000000000E+00 -0.00000000000E+00 -0.10068257764E+04  0.10068257764E+04  0.00000000000E+00 0. -1.
         25    2    1    2    0    0  0.25554747732E+02 -0.37487366713E+02 -0.86913426699E+03  0.87926177799E+03  0.12509417403E+03 0.  0.
          5    1    3    3  502    0  0.34491651835E+02  0.21386677216E+02 -0.67321264337E+03  0.67444777381E+03  0.41800000000E+01 0.  1.
         -5    1    3    3    0  502 -0.89369041031E+01 -0.58874043929E+02 -0.19592162363E+03  0.20481400418E+03  0.41800000000E+01 0.  1.
        -11    1    1    2    0    0  0.27366339935E+02  0.34778674825E+02 -0.27838338723E+02  0.52282366883E+02  0.00000000000E+00 0.  1.
         11    1    1    2    0    0 -0.52921087667E+02  0.27086918877E+01 -0.84983795818E+02  0.10015100640E+03  0.00000000000E+00 0. -1.
</event>
<event>
 7    1  0.2594791E-009  0.9725395E+02  0.7561462E-02  0.1286179E+00
          3   -1    0    0  501    0  0.00000000000E+00  0.00000000000E+00  0.13299285520E+03  0.13299285520E+03  0.00000000000E+00 0. -1.
         -3   -1    0    0    0  501 -0.00000000000E+00 -0.00000000000E+00 -0.98104463204E+02  0.98104463204E+02  0.00000000000E+00 0.  1.
         25    2    1    2    0    0  0.25121625489E+02  0.25902199928E+02  0.25901349874E+02  0.13273762074E+03  0.12508547480E+03 0.  0.
          5    1    3    3  502    0 -0.20127639443E+02 -0.23245642103E+02 -0.31750254571E+02  0.44396315294E+02  0.41800000000E+01 0.  1.
         -5    1    3    3    0  502  0.45249264932E+02  0.49147842032E+02  0.57651604444E+02  0.88341305448E+02  0.41800000000E+01 0.  1.
        -11    1    1    2    0    0  0.30059040720E+02 -0.28330807702E+02  0.12088818737E+02  0.43038588877E+02  0.00000000000E+00 0.  1.
         11    1    1    2    0    0 -0.55180666209E+02  0.24286077733E+01 -0.31017766153E+01  0.55321108785E+02  0.00000000000E+00 0. -1.
</event>
<event>
 7    1  0.2594791E-009  0.1075027E+03  0.7561462E-02  0.1265266E+00
          1   -1    0    0  501    0  0.00000000000E+00  0.00000000000E+00  0.24730795459E+02  0.24730795459E+02  0.00000000000E+00 0. -1.
         -1   -1    0    0    0  501 -0.00000000000E+00 -0.00000000000E+00 -0.48328444526E+03  0.48328444526E+03  0.00000000000E+00 0.  1.
         25    2    1    2    0    0  0.24737819772E+01  0.68152527998E+01 -0.29550122558E+03  0.32096920488E+03  0.12509072264E+03 0.  0.
          5    1    3    3  502    0  0.39326715780E+02 -0.45493622122E+02 -0.12409542060E+03  0.13796161076E+03  0.41800000000E+01 0. -1.
         -5    1    3    3    0  502 -0.36852933803E+02  0.52308874921E+02 -0.17140580498E+03  0.18300759412E+03  0.41800000000E+01 0. -1.
        -11    1    1    2    0    0 -0.24294678946E+02 -0.42395348367E+02 -0.73712821624E+02  0.88437418891E+02  0.00000000000E+00 0.  1.
         11    1    1    2    0    0  0.21820896969E+02  0.35580095567E+02 -0.89339602592E+02  0.98608616948E+02  0.00000000000E+00 0. -1.
</event>
<event>
 7    1  0.2594791E-009  0.9262038E+02  0.7561462E-02  0.1296627E+00
         -1   -1    0    0    0  501 -0.00000000000E+00  0.00000000000E+00  0.10502187275E+03  0.10502187275E+03  0.00000000000E+00 0.  1.
          1   -1    0    0  501    0  0.00000000000E+00 -0.00000000000E+00 -0.13761936129E+03  0.13761936129E+03  0.00000000000E+00 0. -1.
         25    2    1    2    0    0 -0.34177908516E+02  0.12253649778E+01 -0.67766437718E+02  0.14630821738E+03  0.12507667026E+03 0.  0.
          5    1    3    3  502    0 -0.49776215689E+02  0.33311519038E+02  0.97939573488E+01  0.60833567621E+02  0.41800000000E+01 0.  1.
         -5    1    3    3    0  502  0.15598307172E+02 -0.32086154060E+02 -0.77560395067E+02  0.85474649762E+02  0.41800000000E+01 0.  1.
        -11    1    1    2    0    0  0.58686418685E+02 -0.15786010972E+02  0.19622065101E+02  0.63861720297E+02  0.00000000000E+00 0. -1.
         11    1    1    2    0    0 -0.24508510168E+02  0.14560645994E+02  0.15546884076E+02  0.32471296354E+02  0.00000000000E+00 0.  1.
</event>
<event>
 7    1  0.2594791E-009  0.8742232E+02  0.7561462E-02  0.1309217E+00
          1   -1    0    0  501    0  0.00000000000E+00  0.00000000000E+00  0.69984739891E+03  0.69984739891E+03  0.00000000000E+00 0. -1.
         -1   -1    0    0    0  501 -0.00000000000E+00 -0.00000000000E+00 -0.17085722372E+02  0.17085722372E+02  0.00000000000E+00 0.  1.
         25    2    1    2    0    0 -0.65428966956E+01  0.12243384988E+02  0.44585436756E+03  0.46327956831E+03  0.12509648823E+03 0.  0.
          5    1    3    3  502    0 -0.24090391791E+02  0.42698961455E+02  0.40983768372E+03  0.41278075013E+03  0.41800000000E+01 0.  1.
         -5    1    3    3    0  502  0.17547495095E+02 -0.30455576467E+02  0.36016683842E+02  0.50498818175E+02  0.41800000000E+01 0.  1.
        -11    1    1    2    0    0 -0.36975037548E+02 -0.25308627808E+02  0.10583842827E+03  0.11493238422E+03  0.00000000000E+00 0. -1.
         11    1    1    2    0    0  0.43517934243E+02  0.13065242820E+02  0.13106888071E+03  0.13872116875E+03  0.00000000000E+00 0.  1.
</event>
<event>
 7    1  0.2594791E-009  0.1234466E+03  0.7561462E-02  0.1237517E+00
          1   -1    0    0  501    0  0.00000000000E+00  0.00000000000E+00  0.12474201995E+03  0.12474201995E+03  0.00000000000E+00 0. -1.
         -1   -1    0    0    0  501 -0.00000000000E+00 -0.00000000000E+00 -0.16490906903E+03  0.16490906903E+03  0.00000000000E+00 0.  1.
         25    2    1    2    0    0 -0.75124089054E+02  0.65480095872E+01  0.32278315553E+02  0.14958535996E+03  0.12508950825E+03 0.  0.
          5    1    3    3  502    0 -0.43130752349E+02 -0.54889883399E+02 -0.62507808753E+01  0.70211863380E+02  0.41800000000E+01 0. -1.
         -5    1    3    3    0  502 -0.31993336705E+02  0.61437892987E+02  0.38529096428E+02  0.79373496582E+02  0.41800000000E+01 0. -1.
        -11    1    1    2    0    0  0.76478518410E+01  0.29908077228E+02  0.47670240860E+01  0.31236312841E+02  0.00000000000E+00 0. -1.
         11    1    1    2    0    0  0.67476237213E+02 -0.36456086815E+02 -0.77212388714E+02  0.10882941618E+03  0.00000000000E+00 0.  1.
</event>
<event>
 7    1  0.2594791E-009  0.1521588E+03  0.7561462E-02  0.1197845E+00
         -2   -1    0    0    0  501 -0.00000000000E+00  0.00000000000E+00  0.25647733792E+02  0.25647733792E+02  0.00000000000E+00 0.  1.
          2   -1    0    0  501    0  0.00000000000E+00 -0.00000000000E+00 -0.10430109433E+04  0.10430109433E+04  0.00000000000E+00 0. -1.
         25    2    1    2    0    0  0.16451062606E+02 -0.10812802691E+03 -0.74009073409E+03  0.75851428349E+03  0.12508923181E+03 0.  0.
          5    1    3    3  502    0  0.31634271430E+02  0.19116467101E+02 -0.13816968705E+03  0.14308913747E+03  0.41800000000E+01 0.  1.
         -5    1    3    3    0  502 -0.15183208824E+02 -0.12724449401E+03 -0.60192104704E+03  0.61542514602E+03  0.41800000000E+01 0.  1.
        -11    1    1    2    0    0  0.30620584957E+02  0.14012485602E+02 -0.63580374170E+02  0.71947438838E+02  0.00000000000E+00 0.  1.
         11    1    1    2    0    0 -0.47071647563E+02  0.94115541305E+02 -0.21369210123E+03  0.23819695474E+03  0.00000000000E+00 0. -1.
</event>
<event>
 7    1  0.2594791E-009  0.1079982E+03  0.7561462E-02  0.1264322E+00
          2   -1    0    0  501    0  0.00000000000E+00  0.00000000000E+00  0.49130719905E+03  0.49130719905E+03  0.00000000000E+00 0.  1.
         -2   -1    0    0    0  501 -0.00000000000E+00 -0.00000000000E+00 -0.45272518419E+02  0.45272518419E+02  0.00000000000E+00 0. -1.
         25    2    1    2    0    0  0.87084694476E+02  0.22062213865E+02  0.16588339435E+03  0.22635216052E+03  0.12509002660E+03 0.  0.
          5    1    3    3  502    0  0.18191917406E+02  0.43768955411E+02  0.24806662438E+01  0.47647596179E+02  0.41800000000E+01 0.  1.
         -5    1    3    3    0  502  0.68892777069E+02 -0.21706741545E+02  0.16340272811E+03  0.17870456434E+03  0.41800000000E+01 0.  1.
        -11    1    1    2    0    0 -0.41911438076E+02  0.67930013020E+01  0.23875514679E+03  0.24250099717E+03  0.00000000000E+00 0.  1.
         11    1    1    2    0    0 -0.45173256400E+02 -0.28855215167E+02  0.41396139489E+02  0.67726559788E+02  0.00000000000E+00 0. -1.
</event>
<event>
 7    1  0.2594791E-009  0.9217916E+02  0.7561462E-02  0.1297659E+00
         -1   -1    0    0    0  501 -0.00000000000E+00  0.00000000000E+00  0.11369050143E+03  0.11369050143E+03  0.00000000000E+00 0.  1.
          1   -1    0    0  501    0  0.00000000000E+00 -0.00000000000E+00 -0.19042957961E+03  0.19042957961E+03  0.00000000000E+00 0. -1.
         25    2    1    2    0    0  0.64123269491E+02  0.25859494807E+02 -0.11386182806E+03  0.18273654905E+03  0.12509046049E+03 0.  0.
          5    1    3    3  502    0  0.52152285220E+02  0.40336582336E+02  0.12021041114E+01  0.66074338305E+02  0.41800000000E+01 0.  1.
         -5    1    3    3    0  502  0.11970984272E+02 -0.14477087529E+02 -0.11506393217E+03  0.11666221074E+03  0.41800000000E+01 0.  1.
        -11    1    1    2    0    0 -0.40290297520E+02 -0.50610777294E+02 -0.74355236852E+01  0.65115634566E+02  0.00000000000E+00 0. -1.
         11    1    1    2    0    0 -0.23832971972E+02  0.24751282487E+02  0.44558273561E+02  0.56267897424E+02  0.00000000000E+00 0.  1.
</event>
<event>
 7    1  0.2594791E-009  0.2040439E+03  0.7561462E-02  0.1146371E+00
          2   -1    0    0  501    0  0.00000000000E+00  0.00000000000E+00  0.84541181254E+03  0.84541181254E+03  0.00000000000E+00 0.  1.
         -2   -1    0    0    0  501 -0.00000000000E+00 -0.00000000000E+00 -0.99038590622E+02  0.99038590622E+02  0.00000000000E+00 0. -1.
         25    2    1    2    0    0  0.48973184380E+02 -0.17546178391E+03  0.70259505612E+03  0.73652488675E+03  0.12507551926E+03 0.  0.
          5    1    3    3  502    0  0.75125877415E+02 -0.77812946308E+02  0.47940689229E+03  0.49147450884E+03  0.41800000000E+01 0. -1.
         -5    1    3    3    0  502 -0.26152693034E+02 -0.97648837597E+02  0.22318816384E+03  0.24505037791E+03  0.41800000000E+01 0. -1.
        -11    1    1    2    0    0 -0.67797866698E+02  0.16173885014E+03  0.23311810039E+02  0.17691649686E+03  0.00000000000E+00 0. -1.
         11    1    1    2    0    0  0.18824682318E+02  0.13722933762E+02  0.20466355758E+02  0.31009019549E+02  0.00000000000E+00 0.  1.
</event>
<event>
 7    1  0.2594791E-009  0.2015895E+03  0.7561462E-02  0.1148405E+00
          1   -1    0    0  501    0  0.00000000000E+00  0.00000000000E+00  0.63819198884E+03  0.63819198884E+03  0.00000000000E+00 0. -1.
         -1   -1    0    0    0  501 -0.00000000000E+00 -0.00000000000E+00 -0.76665490069E+02  0.76665490069E+02  0.00000000000E+00 0.  1.
         25    2    1    2    0    0 -0.14747854297E+03  0.97650256666E+02  0.41525977312E+03  0.46837320340E+03  0.12508910914E+03 0.  0.
          5    1    3    3  502    0 -0.54141172659E+02 -0.16994857058E+02  0.55874470188E+02  0.79746602197E+02  0.41800000000E+01 0.  1.
         -5    1    3    3    0  502 -0.93337370312E+02  0.11464511372E+03  0.35938530293E+03  0.38862660120E+03  0.41800000000E+01 0.  1.
        -11    1    1    2    0    0  0.10048210257E+03 -0.12673652420E+02  0.75916155638E+02  0.12657226035E+03  0.00000000000E+00 0.  1.
         11    1    1    2    0    0  0.46996440401E+02 -0.84976604247E+02  0.70350570017E+02  0.11991201517E+03  0.00000000000E+00 0. -1.
</event>
<event>
 7    1  0.2594791E-009  0.9751627E+02  0.7561462E-02  0.1285607E+00
         -2   -1    0    0    0  501 -0.00000000000E+00  0.00000000000E+00  0.30128893899E+02  0.30128893899E+02  0.00000000000E+00 0.  1.
          2   -1    0    0  501    0  0.00000000000E+00 -0.00000000000E+00 -0.65067205368E+03  0.65067205368E+03  0.00000000000E+00 0. -1.
         25    2    1    2    0    0  0.86074040096E+02 -0.12367676152E+02 -0.30152717741E+03  0.33782510837E+03  0.12508183455E+03 0.  0.
          5    1    3    3  502    0  0.21659343153E+02  0.38822830554E+01 -0.25646767368E+03  0.25744385661E+03  0.41800000000E+01 0. -1.
         -5    1    3    3    0  502  0.64414696943E+02 -0.16249959207E+02 -0.45059503732E+02  0.80381251751E+02  0.41800000000E+01 0. -1.
        -11    1    1    2    0    0 -0.83933008716E+01 -0.20172868034E+02 -0.12655876754E+02  0.25250016251E+02  0.00000000000E+00 0. -1.
         11    1    1    2    0    0 -0.77680739224E+02  0.32540544186E+02 -0.30636010562E+03  0.31772582296E+03  0.00000000000E+00 0.  1.
</event>
<event>
 7    1  0.2594791E-009  0.1761468E+03  0.7561462E-02  0.1171585E+00
         -1   -1    0    0    0  501 -0.00000000000E+00  0.00000000000E+00  0.17362344127E+03  0.17362344127E+03  0.00000000000E+00 0.  1.
          1   -1    0    0  501    0  0.00000000000E+00 -0.00000000000E+00 -0.36259924667E+03  0.36259924667E+03  0.00000000000E+00 0. -1.
         25    2    1    2    0    0 -0.60016303026E+02 -0.12809062911E+03  0.91045120463E+02  0.20962725277E+03  0.12508079489E+03 0.  0.
          5    1    3    3  502    0 -0.97230651595E+02 -0.91754164957E+02  0.48412488539E+02  0.14224580079E+03  0.41800000000E+01 0.  1.
         -5    1    3    3    0  502  0.37214348569E+02 -0.36336464150E+02  0.42632631925E+02  0.67381451981E+02  0.41800000000E+01 0.  1.
        -11    1    1    2    0    0 -0.47791459957E+01 -0.11505699017E+02 -0.10792486121E+02  0.16483297698E+02  0.00000000000E+00 0. -1.
         11    1    1    2    0    0  0.64795449022E+02  0.13959632812E+03 -0.26922843974E+03  0.31011213747E+03  0.00000000000E+00 0.  1.
</event>
<event>
 7    1  0.2594791E-009  0.5245480E+02  0.7561462E-02  0.1432534E+00
          1   -1    0    0  501    0  0.00000000000E+00  0.00000000000E+00  0.62327843732E+02  0.62327843732E+02  0.00000000000E+00 0. -1.
         -1   -1    0    0    0  501 -0.00000000000E+00 -0.00000000000E+00 -0.22977365025E+03  0.22977365025E+03  0.00000000000E+00 0.  1.
         25    2    1    2    0    0  0.32181948141E+02  0.26597542383E+02 -0.67161313371E+02  0.14798782230E+03  0.12508655599E+03 0.  0.
          5    1    3    3  502    0  0.39184926866E+02  0.23305208443E+02  0.27176307654E+02  0.53241105659E+02  0.41800000000E+01 0.  1.
         -5    1    3    3    0  502 -0.70029787249E+01  0.32923339398E+01 -0.94337621025E+02  0.94746716642E+02  0.41800000000E+01 0.  1.
        -11    1    1    2    0    0 -0.11675066529E+02 -0.27426543085E+02 -0.11503823035E+03  0.11883735476E+03  0.00000000000E+00 0.  1.
         11    1    1    2    0    0 -0.20506881612E+02  0.82900070201E+00  0.14753737204E+02  0.25276316921E+02  0.00000000000E+00 0. -1.
</event>
<event>
 7    1  0.2594791E-009  0.2896799E+03  0.7561462E-02  0.1090516E+00
          2   -1    0    0  501    0  0.00000000000E+00  0.00000000000E+00  0.67573000958E+03  0.67573000958E+03  0.00000000000E+00 0. -1.
         -2   -1    0    0    0  501 -0.00000000000E+00 -0.00000000000E+00 -0.17108472835E+03  0.17108472835E+03  0.00000000000E+00 0.  1.
         25    2    1    2    0    0  0.11917513120E+02 -0.27852890936E+03  0.45717917219E+03  0.54989074778E+03  0.12508660418E+03 0.  0.
          5    1    3    3  502    0  0.58699065838E+02 -0.17326270125E+03  0.21975134931E+03  0.28596096220E+03  0.41800000000E+01 0.  1.
         -5    1    3    3    0  502 -0.46781552719E+02 -0.10526620811E+03  0.23742782287E+03  0.26392978559E+03  0.41800000000E+01 0.  1.
        -11    1    1    2    0    0  0.12390224309E+02  0.62616921107E+02 -0.24004064211E+02  0.68195245919E+02  0.00000000000E+00 0.  1.
         11    1    1    2    0    0 -0.24307737429E+02  0.21591198826E+03  0.71470173257E+02  0.22872874423E+03  0.00000000000E+00 0. -1.
</event>
<event>
 7    1  0.2594791E-009  0.9721556E+02  0.7561462E-02  0.1286263E+00
         -1   -1    0    0    0  501 -0.00000000000E+00  0.00000000000E+00  0.10501056235E+04  0.10501056235E+04  0.00000000000E+00 0.  1.
          1   -1    0    0  501    0  0.00000000000E+00 -0.00000000000E+00 -0.14892812881E+02  0.14892812881E+02  0.00000000000E+00 0. -1.
         25    2    1    2    0    0  0.31717329071E+01  0.58602098807E+02  0.67770592134E+03  0.69164839737E+03  0.12509166196E+03 0.  0.
          5    1    3    3  502    0 -0.25724099841E+02  0.50407809766E+02  0.64325140014E+03  0.64574957435E+03  0.41800000000E+01 0.  1.
         -5    1    3    3    0  502  0.28895832748E+02  0.81942890405E+01  0.34454521198E+02  0.45898823014E+02  0.41800000000E+01 0.  1.
        -11    1    1    2    0    0  0.42292841558E+02 -0.16506586831E+02  0.13884016674E+03  0.14607444594E+03  0.00000000000E+00 0. -1.
         11    1    1    2    0    0 -0.45464574465E+02 -0.42095511976E+02  0.21866672252E+03  0.22727559305E+03  0.00000000000E+00 0.  1.
</event>
<event>
 7    1  0.2594791E-009  0.9340245E+02  0.7561462E-02  0.1294815E+00
          2   -1    0    0  501    0  0.00000000000E+00  0.00000000000E+00  0.66013894805E+03  0.66013894805E+03  0.00000000000E+00 0. -1.
         -2   -1    0    0    0  501 -0.00000000000E+00 -0.00000000000E+00 -0.28841769702E+02  0.28841769702E+02  0.00000000000E+00 0.  1.
         25    2    1    2    0    0 -0.66335213653E+02  0.53340260282E+02  0.39710979436E+03  0.42495815611E+03  0.12509077396E+03 0.  0.
          5    1    3    3  502    0 -0.38394076528E+02  0.33033804874E+02  0.36249950443E+02  0.62424904357E+02  0.41800000000E+01 0.  1.
         -5    1    3    3    0  502 -0.27941137125E+02  0.20306455408E+02  0.36085984391E+03  0.36253325175E+03  0.41800000000E+01 0.  1.
        -11    1    1    2    0    0  0.34008491079E+02  0.51163709978E+01  0.20275008680E+02  0.39922809203E+02  0.00000000000E+00 0.  1.
         11    1    1    2    0    0  0.32326722574E+02 -0.58456631280E+02  0.21391237531E+03  0.22409975244E+03  0.00000000000E+00 0. -1.
</event>
<event>
 7    1  0.2594791E-009  0.1211537E+03  0.7561462E-02  0.1241206E+00
         -2   -1    0    0    0  501 -0.00000000000E+00  0.00000000000E+00  0.33226994634E+02  0.33226994634E+02  0.00000000000E+00 0.  1.
          2   -1    0    0  501    0  0.00000000000E+00 -0.00000000000E+00 -0.78111990258E+03  0.78111990258E+03  0.00000000000E+00 0. -1.
         25    2    1    2    0    0  0.33953008049E+02  0.83331651148E+02 -0.59972390946E+03  0.61919734844E+03  0.12505845794E+03 0.  0.
          5    1    3    3  502    0  0.16651796847E+02  0.10527484797E+03 -0.30483751256E+03  0.32296045798E+03  0.41800000000E+01 0.  1.
         -5    1    3    3    0  502  0.17301211201E+02 -0.21943196824E+02 -0.29488639690E+03  0.29623689047E+03  0.41800000000E+01 0.  1.
        -11    1    1    2    0    0  0.71124604106E+01 -0.59467676689E+02 -0.28354436439E+02  0.66264362440E+02  0.00000000000E+00 0.  1.
         11    1    1    2    0    0 -0.41065468459E+02 -0.23863974459E+02 -0.11981456204E+03  0.12888518632E+03  0.00000000000E+00 0. -1.
</event>
<event>
 7    1  0.2594791E-009  0.8062495E+02  0.7561462E-02  0.1327287E+00
          2   -1    0    0  501    0  0.00000000000E+00  0.00000000000E+00  0.16875693338E+04  0.16875693338E+04  0.00000000000E+00 0. -1.
         -2   -1    0    0    0  501 -0.00000000000E+00 -0.00000000000E+00 -0.12094822353E+02  0.12094822353E+02  0.00000000000E+00 0.  1.
         25    2    1    2    0    0  0.16497863787E+02 -0.49764143115E+02  0.13843682837E+04  0.13909947803E+04  0.12506911942E+03 0.  0.
          5    1    3    3  502    0  0.22516822966E+02 -0.31575929522E+02  0.13557042005E+04  0.13562652389E+04  0.41800000000E+01 0.  1.
         -5    1    3    3    0  502 -0.60189591790E+01 -0.18188213594E+02  0.28664083201E+02  0.34729541446E+02  0.41800000000E+01 0.  1.
        -11    1    1    2    0    0  0.16036252643E+02  0.64828000056E+02  0.18997505545E+03  0.20137118136E+03  0.00000000000E+00 0.  1.
         11    1    1    2    0    0 -0.32534116430E+02 -0.15063856941E+02  0.10113117236E+03  0.10729819449E+03  0.00000000000E+00 0. -1.
</event>
<event>
 7    1  0.2594791E-009  0.1006638E+03  0.7561462E-02  0.1278906E+00
          3   -1    0    0  501    0  0.00000000000E+00  0.00000000000E+00  0.66727843281E+02  0.66727843281E+02  0.00000000000E+00 0. -1.
         -3   -1    0    0    0  501 -0.00000000000E+00 -0.00000000000E+00 -0.24508379179E+03  0.24508379179E+03  0.00000000000E+00 0.  1.
         25    2    1    2    0    0  0.19129530970E+02  0.50791066385E+02 -0.51328800939E+02  0.14569657266E+03  0.12508866495E+03 0.  0.
          5    1    3    3  502    0 -0.42756488580E+02 -0.84671436571E+01 -0.39743235306E+02  0.59133805814E+02  0.41800000000E+01 0.  1.
         -5    1    3    3    0  502  0.61886019550E+02  0.59258210042E+02 -0.11585565633E+02  0.86562766847E+02  0.41800000000E+01 0.  1.
        -11    1    1    2    0    0 -0.31513189510E+02 -0.50308779940E+02 -0.13757796787E+03  0.14983908601E+03  0.00000000000E+00 0.  1.
         11    1    1    2    0    0  0.12383658540E+02 -0.48228644581E+00  0.10550820297E+02  0.16275976407E+02  0.00000000000E+00 0. -1.
</event>
<event>
 7    1  0.2594791E-009  0.1082116E+03  0.7561462E-02  0.1263918E+00
          2   -1    0    0  501    0  0.00000000000E+00  0.00000000000E+00  0.42820618004E+03  0.42820618004E+03  0.00000000000E+00 0. -1.
         -2   -1    0    0    0  501 -0.00000000000E+00 -0.00000000000E+00 -0.31632754551E+02  0.31632754551E+02  0.00000000000E+00 0.  1.
         25    2    1    2    0    0  0.89780602559E+01  0.29294256591E+02  0.27289172559E+03  0.30175364791E+03  0.12508641451E+03 0.  0.
          5    1    3    3  502    0  0.39203341474E+02 -0.35041795055E+02  0.15814028743E+03  0.16670528573E+03  0.41800000000E+01 0. -1.
         -5    1    3    3    0  502 -0.30225281219E+02  0.64336051646E+02  0.11475143817E+03  0.13504836218E+03  0.41800000000E+01 0. -1.
        -11    1    1    2    0    0  0.21966854920E+02 -0.50423148150E+02  0.98889972726E+02  0.11315592468E+03  0.00000000000E+00 0. -1.
         11    1    1    2    0    0 -0.30944915176E+02  0.21128891558E+02  0.24791727171E+02  0.44929362002E+02  0.00000000000E+00 0.  1.
</event>
<event>
 7    1  0.2594791E-009  0.1530084E+03  0.7561462E-02  0.1196824E+00
          2   -1    0    0  501    0  0.00000000000E+00  0.00000000000E+00  0.64032191219E+03  0.64032191219E+03  0.00000000000E+00 0. -1.
         -2   -1    0    0    0  501 -0.00000000000E+00 -0.00000000000E+00 -0.38847677679E+02  0.38847677679E+02  0.00000000000E+00 0.  1.
         25    2    1    2    0    0  0.99252273928E+02 -0.46942139590E+02  0.38433935541E+03  0.41883053889E+03  0.12509077438E+03 0.  0.
          5    1    3    3  502    0  0.50158932625E+02 -0.88609366550E+02  0.23702068419E+03  0.25799964244E+03  0.41800000000E+01 0.  1.
         -5    1    3    3    0  502  0.49093341303E+02  0.41667226960E+02  0.14731867122E+03  0.16083089645E+03  0.41800000000E+01 0.  1.
        -11    1    1    2    0    0 -0.89583013907E+02  0.70577941013E+02  0.14942797205E+03  0.18797627767E+03  0.00000000000E+00 0.  1.
         11    1    1    2    0    0 -0.96692600213E+01 -0.23635801423E+02  0.67706907056E+02  0.72362773312E+02  0.00000000000E+00 0. -1.
</event>
<event>
 7    1  0.2594791E-009  0.1046897E+03  0.7561462E-02  0.1270732E+00
          1   -1    0    0  501    0  0.00000000000E+00  0.00000000000E+00  0.60409643883E+03  0.60409643883E+03  0.00000000000E+00 0. -1.
         -1   -1    0    0    0  501 -0.00000000000E+00 -0.00000000000E+00 -0.41808860752E+02  0.41808860752E+02  0.00000000000E+00 0.  1.
         25    2    1    2    0    0 -0.25232654325E+02  0.24415788763E+02  0.52644040099E+03  0.54223237241E+03  0.12507450703E+03 0.  0.
          5    1    3    3  502    0  0.32665201226E+02  0.44805656458E+02  0.13527366687E+03  0.14625662231E+03  0.41800000000E+01 0. -1.
         -5    1    3    3    0  502 -0.57897855552E+02 -0.20389867695E+02  0.39116673412E+03  0.39597575010E+03  0.41800000000E+01 0. -1.
        -11    1    1    2    0    0  0.43414075259E+02 -0.46517387873E+02  0.86899344959E+01  0.64219656389E+02  0.00000000000E+00 0.  1.
         11    1    1    2    0    0 -0.18181420934E+02  0.22101599110E+02  0.27157242595E+02  0.39453270786E+02  0.00000000000E+00 0. -1.
</event>
<event>
 7    1  0.2594791E-009  0.5463702E+02  0.7561462E-02  0.1421823E+00
          2   -1    0    0  501    0  0.00000000000E+00  0.00000000000E+00  0.10154488109E+03  0.10154488109E+03  0.00000000000E+00 0. -1.
         -2   -1    0    0    0  501 -0.00000000000E+00 -0.00000000000E+00 -0.14316286274E+03  0.14316286274E+03  0.00000000000E+00 0.  1.
         25    2    1    2    0    0 -0.68661595484E+01  0.13818521180E+02  0.31629123735E+02  0.12994556114E+03  0.12508937491E+03 0.  0.
          5    1    3    3  502    0  0.29409706513E+02  0.91134305818E+01 -0.39258527778E+02  0.50066853880E+02  0.41800000000E+01 0.  1.
         -5    1    3    3    0  502 -0.36275866061E+02  0.47050905978E+01  0.70887651512E+02  0.79878707256E+02  0.41800000000E+01 0.  1.
        -11    1    1    2    0    0 -0.77186206389E+01 -0.22925428158E+02  0.12555117356E+02  0.27254051673E+02  0.00000000000E+00 0. -1.
         11    1    1    2    0    0  0.14584780187E+02  0.91069069785E+01 -0.85802222735E+02  0.87508131017E+02  0.00000000000E+00 0.  1.
</event>
<event>
 7    1  0.2594791E-009  0.7981426E+02  0.7561462E-02  0.1329579E+00
         -2   -1    0    0    0  501 -0.00000000000E+00  0.00000000000E+00  0.11406490375E+03  0.11406490375E+03  0.00000000000E+00 0.  1.
          2   -1    0    0  501    0  0.00000000000E+00 -0.00000000000E+00 -0.15405256970E+03  0.15405256970E+03  0.00000000000E+00 0. -1.
         25    2    1    2    0    0  0.56616634750E+02 -0.43897667174E+02 -0.65541142197E+01  0.14429589831E+03  0.12508357743E+03 0.  0.
          5    1    3    3  502    0  0.47968051964E+02 -0.14577234413E+02 -0.62605299755E+02  0.80313919901E+02  0.41800000000E+01 0. -1.
         -5    1    3    3    0  502  0.86485827860E+01 -0.29320432761E+02  0.56051185535E+02  0.63981978411E+02  0.41800000000E+01 0. -1.
        -11    1    1    2    0    0 -0.10545911293E+02  0.27686440577E+02  0.31058646448E+02  0.42923126122E+02  0.00000000000E+00 0.  1.
         11    1    1    2    0    0 -0.46070723458E+02  0.16211226597E+02 -0.64492198180E+02  0.80898449020E+02  0.00000000000E+00 0. -1.
</event>
<event>
 7    1  0.2594791E-009  0.1170617E+03  0.7561462E-02  0.1248025E+00
         -4   -1    0    0    0  501 -0.00000000000E+00  0.00000000000E+00  0.10283220822E+03  0.10283220822E+03  0.00000000000E+00 0.  1.
          4   -1    0    0  501    0  0.00000000000E+00 -0.00000000000E+00 -0.13534748713E+03  0.13534748713E+03  0.00000000000E+00 0. -1.
         25    2    1    2    0    0  0.28566921953E+02 -0.36798865042E+02 -0.15621952018E+02  0.13439392734E+03  0.12508979503E+03 0.  0.
          5    1    3    3  502    0  0.14801877534E+02  0.45801323097E+02  0.33493555583E+01  0.48430851310E+02  0.41800000000E+01 0. -1.
         -5    1    3    3    0  502  0.13765044418E+02 -0.82600188139E+02 -0.18971307576E+02  0.85963076025E+02  0.41800000000E+01 0. -1.
        -11    1    1    2    0    0 -0.55131003832E+02  0.48035498850E+02 -0.16400189410E+02  0.74938661224E+02  0.00000000000E+00 0. -1.
         11    1    1    2    0    0  0.26564081879E+02 -0.11236633808E+02 -0.49313748307E+00  0.28847106787E+02  0.00000000000E+00 0.  1.
</event>
<event>
 7    1  0.2594791E-009  0.8326782E+02  0.7561462E-02  0.1320026E+00
         -1   -1    0    0    0  501 -0.00000000000E+00  0.00000000000E+00  0.10477897474E+03  0.10477897474E+03  0.00000000000E+00 0.  1.
          1   -1    0    0  501    0  0.00000000000E+00 -0.00000000000E+00 -0.12924699105E+03  0.12924699105E+03  0.00000000000E+00 0. -1.
         25    2    1    2    0    0  0.42000250081E+02  0.63404042755E+01 -0.25343288034E+02  0.13450954746E+03  0.12508522845E+03 0.  0.
          5    1    3    3  502    0 -0.25279418331E+02  0.21976658905E+02  0.30572228760E+02  0.45542903938E+02  0.41800000000E+01 0.  1.
         -5    1    3    3    0  502  0.67279668412E+02 -0.15636254629E+02 -0.55915516794E+02  0.88966643518E+02  0.41800000000E+01 0.  1.
        -11    1    1    2    0    0 -0.44920280481E+02  0.10793773464E+02  0.37156303555E+02  0.59286828537E+02  0.00000000000E+00 0.  1.
         11    1    1    2    0    0  0.29200303996E+01 -0.17134177739E+02 -0.36281031836E+02  0.40229589800E+02  0.00000000000E+00 0. -1.
</event>
<event>
 7    1  0.2594791E-009  0.1131022E+03  0.7561462E-02  0.1254931E+00
          1   -1    0    0  501    0  0.00000000000E+00  0.00000000000E+00  0.40420448026E+02  0.40420448026E+02  0.00000000000E+00 0. -1.
         -1   -1    0    0    0  501 -0.00000000000E+00 -0.00000000000E+00 -0.46230389904E+03  0.46230389904E+03  0.00000000000E+00 0.  1.
         25    2    1    2    0    0 -0.58900283103E+02 -0.40319100595E+02 -0.21555326672E+03  0.25924084685E+03  0.12509089758E+03 0.  0.
          5    1    3    3  502    0 -0.21712715497E+02 -0.63268337690E+02 -0.20271048397E+03  0.21350254631E+03  0.41800000000E+01 0.  1.
         -5    1    3    3    0  502 -0.37187567606E+02  0.22949237095E+02 -0.12842782754E+02  0.45738300542E+02  0.41800000000E+01 0.  1.
        -11    1    1    2    0    0  0.76687216522E+02  0.63605792892E+01 -0.18321553090E+03  0.19871919109E+03  0.00000000000E+00 0.  1.
         11    1    1    2    0    0 -0.17786933419E+02  0.33958521306E+02 -0.23114653394E+02  0.44764309123E+02  0.00000000000E+00 0. -1.
</event>
<event>
 7    1  0.2594791E-009  0.1090135E+03  0.7561462E-02  0.1262408E+00
         -1   -1    0    0    0  501 -0.00000000000E+00  0.00000000000E+00  0.10157646943E+03  0.10157646943E+03  0.00000000000E+00 0.  1.
          1   -1    0    0  501    0  0.00000000000E+00 -0.00000000000E+00 -0.17047073914E+03  0.17047073914E+03  0.00000000000E+00 0. -1.
         25    2    1    2    0    0 -0.13090864470E+02 -0.20211435950E+02  0.34197291676E+02  0.13189650390E+03  0.12508940845E+03 0.  0.
          5    1    3    3  502    0  0.37239095607E+02 -0.51573885284E+02  0.34416532769E+02  0.72447125635E+02  0.41800000000E+01 0. -1.
         -5    1    3    3    0  502 -0.50329960076E+02  0.31362449334E+02 -0.21924109327E+00  0.59449378266E+02  0.41800000000E+01 0. -1.
        -11    1    1    2    0    0 -0.15906874558E+02  0.50470215106E+02 -0.54072409962E+02  0.75657760938E+02  0.00000000000E+00 0.  1.
         11    1    1    2    0    0  0.28997739028E+02 -0.30258779156E+02 -0.49019151421E+02  0.64492943728E+02  0.00000000000E+00 0. -1.
</event>
<event>
 7    1  0.2594791E-009  0.1080965E+03  0.7561462E-02  0.1264136E+00
          1   -1    0    0  501    0  0.00000000000E+00  0.00000000000E+00  0.60455960410E+03  0.60455960410E+03  0.00000000000E+00 0. -1.
         -1   -1    0    0    0  501 -0.00000000000E+00 -0.00000000000E+00 -0.38585698747E+02  0.38585698747E+02  0.00000000000E+00 0.  1.
         25    2    1    2    0    0  0.56384132175E+02  0.72094974910E+02  0.18062150096E+03  0.23800839175E+03  0.12508801768E+03 0.  0.
          5    1    3    3  502    0  0.31000867592E+02  0.35273605006E+02 -0.46451572169E+01  0.47374369517E+02  0.41800000000E+01 0.  1.
         -5    1    3    3    0  502  0.25383264583E+02  0.36821369904E+02  0.18526665817E+03  0.19063402224E+03  0.41800000000E+01 0.  1.
        -11    1    1    2    0    0  0.13756755724E+02 -0.48051350603E+02  0.13154621525E+03  0.14072166631E+03  0.00000000000E+00 0.  1.
         11    1    1    2    0    0 -0.70140887899E+02 -0.24043624307E+02  0.25380618914E+03  0.26441524478E+03  0.00000000000E+00 0. -1.
</event>
<event>
 7    1  0.2594791E-009  0.1130139E+03  0.7561462E-02  0.1255088E+00
         -2   -1    0    0    0  501 -0.00000000000E+00  0.00000000000E+00  0.88495772856E+02  0.88495772856E+02  0.00000000000E+00 0.  1.
          2   -1    0    0  501    0  0.00000000000E+00 -0.00000000000E+00 -0.26211120024E+03  0.26211120024E+03  0.00000000000E+00 0. -1.
         25    2    1    2    0    0  0.90661181720E+02 -0.53587290264E+02 -0.93786803587E+02  0.18850273021E+03  0.12508503995E+03 0.  0.
          5    1    3    3  502    0  0.23753345992E+02 -0.38598013941E+02  0.24520269835E+02  0.51698589524E+02  0.41800000000E+01 0. -1.
         -5    1    3    3    0  502  0.66907835728E+02 -0.14989276323E+02 -0.11830707342E+03  0.13680414068E+03  0.41800000000E+01 0. -1.
        -11    1    1    2    0    0 -0.37671998295E+02  0.17808230885E+01 -0.79505594939E+02  0.87997104572E+02  0.00000000000E+00 0. -1.
         11    1    1    2    0    0 -0.52989183425E+02  0.51806467176E+02 -0.32302885482E+00  0.74107138313E+02  0.00000000000E+00 0.  1.
</event>
<event>
 7    1  0.2594791E-009  0.1271786E+03  0.7561462E-02  0.1231703E+00
          2   -1    0    0  501    0  0.00000000000E+00  0.00000000000E+00  0.31555044311E+03  0.31555044311E+03  0.00000000000E+00 0. -1.
         -2   -1    0    0    0  501 -0.00000000000E+00 -0.00000000000E+00 -0.65806958991E+02  0.65806958991E+02  0.00000000000E+00 0.  1.
         25    2    1    2    0    0 -0.46611369472E+02 -0.46583196702E+02  0.47306670937E+02  0.14909463780E+03  0.12509466786E+03 0.  0.
          5    1    3    3  502    0 -0.84485990104E+02 -0.51109826158E+01  0.33363351941E+02  0.91074641476E+02  0.41800000000E+01 0. -1.
         -5    1    3    3    0  502  0.37874620632E+02 -0.41472214086E+02  0.13943318996E+02  0.58019996327E+02  0.41800000000E+01 0. -1.
        -11    1    1    2    0    0  0.68474570273E+02  0.79913372254E+01  0.11161642868E+03  0.13119014977E+03  0.00000000000E+00 0.  1.
         11    1    1    2    0    0 -0.21863200801E+02  0.38591859476E+02  0.90820384499E+02  0.10107261453E+03  0.00000000000E+00 0. -1.
</event>
<event>
 7    1  0.2594791E-009  0.9276385E+02  0.7561462E-02  0.1296293E+00
         -2   -1    0    0    0  501 -0.00000000000E+00  0.00000000000E+00  0.21938156680E+03  0.21938156680E+03  0.00000000000E+00 0. -1.
          2   -1    0    0  501    0  0.00000000000E+00 -0.00000000000E+00 -0.75551736506E+02  0.75551736506E+02  0.00000000000E+00 0.  1.
         25    2    1    2    0    0 -0.17420314682E+01  0.60713490542E+02  0.43175294962E+02  0.14560656393E+03  0.12509197719E+03 0.  0.
          5    1    3    3  502    0 -0.38855593225E+02  0.67906834313E+02  0.64959049421E+02  0.10177546744E+03  0.41800000000E+01 0.  1.
         -5    1    3    3    0  502  0.37113561757E+02 -0.71933437704E+01 -0.21783754459E+02  0.43831096487E+02  0.41800000000E+01 0.  1.
        -11    1    1    2    0    0 -0.13706592787E+02 -0.45272082582E+02  0.11421137706E+03  0.12361905515E+03  0.00000000000E+00 0. -1.
         11    1    1    2    0    0  0.15448624255E+02 -0.15441407961E+02 -0.13556841720E+02  0.25707684233E+02  0.00000000000E+00 0.  1.
</event>
<event>
 7    1  0.2594791E-009  0.9459589E+02  0.7561462E-02  0.1292089E+00
          1   -1    0    0  501    0  0.00000000000E+00  0.00000000000E+00  0.18343203447E+03  0.18343203447E+03  0.00000000000E+00 0. -1.
         -1   -1    0    0    0  501 -0.00000000000E+00 -0.00000000000E+00 -0.12026954453E+03  0.12026954453E+03  0.00000000000E+00 0.  1.
         25    2    1    2    0    0 -0.48745480010E+02  0.44519786318E+01 -0.58077972924E+02  0.14634377800E+03  0.12509000154E+03 0.  0.
          5    1    3    3  502    0 -0.18569495369E+02  0.53610698963E+02 -0.66926084315E+02  0.87837955140E+02  0.41800000000E+01 0. -1.
         -5    1    3    3    0  502 -0.30175984641E+02 -0.49158720331E+02  0.88481113907E+01  0.58505822862E+02  0.41800000000E+01 0. -1.
        -11    1    1    2    0    0  0.10690305232E+02 -0.27826221571E+02  0.18257294401E+01  0.29864937985E+02  0.00000000000E+00 0.  1.
         11    1    1    2    0    0  0.38055174778E+02  0.23374242939E+02  0.11941473343E+03  0.12749286302E+03  0.00000000000E+00 0. -1.
</event>
<event>
 7    1  0.3336120E-009  0.1456173E+03  0.7561462E-02  0.1205964E+00
         -1   -1    0    0    0  501 -0.00000000000E+00  0.00000000000E+00  0.66770291083E+02  0.66770291083E+02  0.00000000000E+00 0.  1.
          1   -1    0    0  501    0  0.00000000000E+00 -0.00000000000E+00 -0.42868609649E+03  0.42868609649E+03  0.00000000000E+00 0. -1.
         25    2    1    2    0    0  0.93562002856E+02 -0.88248051812E+02 -0.21434200045E+03  0.27951956221E+03  0.12508847060E+03 0.  0.
          5    1    3    3  502    0  0.19504713266E+02 -0.66714772039E+02 -0.18364895438E+03  0.19640698942E+03  0.41800000000E+01 0. -1.
         -5    1    3    3    0  502  0.74057289590E+02 -0.21533279772E+02 -0.30693046066E+02  0.83112572791E+02  0.41800000000E+01 0. -1.
        -11    1    1    2    0    0 -0.17516018279E+02  0.61189760134E+02 -0.23355623528E+02  0.67797365672E+02  0.00000000000E+00 0.  1.
         11    1    1    2    0    0 -0.76045984577E+02  0.27058291677E+02 -0.12421818143E+03  0.14813945969E+03  0.00000000000E+00 0. -1.
</event>
<event>
 7    1  0.2594791E-009  0.9191678E+02  0.7561462E-02  0.1298275E+00
         -2   -1    0    0    0  501 -0.00000000000E+00  0.00000000000E+00  0.70800410583E+02  0.70800410583E+02  0.00000000000E+00 0.  1.
          2   -1    0    0  501    0  0.00000000000E+00 -0.00000000000E+00 -0.22153902215E+03  0.22153902215E+03  0.00000000000E+00 0. -1.
         25    2    1    2    0    0  0.33829258770E+02  0.12471807617E+02 -0.25183533026E+02  0.13259732401E+03  0.12509146759E+03 0.  0.
          5    1    3    3  502    0  0.53712602451E+02  0.29746049937E+02  0.32100061240E+02  0.69410067574E+02  0.41800000000E+01 0.  1.
         -5    1    3    3    0  502 -0.19883343681E+02 -0.17274242320E+02 -0.57283594266E+02  0.63187256435E+02  0.41800000000E+01 0.  1.
        -11    1    1    2    0    0 -0.96296467965E+00 -0.47546677550E+02 -0.42495359435E+02  0.63776715347E+02  0.00000000000E+00 0. -1.
         11    1    1    2    0    0 -0.32866294091E+02  0.35074869932E+02 -0.83059719102E+02  0.95965393373E+02  0.00000000000E+00 0.  1.
</event>
<event>
 7    1  0.2594791E-009  0.1054676E+03  0.7561462E-02  0.1269201E+00
          2   -1    0    0  501    0  0.00000000000E+00  0.00000000000E+00  0.26462360529E+03  0.26462360529E+03  0.00000000000E+00 0.  1.
         -2   -1    0    0    0  501 -0.00000000000E+00 -0.00000000000E+00 -0.73816859194E+02  0.73816859194E+02  0.00000000000E+00 0. -1.
         25    2    1    2    0    0 -0.45400062036E+02  0.73035552548E+02  0.12680767687E+03  0.19779807699E+03  0.12509410369E+03 0.  0.
          5    1    3    3  502    0 -0.43435857776E+01  0.68489420216E+01  0.11906733359E+03  0.11941640203E+03  0.41800000000E+01 0.  1.
         -5    1    3    3    0  502 -0.41056476258E+02  0.66186610526E+02  0.77403432781E+01  0.78381674962E+02  0.41800000000E+01 0.  1.
        -11    1    1    2    0    0  0.71882737563E+02 -0.42970003548E+02  0.52946002691E+02  0.99079908989E+02  0.00000000000E+00 0.  1.
         11    1    1    2    0    0 -0.26482675527E+02 -0.30065549000E+02  0.11053066534E+02  0.41562478506E+02  0.00000000000E+00 0. -1.
</event>
<event>
 7    1  0.2594791E-009  0.6025639E+02  0.7561462E-02  0.1396759E+00
         -1   -1    0    0    0  501 -0.00000000000E+00  0.00000000000E+00  0.46841898137E+02  0.46841898137E+02  0.00000000000E+00 0.  1.
          1   -1    0    0  501    0  0.00000000000E+00 -0.00000000000E+00 -0.26486637075E+03  0.26486637075E+03  0.00000000000E+00 0. -1.
         25    2    1    2    0    0  0.25436213959E+02 -0.18658810835E+02 -0.15271192358E+03  0.19991116295E+03  0.12509352207E+03 0.  0.
          5    1    3    3  502    0  0.31075306956E+01 -0.24733412919E+02 -0.16927310312E+03  0.17114980077E+03  0.41800000000E+01 0.  1.
         -5    1    3    3    0  502  0.22328683264E+02  0.60746020836E+01  0.16561179541E+02  0.28761362182E+02  0.41800000000E+01 0.  1.
        -11    1    1    2    0    0 -0.47144121291E+02  0.16318304757E+02 -0.80764281905E+01  0.50537945494E+02  0.00000000000E+00 0.  1.
         11    1    1    2    0    0  0.21707907332E+02  0.23405060788E+01 -0.57236120836E+02  0.61259160440E+02  0.00000000000E+00 0. -1.
</event>
<event>
 7    1  0.2594791E-009  0.1146289E+03  0.7561462E-02  0.1252230E+00
          2   -1    0    0  501    0  0.00000000000E+00  0.00000000000E+00  0.31672703614E+03  0.31672703614E+03  0.00000000000E+00 0. -1.
         -2   -1    0    0    0  501 -0.00000000000E+00 -0.00000000000E+00 -0.56673275099E+02  0.56673275099E+02  0.00000000000E+00 0.  1.
         25    2    1    2    0    0 -0.13079084088E+02  0.76106431282E+02  0.16539522725E+03  0.22129250383E+03  0.12510611388E+03 0.  0.
          5    1    3    3  502    0 -0.57523625325E+02  0.74467507486E+01  0.36754155122E+02  0.68795071669E+02  0.41800000000E+01 0. -1.
         -5    1    3    3    0  502  0.44444541237E+02  0.68659680533E+02  0.12864107213E+03  0.15249743216E+03  0.41800000000E+01 0. -1.
        -11    1    1    2    0    0 -0.11112806105E+02 -0.20501312862E+01 -0.14259777926E+02  0.18194470707E+02  0.00000000000E+00 0.  1.
         11    1    1    2    0    0  0.24191890192E+02 -0.74056299996E+02  0.10891831172E+03  0.13391333671E+03  0.00000000000E+00 0. -1.
</event>
<event>
 6    1  0.2594791E-009  0.1074762E+03  0.7561462E-02  0.1265316E+00
         -1   -1    0    0    0  501 -0.00000000000E+00  0.00000000000E+00  0.38183572795E+03  0.38183572795E+03  0.00000000000E+00 0.  1.
          1   -1    0    0  501    0  0.00000000000E+00 -0.00000000000E+00 -0.79078378196E+02  0.79078378196E+02  0.00000000000E+00 0. -1.
          5    1    1    2  502    0 -0.15493676087E+02 -0.14066096378E+02  0.23407093334E+03  0.23504166290E+03  0.41800000000E+01 0.  1.
         -5    1    1    2    0  502 -0.46449716072E+02  0.60242436041E+02  0.73688059237E+02  0.10599117745E+03  0.41800000000E+01 0.  1.
        -11    1    1    2    0    0  0.84849202221E+02 -0.33293555637E+02 -0.13759964345E+02  0.92180174568E+02  0.00000000000E+00 0. -1.
         11    1    1    2    0    0 -0.22905810062E+02 -0.12882784027E+02  0.87583215180E+01  0.27701091218E+02  0.00000000000E+00 0.  1.
</event>
<event>
 7    1  0.2594791E-009  0.2679114E+03  0.7561462E-02  0.1102481E+00
         -1   -1    0    0    0  501 -0.00000000000E+00  0.00000000000E+00  0.35599070753E+03  0.35599070753E+03  0.00000000000E+00 0.  1.
          1   -1    0    0  501    0  0.00000000000E+00 -0.00000000000E+00 -0.37264404138E+03  0.37264404138E+03  0.00000000000E+00 0. -1.
         25    2    1    2    0    0  0.22736157914E+03 -0.10252066939E+03  0.23329389138E+03  0.36370031457E+03  0.12509238084E+03 0.  0.
          5    1    3    3  502    0  0.14249369956E+03  0.92738621949E+00  0.95535838275E+02  0.17160968287E+03  0.41800000000E+01 0.  1.
         -5    1    3    3    0  502  0.84867879574E+02 -0.10344805560E+03  0.13775805310E+03  0.19209063170E+03  0.41800000000E+01 0.  1.
        -11    1    1    2    0    0 -0.81922366843E+02  0.75618085506E+02 -0.14801946807E+03  0.18530820805E+03  0.00000000000E+00 0. -1.
         11    1    1    2    0    0 -0.14543921229E+03  0.26902583879E+02 -0.10192775716E+03  0.17962622629E+03  0.00000000000E+00 0.  1.
</event>
<event>
 7    1  0.2594791E-009  0.1557114E+03  0.7561462E-02  0.1193625E+00
         -1   -1    0    0    0  501 -0.00000000000E+00  0.00000000000E+00  0.33096181112E+03  0.33096181112E+03  0.00000000000E+00 0.  1.
          1   -1    0    0  501    0  0.00000000000E+00 -0.00000000000E+00 -0.14057744654E+03  0.14057744654E+03  0.00000000000E+00 0. -1.
         25    2    1    2    0    0 -0.10515650486E+03  0.45524335087E+02 -0.60841891286E+02  0.18022118951E+03  0.12509031062E+03 0.  0.
          5    1    3    3  502    0  0.14248241893E+02 -0.23774456675E+02 -0.24919098963E+02  0.37505613985E+02  0.41800000000E+01 0. -1.
         -5    1    3    3    0  502 -0.11940474676E+03  0.69298791763E+02 -0.35922792323E+02  0.14271557552E+03  0.41800000000E+01 0. -1.
        -11    1    1    2    0    0  0.12096597543E+03 -0.33831016992E+02  0.19700611531E+03  0.23364227869E+03  0.00000000000E+00 0.  1.
         11    1    1    2    0    0 -0.15809470563E+02 -0.11693318095E+02  0.54220140564E+02  0.57675789464E+02  0.00000000000E+00 0. -1.
</event>
<event>
 7    1  0.2761669E-009  0.1190571E+03  0.7561462E-02  0.1244661E+00
         -1   -1    0    0    0  501 -0.00000000000E+00  0.00000000000E+00  0.25110953156E+02  0.25110953156E+02  0.00000000000E+00 0.  1.
          1   -1    0    0  501    0  0.00000000000E+00 -0.00000000000E+00 -0.84185184623E+03  0.84185184623E+03  0.00000000000E+00 0. -1.
         25    2    1    2    0    0 -0.13602841789E+02  0.82930701179E+02 -0.30133253993E+03  0.33691433886E+03  0.12508970223E+03 0.  0.
          5    1    3    3  502    0  0.36595361942E+02  0.38269536540E+02 -0.24012402066E+03  0.24592843602E+03  0.41800000000E+01 0. -1.
         -5    1    3    3    0  502 -0.50198203731E+02  0.44661164639E+02 -0.61208519271E+02  0.90985902842E+02  0.41800000000E+01 0. -1.
        -11    1    1    2    0    0 -0.24896423541E+02 -0.74113016095E+02 -0.41203267954E+03  0.41938466837E+03  0.00000000000E+00 0. -1.
         11    1    1    2    0    0  0.38499265330E+02 -0.88176850841E+01 -0.10337567361E+03  0.11066379216E+03  0.00000000000E+00 0.  1.
</event>
<event>
 7    1  0.2594791E-009  0.1045044E+03  0.7561462E-02  0.1271099E+00
         -1   -1    0    0    0  501 -0.00000000000E+00  0.00000000000E+00  0.11197893234E+03  0.11197893234E+03  0.00000000000E+00 0.  1.
          1   -1    0    0  501    0  0.00000000000E+00 -0.00000000000E+00 -0.16066860679E+03  0.16066860679E+03  0.00000000000E+00 0. -1.
         25    2    1    2    0    0  0.40393479319E+02 -0.44765940327E+02 -0.76975602659E+02  0.15879416753E+03  0.12511883012E+03 0.  0.
          5    1    3    3  502    0  0.17772671525E+02 -0.69262730920E+02 -0.96308734889E+02  0.12002515804E+03  0.41800000000E+01 0.  1.
         -5    1    3    3    0  502  0.22620807793E+02  0.24496790593E+02  0.19333132230E+02  0.38769009484E+02  0.41800000000E+01 0.  1.
        -11    1    1    2    0    0  0.21933094242E+02  0.34097542989E+02 -0.74492549321E+01  0.41221286491E+02  0.00000000000E+00 0. -1.
         11    1    1    2    0    0 -0.62326573561E+02  0.10668397338E+02  0.35735183134E+02  0.72632085109E+02  0.00000000000E+00 0.  1.
</event>
<event>
 7    1  0.2594791E-009  0.8003271E+02  0.7561462E-02  0.1328959E+00
          2   -1    0    0  501    0  0.00000000000E+00  0.00000000000E+00  0.64783600878E+02  0.64783600878E+02  0.00000000000E+00 0. -1.
         -2   -1    0    0    0  501 -0.00000000000E+00 -0.00000000000E+00 -0.17406771007E+03  0.17406771007E+03  0.00000000000E+00 0.  1.
         25    2    1    2    0    0  0.58901840053E+02  0.19926162347E+02 -0.55317727699E+02  0.15023909602E+03  0.12508099883E+03 0.  0.
          5    1    3    3  502    0  0.61231031236E+02  0.41472905545E+02  0.15831234540E+02  0.75745240561E+02  0.41800000000E+01 0. -1.
         -5    1    3    3    0  502 -0.23291911830E+01 -0.21546743199E+02 -0.71148962239E+02  0.74493855462E+02  0.41800000000E+01 0. -1.
        -11    1    1    2    0    0 -0.26261481743E+02 -0.11958106116E+01 -0.41200817222E+02  0.48873333487E+02  0.00000000000E+00 0.  1.
         11    1    1    2    0    0 -0.32640358310E+02 -0.18730351735E+02 -0.12765564269E+02  0.39738881436E+02  0.00000000000E+00 0. -1.
</event>
<event>
 7    1  0.2594791E-009  0.1153273E+03  0.7561462E-02  0.1251011E+00
          4   -1    0    0  501    0  0.00000000000E+00  0.00000000000E+00  0.13196501830E+03  0.13196501830E+03  0.00000000000E+00 0.  1.
         -4   -1    0    0    0  501 -0.00000000000E+00 -0.00000000000E+00 -0.13989709841E+03  0.13989709841E+03  0.00000000000E+00 0. -1.
         25    2    1    2    0    0 -0.53605109397E+02 -0.62812908177E+02 -0.93646746884E+01  0.15018125119E+03  0.12509093449E+03 0.  0.
          5    1    3    3  502    0 -0.75179918867E+02  0.59418267700E+01 -0.17535102391E+02  0.77538878777E+02  0.41800000000E+01 0.  1.
         -5    1    3    3    0  502  0.21574809470E+02 -0.68754734947E+02  0.81704277023E+01  0.72642372415E+02  0.41800000000E+01 0.  1.
        -11    1    1    2    0    0  0.35881084457E+02  0.36210364384E+02  0.44759172665E+02  0.67838235888E+02  0.00000000000E+00 0.  1.
         11    1    1    2    0    0  0.17724024940E+02  0.26602543793E+02 -0.43326578085E+02  0.53842629624E+02  0.00000000000E+00 0. -1.
</event>
<event>
 6    1  0.2594791E-009  0.1081981E+03  0.7561462E-02  0.1263944E+00
         -1   -1    0    0    0  501 -0.00000000000E+00  0.00000000000E+00  0.49301697921E+02  0.49301697921E+02  0.00000000000E+00 0.  1.
          1   -1    0    0  501    0  0.00000000000E+00 -0.00000000000E+00 -0.99383106090E+03  0.99383106090E+03  0.00000000000E+00 0. -1.
          5    1    1    2  502    0  0.42975014792E+02 -0.25353811400E+02 -0.50626153285E+03  0.50873163819E+03  0.41800000000E+01 0.  1.
         -5    1    1    2    0  502 -0.65466943329E+02  0.31807232395E+02 -0.43445816420E+03  0.44053262029E+03  0.41800000000E+01 0.  1.
        -11    1    1    2    0    0  0.54089183947E+02  0.13885209202E+02  0.18160865827E+01  0.55872506880E+02  0.00000000000E+00 0.  1.
         11    1    1    2    0    0 -0.31597255410E+02 -0.20338630197E+02 -0.56257525121E+01  0.37995993461E+02  0.00000000000E+00 0. -1.
</event>
<event>
 7    1  0.2594791E-009  0.8595132E+02  0.7561462E-02  0.1312963E+00
         -1   -1    0    0    0  501 -0.00000000000E+00  0.00000000000E+00  0.11225386023E+03  0.11225386023E+03  0.00000000000E+00 0.  1.
          1   -1    0    0  501    0  0.00000000000E+00 -0.00000000000E+00 -0.16205175834E+03  0.16205175834E+03  0.00000000000E+00 0. -1.
         25    2    1    2    0    0  0.96534965808E+01 -0.42100759657E+02 -0.94107424284E+02  0.16238823345E+03  0.12509223437E+03 0.  0.
          5    1    3    3  502    0 -0.36191957150E+02  0.24320351381E+02 -0.60898364293E+02  0.75016134446E+02  0.41800000000E+01 0.  1.
         -5    1    3    3    0  502  0.45845453731E+02 -0.66421111039E+02 -0.33209059991E+02  0.87372099007E+02  0.41800000000E+01 0.  1.
        -11    1    1    2    0    0 -0.13233987786E+02  0.15235113353E+02  0.71039762917E+02  0.73850491040E+02  0.00000000000E+00 0.  1.
         11    1    1    2    0    0  0.35804912051E+01  0.26865646305E+02 -0.26730236746E+02  0.38066894083E+02  0.00000000000E+00 0. -1.
</event>
<event>
 7    1  0.2594791E-009  0.1472044E+03  0.7561462E-02  0.1203951E+00
         -1   -1    0    0    0  501 -0.00000000000E+00  0.00000000000E+00  0.19384692379E+03  0.19384692379E+03  0.00000000000E+00 0.  1.
          1   -1    0    0  501    0  0.00000000000E+00 -0.00000000000E+00 -0.17872889450E+03  0.17872889450E+03  0.00000000000E+00 0. -1.
         25    2    1    2    0    0 -0.80822038616E+02  0.86224262586E+02  0.10117863981E+03  0.19962710002E+03  0.12508811504E+03 0.  0.
          5    1    3    3  502    0  0.96158168716E+00  0.73086552697E+02  0.89878677400E+02  0.11592332757E+03  0.41800000000E+01 0. -1.
         -5    1    3    3    0  502 -0.81783620303E+02  0.13137709889E+02  0.11299962411E+02  0.83703772445E+02  0.41800000000E+01 0. -1.
        -11    1    1    2    0    0  0.94298673125E+02 -0.71827312347E+02 -0.43904506394E+02  0.12640810193E+03  0.00000000000E+00 0.  1.
         11    1    1    2    0    0 -0.13476634509E+02 -0.14396950239E+02 -0.42156104129E+02  0.46540616339E+02  0.00000000000E+00 0. -1.
</event>
<event>
 7    1  0.2594791E-009  0.1485340E+03  0.7561462E-02  0.1202286E+00
         -2   -1    0    0    0  501 -0.00000000000E+00  0.00000000000E+00  0.48432243547E+02  0.48432243547E+02  0.00000000000E+00 0.  1.
          2   -1    0    0  501    0  0.00000000000E+00 -0.00000000000E+00 -0.74970858090E+03  0.74970858090E+03  0.00000000000E+00 0. -1.
         25    2    1    2    0    0  0.67734202164E+02  0.11993277695E+03 -0.21451812672E+03  0.28396653096E+03  0.12508865211E+03 0.  0.
          5    1    3    3  502    0  0.52445984866E+02  0.36674194269E+02 -0.13119595826E+02  0.65461240810E+02  0.41800000000E+01 0. -1.
         -5    1    3    3    0  502  0.15288217298E+02  0.83258582684E+02 -0.20139853089E+03  0.21850529015E+03  0.41800000000E+01 0. -1.
        -11    1    1    2    0    0 -0.72024529807E+02 -0.78532680824E+02 -0.43444984803E+03  0.44732715690E+03  0.00000000000E+00 0. -1.
         11    1    1    2    0    0  0.42903276428E+01 -0.41400096128E+02 -0.52308362612E+02  0.66847136587E+02  0.00000000000E+00 0.  1.
</event>
<event>
 7    1  0.2594791E-009  0.2682995E+03  0.7561462E-02  0.1102257E+00
         -3   -1    0    0    0  501 -0.00000000000E+00  0.00000000000E+00  0.96566461938E+02  0.96566461938E+02  0.00000000000E+00 0.  1.
          3   -1    0    0  501    0  0.00000000000E+00 -0.00000000000E+00 -0.16641524138E+04  0.16641524138E+04  0.00000000000E+00 0. -1.
         25    2    1    2    0    0  0.22212714000E+02 -0.25744655694E+03 -0.14205601410E+04  0.14492795622E+04  0.12509197029E+03 0.  0.
          5    1    3    3  502    0 -0.18857924710E+02 -0.15628511164E+03 -0.10852900804E+04  0.10966552277E+04  0.41800000000E+01 0.  1.
         -5    1    3    3    0  502  0.41070638710E+02 -0.10116144530E+03 -0.33527006054E+03  0.35262433449E+03  0.41800000000E+01 0.  1.
        -11    1    1    2    0    0 -0.51564142518E+02  0.16518769524E+03 -0.12109854448E+03  0.21121243554E+03  0.00000000000E+00 0. -1.
         11    1    1    2    0    0  0.29351428518E+02  0.92258861706E+02 -0.25927266375E+02  0.10022687794E+03  0.00000000000E+00 0.  1.
</event>
<event>
 7    1  0.2594791E-009  0.1192006E+03  0.7561462E-02  0.1244422E+00
          2   -1    0    0  501    0  0.00000000000E+00  0.00000000000E+00  0.46046689824E+03  0.46046689824E+03  0.00000000000E+00 0. -1.
         -2   -1    0    0    0  501 -0.00000000000E+00 -0.00000000000E+00 -0.38200755050E+02  0.38200755050E+02  0.00000000000E+00 0.  1.
         25    2    1    2    0    0 -0.53203837431E+02 -0.51069560182E+02  0.19989626851E+03  0.24707036227E+03  0.12508596027E+03 0.  0.
          5    1    3    3  502    0  0.21871422135E+02 -0.62052139575E+02  0.67086931740E+02  0.94058258235E+02  0.41800000000E+01 0.  1.
         -5    1    3    3    0  502 -0.75075259567E+02  0.10982579392E+02  0.13280933677E+03  0.15301210404E+03  0.41800000000E+01 0.  1.
        -11    1    1    2    0    0  0.56461942453E+02  0.12564829850E+02  0.54975438364E+02  0.79800530814E+02  0.00000000000E+00 0.  1.
         11    1    1    2    0    0 -0.32581050222E+01  0.38504730332E+02  0.16739443631E+03  0.17179676020E+03  0.00000000000E+00 0. -1.
</event>
<event>
 7    1  0.2594791E-009  0.1154280E+03  0.7561462E-02  0.1250836E+00
         -1   -1    0    0    0  501 -0.00000000000E+00  0.00000000000E+00  0.47028895762E+02  0.47028895762E+02  0.00000000000E+00 0.  1.
          1   -1    0    0  501    0  0.00000000000E+00 -0.00000000000E+00 -0.32980308063E+03  0.32980308063E+03  0.00000000000E+00 0. -1.
         25    2    1    2    0    0 -0.58666362143E+02 -0.15931183738E+02 -0.15782490653E+03  0.21035967609E+03  0.12508775935E+03 0.  0.
          5    1    3    3  502    0 -0.22484320229E+02 -0.68458522661E+02 -0.61878897290E+02  0.95071469490E+02  0.41800000000E+01 0. -1.
         -5    1    3    3    0  502 -0.36182041914E+02  0.52527338923E+02 -0.95946009241E+02  0.11528820660E+03  0.41800000000E+01 0. -1.
        -11    1    1    2    0    0  0.16389688303E+01 -0.24689197445E+02 -0.78855514676E+02  0.82646445078E+02  0.00000000000E+00 0.  1.
         11    1    1    2    0    0  0.57027393313E+02  0.40620381182E+02 -0.46093763658E+02  0.83825855221E+02  0.00000000000E+00 0. -1.
</event>
<event>
 7    1  0.2594791E-009  0.1426449E+03  0.7561462E-02  0.1209814E+00
         -1   -1    0    0    0  501 -0.00000000000E+00  0.00000000000E+00  0.57713966204E+02  0.57713966204E+02  0.00000000000E+00 0.  1.
          1   -1    0    0  501    0  0.00000000000E+00 -0.00000000000E+00 -0.41299868586E+03  0.41299868586E+03  0.00000000000E+00 0. -1.
         25    2    1    2    0    0 -0.81431246574E+02 -0.79106009756E+02 -0.21773659856E+03  0.27558129834E+03  0.12508803677E+03 0.  0.
          5    1    3    3  502    0 -0.76632082049E+02  0.96825039960E+01 -0.12528280063E+03  0.14723953076E+03  0.41800000000E+01 0.  1.
         -5    1    3    3    0  502 -0.47991645254E+01 -0.88788513752E+02 -0.92453797925E+02  0.12834176758E+03  0.41800000000E+01 0.  1.
        -11    1    1    2    0    0  0.50191274738E+02  0.70452679160E+02 -0.45914818080E+02  0.97933214896E+02  0.00000000000E+00 0.  1.
         11    1    1    2    0    0  0.31239971836E+02  0.86533305963E+01 -0.91633303014E+02  0.97198138830E+02  0.00000000000E+00 0. -1.
</event>
<event>
 7    1  0.2594791E-009  0.1138203E+03  0.7561462E-02  0.1253654E+00
          2   -1    0    0  501    0  0.00000000000E+00  0.00000000000E+00  0.21388664170E+02  0.21388664170E+02  0.00000000000E+00 0. -1.
         -2   -1    0    0    0  501 -0.00000000000E+00 -0.00000000000E+00 -0.86643705528E+03  0.86643705528E+03  0.00000000000E+00 0.  1.
         25    2    1    2    0    0  0.10325265159E+02  0.50871671474E+02 -0.67118818488E+03  0.68471587326E+03  0.12509080505E+03 0.  0.
          5    1    3    3  502    0  0.29918982164E+02  0.87400864914E+02 -0.41649040148E+03  0.42663307842E+03  0.41800000000E+01 0.  1.
         -5    1    3    3    0  502 -0.19593717005E+02 -0.36529193440E+02 -0.25469778341E+03  0.25808279484E+03  0.41800000000E+01 0.  1.
        -11    1    1    2    0    0 -0.30183801131E+02 -0.63264057504E+02 -0.79952765301E+02  0.10632895891E+03  0.00000000000E+00 0. -1.
         11    1    1    2    0    0  0.19858535971E+02  0.12392386030E+02 -0.93907440925E+02  0.96780887285E+02  0.00000000000E+00 0.  1.
</event>
<event>
 7    1  0.2594791E-009  0.8519541E+02  0.7561462E-02  0.1314922E+00
          2   -1    0    0  501    0  0.00000000000E+00  0.00000000000E+00  0.24937658957E+03  0.24937658957E+03  0.00000000000E+00 0.  1.
         -2   -1    0    0    0  501 -0.00000000000E+00 -0.00000000000E+00 -0.57904482777E+02  0.57904482777E+02  0.00000000000E+00 0. -1.
         25    2    1    2    0    0  0.37778674076E+01 -0.48046166140E+02  0.13824025205E+03  0.19256283176E+03  0.12508945008E+03 0.  0.
          5    1    3    3  502    0  0.17957259778E+02  0.15491843818E+01  0.13957306292E+03  0.14079408881E+03  0.41800000000E+01 0.  1.
         -5    1    3    3    0  502 -0.14179392370E+02 -0.49595350522E+02 -0.13328108646E+01  0.51768742946E+02  0.41800000000E+01 0.  1.
        -11    1    1    2    0    0  0.22965971849E+02  0.64684035480E+02  0.45290844399E+02  0.82235764089E+02  0.00000000000E+00 0.  1.
         11    1    1    2    0    0 -0.26743839257E+02 -0.16637869340E+02  0.79410103344E+01  0.32482476499E+02  0.00000000000E+00 0. -1.
</event>
<event>
 7    1  0.2594791E-009  0.9710561E+02  0.7561462E-02  0.1286503E+00
          3   -1    0    0  501    0  0.00000000000E+00  0.00000000000E+00  0.39136643710E+02  0.39136643710E+02  0.00000000000E+00 0.  1.
         -3   -1    0    0    0  501 -0.00000000000E+00 -0.00000000000E+00 -0.36937953470E+03  0.36937953470E+03  0.00000000000E+00 0. -1.
         25    2    1    2    0    0 -0.24123128122E+02  0.14192507598E+02 -0.25603275702E+03  0.28632854840E+03  0.12509161594E+03 0.  0.
          5    1    3    3  502    0  0.83521621453E+00  0.51814352490E+02 -0.22609568912E+03  0.23199602960E+03  0.41800000000E+01 0. -1.
         -5    1    3    3    0  502 -0.24958344336E+02 -0.37621844892E+02 -0.29937067900E+02  0.54332518803E+02  0.41800000000E+01 0. -1.
        -11    1    1    2    0    0  0.58922109145E+02  0.95088994682E+00 -0.41383060529E+02  0.72008866374E+02  0.00000000000E+00 0.  1.
         11    1    1    2    0    0 -0.34798981023E+02 -0.15143397545E+02 -0.32827073446E+02  0.50178763640E+02  0.00000000000E+00 0. -1.
</event>
<event>
 7    1  0.2594791E-009  0.1893685E+03  0.7561462E-02  0.1159032E+00
          2   -1    0    0  501    0  0.00000000000E+00  0.00000000000E+00  0.12342018147E+04  0.12342018147E+04  0.00000000000E+00 0. -1.
         -2   -1    0    0    0  501 -0.00000000000E+00 -0.00000000000E+00 -0.44378918999E+02  0.44378918999E+02  0.00000000000E+00 0.  1.
         25    2    1    2    0    0 -0.17603926046E+03 -0.28177613290E+02  0.90353725858E+03  0.92941433182E+03  0.12509046100E+03 0.  0.
          5    1    3    3  502    0 -0.32525836347E+02 -0.91106174385E+01  0.49123880908E+03  0.49241646330E+03  0.41800000000E+01 0. -1.
         -5    1    3    3    0  502 -0.14351342411E+03 -0.19066995851E+02  0.41229844949E+03  0.43699786851E+03  0.41800000000E+01 0. -1.
        -11    1    1    2    0    0  0.98652784815E+02 -0.29929917428E+02  0.15056217745E+03  0.18247504265E+03  0.00000000000E+00 0.  1.
         11    1    1    2    0    0  0.77386475645E+02  0.58107530718E+02  0.13572345966E+03  0.16669135922E+03  0.00000000000E+00 0. -1.
</event>
<event>
 7    1  0.2594791E-009  0.1604690E+03  0.7561462E-02  0.1188168E+00
          2   -1    0    0  501    0  0.00000000000E+00  0.00000000000E+00  0.12776593161E+03  0.12776593161E+03  0.00000000000E+00 0. -1.
         -2   -1    0    0    0  501 -0.00000000000E+00 -0.00000000000E+00 -0.24572895213E+03  0.24572895213E+03  0.00000000000E+00 0.  1.
         25    2    1    2    0    0 -0.13147166860E+03 -0.44771463076E+02 -0.46203262069E+02  0.19254146281E+03  0.12509272530E+03 0.  0.
          5    1    3    3  502    0 -0.18253840376E+02  0.36947175453E+02 -0.31579328528E+02  0.52086685945E+02  0.41800000000E+01 0.  1.
         -5    1    3    3    0  502 -0.11321782823E+03 -0.81718638529E+02 -0.14623933540E+02  0.14045477686E+03  0.41800000000E+01 0.  1.
        -11    1    1    2    0    0  0.67691847866E+02  0.31575672749E+02  0.11149079701E+02  0.75521595291E+02  0.00000000000E+00 0. -1.
         11    1    1    2    0    0  0.63779820738E+02  0.13195790327E+02 -0.82908838149E+02  0.10543182565E+03  0.00000000000E+00 0.  1.
</event>
<event>
 7    1  0.2594791E-009  0.1153368E+03  0.7561462E-02  0.1250994E+00
         -2   -1    0    0    0  501 -0.00000000000E+00  0.00000000000E+00  0.26931884811E+02  0.26931884811E+02  0.00000000000E+00 0.  1.
          2   -1    0    0  501    0  0.00000000000E+00 -0.00000000000E+00 -0.92577575299E+03  0.92577575299E+03  0.00000000000E+00 0. -1.
         25    2    1    2    0    0  0.31897940286E+02  0.73414943957E+02 -0.74441099189E+03  0.75907995166E+03  0.12508963016E+03 0.  0.
          5    1    3    3  502    0 -0.42638802653E+02  0.32454129921E+02 -0.16732724584E+03  0.17574759640E+03  0.41800000000E+01 0.  1.
         -5    1    3    3    0  502  0.74536742940E+02  0.40960814036E+02 -0.57708374605E+03  0.58333235526E+03  0.41800000000E+01 0.  1.
        -11    1    1    2    0    0  0.44610231608E+01 -0.46053435329E+02 -0.13749844526E+03  0.14507460867E+03  0.00000000000E+00 0. -1.
         11    1    1    2    0    0 -0.36358963447E+02 -0.27361508628E+02 -0.16934431031E+02  0.48553077469E+02  0.00000000000E+00 0.  1.
</event>
<event>
 7    1  0.2594791E-009  0.1433515E+03  0.7561462E-02  0.1208889E+00
          1   -1    0    0  501    0  0.00000000000E+00  0.00000000000E+00  0.89589257914E+02  0.89589257914E+02  0.00000000000E+00 0. -1.
         -1   -1    0    0    0  501 -0.00000000000E+00 -0.00000000000E+00 -0.33769887296E+03  0.33769887296E+03  0.00000000000E+00 0.  1.
         25    2    1    2    0    0 -0.10892265046E+03 -0.12293376168E+02 -0.33639697473E+02  0.16969069782E+03  0.12509209727E+03 0.  0.
          5    1    3    3  502    0 -0.18276465113E+02  0.36781404316E+02 -0.50427113316E+02  0.65171059819E+02  0.41800000000E+01 0.  1.
         -5    1    3    3    0  502 -0.90646185346E+02 -0.49074780484E+02  0.16787415843E+02  0.10451963800E+03  0.41800000000E+01 0.  1.
        -11    1    1    2    0    0  0.64014626832E+02  0.51874802913E+02 -0.13397394507E+03  0.15728282037E+03  0.00000000000E+00 0.  1.
         11    1    1    2    0    0  0.44908023627E+02 -0.39581426745E+02 -0.80495972505E+02  0.10031461269E+03  0.00000000000E+00 0. -1.
</event>
<event>
 7    1  0.2594791E-009  0.1521112E+03  0.7561462E-02  0.1197903E+00
         -2   -1    0    0    0  501 -0.00000000000E+00  0.00000000000E+00  0.12472202263E+02  0.12472202263E+02  0.00000000000E+00 0.  1.
          2   -1    0    0  501    0  0.00000000000E+00 -0.00000000000E+00 -0.22698455897E+04  0.22698455897E+04  0.00000000000E+00 0. -1.
         25    2    1    2    0    0  0.73388949171E+02  0.78151465761E+02 -0.16911398409E+04  0.16991454150E+04  0.12509032862E+03 0.  0.
          5    1    3    3  502    0  0.10821989251E+03  0.69210081319E+02 -0.13092988442E+04  0.13155920782E+04  0.41800000000E+01 0. -1.
         -5    1    3    3    0  502 -0.34830943336E+02  0.89413844421E+01 -0.38184099668E+03  0.38355333673E+03  0.41800000000E+01 0. -1.
        -11    1    1    2    0    0 -0.91912279552E+02 -0.46953503682E+02 -0.42499867786E+03  0.43735154604E+03  0.00000000000E+00 0.  1.
         11    1    1    2    0    0  0.18523330381E+02 -0.31197962079E+02 -0.14123486867E+03  0.14582083094E+03  0.00000000000E+00 0. -1.
</event>
<event>
 7    1  0.2594791E-009  0.1978582E+03  0.7561462E-02  0.1151559E+00
          2   -1    0    0  501    0  0.00000000000E+00  0.00000000000E+00  0.15322645790E+03  0.15322645790E+03  0.00000000000E+00 0. -1.
         -2   -1    0    0    0  501 -0.00000000000E+00 -0.00000000000E+00 -0.30038703108E+03  0.30038703108E+03  0.00000000000E+00 0.  1.
         25    2    1    2    0    0  0.11366856426E+03  0.14526875434E+03 -0.65385008879E+02  0.23226115218E+03  0.12508593020E+03 0.  0.
          5    1    3    3  502    0  0.80091611308E+02  0.15445249257E+03 -0.83240141421E+02  0.19291612739E+03  0.41800000000E+01 0.  1.
         -5    1    3    3    0  502  0.33576952951E+02 -0.91837382275E+01  0.17855132542E+02  0.39345024786E+02  0.41800000000E+01 0.  1.
        -11    1    1    2    0    0 -0.60490564510E+02 -0.54487344959E+02  0.96323868949E+01  0.81980253919E+02  0.00000000000E+00 0. -1.
         11    1    1    2    0    0 -0.53177999749E+02 -0.90781409385E+02 -0.91407951195E+02  0.13937208289E+03  0.00000000000E+00 0.  1.
</event>
<event>
 7    1  0.2594791E-009  0.1021277E+03  0.7561462E-02  0.1275884E+00
         -1   -1    0    0    0  501 -0.00000000000E+00  0.00000000000E+00  0.34482329618E+02  0.34482329618E+02  0.00000000000E+00 0.  1.
          1   -1    0    0  501    0  0.00000000000E+00 -0.00000000000E+00 -0.36281671212E+03  0.36281671212E+03  0.00000000000E+00 0. -1.
         25    2    1    2    0    0 -0.22528509623E+01 -0.22611490892E+02 -0.15983822163E+03  0.20424119368E+03  0.12509937348E+03 0.  0.
          5    1    3    3  502    0  0.51042608968E+02  0.19357082783E+01 -0.12681692087E+03  0.13678120746E+03  0.41800000000E+01 0.  1.
         -5    1    3    3    0  502 -0.53295459931E+02 -0.24547199171E+02 -0.33021300760E+02  0.67459986216E+02  0.41800000000E+01 0.  1.
        -11    1    1    2    0    0  0.46399540310E+02  0.18093373620E+02 -0.92416543988E+02  0.10498145128E+03  0.00000000000E+00 0. -1.
         11    1    1    2    0    0 -0.44146689348E+02  0.45181172726E+01 -0.76079616883E+02  0.88076396776E+02  0.00000000000E+00 0.  1.
</event>
<event>
 7    1  0.2594791E-009  0.1055154E+03  0.7561462E-02  0.1269108E+00
         -2   -1    0    0    0  501 -0.00000000000E+00  0.00000000000E+00  0.12510278451E+02  0.12510278451E+02  0.00000000000E+00 0.  1.
          2   -1    0    0  501    0  0.00000000000E+00 -0.00000000000E+00 -0.11079795061E+04  0.11079795061E+04  0.00000000000E+00 0. -1.
         25    2    1    2    0    0 -0.39812027103E+02 -0.21762140303E+02 -0.68059015050E+03  0.69347530041E+03  0.12508577486E+03 0.  0.
          5    1    3    3  502    0 -0.13069805829E+02  0.40277752211E+02 -0.47771756731E+03  0.47960886529E+03  0.41800000000E+01 0. -1.
         -5    1    3    3    0  502 -0.26742221274E+02 -0.62039892514E+02 -0.20287258319E+03  0.21386643512E+03  0.41800000000E+01 0. -1.
        -11    1    1    2    0    0  0.63332640923E+02  0.36440006532E+02 -0.31456114701E+03  0.32293592660E+03  0.00000000000E+00 0. -1.
         11    1    1    2    0    0 -0.23520613820E+02 -0.14677866229E+02 -0.10031793011E+03  0.10407855751E+03  0.00000000000E+00 0.  1.
</event>
<event>
 7    1  0.2594791E-009  0.1417711E+03  0.7561462E-02  0.1210965E+00
          2   -1    0    0  501    0  0.00000000000E+00  0.00000000000E+00  0.68647742237E+03  0.68647742237E+03  0.00000000000E+00 0.  1.
         -2   -1    0    0    0  501 -0.00000000000E+00 -0.00000000000E+00 -0.39831719451E+02  0.39831719451E+02  0.00000000000E+00 0. -1.
         25    2    1    2    0    0  0.11997091544E+03 -0.15503977552E+02  0.27787690176E+03  0.32786653738E+03  0.12508996735E+03 0.  0.
          5    1    3    3  502    0  0.72027908275E+01  0.22151768428E+02 -0.20062623134E+01  0.23750337444E+02  0.41800000000E+01 0.  1.
         -5    1    3    3    0  502  0.11276812462E+03 -0.37655745980E+02  0.27988316407E+03  0.30411619994E+03  0.41800000000E+01 0.  1.
        -11    1    1    2    0    0 -0.45812021117E+02  0.42013049147E+02  0.94660563460E+02  0.11324513169E+03  0.00000000000E+00 0. -1.
         11    1    1    2    0    0 -0.74158894328E+02 -0.26509071595E+02  0.27410823771E+03  0.28519747275E+03  0.00000000000E+00 0.  1.
</event>
<event>
 7    1  0.2594791E-009  0.5770805E+02  0.7561462E-02  0.1407710E+00
          3   -1    0    0  501    0  0.00000000000E+00  0.00000000000E+00  0.51638240550E+02  0.51638240550E+02  0.00000000000E+00 0. -1.
         -3   -1    0    0    0  501 -0.00000000000E+00 -0.00000000000E+00 -0.22941337974E+03  0.22941337974E+03  0.00000000000E+00 0.  1.
         25    2    1    2    0    0  0.26417871494E+01 -0.31821383915E+01 -0.86313160501E+02  0.15203441150E+03  0.12508955017E+03 0.  0.
          5    1    3    3  502    0 -0.66940481774E+01  0.11985800769E+02 -0.11615118315E+03  0.11703435157E+03  0.41800000000E+01 0. -1.
         -5    1    3    3    0  502  0.93358353268E+01 -0.15167939161E+02  0.29838022647E+02  0.35000059930E+02  0.41800000000E+01 0. -1.
        -11    1    1    2    0    0  0.30390266395E+02  0.28102835671E+02 -0.72537732125E+02  0.83516826126E+02  0.00000000000E+00 0.  1.
         11    1    1    2    0    0 -0.33032053545E+02 -0.24920697279E+02 -0.18924246562E+02  0.45500382660E+02  0.00000000000E+00 0. -1.
</event>
<event>
 7    1  0.2594791E-009  0.9115289E+02  0.7561462E-02  0.1300084E+00
          1   -1    0    0  501    0  0.00000000000E+00  0.00000000000E+00  0.19748315592E+02  0.19748315592E+02  0.00000000000E+00 0. -1.
         -1   -1    0    0    0  501 -0.00000000000E+00 -0.00000000000E+00 -0.79793673290E+03  0.79793673290E+03  0.00000000000E+00 0.  1.
         25    2    1    2    0    0 -0.40739985114E+01 -0.11354165324E+02 -0.63406523450E+03  0.64639872791E+03  0.12508828605E+03 0.  0.
          5    1    3    3  502    0  0.58660121927E+02  0.89974174325E+01 -0.28817390791E+03  0.29425097625E+03  0.41800000000E+01 0. -1.
         -5    1    3    3    0  502 -0.62734120438E+02 -0.20351582757E+02 -0.34589132659E+03  0.35214775166E+03  0.41800000000E+01 0. -1.
        -11    1    1    2    0    0 -0.95835688918E-01 -0.22558924903E+02 -0.13366187490E+03  0.13555224483E+03  0.00000000000E+00 0.  1.
         11    1    1    2    0    0  0.41698342003E+01  0.33913090228E+02 -0.10461307899E+02  0.35734075740E+02  0.00000000000E+00 0. -1.
</event>
<event>
 7    1  0.2594791E-009  0.1059517E+03  0.7561462E-02  0.1268256E+00
          2   -1    0    0  501    0  0.00000000000E+00  0.00000000000E+00  0.90639129546E+02  0.90639129546E+02  0.00000000000E+00 0. -1.
         -2   -1    0    0    0  501 -0.00000000000E+00 -0.00000000000E+00 -0.17952462296E+03  0.17952462296E+03  0.00000000000E+00 0.  1.
         25    2    1    2    0    0 -0.48869023279E+02 -0.16623710776E+02 -0.94847886739E+02  0.16525042798E+03  0.12508818142E+03 0.  0.
          5    1    3    3  502    0  0.25427970877E+02 -0.22865755458E+02 -0.82705229079E+02  0.89593815594E+02  0.41800000000E+01 0. -1.
         -5    1    3    3    0  502 -0.74296994156E+02  0.62420446818E+01 -0.12142657660E+02  0.75656612385E+02  0.41800000000E+01 0. -1.
        -11    1    1    2    0    0  0.38655207516E+02 -0.33787765355E+02  0.13098230919E+02  0.52984920581E+02  0.00000000000E+00 0. -1.
         11    1    1    2    0    0  0.10213815763E+02  0.50411476131E+02 -0.71358375920E+01  0.51928403945E+02  0.00000000000E+00 0.  1.
</event>
<event>
 7    1  0.2594791E-009  0.1219892E+03  0.7561462E-02  0.1239851E+00
         -1   -1    0    0    0  501 -0.00000000000E+00  0.00000000000E+00  0.17831591560E+03  0.17831591560E+03  0.00000000000E+00 0.  1.
          1   -1    0    0  501    0  0.00000000000E+00 -0.00000000000E+00 -0.14361939542E+03  0.14361939542E+03  0.00000000000E+00 0. -1.
         25    2    1    2    0    0  0.84482229855E+02 -0.31107294080E+02 -0.57504078624E+02  0.16451014100E+03  0.12510777964E+03 0.  0.
          5    1    3    3  502    0  0.31454983483E+02  0.24529879485E+02 -0.75472563366E+02  0.85467603187E+02  0.41800000000E+01 0.  1.
         -5    1    3    3    0  502  0.53027246372E+02 -0.55637173564E+02  0.17968484742E+02  0.79042537813E+02  0.41800000000E+01 0.  1.
        -11    1    1    2    0    0 -0.93422720358E+02 -0.11447062757E+01  0.60366769849E+02  0.11123516500E+03  0.00000000000E+00 0. -1.
         11    1    1    2    0    0  0.89404905032E+01  0.32252000356E+02  0.31833828957E+02  0.46190005017E+02  0.00000000000E+00 0.  1.
</event>
<event>
 7    1  0.2594791E-009  0.3554274E+03  0.7561462E-02  0.1060409E+00
          1   -1    0    0  501    0  0.00000000000E+00  0.00000000000E+00  0.42351284498E+03  0.42351284498E+03  0.00000000000E+00 0. -1.
         -1   -1    0    0    0  501 -0.00000000000E+00 -0.00000000000E+00 -0.41097993510E+03  0.41097993510E+03  0.00000000000E+00 0.  1.
         25    2    1    2    0    0 -0.19602742024E+03  0.28765107569E+03  0.20846093802E+03  0.42458937249E+03  0.12510108604E+03 0.  0.
          5    1    3    3  502    0 -0.88961963960E+02  0.21421963990E+03  0.17459179769E+03  0.29035160301E+03  0.41800000000E+01 0.  1.
         -5    1    3    3    0  502 -0.10706545628E+03  0.73431435787E+02  0.33869140327E+02  0.13423776948E+03  0.41800000000E+01 0.  1.
        -11    1    1    2    0    0  0.42465755633E+02 -0.81566284042E+02 -0.95965410294E+01  0.92458059106E+02  0.00000000000E+00 0. -1.
         11    1    1    2    0    0  0.15356166460E+03 -0.20608479164E+03 -0.18633148711E+03  0.31744534848E+03  0.00000000000E+00 0.  1.
</event>
<event>
 7    1  0.2594791E-009  0.1091982E+03  0.7561462E-02  0.1262062E+00
         -2   -1    0    0    0  501 -0.00000000000E+00  0.00000000000E+00  0.73553863097E+02  0.73553863097E+02  0.00000000000E+00 0.  1.
          2   -1    0    0  501    0  0.00000000000E+00 -0.00000000000E+00 -0.27716987509E+03  0.27716987509E+03  0.00000000000E+00 0. -1.
         25    2    1    2    0    0  0.47710214997E+01 -0.61630750587E+02 -0.19430122166E+03  0.23921043120E+03  0.12509018185E+03 0.  0.
          5    1    3    3  502    0 -0.51841982814E+02 -0.64290906922E+02 -0.11626982436E+03  0.14267815654E+03  0.41800000000E+01 0. -1.
         -5    1    3    3    0  502  0.56613004314E+02  0.26601563347E+01 -0.78031397293E+02  0.96532274668E+02  0.41800000000E+01 0. -1.
        -11    1    1    2    0    0 -0.26052811810E+02  0.44445226812E+02  0.32960630819E+02  0.61159875519E+02  0.00000000000E+00 0.  1.
         11    1    1    2    0    0  0.21281790310E+02  0.17185523776E+02 -0.42275421157E+02  0.50353431465E+02  0.00000000000E+00 0. -1.
</event>
<event>
 7    1  0.2594791E-009  0.9757344E+02  0.7561462E-02  0.1285483E+00
          2   -1    0    0  501    0  0.00000000000E+00  0.00000000000E+00  0.19184060366E+04  0.19184060366E+04  0.00000000000E+00 0.  1.
         -2   -1    0    0    0  501 -0.00000000000E+00 -0.00000000000E+00 -0.92144118546E+01  0.92144118546E+01  0.00000000000E+00 0. -1.
         25    2    1    2    0    0 -0.48478704185E+01 -0.10120067240E+02  0.16144096172E+04  0.16192870950E+04  0.12508543683E+03 0.  0.
          5    1    3    3  502    0 -0.59190967504E+02 -0.14535197748E+02  0.53184959525E+03  0.53534690339E+03  0.41800000000E+01 0. -1.
         -5    1    3    3    0  502  0.54343097085E+02  0.44151305075E+01  0.10825600219E+04  0.10839401916E+04  0.41800000000E+01 0. -1.
        -11    1    1    2    0    0  0.41490819431E+02  0.52694782050E+00  0.22631224010E+03  0.23008475784E+03  0.00000000000E+00 0.  1.
         11    1    1    2    0    0 -0.36642949013E+02  0.95931194197E+01  0.68469767450E+02  0.78248595561E+02  0.00000000000E+00 0. -1.
</event>
<event>
 7    1  0.2594791E-009  0.1221803E+03  0.7561462E-02  0.1239543E+00
         -2   -1    0    0    0  501 -0.00000000000E+00  0.00000000000E+00  0.44303253618E+02  0.44303253618E+02  0.00000000000E+00 0.  1.
          2   -1    0    0  501    0  0.00000000000E+00 -0.00000000000E+00 -0.47460877137E+03  0.47460877137E+03  0.00000000000E+00 0. -1.
         25    2    1    2    0    0 -0.79065460557E+02  0.28157578299E+02 -0.14773222790E+03  0.21098516739E+03  0.12508290623E+03 0.  0.
          5    1    3    3  502    0 -0.92952793296E+02  0.59008078447E+02 -0.83422434825E+02  0.13819895128E+03  0.41800000000E+01 0.  1.
         -5    1    3    3    0  502  0.13887332739E+02 -0.30850500148E+02 -0.64309793075E+02  0.72786216108E+02  0.41800000000E+01 0.  1.
        -11    1    1    2    0    0  0.45759248430E+02  0.12593804281E+02 -0.47925182518E+02  0.67448764574E+02  0.00000000000E+00 0.  1.
         11    1    1    2    0    0  0.33306212127E+02 -0.40751382580E+02 -0.23464810734E+03  0.24047809303E+03  0.00000000000E+00 0. -1.
</event>
<event>
 7    1  0.2594791E-009  0.1596095E+03  0.7561462E-02  0.1189138E+00
          2   -1    0    0  501    0  0.00000000000E+00  0.00000000000E+00  0.68761748144E+03  0.68761748144E+03  0.00000000000E+00 0. -1.
         -2   -1    0    0    0  501 -0.00000000000E+00 -0.00000000000E+00 -0.48347662807E+02  0.48347662807E+02  0.00000000000E+00 0.  1.
         25    2    1    2    0    0  0.10922203200E+03 -0.36643192419E+01  0.18117198289E+03  0.24579175443E+03  0.12508964646E+03 0.  0.
          5    1    3    3  502    0 -0.20724105727E+01  0.38900714558E+02  0.81345978264E+02  0.90289540139E+02  0.41800000000E+01 0.  1.
         -5    1    3    3    0  502  0.11129444257E+03 -0.42565033800E+02  0.99826004624E+02  0.15550221429E+03  0.41800000000E+01 0.  1.
        -11    1    1    2    0    0  0.25020652570E+02  0.86527278000E+01  0.23889985201E+02  0.35659979618E+02  0.00000000000E+00 0.  1.
         11    1    1    2    0    0 -0.13424268457E+03 -0.49884085580E+01  0.43420785054E+03  0.45451341020E+03  0.00000000000E+00 0. -1.
</event>
<event>
 7    1  0.2594791E-009  0.1817493E+03  0.7561462E-02  0.1166121E+00
          1   -1    0    0  501    0  0.00000000000E+00  0.00000000000E+00  0.44318321320E+03  0.44318321320E+03  0.00000000000E+00 0. -1.
         -1   -1    0    0    0  501 -0.00000000000E+00 -0.00000000000E+00 -0.89072899251E+02  0.89072899251E+02  0.00000000000E+00 0.  1.
         25    2    1    2    0    0  0.10986713912E+03  0.96905252151E+02  0.79945636947E+02  0.20857016836E+03  0.12509514023E+03 0.  0.
          5    1    3    3  502    0  0.29848382228E+02 -0.30018732368E+02  0.17943914983E+02  0.46168243410E+02  0.41800000000E+01 0.  1.
         -5    1    3    3    0  502  0.80018756896E+02  0.12692398452E+03  0.62001721964E+02  0.16240192495E+03  0.41800000000E+01 0.  1.
        -11    1    1    2    0    0  0.11246411844E+02 -0.30997028476E+02  0.69242864203E+02  0.76693362142E+02  0.00000000000E+00 0. -1.
         11    1    1    2    0    0 -0.12111355097E+03 -0.65908223676E+02  0.20492181280E+03  0.24699258195E+03  0.00000000000E+00 0.  1.
</event>
<event>
 7    1  0.2594791E-009  0.1199962E+03  0.7561462E-02  0.1243103E+00
         -1   -1    0    0    0  501 -0.00000000000E+00  0.00000000000E+00  0.82997844699E+02  0.82997844699E+02  0.00000000000E+00 0.  1.
          1   -1    0    0  501    0  0.00000000000E+00 -0.00000000000E+00 -0.33335027894E+03  0.33335027894E+03  0.00000000000E+00 0. -1.
         25    2    1    2    0    0 -0.34671446045E+02  0.74547214834E+02 -0.14426347156E+02  0.15038356671E+03  0.12509077198E+03 0.  0.
          5    1    3    3  502    0 -0.81107483779E+02  0.59257302253E+02 -0.12111595154E+02  0.10126211005E+03  0.41800000000E+01 0.  1.
         -5    1    3    3    0  502  0.46436037733E+02  0.15289912581E+02 -0.23147520018E+01  0.49121456655E+02  0.41800000000E+01 0.  1.
        -11    1    1    2    0    0  0.37701720076E+01 -0.52002760612E+02 -0.21720999536E+03  0.22338013204E+03  0.00000000000E+00 0. -1.
         11    1    1    2    0    0  0.30901274038E+02 -0.22544454222E+02 -0.18716091726E+02  0.42584424885E+02  0.00000000000E+00 0.  1.
</event>
<event>
 7    1  0.2594791E-009  0.1094173E+03  0.7561462E-02  0.1261653E+00
         -1   -1    0    0    0  501 -0.00000000000E+00  0.00000000000E+00  0.46483571677E+02  0.46483571677E+02  0.00000000000E+00 0.  1.
          1   -1    0    0  501    0  0.00000000000E+00 -0.00000000000E+00 -0.29611092270E+03  0.29611092270E+03  0.00000000000E+00 0. -1.
         25    2    1    2    0    0  0.31917585599E+02 -0.14066924003E+01 -0.10534421636E+03  0.16662861036E+03  0.12508788437E+03 0.  0.
          5    1    3    3  502    0  0.69478782952E+02 -0.35308749043E+02 -0.69181807494E+02  0.10429575220E+03  0.41800000000E+01 0.  1.
         -5    1    3    3    0  502 -0.37561197353E+02  0.33902056642E+02 -0.36162408869E+02  0.62332858160E+02  0.41800000000E+01 0.  1.
        -11    1    1    2    0    0  0.25768292462E+02 -0.15288914104E+02 -0.90564771615E+02  0.95392524071E+02  0.00000000000E+00 0.  1.
         11    1    1    2    0    0 -0.57685878061E+02  0.16695606505E+02 -0.53718363046E+02  0.80573359943E+02  0.00000000000E+00 0. -1.
</event>
<event>
 7    1  0.2594791E-009  0.1018946E+03  0.7561462E-02  0.1276362E+00
          1   -1    0    0  501    0  0.00000000000E+00  0.00000000000E+00  0.19563103297E+03  0.19563103297E+03  0.00000000000E+00 0. -1.
         -1   -1    0    0    0  501 -0.00000000000E+00 -0.00000000000E+00 -0.18742463052E+03  0.18742463052E+03  0.00000000000E+00 0.  1.
         25    2    1    2    0    0 -0.46049615963E+02 -0.19044106184E+02  0.15329206485E+03  0.20403259351E+03  0.12509035519E+03 0.  0.
          5    1    3    3  502    0 -0.20923959524E+02  0.51591430685E+02  0.89599100144E+02  0.10556968764E+03  0.41800000000E+01 0.  1.
         -5    1    3    3    0  502 -0.25125656439E+02 -0.70635536869E+02  0.63692964702E+02  0.98462905872E+02  0.41800000000E+01 0.  1.
        -11    1    1    2    0    0 -0.30697756279E+01 -0.13568656221E+02  0.72413971310E+01  0.15683423939E+02  0.00000000000E+00 0. -1.
         11    1    1    2    0    0  0.49119391591E+02  0.32612762405E+02 -0.15232705953E+03  0.16333964603E+03  0.00000000000E+00 0.  1.
</event>
<event>
 7    1  0.2594791E-009  0.1107109E+03  0.7561462E-02  0.1259259E+00
          4   -1    0    0  501    0  0.00000000000E+00  0.00000000000E+00  0.64647535922E+02  0.64647535922E+02  0.00000000000E+00 0. -1.
         -4   -1    0    0    0  501 -0.00000000000E+00 -0.00000000000E+00 -0.30936711589E+03  0.30936711589E+03  0.00000000000E+00 0.  1.
         25    2    1    2    0    0  0.88331960196E+02  0.14423850105E+02 -0.12191307120E+03  0.19626640464E+03  0.12508845676E+03 0.  0.
          5    1    3    3  502    0  0.45106783350E+02 -0.27709622351E+02  0.72862356261E+01  0.53600435675E+02  0.41800000000E+01 0.  1.
         -5    1    3    3    0  502  0.43225176846E+02  0.42133472456E+02 -0.12919930683E+03  0.14266596896E+03  0.41800000000E+01 0.  1.
        -11    1    1    2    0    0  0.42706106577E+01 -0.14597073110E+02  0.82301804036E+01  0.17293019639E+02  0.00000000000E+00 0. -1.
         11    1    1    2    0    0 -0.92602570854E+02  0.17322300491E+00 -0.13103668916E+03  0.16045522753E+03  0.00000000000E+00 0.  1.
</event>
<event>
 7    1  0.2594791E-009  0.8946207E+02  0.7561462E-02  0.1304160E+00
         -2   -1    0    0    0  501 -0.00000000000E+00  0.00000000000E+00  0.73367040699E+02  0.73367040699E+02  0.00000000000E+00 0. -1.
          2   -1    0    0  501    0  0.00000000000E+00 -0.00000000000E+00 -0.18185141914E+03  0.18185141914E+03  0.00000000000E+00 0.  1.
         25    2    1    2    0    0  0.30128638784E+01  0.47229047401E+02 -0.79118279781E+02  0.15539138233E+03  0.12508844567E+03 0.  0.
          5    1    3    3  502    0  0.41563709223E+02  0.56626960329E+00 -0.84721000987E+02  0.94461542407E+02  0.41800000000E+01 0.  1.
         -5    1    3    3    0  502 -0.38550845344E+02  0.46662777798E+02  0.56027212064E+01  0.60929839927E+02  0.41800000000E+01 0.  1.
        -11    1    1    2    0    0  0.27846130220E+02 -0.14143164886E+02 -0.42476316138E+02  0.52722609134E+02  0.00000000000E+00 0.  1.
         11    1    1    2    0    0 -0.30858994098E+02 -0.33085882515E+02  0.13110217476E+02  0.47104468374E+02  0.00000000000E+00 0. -1.
</event>
<event>
 7    1  0.2594791E-009  0.1034907E+03  0.7561462E-02  0.1273122E+00
          2   -1    0    0  501    0  0.00000000000E+00  0.00000000000E+00  0.11226114399E+04  0.11226114399E+04  0.00000000000E+00 0. -1.
         -2   -1    0    0    0  501 -0.00000000000E+00 -0.00000000000E+00 -0.13129916511E+02  0.13129916511E+02  0.00000000000E+00 0.  1.
         25    2    1    2    0    0  0.41602858628E+02  0.49992647594E+01  0.77688598758E+03  0.78800685460E+03  0.12508866736E+03 0.  0.
          5    1    3    3  502    0  0.51341748632E+02  0.46401220481E+02  0.25135363859E+03  0.26073966413E+03  0.41800000000E+01 0. -1.
         -5    1    3    3    0  502 -0.97388900039E+01 -0.41401955722E+02  0.52553234898E+03  0.52726719047E+03  0.41800000000E+01 0. -1.
        -11    1    1    2    0    0  0.87046478721E+01 -0.35185687954E+02  0.19195864918E+03  0.19535077815E+03  0.00000000000E+00 0. -1.
         11    1    1    2    0    0 -0.50307506500E+02  0.30186423195E+02  0.14063688665E+03  0.15238372368E+03  0.00000000000E+00 0.  1.
</event>
<event>
 7    1  0.2594791E-009  0.1021994E+03  0.7561462E-02  0.1275738E+00
          1   -1    0    0  501    0  0.00000000000E+00  0.00000000000E+00  0.70820474397E+03  0.70820474397E+03  0.00000000000E+00 0. -1.
         -1   -1    0    0    0  501 -0.00000000000E+00 -0.00000000000E+00 -0.18189528980E+02  0.18189528980E+02  0.00000000000E+00 0.  1.
         25    2    1    2    0    0 -0.21702842223E+02  0.30019492876E+02  0.39500355683E+03  0.41598974184E+03  0.12508985610E+03 0.  0.
          5    1    3    3  502    0  0.30136466955E+01 -0.37347956907E+02  0.26296268888E+03  0.26565165179E+03  0.41800000000E+01 0.  1.
         -5    1    3    3    0  502 -0.24716488919E+02  0.67367449783E+02  0.13204086794E+03  0.15033809006E+03  0.41800000000E+01 0.  1.
        -11    1    1    2    0    0 -0.27872922850E+02  0.11499356369E+02  0.68481021997E+02  0.74825031900E+02  0.00000000000E+00 0.  1.
         11    1    1    2    0    0  0.49575765073E+02 -0.41518849245E+02  0.22653063617E+03  0.23557949921E+03  0.00000000000E+00 0. -1.
</event>
<event>
 7    1  0.2594791E-009  0.8593634E+02  0.7561462E-02  0.1313002E+00
         -1   -1    0    0    0  501 -0.00000000000E+00  0.00000000000E+00  0.44273481922E+02  0.44273481922E+02  0.00000000000E+00 0.  1.
          1   -1    0    0  501    0  0.00000000000E+00 -0.00000000000E+00 -0.44775884502E+03  0.44775884502E+03  0.00000000000E+00 0. -1.
         25    2    1    2    0    0 -0.44662482975E+02 -0.32215122994E+02 -0.34454064921E+03  0.37065889669E+03  0.12508879727E+03 0.  0.
          5    1    3    3  502    0 -0.48027453760E+02  0.39766367589E+00 -0.35537264295E+02  0.59892937853E+02  0.41800000000E+01 0.  1.
         -5    1    3    3    0  502  0.33649707850E+01 -0.32612786670E+02 -0.30900338492E+03  0.31076595884E+03  0.41800000000E+01 0.  1.
        -11    1    1    2    0    0  0.34726245006E+02  0.55401321665E+02 -0.97767175949E+01  0.66112046870E+02  0.00000000000E+00 0.  1.
         11    1    1    2    0    0  0.99362379694E+01 -0.23186198670E+02 -0.49167996291E+02  0.55261383379E+02  0.00000000000E+00 0. -1.
</event>
<event>
 7    1  0.2594791E-009  0.1008317E+03  0.7561462E-02  0.1278557E+00
          1   -1    0    0  501    0  0.00000000000E+00  0.00000000000E+00  0.35885954202E+03  0.35885954202E+03  0.00000000000E+00 0. -1.
         -1   -1    0    0    0  501 -0.00000000000E+00 -0.00000000000E+00 -0.45253214396E+02  0.45253214396E+02  0.00000000000E+00 0.  1.
         25    2    1    2    0    0  0.14949354891E+02 -0.99020289856E+01  0.26258702790E+03  0.29141176669E+03  0.12508931672E+03 0.  0.
          5    1    3    3  502    0 -0.39755745986E+01  0.56528804125E+02  0.12918081587E+03  0.14112571161E+03  0.41800000000E+01 0. -1.
         -5    1    3    3    0  502  0.18924929490E+02 -0.66430833111E+02  0.13340621203E+03  0.15028605509E+03  0.41800000000E+01 0. -1.
        -11    1    1    2    0    0 -0.27919740220E+02  0.36555981780E+02 -0.79691050607E+01  0.46683598118E+02  0.00000000000E+00 0.  1.
         11    1    1    2    0    0  0.12970385329E+02 -0.26653952794E+02  0.58988404790E+02  0.66017391608E+02  0.00000000000E+00 0. -1.
</event>
<event>
 7    1  0.2594791E-009  0.9484724E+02  0.7561462E-02  0.1291521E+00
         -1   -1    0    0    0  501 -0.00000000000E+00  0.00000000000E+00  0.13955816814E+03  0.13955816814E+03  0.00000000000E+00 0.  1.
          1   -1    0    0  501    0  0.00000000000E+00 -0.00000000000E+00 -0.12669521095E+03  0.12669521095E+03  0.00000000000E+00 0. -1.
         25    2    1    2    0    0  0.21483597216E+02  0.59419029999E+02  0.49575845129E+02  0.14865914715E+03  0.12509840740E+03 0.  0.
          5    1    3    3  502    0  0.57365460219E+02  0.91499893029E+01  0.62491272374E+02  0.85423356603E+02  0.41800000000E+01 0.  1.
         -5    1    3    3    0  502 -0.35881863002E+02  0.50269040696E+02 -0.12915427245E+02  0.63235790546E+02  0.41800000000E+01 0.  1.
        -11    1    1    2    0    0  0.73104281216E+01 -0.13452065954E+02  0.28754484072E+02  0.32576383961E+02  0.00000000000E+00 0.  1.
         11    1    1    2    0    0 -0.28794025338E+02 -0.45966964045E+02 -0.65467372009E+02  0.85017847987E+02  0.00000000000E+00 0. -1.
</event>
<event>
 7    1  0.2594791E-009  0.2438553E+03  0.7561462E-02  0.1117251E+00
          1   -1    0    0  501    0  0.00000000000E+00  0.00000000000E+00  0.13057515546E+03  0.13057515546E+03  0.00000000000E+00 0. -1.
         -1   -1    0    0    0  501 -0.00000000000E+00 -0.00000000000E+00 -0.50495195488E+03  0.50495195488E+03  0.00000000000E+00 0.  1.
         25    2    1    2    0    0 -0.46602770622E+02 -0.22348933058E+03 -0.24569994142E+03  0.35795714785E+03  0.12508221045E+03 0.  0.
          5    1    3    3  502    0 -0.46881723937E+02 -0.13018706975E+02 -0.34739159798E+02  0.59930496361E+02  0.41800000000E+01 0.  1.
         -5    1    3    3    0  502  0.27895331491E+00 -0.21047062360E+03 -0.21096078162E+03  0.29802665149E+03  0.41800000000E+01 0.  1.
        -11    1    1    2    0    0  0.97327711248E+01  0.58530173749E+02  0.84242114277E+01  0.59928919655E+02  0.00000000000E+00 0. -1.
         11    1    1    2    0    0  0.36869999497E+02  0.16495915683E+03 -0.13710106943E+03  0.21764104283E+03  0.00000000000E+00 0.  1.
</event>
<event>
 7    1  0.2594791E-009  0.1841410E+03  0.7561462E-02  0.1163854E+00
         -1   -1    0    0    0  501 -0.00000000000E+00  0.00000000000E+00  0.15094290857E+03  0.15094290857E+03  0.00000000000E+00 0.  1.
          1   -1    0    0  501    0  0.00000000000E+00 -0.00000000000E+00 -0.25860568600E+03  0.25860568600E+03  0.00000000000E+00 0. -1.
         25    2    1    2    0    0 -0.39666110953E+02  0.14924914821E+03 -0.70698126836E+02  0.21093759066E+03  0.12509090061E+03 0.  0.
          5    1    3    3  502    0  0.30167449973E+02  0.59436734041E+02 -0.70475812451E+02  0.97093320738E+02  0.41800000000E+01 0. -1.
         -5    1    3    3    0  502 -0.69833560926E+02  0.89812414171E+02 -0.22231438466E+00  0.11384426992E+03  0.41800000000E+01 0. -1.
        -11    1    1    2    0    0  0.76690826730E+02 -0.98594329752E+02  0.16816624566E+01  0.12492058578E+03  0.00000000000E+00 0.  1.
         11    1    1    2    0    0 -0.37024715777E+02 -0.50654818461E+02 -0.38646313051E+02  0.73690418129E+02  0.00000000000E+00 0. -1.
</event>
<event>
 7    1  0.2594791E-009  0.2702482E+03  0.7561462E-02  0.1101138E+00
          1   -1    0    0  501    0  0.00000000000E+00  0.00000000000E+00  0.14186612252E+03  0.14186612252E+03  0.00000000000E+00 0. -1.
         -1   -1    0    0    0  501 -0.00000000000E+00 -0.00000000000E+00 -0.54105745221E+03  0.54105745221E+03  0.00000000000E+00 0.  1.
         25    2    1    2    0    0 -0.31222604587E+02  0.25102024073E+03 -0.16256877981E+03  0.32566263375E+03  0.12506610475E+03 0.  0.
          5    1    3    3  502    0  0.48392405537E+02  0.99282702164E+02 -0.57084258591E+02  0.12439841173E+03  0.41800000000E+01 0. -1.
         -5    1    3    3    0  502 -0.79615010123E+02  0.15173753857E+03 -0.10548452122E+03  0.20126422202E+03  0.41800000000E+01 0. -1.
        -11    1    1    2    0    0  0.19300908457E+02 -0.22141408172E+02 -0.22595359048E+01  0.29459676265E+02  0.00000000000E+00 0. -1.
         11    1    1    2    0    0  0.11921696129E+02 -0.22887883256E+03 -0.23436301397E+03  0.32780126472E+03  0.00000000000E+00 0.  1.
</event>
<event>
 6    1  0.2594791E-009  0.1582202E+03  0.7561462E-02  0.1190721E+00
         -1   -1    0    0    0  501 -0.00000000000E+00  0.00000000000E+00  0.70600062277E+02  0.70600062277E+02  0.00000000000E+00 0.  1.
          1   -1    0    0  501    0  0.00000000000E+00 -0.00000000000E+00 -0.40922306838E+03  0.40922306838E+03  0.00000000000E+00 0. -1.
          5    1    1    2  502    0  0.22076706093E+02  0.10000631035E+03 -0.51862704088E+02  0.11487321506E+03  0.41800000000E+01 0.  1.
         -5    1    1    2    0  502 -0.67511658154E+02  0.91759963377E+01 -0.55186909870E+02  0.87778643852E+02  0.41800000000E+01 0.  1.
        -11    1    1    2    0    0  0.68774346394E+02 -0.60109522883E+02 -0.10346686043E+03  0.13801614641E+03  0.00000000000E+00 0.  1.
         11    1    1    2    0    0 -0.23339394333E+02 -0.49072783809E+02 -0.12810653172E+03  0.13915512534E+03  0.00000000000E+00 0. -1.
</event>
<event>
 7    1  0.2594791E-009  0.1161782E+03  0.7561462E-02  0.1249538E+00
         -1   -1    0    0    0  501 -0.00000000000E+00  0.00000000000E+00  0.83151135563E+02  0.83151135563E+02  0.00000000000E+00 0.  1.
          1   -1    0    0  501    0  0.00000000000E+00 -0.00000000000E+00 -0.23021426781E+03  0.23021426781E+03  0.00000000000E+00 0. -1.
         25    2    1    2    0    0 -0.86873904787E+02  0.59871857712E+01 -0.94006506820E+02  0.17907574764E+03  0.12509187960E+03 0.  0.
          5    1    3    3  502    0  0.12003160867E+02  0.25575840192E+02  0.13548532670E+02  0.31610672404E+02  0.41800000000E+01 0. -1.
         -5    1    3    3    0  502 -0.98877065653E+02 -0.19588654421E+02 -0.10755503949E+03  0.14746507523E+03  0.41800000000E+01 0. -1.
        -11    1    1    2    0    0  0.48096493555E+01  0.17016891703E+02 -0.45395909844E+02  0.48718538163E+02  0.00000000000E+00 0. -1.
         11    1    1    2    0    0  0.82064255431E+02 -0.23004077475E+02 -0.76607155879E+01  0.85571117576E+02  0.00000000000E+00 0.  1.
</event>
<event>
 7    1  0.2594791E-009  0.9090884E+02  0.7561462E-02  0.1300666E+00
          1   -1    0    0  501    0  0.00000000000E+00  0.00000000000E+00  0.54154538486E+03  0.54154538486E+03  0.00000000000E+00 0. -1.
         -1   -1    0    0    0  501 -0.00000000000E+00 -0.00000000000E+00 -0.17182861974E+02  0.17182861974E+02  0.00000000000E+00 0.  1.
         25    2    1    2    0    0 -0.69750391411E+01 -0.18724561152E+02  0.36625956579E+03  0.38754777250E+03  0.12509175064E+03 0.  0.
          5    1    3    3  502    0 -0.46305997134E+02 -0.50883350220E+02  0.14580062590E+03  0.16127199265E+03  0.41800000000E+01 0. -1.
         -5    1    3    3    0  502  0.39330957993E+02  0.32158789068E+02  0.22045893989E+03  0.22627577986E+03  0.41800000000E+01 0. -1.
        -11    1    1    2    0    0  0.10488179899E+02  0.39487694863E+02  0.74517613059E+02  0.84983260818E+02  0.00000000000E+00 0.  1.
         11    1    1    2    0    0 -0.35131407581E+01 -0.20763133711E+02  0.83585344032E+02  0.86197213507E+02  0.00000000000E+00 0. -1.
</event>
<event>
 7    1  0.2594791E-009  0.1469061E+03  0.7561462E-02  0.1204327E+00
          1   -1    0    0  501    0  0.00000000000E+00  0.00000000000E+00  0.45547176250E+03  0.45547176250E+03  0.00000000000E+00 0. -1.
         -1   -1    0    0    0  501 -0.00000000000E+00 -0.00000000000E+00 -0.67018848260E+02  0.67018848260E+02  0.00000000000E+00 0.  1.
         25    2    1    2    0    0  0.43688458520E+02  0.12946663469E+03  0.18205609730E+03  0.25973682539E+03  0.12509398464E+03 0.  0.
          5    1    3    3  502    0  0.13959644525E+02  0.16706429188E+02  0.13015036309E+03  0.13202486835E+03  0.41800000000E+01 0. -1.
         -5    1    3    3    0  502  0.29728813995E+02  0.11276020550E+03  0.51905734212E+02  0.12771195703E+03  0.41800000000E+01 0. -1.
        -11    1    1    2    0    0  0.14693092175E+02 -0.70357509087E+02  0.13614496760E+03  0.15395297414E+03  0.00000000000E+00 0. -1.
         11    1    1    2    0    0 -0.58381550695E+02 -0.59109125599E+02  0.70251849342E+02  0.10880081124E+03  0.00000000000E+00 0.  1.
</event>
<event>
 7    1  0.2594791E-009  0.2114708E+03  0.7561462E-02  0.1140407E+00
         -2   -1    0    0    0  501 -0.00000000000E+00  0.00000000000E+00  0.20431393761E+03  0.20431393761E+03  0.00000000000E+00 0. -1.
          2   -1    0    0  501    0  0.00000000000E+00 -0.00000000000E+00 -0.41963700522E+03  0.41963700522E+03  0.00000000000E+00 0.  1.
         25    2    1    2    0    0 -0.17021464638E+03  0.10750002027E+03 -0.30389042296E+03  0.38538854522E+03  0.12508261836E+03 0.  0.
          5    1    3    3  502    0 -0.71935562185E+02  0.67668248348E+02 -0.51211459282E+02  0.11132745799E+03  0.41800000000E+01 0.  1.
         -5    1    3    3    0  502 -0.98279084197E+02  0.39831771926E+02 -0.25267896368E+03  0.27406108723E+03  0.41800000000E+01 0.  1.
        -11    1    1    2    0    0  0.14957021255E+03 -0.51347372266E+02  0.82673975507E+02  0.17844547444E+03  0.00000000000E+00 0. -1.
         11    1    1    2    0    0  0.20644433831E+02 -0.56152648008E+02  0.58933798407E+01  0.60116923178E+02  0.00000000000E+00 0.  1.
</event>
<event>
 7    1  0.2594791E-009  0.1328326E+03  0.7561462E-02  0.1223312E+00
         -1   -1    0    0    0  501 -0.00000000000E+00  0.00000000000E+00  0.34407067912E+03  0.34407067912E+03  0.00000000000E+00 0.  1.
          1   -1    0    0  501    0  0.00000000000E+00 -0.00000000000E+00 -0.61426319190E+02  0.61426319190E+02  0.00000000000E+00 0. -1.
         25    2    1    2    0    0 -0.78210805140E+02  0.13592366204E+02  0.77399752350E+02  0.16715158775E+03  0.12508896499E+03 0.  0.
          5    1    3    3  502    0  0.20717088450E+02 -0.29681901315E+02  0.36602449576E+02  0.51647117388E+02  0.41800000000E+01 0.  1.
         -5    1    3    3    0  502 -0.98927893589E+02  0.43274267519E+02  0.40797302774E+02  0.11550447036E+03  0.41800000000E+01 0.  1.
        -11    1    1    2    0    0  0.53607375634E+02 -0.52565260393E+02  0.12832203514E+03  0.14867212928E+03  0.00000000000E+00 0.  1.
         11    1    1    2    0    0  0.24603429505E+02  0.38972894190E+02  0.76922572439E+02  0.89673281280E+02  0.00000000000E+00 0. -1.
</event>
<event>
 7    1  0.2594791E-009  0.8198043E+02  0.7561462E-02  0.1323523E+00
          4   -1    0    0  501    0  0.00000000000E+00  0.00000000000E+00  0.66307422214E+02  0.66307422214E+02  0.00000000000E+00 0. -1.
         -4   -1    0    0    0  501 -0.00000000000E+00 -0.00000000000E+00 -0.24807130688E+03  0.24807130688E+03  0.00000000000E+00 0.  1.
         25    2    1    2    0    0  0.26877767165E+02 -0.54036676823E+02 -0.71647457137E+02  0.15627137617E+03  0.12508000674E+03 0.  0.
          5    1    3    3  502    0 -0.11438128171E+02  0.13985624280E+02 -0.75743809996E+02  0.77980931101E+02  0.41800000000E+01 0. -1.
         -5    1    3    3    0  502  0.38315895337E+02 -0.68022301103E+02  0.40963528590E+01  0.78290445072E+02  0.41800000000E+01 0. -1.
        -11    1    1    2    0    0  0.22714366637E+01  0.28171114895E+02 -0.11537266349E+03  0.11878393250E+03  0.00000000000E+00 0.  1.
         11    1    1    2    0    0 -0.29149203829E+02  0.25865561928E+02  0.52562359568E+01  0.39323420428E+02  0.00000000000E+00 0. -1.
</event>
<event>
 6    1  0.2594791E-009  0.7410349E+02  0.7561462E-02  0.1346670E+00
         -1   -1    0    0    0  501 -0.00000000000E+00  0.00000000000E+00  0.13095403368E+03  0.13095403368E+03  0.00000000000E+00 0.  1.
          1   -1    0    0  501    0  0.00000000000E+00 -0.00000000000E+00 -0.10735788451E+03  0.10735788451E+03  0.00000000000E+00 0. -1.
          5    1    1    2  502    0  0.16332280298E+01  0.67757586909E+01  0.52114464222E+02  0.52744365773E+02  0.41800000000E+01 0.  1.
         -5    1    1    2    0  502  0.22754662762E+02 -0.33707192500E+02 -0.66748009551E+02  0.78273358703E+02  0.41800000000E+01 0.  1.
        -11    1    1    2    0    0 -0.28418167452E+02 -0.30463381913E+02  0.84533366809E+01  0.42509631614E+02  0.00000000000E+00 0. -1.
         11    1    1    2    0    0  0.40302766602E+01  0.57394815722E+02  0.29776357813E+02  0.64784562099E+02  0.00000000000E+00 0.  1.
</event>
<event>
 7    1  0.2594791E-009  0.8835280E+02  0.7561462E-02  0.1306890E+00
         -2   -1    0    0    0  501 -0.00000000000E+00  0.00000000000E+00  0.75134292573E+02  0.75134292573E+02  0.00000000000E+00 0.  1.
          2   -1    0    0  501    0  0.00000000000E+00 -0.00000000000E+00 -0.16397907279E+03  0.16397907279E+03  0.00000000000E+00 0. -1.
         25    2    1    2    0    0  0.95093297505E+01  0.12616385146E+02 -0.32228430268E+02  0.13014035499E+03  0.12509292447E+03 0.  0.
          5    1    3    3  502    0  0.50835442059E+02  0.49095873915E+02 -0.17344696895E+02  0.72890039891E+02  0.41800000000E+01 0.  1.
         -5    1    3    3    0  502 -0.41326112309E+02 -0.36479488770E+02 -0.14883733373E+02  0.57250315096E+02  0.41800000000E+01 0.  1.
        -11    1    1    2    0    0  0.18461624169E+02 -0.13125488176E+02 -0.73081631527E+02  0.76511664951E+02  0.00000000000E+00 0. -1.
         11    1    1    2    0    0 -0.27970953920E+02  0.50910303046E+00  0.16465281582E+02  0.32461345423E+02  0.00000000000E+00 0.  1.
</event>
<event>
 7    1  0.2594791E-009  0.1411613E+03  0.7561462E-02  0.1211775E+00
         -2   -1    0    0    0  501 -0.00000000000E+00  0.00000000000E+00  0.13432876501E+03  0.13432876501E+03  0.00000000000E+00 0. -1.
          2   -1    0    0  501    0  0.00000000000E+00 -0.00000000000E+00 -0.15520658715E+03  0.15520658715E+03  0.00000000000E+00 0.  1.
         25    2    1    2    0    0  0.89084598657E+02 -0.35425215939E+02 -0.97282378308E+01  0.15790154909E+03  0.12508896414E+03 0.  0.
          5    1    3    3  502    0 -0.15660714583E+01 -0.57998509689E+02 -0.24702462059E+02  0.63197814343E+02  0.41800000000E+01 0. -1.
         -5    1    3    3    0  502  0.90650670115E+02  0.22573293750E+02  0.14974224228E+02  0.94703734743E+02  0.41800000000E+01 0. -1.
        -11    1    1    2    0    0 -0.42082453644E+02 -0.28843342438E+02  0.13528912105E+01  0.51036277512E+02  0.00000000000E+00 0.  1.
         11    1    1    2    0    0 -0.47002145013E+02  0.64268558377E+02 -0.12502475521E+02  0.80597525556E+02  0.00000000000E+00 0. -1.
</event>
<event>
 7    1  0.2594791E-009  0.1267160E+03  0.7561462E-02  0.1232412E+00
          1   -1    0    0  501    0  0.00000000000E+00  0.00000000000E+00  0.67355727894E+03  0.67355727894E+03  0.00000000000E+00 0. -1.
         -1   -1    0    0    0  501 -0.00000000000E+00 -0.00000000000E+00 -0.30520998069E+02  0.30520998069E+02  0.00000000000E+00 0.  1.
         25    2    1    2    0    0  0.23803439048E+02 -0.90211552915E+02  0.40021607413E+03  0.42956386064E+03  0.12508987324E+03 0.  0.
          5    1    3    3  502    0 -0.64249093657E+01 -0.98018135562E+02  0.16366972461E+03  0.19092953023E+03  0.41800000000E+01 0.  1.
         -5    1    3    3    0  502  0.30228348414E+02  0.78065826465E+01  0.23654634952E+03  0.23863433041E+03  0.41800000000E+01 0. -1.
        -11    1    1    2    0    0  0.20559339406E+01  0.96887055195E+02  0.21561032510E+03  0.23638769134E+03  0.00000000000E+00 0. -1.
         11    1    1    2    0    0 -0.25859372988E+02 -0.66755022797E+01  0.27209881634E+02  0.38126725018E+02  0.00000000000E+00 0.  1.
</event>
<event>
 7    1  0.2594791E-009  0.1481159E+03  0.7561462E-02  0.1202807E+00
          1   -1    0    0  501    0  0.00000000000E+00  0.00000000000E+00  0.61646968762E+02  0.61646968762E+02  0.00000000000E+00 0. -1.
         -1   -1    0    0    0  501 -0.00000000000E+00 -0.00000000000E+00 -0.39330665494E+03  0.39330665494E+03  0.00000000000E+00 0.  1.
         25    2    1    2    0    0  0.63199210534E+02  0.87305287442E+02 -0.13785695746E+03  0.21510341668E+03  0.12509430730E+03 0.  0.
          5    1    3    3  502    0  0.95967651423E+02  0.42574016343E+02 -0.65376023039E+02  0.12374907586E+03  0.41800000000E+01 0. -1.
         -5    1    3    3    0  502 -0.32768440889E+02  0.44731271099E+02 -0.72480934425E+02  0.91354340825E+02  0.41800000000E+01 0. -1.
        -11    1    1    2    0    0 -0.20016093495E+02  0.14667551003E+02 -0.13483796188E+02  0.28241703399E+02  0.00000000000E+00 0.  1.
         11    1    1    2    0    0 -0.43183117040E+02 -0.10197283844E+03 -0.18031893253E+03  0.21160850362E+03  0.00000000000E+00 0. -1.
</event>
<event>
 7    1  0.2594791E-009  0.1079732E+03  0.7561462E-02  0.1264370E+00
         -2   -1    0    0    0  501 -0.00000000000E+00  0.00000000000E+00  0.70576930092E+02  0.70576930092E+02  0.00000000000E+00 0. -1.
          2   -1    0    0  501    0  0.00000000000E+00 -0.00000000000E+00 -0.25317413586E+03  0.25317413586E+03  0.00000000000E+00 0.  1.
         25    2    1    2    0    0 -0.38919700358E+02 -0.14371568634E+02 -0.18470483993E+03  0.22690206593E+03  0.12508950624E+03 0.  0.
          5    1    3    3  502    0 -0.28650391092E+02  0.48462513150E+02 -0.41311804010E+02  0.69954253918E+02  0.41800000000E+01 0.  1.
         -5    1    3    3    0  502 -0.10269309266E+02 -0.62834081784E+02 -0.14339303592E+03  0.15694781202E+03  0.41800000000E+01 0.  1.
        -11    1    1    2    0    0  0.66447652864E+02  0.15137172556E+02 -0.52276300012E+01  0.68350220772E+02  0.00000000000E+00 0.  1.
         11    1    1    2    0    0 -0.27527952506E+02 -0.76560392240E+00  0.73352641576E+01  0.28498779251E+02  0.00000000000E+00 0. -1.
</event>
<event>
 7    1  0.2594791E-009  0.5891255E+02  0.7561462E-02  0.1402453E+00
         -3   -1    0    0    0  501 -0.00000000000E+00  0.00000000000E+00  0.14743340564E+03  0.14743340564E+03  0.00000000000E+00 0.  1.
          3   -1    0    0  501    0  0.00000000000E+00 -0.00000000000E+00 -0.99991435825E+02  0.99991435825E+02  0.00000000000E+00 0. -1.
         25    2    1    2    0    0 -0.17000305808E+02 -0.32488718351E+02  0.66744828644E+02  0.14644774108E+03  0.12509013350E+03 0.  0.
          5    1    3    3  502    0 -0.24766431323E+02 -0.42554284850E+02 -0.23850986326E+02  0.54868800135E+02  0.41800000000E+01 0. -1.
         -5    1    3    3    0  502  0.77661255147E+01  0.10065566499E+02  0.90595814969E+02  0.91578940944E+02  0.41800000000E+01 0. -1.
        -11    1    1    2    0    0  0.19338211579E+02 -0.29071654606E+01  0.32656282425E+02  0.38063773065E+02  0.00000000000E+00 0.  1.
         11    1    1    2    0    0 -0.23379057704E+01  0.35395883811E+02 -0.51959141257E+02  0.62913327319E+02  0.00000000000E+00 0. -1.
</event>
<event>
 7    1  0.2594791E-009  0.1149018E+03  0.7561462E-02  0.1251753E+00
         -2   -1    0    0    0  501 -0.00000000000E+00  0.00000000000E+00  0.16538010082E+02  0.16538010082E+02  0.00000000000E+00 0.  1.
          2   -1    0    0  501    0  0.00000000000E+00 -0.00000000000E+00 -0.11711405113E+04  0.11711405113E+04  0.00000000000E+00 0. -1.
         25    2    1    2    0    0  0.77005893509E+02 -0.15869587070E+02 -0.77976580497E+03  0.79363922096E+03  0.12508697384E+03 0.  0.
          5    1    3    3  502    0 -0.25048778135E+01  0.23629772347E+02 -0.29421052194E+02  0.38048801114E+02  0.41800000000E+01 0. -1.
         -5    1    3    3    0  502  0.79510771323E+02 -0.39499359416E+02 -0.75034475278E+03  0.75559041985E+03  0.41800000000E+01 0. -1.
        -11    1    1    2    0    0  0.14888379088E+02 -0.13730177355E+02 -0.32018559721E+02  0.37886274146E+02  0.00000000000E+00 0.  1.
         11    1    1    2    0    0 -0.91894272597E+02  0.29599764424E+02 -0.34281813652E+03  0.35615302627E+03  0.00000000000E+00 0. -1.
</event>
<event>
 7    1  0.2594791E-009  0.1276888E+03  0.7561462E-02  0.1230926E+00
         -1   -1    0    0    0  501 -0.00000000000E+00  0.00000000000E+00  0.63541520262E+03  0.63541520262E+03  0.00000000000E+00 0. -1.
          1   -1    0    0  501    0  0.00000000000E+00 -0.00000000000E+00 -0.34563689993E+02  0.34563689993E+02  0.00000000000E+00 0.  1.
         25    2    1    2    0    0  0.35493818682E+02  0.97609284643E+02  0.32514321216E+03  0.36352894951E+03  0.12509118716E+03 0.  0.
          5    1    3    3  502    0  0.56404493608E+02  0.17309021159E+02  0.22874013155E+03  0.23626381291E+03  0.41800000000E+01 0.  1.
         -5    1    3    3    0  502 -0.20910674926E+02  0.80300263484E+02  0.96403080611E+02  0.12726513660E+03  0.41800000000E+01 0.  1.
        -11    1    1    2    0    0 -0.37550656484E+02 -0.37732159567E+02  0.21368310707E+03  0.22021407292E+03  0.00000000000E+00 0. -1.
         11    1    1    2    0    0  0.20568378020E+01 -0.59877125076E+02  0.62025193404E+02  0.86235870181E+02  0.00000000000E+00 0.  1.
</event>
<event>
 7    1  0.2882916E-009  0.1028428E+03  0.7561462E-02  0.1274429E+00
         -2   -1    0    0    0  501 -0.00000000000E+00  0.00000000000E+00  0.23085080576E+03  0.23085080576E+03  0.00000000000E+00 0.  1.
          2   -1    0    0  501    0  0.00000000000E+00 -0.00000000000E+00 -0.84893590966E+02  0.84893590966E+02  0.00000000000E+00 0. -1.
         25    2    1    2    0    0 -0.41534274417E+02 -0.75987932869E+02  0.59628934593E+02  0.16340943692E+03  0.12509105619E+03 0.  0.
          5    1    3    3  502    0  0.15838363257E+02 -0.29744261744E+02  0.79944258865E+02  0.86856961625E+02  0.41800000000E+01 0.  1.
         -5    1    3    3    0  502 -0.57372637675E+02 -0.46243671125E+02 -0.20315324272E+02  0.76552475291E+02  0.41800000000E+01 0.  1.
        -11    1    1    2    0    0  0.51603613355E+02  0.61571904723E+02  0.10126572917E+03  0.12926244724E+03  0.00000000000E+00 0.  1.
         11    1    1    2    0    0 -0.10069338938E+02  0.14416028146E+02 -0.14937448974E+02  0.23072512563E+02  0.00000000000E+00 0. -1.
</event>
<event>
 7    1  0.2594791E-009  0.1136442E+03  0.7561462E-02  0.1253966E+00
          2   -1    0    0  501    0  0.00000000000E+00  0.00000000000E+00  0.88565880025E+03  0.88565880025E+03  0.00000000000E+00 0. -1.
         -2   -1    0    0    0  501 -0.00000000000E+00 -0.00000000000E+00 -0.20247346832E+02  0.20247346832E+02  0.00000000000E+00 0.  1.
         25    2    1    2    0    0  0.14188841364E+02 -0.56305363824E+02  0.65738000154E+03  0.67168988876E+03  0.12508886053E+03 0.  0.
          5    1    3    3  502    0 -0.31421177431E+02 -0.70812220819E+02  0.52815664794E+03  0.53382448255E+03  0.41800000000E+01 0. -1.
         -5    1    3    3    0  502  0.45610018795E+02  0.14506856995E+02  0.12922335360E+03  0.13786540621E+03  0.41800000000E+01 0. -1.
        -11    1    1    2    0    0  0.31453276898E+02  0.31667017635E+01  0.33050432594E+02  0.45734753988E+02  0.00000000000E+00 0.  1.
         11    1    1    2    0    0 -0.45642118263E+02  0.53138662061E+02  0.17498101929E+03  0.18848150434E+03  0.00000000000E+00 0. -1.
</event>
<event>
 7    1  0.2594791E-009  0.1424615E+03  0.7561462E-02  0.1210055E+00
          2   -1    0    0  501    0  0.00000000000E+00  0.00000000000E+00  0.13073468878E+04  0.13073468878E+04  0.00000000000E+00 0. -1.
         -2   -1    0    0    0  501 -0.00000000000E+00 -0.00000000000E+00 -0.27417755637E+02  0.27417755637E+02  0.00000000000E+00 0.  1.
         25    2    1    2    0    0  0.11891547216E+03 -0.48347989821E+02  0.96548203001E+03  0.98197788741E+03  0.12508638393E+03 0.  0.
          5    1    3    3  502    0  0.60153430861E+02 -0.92783535634E+01  0.13102553021E+03  0.14453264357E+03  0.41800000000E+01 0. -1.
         -5    1    3    3    0  502  0.58762041302E+02 -0.39069636257E+02  0.83445649980E+03  0.83744524384E+03  0.41800000000E+01 0. -1.
        -11    1    1    2    0    0 -0.15048267240E+02 -0.22806729398E+02  0.24560344800E+02  0.36739730394E+02  0.00000000000E+00 0.  1.
         11    1    1    2    0    0 -0.10386720492E+03  0.71154719219E+02  0.28988675739E+03  0.31604702567E+03  0.00000000000E+00 0. -1.
</event>
<event>
 7    1  0.2594791E-009  0.1476604E+03  0.7561462E-02  0.1203378E+00
          1   -1    0    0  501    0  0.00000000000E+00  0.00000000000E+00  0.86558254470E+02  0.86558254470E+02  0.00000000000E+00 0. -1.
         -1   -1    0    0    0  501 -0.00000000000E+00 -0.00000000000E+00 -0.41359548766E+03  0.41359548766E+03  0.00000000000E+00 0.  1.
         25    2    1    2    0    0 -0.79117436985E+02  0.10586421245E+03 -0.65423710204E+02  0.19337490277E+03  0.12508713304E+03 0.  0.
          5    1    3    3  502    0 -0.46147580550E+02  0.39169788122E+02  0.33669968402E+02  0.69390277881E+02  0.41800000000E+01 0. -1.
         -5    1    3    3    0  502 -0.32969856434E+02  0.66694424332E+02 -0.99093678606E+02  0.12398462489E+03  0.41800000000E+01 0. -1.
        -11    1    1    2    0    0  0.99494490094E+02 -0.91767368162E+02 -0.21724932137E+03  0.25596419877E+03  0.00000000000E+00 0. -1.
         11    1    1    2    0    0 -0.20377053109E+02 -0.14096844291E+02 -0.44364201614E+02  0.50814640580E+02  0.00000000000E+00 0.  1.
</event>
<event>
 7    1  0.2594791E-009  0.9585223E+02  0.7561462E-02  0.1289268E+00
          2   -1    0    0  501    0  0.00000000000E+00  0.00000000000E+00  0.60660742192E+02  0.60660742192E+02  0.00000000000E+00 0. -1.
         -2   -1    0    0    0  501 -0.00000000000E+00 -0.00000000000E+00 -0.24324369679E+03  0.24324369679E+03  0.00000000000E+00 0.  1.
         25    2    1    2    0    0 -0.14703704836E+02  0.41229327501E+02 -0.14099428330E+03  0.19350430498E+03  0.12509385172E+03 0.  0.
          5    1    3    3  502    0 -0.47047070400E+02  0.58600188416E+02 -0.13703314074E+03  0.15634245417E+03  0.41800000000E+01 0.  1.
         -5    1    3    3    0  502  0.32343365565E+02 -0.17370860915E+02 -0.39611425641E+01  0.37161850807E+02  0.41800000000E+01 0.  1.
        -11    1    1    2    0    0 -0.10889082033E+01  0.18080118343E+02 -0.45426300300E+02  0.48904244799E+02  0.00000000000E+00 0.  1.
         11    1    1    2    0    0  0.15792613039E+02 -0.59309445844E+02  0.38376290032E+01  0.61495889207E+02  0.00000000000E+00 0. -1.
</event>
<event>
 7    1  0.2594791E-009  0.8292088E+02  0.7561462E-02  0.1320961E+00
          2   -1    0    0  501    0  0.00000000000E+00  0.00000000000E+00  0.46295905753E+03  0.46295905753E+03  0.00000000000E+00 0.  1.
         -2   -1    0    0    0  501 -0.00000000000E+00 -0.00000000000E+00 -0.32803336685E+02  0.32803336685E+02  0.00000000000E+00 0. -1.
         25    2    1    2    0    0  0.59412361472E+02  0.61961787598E+00  0.27238716804E+03  0.30556857095E+03  0.12508864704E+03 0.  0.
          5    1    3    3  502    0  0.54836570355E+02 -0.37943556587E+01  0.28530202148E+03  0.29057901239E+03  0.41800000000E+01 0.  1.
         -5    1    3    3    0  502  0.45757911168E+01  0.44139735346E+01 -0.12914853433E+02  0.14989558563E+02  0.41800000000E+01 0.  1.
        -11    1    1    2    0    0  0.21368733612E+01  0.32935574810E+02  0.30724342996E+02  0.45092167483E+02  0.00000000000E+00 0.  1.
         11    1    1    2    0    0 -0.61549234833E+02 -0.33555192686E+02  0.12704420981E+03  0.14510165578E+03  0.00000000000E+00 0. -1.
</event>
<event>
 7    1  0.2594791E-009  0.1164816E+03  0.7561462E-02  0.1249017E+00
          1   -1    0    0  501    0  0.00000000000E+00  0.00000000000E+00  0.90364764859E+02  0.90364764859E+02  0.00000000000E+00 0. -1.
         -1   -1    0    0    0  501 -0.00000000000E+00 -0.00000000000E+00 -0.19257086752E+03  0.19257086752E+03  0.00000000000E+00 0.  1.
         25    2    1    2    0    0 -0.49382325730E+02  0.38604520626E+02 -0.21073832293E+02  0.14149323382E+03  0.12508919099E+03 0.  0.
          5    1    3    3  502    0 -0.88910960425E+02  0.81771359578E+01 -0.19066635542E+02  0.91394931080E+02  0.41800000000E+01 0.  1.
         -5    1    3    3    0  502  0.39528634695E+02  0.30427384669E+02 -0.20071967508E+01  0.50098302740E+02  0.41800000000E+01 0.  1.
        -11    1    1    2    0    0  0.24267904417E+02  0.18907919096E+02 -0.71647251059E+02  0.77972874601E+02  0.00000000000E+00 0.  1.
         11    1    1    2    0    0  0.25114421313E+02 -0.57512439722E+02 -0.94850193131E+01  0.63469523962E+02  0.00000000000E+00 0. -1.
</event>
<event>
 7    1  0.2594791E-009  0.1843489E+03  0.7561462E-02  0.1163659E+00
         -2   -1    0    0    0  501 -0.00000000000E+00  0.00000000000E+00  0.45080977965E+02  0.45080977965E+02  0.00000000000E+00 0.  1.
          2   -1    0    0  501    0  0.00000000000E+00 -0.00000000000E+00 -0.86679504044E+03  0.86679504044E+03  0.00000000000E+00 0. -1.
         25    2    1    2    0    0 -0.74121819547E+02 -0.13519314442E+03 -0.56263617066E+03  0.59663937673E+03  0.12509138617E+03 0.  0.
          5    1    3    3  502    0 -0.45996236593E+01  0.22200850552E+02 -0.37531796001E+02  0.44047047734E+02  0.41800000000E+01 0.  1.
         -5    1    3    3    0  502 -0.69522195888E+02 -0.15739399497E+03 -0.52510437466E+03  0.55259232899E+03  0.41800000000E+01 0.  1.
        -11    1    1    2    0    0  0.57802619057E+02  0.26449361342E+02 -0.57974465335E+02  0.86033424412E+02  0.00000000000E+00 0.  1.
         11    1    1    2    0    0  0.16319200490E+02  0.10874378308E+03 -0.20110342647E+03  0.22920321726E+03  0.00000000000E+00 0. -1.
</event>
<event>
 7    1  0.2594791E-009  0.1046179E+03  0.7561462E-02  0.1270874E+00
          2   -1    0    0  501    0  0.00000000000E+00  0.00000000000E+00  0.36802506613E+02  0.36802506613E+02  0.00000000000E+00 0. -1.
         -2   -1    0    0    0  501 -0.00000000000E+00 -0.00000000000E+00 -0.44468163745E+03  0.44468163745E+03  0.00000000000E+00 0.  1.
         25    2    1    2    0    0  0.32700476472E+02  0.42915656714E+02 -0.30356667983E+03  0.33271507444E+03  0.12504206055E+03 0.  0.
          5    1    3    3  502    0 -0.21871308677E+02  0.53284571605E+02 -0.24568994723E+03  0.25238585992E+03  0.41800000000E+01 0. -1.
         -5    1    3    3    0  502  0.54571785148E+02 -0.10368914891E+02 -0.57876732591E+02  0.80329214522E+02  0.41800000000E+01 0. -1.
        -11    1    1    2    0    0 -0.99413255969E+01 -0.63993030373E+02 -0.36835810298E+02  0.74503790584E+02  0.00000000000E+00 0.  1.
         11    1    1    2    0    0 -0.22759150875E+02  0.21077373660E+02 -0.67476640710E+02  0.74265279037E+02  0.00000000000E+00 0. -1.
</event>
<event>
 7    1  0.2594791E-009  0.9458294E+02  0.7561462E-02  0.1292118E+00
          1   -1    0    0  501    0  0.00000000000E+00  0.00000000000E+00  0.62458424501E+03  0.62458424501E+03  0.00000000000E+00 0. -1.
         -1   -1    0    0    0  501 -0.00000000000E+00 -0.00000000000E+00 -0.19527289642E+02  0.19527289642E+02  0.00000000000E+00 0.  1.
         25    2    1    2    0    0  0.17075148948E+02  0.20630146469E+02  0.45924500008E+03  0.47672814859E+03  0.12508634579E+03 0.  0.
          5    1    3    3  502    0  0.18905100458E+02 -0.44820634488E+02  0.30828138267E+03  0.31212365402E+03  0.41800000000E+01 0. -1.
         -5    1    3    3    0  502 -0.18299515094E+01  0.65450780956E+02  0.15096361741E+03  0.16460449457E+03  0.41800000000E+01 0. -1.
        -11    1    1    2    0    0 -0.42483523161E+02 -0.78217962730E+00  0.46598373672E+02  0.63062429179E+02  0.00000000000E+00 0.  1.
         11    1    1    2    0    0  0.25408374212E+02 -0.19847966842E+02  0.99213581621E+02  0.10432095689E+03  0.00000000000E+00 0. -1.
</event>
<event>
 7    1  0.2594791E-009  0.1003923E+03  0.7561462E-02  0.1279473E+00
          2   -1    0    0  501    0  0.00000000000E+00  0.00000000000E+00  0.68753323022E+02  0.68753323022E+02  0.00000000000E+00 0. -1.
         -2   -1    0    0    0  501 -0.00000000000E+00 -0.00000000000E+00 -0.30195284120E+03  0.30195284120E+03  0.00000000000E+00 0.  1.
         25    2    1    2    0    0  0.49466453829E+02 -0.18787554924E+02 -0.22953543364E+03  0.26670813275E+03  0.12508721160E+03 0.  0.
          5    1    3    3  502    0  0.20105942559E+02  0.41753592383E+02 -0.28253270884E+02  0.54436487016E+02  0.41800000000E+01 0.  1.
         -5    1    3    3    0  502  0.29360511270E+02 -0.60541147306E+02 -0.20128216275E+03  0.21227164573E+03  0.41800000000E+01 0.  1.
        -11    1    1    2    0    0 -0.34206448218E+02  0.44990066390E+02  0.25430533046E+02  0.61974988378E+02  0.00000000000E+00 0. -1.
         11    1    1    2    0    0 -0.15260005611E+02 -0.26202511466E+02 -0.29094617583E+02  0.42023043092E+02  0.00000000000E+00 0.  1.
</event>
<event>
 7    1  0.2594791E-009  0.9661989E+02  0.7561462E-02  0.1287569E+00
         -2   -1    0    0    0  501 -0.00000000000E+00  0.00000000000E+00  0.40222589246E+02  0.40222589246E+02  0.00000000000E+00 0.  1.
          2   -1    0    0  501    0  0.00000000000E+00 -0.00000000000E+00 -0.32929213078E+03  0.32929213078E+03  0.00000000000E+00 0. -1.
         25    2    1    2    0    0 -0.82753272542E+01 -0.24095932413E+02 -0.21137697604E+03  0.24693555522E+03  0.12509135634E+03 0.  0.
          5    1    3    3  502    0  0.37109768306E+02  0.25439513644E+02 -0.32069771600E+02  0.55409804265E+02  0.41800000000E+01 0. -1.
         -5    1    3    3    0  502 -0.45385095560E+02 -0.49535446057E+02 -0.17930720443E+03  0.19152575095E+03  0.41800000000E+01 0. -1.
        -11    1    1    2    0    0  0.38118955680E+02 -0.57309326745E+01 -0.54682615248E+01  0.38933279538E+02  0.00000000000E+00 0.  1.
         11    1    1    2    0    0 -0.29843628426E+02  0.29826865088E+02 -0.72224303977E+02  0.83645885275E+02  0.00000000000E+00 0. -1.
</event>
<event>
 7    1  0.2594791E-009  0.1024232E+03  0.7561462E-02  0.1275281E+00
          3   -1    0    0  501    0  0.00000000000E+00  0.00000000000E+00  0.79740826393E+02  0.79740826393E+02  0.00000000000E+00 0. -1.
         -3   -1    0    0    0  501 -0.00000000000E+00 -0.00000000000E+00 -0.28896772179E+03  0.28896772179E+03  0.00000000000E+00 0.  1.
         25    2    1    2    0    0 -0.39670469873E+02  0.61570371822E+02 -0.20566449045E+03  0.25161473414E+03  0.12508970758E+03 0.  0.
          5    1    3    3  502    0 -0.27074832180E+02  0.18290130723E+01  0.86079901939E+01  0.28774323998E+02  0.41800000000E+01 0. -1.
         -5    1    3    3    0  502 -0.12595637694E+02  0.59741358749E+02 -0.21427248064E+03  0.22284041015E+03  0.41800000000E+01 0. -1.
        -11    1    1    2    0    0  0.31862037782E+02  0.17760653809E+02  0.54071561261E+01  0.36876382858E+02  0.00000000000E+00 0. -1.
         11    1    1    2    0    0  0.78084320919E+01 -0.79331025630E+02 -0.89695610763E+01  0.80217431181E+02  0.00000000000E+00 0.  1.
</event>
<event>
 7    1  0.2594791E-009  0.1075321E+03  0.7561462E-02  0.1265210E+00
          1   -1    0    0  501    0  0.00000000000E+00  0.00000000000E+00  0.64572028139E+02  0.64572028139E+02  0.00000000000E+00 0. -1.
         -1   -1    0    0    0  501 -0.00000000000E+00 -0.00000000000E+00 -0.31836606615E+03  0.31836606615E+03  0.00000000000E+00 0.  1.
         25    2    1    2    0    0 -0.24572100943E+02 -0.22069265757E+02 -0.22334602963E+02  0.13129266987E+03  0.12509232605E+03 0.  0.
          5    1    3    3  502    0  0.45618781844E+02 -0.11542019317E+02  0.16794034878E+02  0.50137844731E+02  0.41800000000E+01 0.  1.
         -5    1    3    3    0  502 -0.70190882787E+02 -0.10527246440E+02 -0.39128637841E+02  0.81154825139E+02  0.41800000000E+01 0.  1.
        -11    1    1    2    0    0  0.12925987428E+02  0.57755991248E+02 -0.11582299806E+03  0.13006845334E+03  0.00000000000E+00 0.  1.
         11    1    1    2    0    0  0.11646113516E+02 -0.35686725491E+02 -0.11563643699E+03  0.12157697107E+03  0.00000000000E+00 0. -1.
</event>
<event>
 7    1  0.2594791E-009  0.1088567E+03  0.7561462E-02  0.1262702E+00
          4   -1    0    0  501    0  0.00000000000E+00  0.00000000000E+00  0.70360917007E+02  0.70360917007E+02  0.00000000000E+00 0. -1.
         -4   -1    0    0    0  501 -0.00000000000E+00 -0.00000000000E+00 -0.25270830185E+03  0.25270830185E+03  0.00000000000E+00 0.  1.
         25    2    1    2    0    0 -0.55838206896E+01  0.79835375025E+02 -0.12417087456E+03  0.19357373723E+03  0.12509004555E+03 0.  0.
          5    1    3    3  502    0 -0.10278662674E+02 -0.13587352073E+02  0.16833022971E+02  0.24312344706E+02  0.41800000000E+01 0.  1.
         -5    1    3    3    0  502  0.46948419847E+01  0.93422727098E+02 -0.14100389753E+03  0.16926139252E+03  0.41800000000E+01 0.  1.
        -11    1    1    2    0    0 -0.10584188358E+02  0.10415412896E+02 -0.30169198220E+02  0.33625680518E+02  0.00000000000E+00 0. -1.
         11    1    1    2    0    0  0.16168009048E+02 -0.90250787921E+02 -0.28007312069E+02  0.95869801118E+02  0.00000000000E+00 0.  1.
</event>
<event>
 7    1  0.2594791E-009  0.9725588E+02  0.7561462E-02  0.1286175E+00
         -2   -1    0    0    0  501 -0.00000000000E+00  0.00000000000E+00  0.51880747453E+02  0.51880747453E+02  0.00000000000E+00 0.  1.
          2   -1    0    0  501    0  0.00000000000E+00 -0.00000000000E+00 -0.41835880726E+03  0.41835880726E+03  0.00000000000E+00 0. -1.
         25    2    1    2    0    0  0.49509777897E+02 -0.35624018614E+01 -0.11762679023E+03  0.17873604007E+03  0.12508637587E+03 0.  0.
          5    1    3    3  502    0 -0.33133665964E+02  0.57529755759E+01  0.87814158535E+00  0.33899558712E+02  0.41800000000E+01 0.  1.
         -5    1    3    3    0  502  0.82643443861E+02 -0.93153774374E+01 -0.11850493181E+03  0.14483648136E+03  0.41800000000E+01 0.  1.
        -11    1    1    2    0    0 -0.64468434689E+01 -0.24907729414E+02  0.99636442694E+01  0.27590414683E+02  0.00000000000E+00 0.  1.
         11    1    1    2    0    0 -0.43062934428E+02  0.28470131275E+02 -0.25881491385E+03  0.26391309995E+03  0.00000000000E+00 0. -1.
</event>
<event>
 7    1  0.2594791E-009  0.9637225E+02  0.7561462E-02  0.1288115E+00
          1   -1    0    0  501    0  0.00000000000E+00  0.00000000000E+00  0.23765437664E+03  0.23765437664E+03  0.00000000000E+00 0. -1.
         -1   -1    0    0    0  501 -0.00000000000E+00 -0.00000000000E+00 -0.56932030751E+02  0.56932030751E+02  0.00000000000E+00 0.  1.
         25    2    1    2    0    0  0.91967667433E+01 -0.10691960886E+01  0.15066168520E+03  0.19604165387E+03  0.12509061901E+03 0.  0.
          5    1    3    3  502    0  0.27736537265E+01 -0.61959497661E+02  0.92794505974E+02  0.11169138393E+03  0.41800000000E+01 0. -1.
         -5    1    3    3    0  502  0.64231130168E+01  0.60890301573E+02  0.57867179230E+02  0.84350269937E+02  0.41800000000E+01 0. -1.
        -11    1    1    2    0    0 -0.34058707677E+02  0.18584668885E+02  0.49164451411E+02  0.62630094753E+02  0.00000000000E+00 0. -1.
         11    1    1    2    0    0  0.24861940933E+02 -0.17515472797E+02 -0.19103790728E+02  0.35914658768E+02  0.00000000000E+00 0.  1.
</event>
<event>
 7    1  0.2594791E-009  0.6874331E+02  0.7561462E-02  0.1364419E+00
         -1   -1    0    0    0  501 -0.00000000000E+00  0.00000000000E+00  0.14563087642E+03  0.14563087642E+03  0.00000000000E+00 0.  1.
          1   -1    0    0  501    0  0.00000000000E+00 -0.00000000000E+00 -0.94444335751E+02  0.94444335751E+02  0.00000000000E+00 0. -1.
         25    2    1    2    0    0  0.26830099172E+02 -0.18879872053E+02  0.13274191518E+02  0.12999737970E+03  0.12508721269E+03 0.  0.
          5    1    3    3  502    0  0.15497081685E+02 -0.20501806633E+01 -0.55687805863E+02  0.57991093310E+02  0.41800000000E+01 0.  1.
         -5    1    3    3    0  502  0.11333017487E+02 -0.16829691390E+02  0.68961997381E+02  0.72006286395E+02  0.41800000000E+01 0.  1.
        -11    1    1    2    0    0  0.23074230880E+02  0.40176310390E+02  0.30124336709E+02  0.55263294413E+02  0.00000000000E+00 0. -1.
         11    1    1    2    0    0 -0.49904330052E+02 -0.21296438337E+02  0.77880124371E+01  0.54814538049E+02  0.00000000000E+00 0.  1.
</event>
<event>
 7    1  0.2594791E-009  0.9644985E+02  0.7561462E-02  0.1287944E+00
          2   -1    0    0  501    0  0.00000000000E+00  0.00000000000E+00  0.16282043800E+03  0.16282043800E+03  0.00000000000E+00 0. -1.
         -2   -1    0    0    0  501 -0.00000000000E+00 -0.00000000000E+00 -0.78243562227E+02  0.78243562227E+02  0.00000000000E+00 0.  1.
         25    2    1    2    0    0  0.10156060724E+02  0.24029059977E+02  0.44222634934E+02  0.13522745041E+03  0.12510108157E+03 0.  0.
          5    1    3    3  502    0 -0.39608512649E+02  0.26146438342E+02  0.65422918110E+02  0.80932695039E+02  0.41800000000E+01 0.  1.
         -5    1    3    3    0  502  0.49764573372E+02 -0.21173783653E+01 -0.21200283176E+02  0.54294755371E+02  0.41800000000E+01 0.  1.
        -11    1    1    2    0    0  0.40091272142E+02 -0.20160977549E+02  0.70382240726E+01  0.45423691129E+02  0.00000000000E+00 0.  1.
         11    1    1    2    0    0 -0.50247332866E+02 -0.38680824273E+01  0.33316016771E+02  0.60412858692E+02  0.00000000000E+00 0. -1.
</event>
<event>
 7    1  0.2594791E-009  0.1682218E+03  0.7561462E-02  0.1179715E+00
          1   -1    0    0  501    0  0.00000000000E+00  0.00000000000E+00  0.91772772215E+03  0.91772772215E+03  0.00000000000E+00 0. -1.
         -1   -1    0    0    0  501 -0.00000000000E+00 -0.00000000000E+00 -0.31851058952E+02  0.31851058952E+02  0.00000000000E+00 0.  1.
         25    2    1    2    0    0 -0.11001324595E+03 -0.72756025932E+02  0.46852344196E+03  0.50255235661E+03  0.12509317279E+03 0.  0.
          5    1    3    3  502    0 -0.68124751908E+01 -0.72620928016E+02  0.13632816408E+03  0.15467077851E+03  0.41800000000E+01 0.  1.
         -5    1    3    3    0  502 -0.10320077076E+03 -0.13509791527E+00  0.33219527788E+03  0.34788157810E+03  0.41800000000E+01 0.  1.
        -11    1    1    2    0    0 -0.13537316898E+02  0.23441948315E+02  0.75019013758E+02  0.79753597504E+02  0.00000000000E+00 0. -1.
         11    1    1    2    0    0  0.12355056284E+03  0.49314077616E+02  0.34233420748E+03  0.36727282699E+03  0.00000000000E+00 0.  1.
</event>
<event>
 7    1  0.2594791E-009  0.1428772E+03  0.7561462E-02  0.1209509E+00
          4   -1    0    0  501    0  0.00000000000E+00  0.00000000000E+00  0.66420711976E+03  0.66420711976E+03  0.00000000000E+00 0. -1.
         -4   -1    0    0    0  501 -0.00000000000E+00 -0.00000000000E+00 -0.39821943069E+02  0.39821943069E+02  0.00000000000E+00 0.  1.
         25    2    1    2    0    0 -0.69395097449E+02  0.96216766652E+02  0.38530946503E+03  0.42211745676E+03  0.12508564156E+03 0.  0.
          5    1    3    3  502    0  0.18670504249E+02 -0.51215399415E+01  0.14891402512E+03  0.15022542121E+03  0.41800000000E+01 0. -1.
         -5    1    3    3    0  502 -0.88065601697E+02  0.10133830659E+03  0.23639543991E+03  0.27189203555E+03  0.41800000000E+01 0. -1.
        -11    1    1    2    0    0  0.12807864357E+02 -0.66477021937E+02  0.18883993234E+03  0.20060846413E+03  0.00000000000E+00 0. -1.
         11    1    1    2    0    0  0.56587233092E+02 -0.29739744715E+02  0.50235779319E+02  0.81303141935E+02  0.00000000000E+00 0.  1.
</event>
<event>
 7    1  0.2594791E-009  0.8581062E+02  0.7561462E-02  0.1313326E+00
          1   -1    0    0  501    0  0.00000000000E+00  0.00000000000E+00  0.95902094794E+02  0.95902094794E+02  0.00000000000E+00 0. -1.
         -1   -1    0    0    0  501 -0.00000000000E+00 -0.00000000000E+00 -0.24664084206E+03  0.24664084206E+03  0.00000000000E+00 0.  1.
         25    2    1    2    0    0  0.16849560293E+02 -0.12415021675E+02 -0.19997916791E+03  0.23680664657E+03  0.12509068637E+03 0.  0.
          5    1    3    3  502    0  0.69589444763E+02 -0.21913220945E+02 -0.11560110744E+03  0.13676245287E+03  0.41800000000E+01 0. -1.
         -5    1    3    3    0  502 -0.52739884470E+02  0.94981992699E+01 -0.84378060471E+02  0.10004419370E+03  0.41800000000E+01 0. -1.
        -11    1    1    2    0    0 -0.15115027453E+02 -0.12623995918E+02  0.70278940679E+02  0.72986018050E+02  0.00000000000E+00 0. -1.
         11    1    1    2    0    0 -0.17345328404E+01  0.25039017593E+02 -0.21038520031E+02  0.32750272232E+02  0.00000000000E+00 0.  1.
</event>
<event>
 7    1  0.2594791E-009  0.1267586E+03  0.7561462E-02  0.1232346E+00
         -2   -1    0    0    0  501 -0.00000000000E+00  0.00000000000E+00  0.16897938710E+02  0.16897938710E+02  0.00000000000E+00 0.  1.
          2   -1    0    0  501    0  0.00000000000E+00 -0.00000000000E+00 -0.10098908241E+04  0.10098908241E+04  0.00000000000E+00 0. -1.
         25    2    1    2    0    0 -0.34909359644E+02  0.61647610784E+02 -0.60273427304E+03  0.61964158779E+03  0.12509197463E+03 0.  0.
          5    1    3    3  502    0  0.51072558653E+01 -0.36211752870E+02 -0.19210540522E+03  0.19559993410E+03  0.41800000000E+01 0.  1.
         -5    1    3    3    0  502 -0.40016615510E+02  0.97859363654E+02 -0.41062886782E+03  0.42404165369E+03  0.41800000000E+01 0.  1.
        -11    1    1    2    0    0  0.63530553925E+02 -0.43933411708E+02 -0.32072396650E+03  0.32989413246E+03  0.00000000000E+00 0. -1.
         11    1    1    2    0    0 -0.28621194281E+02 -0.17714199076E+02 -0.69534645878E+02  0.77253042583E+02  0.00000000000E+00 0.  1.
</event>
<event>
 7    1  0.2594791E-009  0.1414456E+03  0.7561462E-02  0.1211397E+00
         -1   -1    0    0    0  501 -0.00000000000E+00  0.00000000000E+00  0.41548630623E+02  0.41548630623E+02  0.00000000000E+00 0.  1.
          1   -1    0    0  501    0  0.00000000000E+00 -0.00000000000E+00 -0.55763381855E+03  0.55763381855E+03  0.00000000000E+00 0. -1.
         25    2    1    2    0    0 -0.70339041544E+02  0.73338737327E+02 -0.21318027138E+03  0.26724469015E+03  0.12509094751E+03 0.  0.
          5    1    3    3  502    0  0.30838569846E+02 -0.67625241031E+01 -0.36998671606E+02  0.48817243092E+02  0.41800000000E+01 0.  1.
         -5    1    3    3    0  502 -0.10117761139E+03  0.80101261430E+02 -0.17618159978E+03  0.21842744706E+03  0.41800000000E+01 0.  1.
        -11    1    1    2    0    0  0.21130017908E+02  0.11347548153E+02 -0.13855496165E+03  0.14061551089E+03  0.00000000000E+00 0. -1.
         11    1    1    2    0    0  0.49209023636E+02 -0.84686285480E+02 -0.16434995490E+03  0.19132224813E+03  0.00000000000E+00 0.  1.
</event>
<event>
 7    1  0.2594791E-009  0.8896750E+02  0.7561462E-02  0.1305371E+00
          2   -1    0    0  501    0  0.00000000000E+00  0.00000000000E+00  0.12013045167E+04  0.12013045167E+04  0.00000000000E+00 0. -1.
         -2   -1    0    0    0  501 -0.00000000000E+00 -0.00000000000E+00 -0.97611971553E+01  0.97611971553E+01  0.00000000000E+00 0.  1.
         25    2    1    2    0    0  0.23325654322E+02 -0.13236940191E+02  0.79046438472E+03  0.80075088160E+03  0.12509487657E+03 0.  0.
          5    1    3    3  502    0 -0.33317922261E+02 -0.75996632756E+01  0.62058794839E+03  0.62154220525E+03  0.41800000000E+01 0. -1.
         -5    1    3    3    0  502  0.56643576584E+02 -0.56372769150E+01  0.16987643633E+03  0.17920867636E+03  0.41800000000E+01 0. -1.
        -11    1    1    2    0    0 -0.18520593424E+00 -0.33909906076E+02  0.14620553374E+03  0.15008655546E+03  0.00000000000E+00 0.  1.
         11    1    1    2    0    0 -0.23140448388E+02  0.47146846267E+02  0.25487340105E+03  0.26022827676E+03  0.00000000000E+00 0. -1.
</event>
<event>
 7    1  0.2594791E-009  0.1607210E+03  0.7561462E-02  0.1187885E+00
          2   -1    0    0  501    0  0.00000000000E+00  0.00000000000E+00  0.23491488565E+04  0.23491488565E+04  0.00000000000E+00 0.  1.
         -2   -1    0    0    0  501 -0.00000000000E+00 -0.00000000000E+00 -0.34490802032E+02  0.34490802032E+02  0.00000000000E+00 0. -1.
         25    2    1    2    0    0  0.10479025280E+03 -0.65464764220E+02  0.21625054037E+04  0.21696409796E+04  0.12508288065E+03 0.  0.
          5    1    3    3  502    0  0.99429419355E+02 -0.99482655854E+02  0.16723548516E+04  0.16782643506E+04  0.41800000000E+01 0.  1.
         -5    1    3    3    0  502  0.53608334444E+01  0.34017891634E+02  0.49015055206E+03  0.49137662905E+03  0.41800000000E+01 0.  1.
        -11    1    1    2    0    0 -0.14631392409E+02 -0.17985711377E+02  0.46519516276E+02  0.51977195501E+02  0.00000000000E+00 0. -1.
         11    1    1    2    0    0 -0.90158860391E+02  0.83450475596E+02  0.10563313453E+03  0.16202148343E+03  0.00000000000E+00 0.  1.
</event>
<event>
 7    1  0.2594791E-009  0.1137767E+03  0.7561462E-02  0.1253732E+00
         -1   -1    0    0    0  501 -0.00000000000E+00  0.00000000000E+00  0.64722127359E+02  0.64722127359E+02  0.00000000000E+00 0.  1.
          1   -1    0    0  501    0  0.00000000000E+00 -0.00000000000E+00 -0.39529987155E+03  0.39529987155E+03  0.00000000000E+00 0. -1.
         25    2    1    2    0    0  0.99719261877E+01 -0.84568506848E+02 -0.29304057781E+03  0.32979238455E+03  0.12505584755E+03 0.  0.
          5    1    3    3  502    0 -0.25881590510E+02 -0.73809653246E+02 -0.74735110759E+02  0.10826140042E+03  0.41800000000E+01 0.  1.
         -5    1    3    3    0  502  0.35853516698E+02 -0.10758853602E+02 -0.21830546705E+03  0.22153098414E+03  0.41800000000E+01 0.  1.
        -11    1    1    2    0    0 -0.36513252143E+02  0.74876063533E+02 -0.72831635351E-01  0.83304548356E+02  0.00000000000E+00 0.  1.
         11    1    1    2    0    0  0.26541325955E+02  0.96924433152E+01 -0.37464334745E+02  0.46925065996E+02  0.00000000000E+00 0. -1.
</event>
<event>
 7    1  0.2594791E-009  0.1248555E+03  0.7561462E-02  0.1235295E+00
         -1   -1    0    0    0  501 -0.00000000000E+00  0.00000000000E+00  0.68303543481E+02  0.68303543481E+02  0.00000000000E+00 0.  1.
          1   -1    0    0  501    0  0.00000000000E+00 -0.00000000000E+00 -0.33299169678E+03  0.33299169678E+03  0.00000000000E+00 0. -1.
         25    2    1    2    0    0  0.74287960442E+02 -0.44424124777E+02 -0.21706480940E+03  0.26505453382E+03  0.12507825746E+03 0.  0.
          5    1    3    3  502    0 -0.30962765151E+02 -0.28389110793E+02 -0.38591032023E+02  0.57195931587E+02  0.41800000000E+01 0.  1.
         -5    1    3    3    0  502  0.10525072559E+03 -0.16035013984E+02 -0.17847377737E+03  0.20785860223E+03  0.41800000000E+01 0.  1.
        -11    1    1    2    0    0 -0.58026320166E+02  0.56270510343E+02 -0.69441401179E+02  0.10656234027E+03  0.00000000000E+00 0. -1.
         11    1    1    2    0    0 -0.16261640276E+02 -0.11846385565E+02  0.21818057277E+02  0.29678366174E+02  0.00000000000E+00 0.  1.
</event>
<event>
 7    1  0.2594791E-009  0.9639332E+02  0.7561462E-02  0.1288068E+00
          2   -1    0    0  501    0  0.00000000000E+00  0.00000000000E+00  0.10749216600E+02  0.10749216600E+02  0.00000000000E+00 0. -1.
         -2   -1    0    0    0  501 -0.00000000000E+00 -0.00000000000E+00 -0.11970162384E+04  0.11970162384E+04  0.00000000000E+00 0.  1.
         25    2    1    2    0    0 -0.20342047344E+02  0.43848597303E+01 -0.81385584115E+03  0.82367535430E+03  0.12508690262E+03 0.  0.
          5    1    3    3  502    0 -0.54694238036E+02  0.26502575986E+02 -0.69986806358E+03  0.70251450164E+03  0.41800000000E+01 0. -1.
         -5    1    3    3    0  502  0.34352190692E+02 -0.22117716255E+02 -0.11398777758E+03  0.12116085265E+03  0.41800000000E+01 0. -1.
        -11    1    1    2    0    0  0.51361196650E+02  0.15861020758E+02 -0.16930137060E+03  0.17763022994E+03  0.00000000000E+00 0.  1.
         11    1    1    2    0    0 -0.31019149306E+02 -0.20245880488E+02 -0.20310981007E+03  0.20645987079E+03  0.00000000000E+00 0. -1.
</event>
<event>
 7    1  0.2594791E-009  0.2778280E+03  0.7561462E-02  0.1096881E+00
         -2   -1    0    0    0  501 -0.00000000000E+00  0.00000000000E+00  0.51168147443E+02  0.51168147443E+02  0.00000000000E+00 0. -1.
          2   -1    0    0  501    0  0.00000000000E+00 -0.00000000000E+00 -0.15452527594E+04  0.15452527594E+04  0.00000000000E+00 0.  1.
         25    2    1    2    0    0  0.95602296895E+02 -0.23986186584E+03 -0.81880060623E+03  0.86761459161E+03  0.12508850053E+03 0.  0.
          5    1    3    3  502    0  0.23617154311E+02 -0.19552605231E+03 -0.64296786755E+03  0.67246810944E+03  0.41800000000E+01 0. -1.
         -5    1    3    3    0  502  0.71985142584E+02 -0.44335813522E+02 -0.17583273867E+03  0.19514648217E+03  0.41800000000E+01 0. -1.
        -11    1    1    2    0    0 -0.10902554201E+03  0.16370514945E+03 -0.49417847144E+03  0.53188185380E+03  0.00000000000E+00 0. -1.
         11    1    1    2    0    0  0.13423245115E+02  0.76156716385E+02 -0.18110553431E+03  0.19692446145E+03  0.00000000000E+00 0.  1.
</event>
<event>
 7    1  0.2594791E-009  0.1555563E+03  0.7561462E-02  0.1193807E+00
         -2   -1    0    0    0  501 -0.00000000000E+00  0.00000000000E+00  0.27007221754E+03  0.27007221754E+03  0.00000000000E+00 0.  1.
          2   -1    0    0  501    0  0.00000000000E+00 -0.00000000000E+00 -0.11279548935E+03  0.11279548935E+03  0.00000000000E+00 0. -1.
         25    2    1    2    0    0 -0.12455563341E+03 -0.49237280736E+02  0.54801643231E+02  0.19128545930E+03  0.12509392954E+03 0.  0.
          5    1    3    3  502    0 -0.13248325031E+03 -0.44038752852E+02  0.43081334186E+01  0.13973995770E+03  0.41800000000E+01 0. -1.
         -5    1    3    3    0  502  0.79276168930E+01 -0.51985278833E+01  0.50493509812E+02  0.51545501597E+02  0.41800000000E+01 0. -1.
        -11    1    1    2    0    0  0.67453743416E+02 -0.20917203823E+02  0.54393855205E+02  0.89141619913E+02  0.00000000000E+00 0.  1.
         11    1    1    2    0    0  0.57101889998E+02  0.70154484558E+02  0.48081229758E+02  0.10244062768E+03  0.00000000000E+00 0. -1.
</event>
<event>
 7    1  0.2594791E-009  0.1181198E+03  0.7561462E-02  0.1246231E+00
          1   -1    0    0  501    0  0.00000000000E+00  0.00000000000E+00  0.36679041690E+02  0.36679041690E+02  0.00000000000E+00 0. -1.
         -1   -1    0    0    0  501 -0.00000000000E+00 -0.00000000000E+00 -0.60224684765E+03  0.60224684765E+03  0.00000000000E+00 0.  1.
         25    2    1    2    0    0 -0.98707485192E+02 -0.12342808591E+02 -0.33663446653E+03  0.37264551673E+03  0.12508558880E+03 0.  0.
          5    1    3    3  502    0 -0.49123954142E+02 -0.40896933464E+02 -0.29470518918E+03  0.30158637729E+03  0.41800000000E+01 0.  1.
         -5    1    3    3    0  502 -0.49583531050E+02  0.28554124873E+02 -0.41929277352E+02  0.71059139440E+02  0.41800000000E+01 0.  1.
        -11    1    1    2    0    0  0.30003973460E+02  0.31485948082E+02 -0.24844180070E+02  0.50088288385E+02  0.00000000000E+00 0.  1.
         11    1    1    2    0    0  0.68703511732E+02 -0.19143139491E+02 -0.20408915936E+03  0.21619208422E+03  0.00000000000E+00 0. -1.
</event>
<event>
 7    1  0.2594791E-009  0.1934624E+03  0.7561462E-02  0.1155375E+00
          2   -1    0    0  501    0  0.00000000000E+00  0.00000000000E+00  0.12371137283E+04  0.12371137283E+04  0.00000000000E+00 0. -1.
         -2   -1    0    0    0  501 -0.00000000000E+00 -0.00000000000E+00 -0.34028418464E+02  0.34028418464E+02  0.00000000000E+00 0.  1.
         25    2    1    2    0    0 -0.13619000767E+03 -0.10319516758E+03  0.71341605120E+03  0.74418188571E+03  0.12508899272E+03 0.  0.
          5    1    3    3  502    0 -0.47633434076E+02  0.15570030306E+02  0.31706589796E+03  0.32102901105E+03  0.41800000000E+01 0.  1.
         -5    1    3    3    0  502 -0.88556573598E+02 -0.11876519789E+03  0.39635015324E+03  0.42315287466E+03  0.41800000000E+01 0.  1.
        -11    1    1    2    0    0  0.13075930590E+03  0.58228786168E+02  0.42127479246E+03  0.44492812721E+03  0.00000000000E+00 0. -1.
         11    1    1    2    0    0  0.54307017730E+01  0.44966381415E+02  0.68394466131E+02  0.82032133806E+02  0.00000000000E+00 0.  1.
</event>
<event>
 7    1  0.2594791E-009  0.1549812E+03  0.7561462E-02  0.1194482E+00
         -3   -1    0    0    0  501 -0.00000000000E+00  0.00000000000E+00  0.61370402636E+02  0.61370402636E+02  0.00000000000E+00 0.  1.
          3   -1    0    0  501    0  0.00000000000E+00 -0.00000000000E+00 -0.46597861686E+03  0.46597861686E+03  0.00000000000E+00 0. -1.
         25    2    1    2    0    0 -0.80552567423E+02  0.99883038158E+02 -0.17602756196E+03  0.25119459968E+03  0.12509071471E+03 0.  0.
          5    1    3    3  502    0 -0.54777991014E+02 -0.15830618775E+02 -0.81297156129E+02  0.99387810042E+02  0.41800000000E+01 0. -1.
         -5    1    3    3    0  502 -0.25774576409E+02  0.11571365693E+03 -0.94730405831E+02  0.15180678963E+03  0.41800000000E+01 0. -1.
        -11    1    1    2    0    0  0.67368910554E+01 -0.35758889442E+02 -0.13852085332E+03  0.14322049671E+03  0.00000000000E+00 0. -1.
         11    1    1    2    0    0  0.73815676368E+02 -0.64124148717E+02 -0.90059798951E+02  0.13293392311E+03  0.00000000000E+00 0.  1.
</event>
<event>
 7    1  0.2594791E-009  0.2415376E+03  0.7561462E-02  0.1118773E+00
          2   -1    0    0  501    0  0.00000000000E+00  0.00000000000E+00  0.69378870878E+03  0.69378870878E+03  0.00000000000E+00 0. -1.
         -2   -1    0    0    0  501 -0.00000000000E+00 -0.00000000000E+00 -0.99180216909E+02  0.99180216909E+02  0.00000000000E+00 0.  1.
         25    2    1    2    0    0 -0.17578162709E+03  0.14754778004E+03  0.20452589355E+03  0.33188653069E+03  0.12509316651E+03 0.  0.
          5    1    3    3  502    0 -0.37048059329E+02  0.10021847204E+03  0.12696727467E+03  0.16599536764E+03  0.41800000000E+01 0.  1.
         -5    1    3    3    0  502 -0.13873356776E+03  0.47329307996E+02  0.77558618879E+02  0.16589116306E+03  0.41800000000E+01 0.  1.
        -11    1    1    2    0    0  0.85987461143E+02 -0.71336693570E+02  0.10796612221E+03  0.15536875770E+03  0.00000000000E+00 0. -1.
         11    1    1    2    0    0  0.89794165945E+02 -0.76211086467E+02  0.28211647611E+03  0.30571363730E+03  0.00000000000E+00 0.  1.
</event>
<event>
 7    1  0.2594791E-009  0.1452617E+03  0.7561462E-02  0.1206419E+00
         -2   -1    0    0    0  501 -0.00000000000E+00  0.00000000000E+00  0.45636677905E+02  0.45636677905E+02  0.00000000000E+00 0.  1.
          2   -1    0    0  501    0  0.00000000000E+00 -0.00000000000E+00 -0.91814885625E+03  0.91814885625E+03  0.00000000000E+00 0. -1.
         25    2    1    2    0    0  0.17550810063E+02  0.12794782959E+03 -0.72655495104E+03  0.74847161434E+03  0.12509589348E+03 0.  0.
          5    1    3    3  502    0 -0.38136352178E+02  0.37909662271E+02 -0.10595508394E+03  0.11889270820E+03  0.41800000000E+01 0.  1.
         -5    1    3    3    0  502  0.55687162241E+02  0.90038167321E+02 -0.62059986710E+03  0.62957890614E+03  0.41800000000E+01 0.  1.
        -11    1    1    2    0    0 -0.15181599441E+02 -0.42031397547E+02  0.14128826774E+01  0.44711470327E+02  0.00000000000E+00 0.  1.
         11    1    1    2    0    0 -0.23692106215E+01 -0.85916432045E+02 -0.14737010998E+03  0.17060244949E+03  0.00000000000E+00 0. -1.
</event>
<event>
 7    1  0.2594791E-009  0.1341930E+03  0.7561462E-02  0.1221363E+00
         -2   -1    0    0    0  501 -0.00000000000E+00  0.00000000000E+00  0.10938189813E+03  0.10938189813E+03  0.00000000000E+00 0.  1.
          2   -1    0    0  501    0  0.00000000000E+00 -0.00000000000E+00 -0.23299560836E+03  0.23299560836E+03  0.00000000000E+00 0. -1.
         25    2    1    2    0    0 -0.11262929542E+02 -0.94771159359E+02 -0.13807213280E+03  0.20933175263E+03  0.12508973810E+03 0.  0.
          5    1    3    3  502    0 -0.65450444331E+02 -0.57737368970E+02 -0.10204764287E+03  0.13434492270E+03  0.41800000000E+01 0. -1.
         -5    1    3    3    0  502  0.54187514788E+02 -0.37033790389E+02 -0.36024489927E+02  0.74986829937E+02  0.41800000000E+01 0. -1.
        -11    1    1    2    0    0  0.37886751874E+02  0.65545276234E+02  0.40348642149E+02  0.85788123464E+02  0.00000000000E+00 0.  1.
         11    1    1    2    0    0 -0.26623822332E+02  0.29225883125E+02 -0.25890219587E+02  0.47257630392E+02  0.00000000000E+00 0. -1.
</event>
<event>
 7    1  0.2594791E-009  0.6554411E+02  0.7561462E-02  0.1375936E+00
         -1   -1    0    0    0  501 -0.00000000000E+00  0.00000000000E+00  0.53738315488E+02  0.53738315488E+02  0.00000000000E+00 0.  1.
          1   -1    0    0  501    0  0.00000000000E+00 -0.00000000000E+00 -0.41377984246E+03  0.41377984246E+03  0.00000000000E+00 0. -1.
         25    2    1    2    0    0  0.45181877549E+02 -0.40194477622E+01 -0.53004029886E+02  0.14322448757E+03  0.12508504562E+03 0.  0.
          5    1    3    3  502    0  0.39883012306E+02 -0.18823644909E+01 -0.93689145764E+02  0.10192804521E+03  0.41800000000E+01 0. -1.
         -5    1    3    3    0  502  0.52988652432E+01 -0.21370832714E+01  0.40685115878E+02  0.41296442362E+02  0.41800000000E+01 0. -1.
        -11    1    1    2    0    0  0.15724739452E+02  0.15278293104E+02 -0.17074208667E+02  0.27788887574E+02  0.00000000000E+00 0.  1.
         11    1    1    2    0    0 -0.60906617001E+02 -0.11258845341E+02 -0.28996328842E+03  0.29650478280E+03  0.00000000000E+00 0. -1.
</event>
<event>
 7    1  0.3086010E-009  0.1062060E+03  0.7561462E-02  0.1267762E+00
         -2   -1    0    0    0  501 -0.00000000000E+00  0.00000000000E+00  0.37588889591E+03  0.37588889591E+03  0.00000000000E+00 0.  1.
          2   -1    0    0  501    0  0.00000000000E+00 -0.00000000000E+00 -0.44076651794E+02  0.44076651794E+02  0.00000000000E+00 0. -1.
         25    2    1    2    0    0  0.32978221822E+02 -0.27416660288E+02  0.27259362686E+03  0.30297579032E+03  0.12509119769E+03 0.  0.
          5    1    3    3  502    0  0.29676406965E+02 -0.69495627624E+02  0.10095054927E+03  0.12616979507E+03  0.41800000000E+01 0. -1.
         -5    1    3    3    0  502  0.33018148570E+01  0.42078967335E+02  0.17164307759E+03  0.17680599525E+03  0.41800000000E+01 0. -1.
        -11    1    1    2    0    0 -0.36749806205E+02 -0.23263830997E+02  0.48322835631E+02  0.65014233304E+02  0.00000000000E+00 0.  1.
         11    1    1    2    0    0  0.37715843822E+01  0.50680491286E+02  0.10895781621E+02  0.51975524075E+02  0.00000000000E+00 0. -1.
</event>
<event>
 7    1  0.2594791E-009  0.1119175E+03  0.7561462E-02  0.1257060E+00
          2   -1    0    0  501    0  0.00000000000E+00  0.00000000000E+00  0.22428177366E+03  0.22428177366E+03  0.00000000000E+00 0. -1.
         -2   -1    0    0    0  501 -0.00000000000E+00 -0.00000000000E+00 -0.70471195788E+02  0.70471195788E+02  0.00000000000E+00 0.  1.
         25    2    1    2    0    0  0.28939540286E+02 -0.54404672254E+02  0.73209380708E+02  0.15751348660E+03  0.12511402672E+03 0.  0.
          5    1    3    3  502    0  0.63825179475E+02 -0.60538989805E+02  0.15132967362E+02  0.89359397506E+02  0.41800000000E+01 0. -1.
         -5    1    3    3    0  502 -0.34885639188E+02  0.61343175508E+01  0.58076413346E+02  0.68154089097E+02  0.41800000000E+01 0. -1.
        -11    1    1    2    0    0 -0.51695612839E+02  0.13723012969E+02  0.72234420087E+02  0.89880859570E+02  0.00000000000E+00 0. -1.
         11    1    1    2    0    0  0.22756072552E+02  0.40681659285E+02  0.83667770822E+01  0.47358623279E+02  0.00000000000E+00 0.  1.
</event>
<event>
 7    1  0.2594791E-009  0.6766312E+02  0.7561462E-02  0.1368225E+00
          1   -1    0    0  501    0  0.00000000000E+00  0.00000000000E+00  0.12618118238E+03  0.12618118238E+03  0.00000000000E+00 0. -1.
         -1   -1    0    0    0  501 -0.00000000000E+00 -0.00000000000E+00 -0.94157776986E+02  0.94157776986E+02  0.00000000000E+00 0.  1.
         25    2    1    2    0    0  0.27310646683E+02  0.58418684857E+02 -0.61269671379E+01  0.14086842190E+03  0.12509100047E+03 0.  0.
          5    1    3    3  502    0  0.30365633533E+02  0.58051032913E+02 -0.58685811940E+02  0.88053909880E+02  0.41800000000E+01 0. -1.
         -5    1    3    3    0  502 -0.30549868496E+01  0.36765194431E+00  0.52558844802E+02  0.52814512016E+02  0.41800000000E+01 0. -1.
        -11    1    1    2    0    0 -0.47605820131E+01 -0.10641557071E+02 -0.35261107492E+01  0.12179463659E+02  0.00000000000E+00 0.  1.
         11    1    1    2    0    0 -0.22550064670E+02 -0.47777127786E+02  0.41676483284E+02  0.67291073814E+02  0.00000000000E+00 0. -1.
</event>
<event>
 7    1  0.2594791E-009  0.6185108E+02  0.7561462E-02  0.1390224E+00
         -2   -1    0    0    0  501 -0.00000000000E+00  0.00000000000E+00  0.47708091189E+02  0.47708091189E+02  0.00000000000E+00 0.  1.
          2   -1    0    0  501    0  0.00000000000E+00 -0.00000000000E+00 -0.26711233936E+03  0.26711233936E+03  0.00000000000E+00 0. -1.
         25    2    1    2    0    0  0.77961405560E+01  0.33688406070E+02 -0.12432326242E+03  0.17972044584E+03  0.12508987395E+03 0.  0.
          5    1    3    3  502    0  0.12428814568E+02  0.86748302819E+01  0.24264361827E+02  0.28912968835E+02  0.41800000000E+01 0.  1.
         -5    1    3    3    0  502 -0.46326740116E+01  0.25013575788E+02 -0.14858762425E+03  0.15080747701E+03  0.41800000000E+01 0.  1.
        -11    1    1    2    0    0  0.33308152449E+02 -0.20121371419E+02 -0.10850705706E+02  0.40398520043E+02  0.00000000000E+00 0.  1.
         11    1    1    2    0    0 -0.41104293006E+02 -0.13567034651E+02 -0.84230280043E+02  0.94701464660E+02  0.00000000000E+00 0. -1.
</event>
<event>
 7    1  0.2594791E-009  0.2613502E+03  0.7561462E-02  0.1106335E+00
          1   -1    0    0  501    0  0.00000000000E+00  0.00000000000E+00  0.28351701847E+03  0.28351701847E+03  0.00000000000E+00 0. -1.
         -1   -1    0    0    0  501 -0.00000000000E+00 -0.00000000000E+00 -0.35261549145E+03  0.35261549145E+03  0.00000000000E+00 0.  1.
         25    2    1    2    0    0  0.16462438252E+03  0.17378466868E+03  0.14157692824E+03  0.30494815351E+03  0.12508817422E+03 0.  0.
          5    1    3    3  502    0  0.18450469593E+03  0.15001077094E+03  0.11631928822E+03  0.26475056832E+03  0.41800000000E+01 0. -1.
         -5    1    3    3    0  502 -0.19880313409E+02  0.23773897739E+02  0.25257640027E+02  0.40197585184E+02  0.41800000000E+01 0. -1.
        -11    1    1    2    0    0 -0.78023677463E+01 -0.58360822829E+02 -0.67001422552E+02  0.89196710745E+02  0.00000000000E+00 0.  1.
         11    1    1    2    0    0 -0.15682201477E+03 -0.11542384585E+03 -0.14367397867E+03  0.24198764566E+03  0.00000000000E+00 0. -1.
</event>
<event>
 7    1  0.2594791E-009  0.1508729E+03  0.7561462E-02  0.1199404E+00
          2   -1    0    0  501    0  0.00000000000E+00  0.00000000000E+00  0.17201784036E+04  0.17201784036E+04  0.00000000000E+00 0.  1.
         -2   -1    0    0    0  501 -0.00000000000E+00 -0.00000000000E+00 -0.19612578545E+02  0.19612578545E+02  0.00000000000E+00 0. -1.
         25    2    1    2    0    0 -0.10829766879E+03 -0.54506842136E+02  0.12919554521E+04  0.13036493125E+04  0.12511298514E+03 0.  0.
          5    1    3    3  502    0 -0.28724862384E+02  0.31574136755E+02  0.62402459438E+03  0.62549677108E+03  0.41800000000E+01 0. -1.
         -5    1    3    3    0  502 -0.79572806405E+02 -0.86080978891E+02  0.66793085768E+03  0.67815254145E+03  0.41800000000E+01 0. -1.
        -11    1    1    2    0    0  0.90494308481E+02  0.72716286785E+02  0.38224778468E+03  0.39948748056E+03  0.00000000000E+00 0.  1.
         11    1    1    2    0    0  0.17803360307E+02 -0.18209444648E+02  0.26362588320E+02  0.36654189059E+02  0.00000000000E+00 0. -1.
</event>
<event>
 7    1  0.2594791E-009  0.1515123E+03  0.7561462E-02  0.1198627E+00
          1   -1    0    0  501    0  0.00000000000E+00  0.00000000000E+00  0.55919392899E+03  0.55919392899E+03  0.00000000000E+00 0. -1.
         -1   -1    0    0    0  501 -0.00000000000E+00 -0.00000000000E+00 -0.54778525283E+02  0.54778525283E+02  0.00000000000E+00 0.  1.
         25    2    1    2    0    0 -0.40711381955E+02 -0.12592576075E+03  0.20400491013E+03  0.27346061093E+03  0.12509192033E+03 0.  0.
          5    1    3    3  502    0 -0.44937427139E+02 -0.51804368141E+02  0.14958474509E+02  0.70315668781E+02  0.41800000000E+01 0.  1.
         -5    1    3    3    0  502  0.42260451845E+01 -0.74121392607E+02  0.18904643562E+03  0.20314494215E+03  0.41800000000E+01 0.  1.
        -11    1    1    2    0    0  0.11564508622E+02  0.13001370919E+03  0.25354673007E+03  0.28517231066E+03  0.00000000000E+00 0.  1.
         11    1    1    2    0    0  0.29146873333E+02 -0.40879484430E+01  0.46863763507E+02  0.55339532683E+02  0.00000000000E+00 0. -1.
</event>
<event>
 7    1  0.3119268E-009  0.1956954E+03  0.7561462E-02  0.1153422E+00
         -2   -1    0    0    0  501 -0.00000000000E+00  0.00000000000E+00  0.77368193340E+02  0.77368193340E+02  0.00000000000E+00 0.  1.
          2   -1    0    0  501    0  0.00000000000E+00 -0.00000000000E+00 -0.57954583346E+03  0.57954583346E+03  0.00000000000E+00 0. -1.
         25    2    1    2    0    0  0.17766549153E+03 -0.18484137088E+02 -0.31320530167E+03  0.38164095546E+03  0.12508224369E+03 0.  0.
          5    1    3    3  502    0  0.15113966999E+03 -0.48176870179E+02 -0.30017578998E+03  0.33953967066E+03  0.41800000000E+01 0. -1.
         -5    1    3    3    0  502  0.26525821544E+02  0.29692733092E+02 -0.13029511698E+02  0.42101284804E+02  0.41800000000E+01 0. -1.
        -11    1    1    2    0    0 -0.12736677369E+03  0.45898582296E+02 -0.16432184884E+03  0.21290994553E+03  0.00000000000E+00 0. -1.
         11    1    1    2    0    0 -0.50298717841E+02 -0.27414445209E+02 -0.24650489597E+02  0.62363125803E+02  0.00000000000E+00 0.  1.
</event>
<event>
 7    1  0.2594791E-009  0.1730774E+03  0.7561462E-02  0.1174676E+00
         -2   -1    0    0    0  501 -0.00000000000E+00  0.00000000000E+00  0.38912840481E+02  0.38912840481E+02  0.00000000000E+00 0.  1.
          2   -1    0    0  501    0  0.00000000000E+00 -0.00000000000E+00 -0.96767257358E+03  0.96767257358E+03  0.00000000000E+00 0. -1.
         25    2    1    2    0    0 -0.93881652938E+02 -0.12731378740E+03 -0.49489814917E+03  0.53441025659E+03  0.12509028368E+03 0.  0.
          5    1    3    3  502    0 -0.47652129493E+02 -0.46904089024E+02 -0.38389400173E+03  0.38969577362E+03  0.41800000000E+01 0. -1.
         -5    1    3    3    0  502 -0.46229523445E+02 -0.80409698377E+02 -0.11100414744E+03  0.14471448296E+03  0.41800000000E+01 0. -1.
        -11    1    1    2    0    0 -0.68150013963E+00  0.81029584451E+02 -0.18928852220E+03  0.20590386746E+03  0.00000000000E+00 0. -1.
         11    1    1    2    0    0  0.94563153078E+02  0.46284202950E+02 -0.24457306173E+03  0.26627129001E+03  0.00000000000E+00 0.  1.
</event>
<event>
 7    1  0.2594791E-009  0.9198969E+02  0.7561462E-02  0.1298104E+00
          1   -1    0    0  501    0  0.00000000000E+00  0.00000000000E+00  0.97989146810E+02  0.97989146810E+02  0.00000000000E+00 0. -1.
         -1   -1    0    0    0  501 -0.00000000000E+00 -0.00000000000E+00 -0.13794613416E+03  0.13794613416E+03  0.00000000000E+00 0.  1.
         25    2    1    2    0    0 -0.69677846888E+01 -0.26834747711E+02 -0.62030871724E+02  0.14234816285E+03  0.12508603723E+03 0.  0.
          5    1    3    3  502    0  0.52593834319E+02  0.14876213998E+02 -0.32702455147E+02  0.63830526583E+02  0.41800000000E+01 0.  1.
         -5    1    3    3    0  502 -0.59561619007E+02 -0.41710961708E+02 -0.29328416577E+02  0.78517636263E+02  0.41800000000E+01 0.  1.
        -11    1    1    2    0    0  0.26389074654E+02  0.25759067049E+02 -0.23710819380E+02  0.43841940559E+02  0.00000000000E+00 0.  1.
         11    1    1    2    0    0 -0.19421289965E+02  0.10756806621E+01  0.45784703756E+02  0.49745177563E+02  0.00000000000E+00 0. -1.
</event>
<event>
 7    1  0.2594791E-009  0.6700292E+02  0.7561462E-02  0.1370592E+00
          1   -1    0    0  501    0  0.00000000000E+00  0.00000000000E+00  0.11302897539E+03  0.11302897539E+03  0.00000000000E+00 0. -1.
         -1   -1    0    0    0  501 -0.00000000000E+00 -0.00000000000E+00 -0.10537866768E+03  0.10537866768E+03  0.00000000000E+00 0.  1.
         25    2    1    2    0    0  0.35576747238E+01 -0.10262747068E+01 -0.94779123882E+01  0.12550515795E+03  0.12509198040E+03 0.  0.
          5    1    3    3  502    0  0.13231341189E+02  0.44613800900E+02  0.36939768582E+02  0.59560712917E+02  0.41800000000E+01 0. -1.
         -5    1    3    3    0  502 -0.96736664649E+01 -0.45640075606E+02 -0.46417680970E+02  0.65944445034E+02  0.41800000000E+01 0. -1.
        -11    1    1    2    0    0 -0.25210904086E+01  0.20644315374E+02  0.50255012047E+02  0.54388508804E+02  0.00000000000E+00 0. -1.
         11    1    1    2    0    0 -0.10365843152E+01 -0.19618040667E+02 -0.33126791954E+02  0.38513976318E+02  0.00000000000E+00 0.  1.
</event>
<event>
 7    1  0.2594791E-009  0.9162518E+02  0.7561462E-02  0.1298963E+00
         -2   -1    0    0    0  501 -0.00000000000E+00  0.00000000000E+00  0.44550326182E+02  0.44550326182E+02  0.00000000000E+00 0.  1.
          2   -1    0    0  501    0  0.00000000000E+00 -0.00000000000E+00 -0.30912009784E+03  0.30912009784E+03  0.00000000000E+00 0. -1.
         25    2    1    2    0    0 -0.45647354088E+02 -0.42283364597E+01 -0.15355766973E+03  0.20329586987E+03  0.12509073910E+03 0.  0.
          5    1    3    3  502    0  0.87335021773E+00  0.55512840989E+02 -0.49235709432E+02  0.74324058948E+02  0.41800000000E+01 0.  1.
         -5    1    3    3    0  502 -0.46520704306E+02 -0.59741177448E+02 -0.10432196030E+03  0.12897181092E+03  0.41800000000E+01 0.  1.
        -11    1    1    2    0    0  0.53231052436E+01  0.96822441259E+01  0.14615074957E+02  0.18321618835E+02  0.00000000000E+00 0.  1.
         11    1    1    2    0    0  0.40324248845E+02 -0.54539076662E+01 -0.12562717688E+03  0.13205293531E+03  0.00000000000E+00 0. -1.
</event>
<event>
 7    1  0.2594791E-009  0.1275471E+03  0.7561462E-02  0.1231141E+00
         -2   -1    0    0    0  501 -0.00000000000E+00  0.00000000000E+00  0.99924909033E+02  0.99924909033E+02  0.00000000000E+00 0.  1.
          2   -1    0    0  501    0  0.00000000000E+00 -0.00000000000E+00 -0.26299879822E+03  0.26299879822E+03  0.00000000000E+00 0. -1.
         25    2    1    2    0    0 -0.10276535614E+03 -0.47136618711E+02 -0.40253461421E+02  0.17334985195E+03  0.12508897141E+03 0.  0.
          5    1    3    3  502    0 -0.40032336131E+02 -0.65186083537E+02 -0.67866980213E+02  0.10234848717E+03  0.41800000000E+01 0.  1.
         -5    1    3    3    0  502 -0.62733020010E+02  0.18049464826E+02  0.27613518793E+02  0.71001364777E+02  0.41800000000E+01 0.  1.
        -11    1    1    2    0    0  0.20053063088E+02  0.98961807445E+01  0.13285181216E+02  0.26010685737E+02  0.00000000000E+00 0.  1.
         11    1    1    2    0    0  0.82712293054E+02  0.37240437967E+02 -0.13610560898E+03  0.16356316957E+03  0.00000000000E+00 0. -1.
</event>
<event>
 7    1  0.2594791E-009  0.1136149E+03  0.7561462E-02  0.1254018E+00
         -2   -1    0    0    0  501 -0.00000000000E+00  0.00000000000E+00  0.61868092406E+02  0.61868092406E+02  0.00000000000E+00 0. -1.
          2   -1    0    0  501    0  0.00000000000E+00 -0.00000000000E+00 -0.28142625496E+03  0.28142625496E+03  0.00000000000E+00 0.  1.
         25    2    1    2    0    0 -0.58960037998E+02  0.39147097329E+02 -0.82560429034E+02  0.16574884411E+03  0.12509066141E+03 0.  0.
          5    1    3    3  502    0 -0.90801394465E+02  0.55558013253E+02 -0.52333928046E+02  0.11869245342E+03  0.41800000000E+01 0. -1.
         -5    1    3    3    0  502  0.31841356467E+02 -0.16410915925E+02 -0.30226500988E+02  0.47056390694E+02  0.41800000000E+01 0. -1.
        -11    1    1    2    0    0  0.44731028247E+02 -0.49739426924E+02 -0.14375988172E+03  0.15856159394E+03  0.00000000000E+00 0.  1.
         11    1    1    2    0    0  0.14229009752E+02  0.10592329595E+02  0.67621482016E+01  0.18983909320E+02  0.00000000000E+00 0. -1.
</event>
<event>
 7    1  0.2594791E-009  0.1382157E+03  0.7561462E-02  0.1215750E+00
          1   -1    0    0  501    0  0.00000000000E+00  0.00000000000E+00  0.96566052195E+02  0.96566052195E+02  0.00000000000E+00 0. -1.
         -1   -1    0    0    0  501 -0.00000000000E+00 -0.00000000000E+00 -0.24799544485E+03  0.24799544485E+03  0.00000000000E+00 0.  1.
         25    2    1    2    0    0  0.72840935232E+02 -0.93039129366E+02 -0.64093314469E+02  0.18362281037E+03  0.12508917655E+03 0.  0.
          5    1    3    3  502    0  0.18276405992E+02  0.12953791846E+02 -0.60093631968E+02  0.64269314158E+02  0.41800000000E+01 0. -1.
         -5    1    3    3    0  502  0.54564529240E+02 -0.10599292121E+03 -0.39996825009E+01  0.11935349621E+03  0.41800000000E+01 0. -1.
        -11    1    1    2    0    0 -0.31169311847E+02 -0.13287662692E+01 -0.28070145595E+02  0.41966947644E+02  0.00000000000E+00 0.  1.
         11    1    1    2    0    0 -0.41671623384E+02  0.94367895636E+02 -0.59265932595E+02  0.11897173903E+03  0.00000000000E+00 0. -1.
</event>
<event>
 7    1  0.3869308E-009  0.1345746E+03  0.7561462E-02  0.1220821E+00
          1   -1    0    0  501    0  0.00000000000E+00  0.00000000000E+00  0.39108442431E+03  0.39108442431E+03  0.00000000000E+00 0. -1.
         -1   -1    0    0    0  501 -0.00000000000E+00 -0.00000000000E+00 -0.62078411560E+02  0.62078411560E+02  0.00000000000E+00 0.  1.
         25    2    1    2    0    0 -0.27039689282E+02  0.86847819488E+02  0.82663995164E+02  0.17537082658E+03  0.12509157514E+03 0.  0.
          5    1    3    3  502    0 -0.55550577378E+01  0.11440482254E+03  0.43179466276E+02  0.12247963420E+03  0.41800000000E+01 0. -1.
         -5    1    3    3    0  502 -0.21484631544E+02 -0.27557003048E+02  0.39484528888E+02  0.52891192377E+02  0.41800000000E+01 0. -1.
        -11    1    1    2    0    0  0.51056131351E+02 -0.34135889839E+02  0.75084050318E+02  0.97003103743E+02  0.00000000000E+00 0.  1.
         11    1    1    2    0    0 -0.24016442069E+02 -0.52711929650E+02  0.17125796727E+03  0.18078890555E+03  0.00000000000E+00 0. -1.
</event>
<event>
 7    1  0.2594791E-009  0.1838313E+03  0.7561462E-02  0.1164146E+00
          2   -1    0    0  501    0  0.00000000000E+00  0.00000000000E+00  0.24471857221E+03  0.24471857221E+03  0.00000000000E+00 0. -1.
         -2   -1    0    0    0  501 -0.00000000000E+00 -0.00000000000E+00 -0.21223491050E+03  0.21223491050E+03  0.00000000000E+00 0.  1.
         25    2    1    2    0    0  0.11060325330E+03 -0.10649142344E+03 -0.11217205474E+03  0.22760383850E+03  0.12508970594E+03 0.  0.
          5    1    3    3  502    0  0.12798883795E+03 -0.47834830434E+02 -0.78986674515E+02  0.15787869012E+03  0.41800000000E+01 0.  1.
         -5    1    3    3    0  502 -0.17385584653E+02 -0.58656593004E+02 -0.33185380225E+02  0.69725148385E+02  0.41800000000E+01 0.  1.
        -11    1    1    2    0    0 -0.10672861708E+03  0.58919145177E+02  0.69534606155E+02  0.14034787076E+03  0.00000000000E+00 0. -1.
         11    1    1    2    0    0 -0.38746362164E+01  0.47572278261E+02  0.75121110294E+02  0.89001773447E+02  0.00000000000E+00 0.  1.
</event>
<event>
 7    1  0.2594791E-009  0.2552593E+03  0.7561462E-02  0.1110025E+00
         -1   -1    0    0    0  501 -0.00000000000E+00  0.00000000000E+00  0.61355065955E+03  0.61355065955E+03  0.00000000000E+00 0.  1.
          1   -1    0    0  501    0  0.00000000000E+00 -0.00000000000E+00 -0.12056896995E+03  0.12056896995E+03  0.00000000000E+00 0. -1.
         25    2    1    2    0    0 -0.20038674432E+03 -0.13526783879E+03  0.33123188959E+03  0.42873747248E+03  0.12509604359E+03 0.  0.
          5    1    3    3  502    0 -0.56300913978E+02 -0.79073676061E+02  0.21269307565E+03  0.23383382131E+03  0.41800000000E+01 0.  1.
         -5    1    3    3    0  502 -0.14408583034E+03 -0.56194162724E+02  0.11853881393E+03  0.19490365117E+03  0.41800000000E+01 0.  1.
        -11    1    1    2    0    0  0.16917414846E+03  0.14815604717E+03  0.13486982434E+03  0.26222123548E+03  0.00000000000E+00 0. -1.
         11    1    1    2    0    0  0.31212595860E+02 -0.12888208381E+02  0.26879975684E+02  0.43160921542E+02  0.00000000000E+00 0.  1.
</event>
<event>
 7    1  0.2594791E-009  0.8207929E+02  0.7561462E-02  0.1323252E+00
          1   -1    0    0  501    0  0.00000000000E+00  0.00000000000E+00  0.60306137463E+02  0.60306137463E+02  0.00000000000E+00 0. -1.
         -1   -1    0    0    0  501 -0.00000000000E+00 -0.00000000000E+00 -0.25777704424E+03  0.25777704424E+03  0.00000000000E+00 0.  1.
         25    2    1    2    0    0  0.30755778446E+02  0.31596841537E+02 -0.15629324269E+03  0.20498608266E+03  0.12508972009E+03 0.  0.
          5    1    3    3  502    0  0.31364767202E+02 -0.38106774198E+02 -0.23221356956E+02  0.54704466731E+02  0.41800000000E+01 0. -1.
         -5    1    3    3    0  502 -0.60898875618E+00  0.69703615736E+02 -0.13307188573E+03  0.15028161593E+03  0.41800000000E+01 0. -1.
        -11    1    1    2    0    0 -0.19220690648E+02 -0.24907664661E+02  0.28320940886E+02  0.42330868176E+02  0.00000000000E+00 0. -1.
         11    1    1    2    0    0 -0.11535087798E+02 -0.66891768760E+01 -0.69498604973E+02  0.70766230866E+02  0.00000000000E+00 0.  1.
</event>
<event>
 7    1  0.2594791E-009  0.9323968E+02  0.7561462E-02  0.1295191E+00
          2   -1    0    0  501    0  0.00000000000E+00  0.00000000000E+00  0.11462722631E+03  0.11462722631E+03  0.00000000000E+00 0.  1.
         -2   -1    0    0    0  501 -0.00000000000E+00 -0.00000000000E+00 -0.13390582242E+03  0.13390582242E+03  0.00000000000E+00 0. -1.
         25    2    1    2    0    0 -0.41596420249E+02  0.75355802767E+01  0.30897835600E+02  0.13557115500E+03  0.12505124820E+03 0.  0.
          5    1    3    3  502    0 -0.73778872314E+02 -0.47949053664E+01  0.55905275218E+02  0.92785695635E+02  0.41800000000E+01 0.  1.
         -5    1    3    3    0  502  0.32182452065E+02  0.12330485643E+02 -0.25007439618E+02  0.42785459368E+02  0.41800000000E+01 0.  1.
        -11    1    1    2    0    0  0.83229188317E+00  0.25332453806E+02 -0.54816225115E+02  0.60392420563E+02  0.00000000000E+00 0. -1.
         11    1    1    2    0    0  0.40764128366E+02 -0.32868034082E+02  0.46397934093E+01  0.52569473164E+02  0.00000000000E+00 0.  1.
</event>
<event>
 7    1  0.2594791E-009  0.2349115E+03  0.7561462E-02  0.1123230E+00
          1   -1    0    0  501    0  0.00000000000E+00  0.00000000000E+00  0.32547772799E+03  0.32547772799E+03  0.00000000000E+00 0. -1.
         -1   -1    0    0    0  501 -0.00000000000E+00 -0.00000000000E+00 -0.18854159125E+03  0.18854159125E+03  0.00000000000E+00 0.  1.
         25    2    1    2    0    0 -0.19920977778E+03  0.98527108131E+02  0.48752528742E+02  0.25965047869E+03  0.12509770352E+03 0.  0.
          5    1    3    3  502    0 -0.57313738016E+02 -0.19878423301E+02 -0.17508551070E+02  0.63277468651E+02  0.41800000000E+01 0. -1.
         -5    1    3    3    0  502 -0.14189603977E+03  0.11840553143E+03  0.66261079812E+02  0.19637301004E+03  0.41800000000E+01 0. -1.
        -11    1    1    2    0    0  0.14091131785E+03 -0.84109647056E+02  0.22951689654E+02  0.16570217948E+03  0.00000000000E+00 0.  1.
         11    1    1    2    0    0  0.58298459934E+02 -0.14417461076E+02  0.65231918342E+02  0.88666661069E+02  0.00000000000E+00 0. -1.
</event>
<event>
 7    1  0.2594791E-009  0.9719085E+02  0.7561462E-02  0.1286317E+00
          4   -1    0    0  501    0  0.00000000000E+00  0.00000000000E+00  0.11071505649E+03  0.11071505649E+03  0.00000000000E+00 0. -1.
         -4   -1    0    0    0  501 -0.00000000000E+00 -0.00000000000E+00 -0.12308650423E+03  0.12308650423E+03  0.00000000000E+00 0.  1.
         25    2    1    2    0    0  0.13025170425E+02 -0.14860909494E+02  0.32830909920E+02  0.13082161301E+03  0.12508366835E+03 0.  0.
          5    1    3    3  502    0  0.48081353412E+01 -0.63222586534E+02 -0.11495855295E+02  0.64574303732E+02  0.41800000000E+01 0.  1.
         -5    1    3    3    0  502  0.82170350834E+01  0.48361677040E+02  0.44326765215E+02  0.66247309274E+02  0.41800000000E+01 0.  1.
        -11    1    1    2    0    0 -0.18922282129E+02 -0.30484145330E+02 -0.44610951899E+02  0.57249217521E+02  0.00000000000E+00 0.  1.
         11    1    1    2    0    0  0.58971117049E+01  0.45345054825E+02 -0.59140576270E+00  0.45730730196E+02  0.00000000000E+00 0. -1.
</event>
<event>
 7    1  0.3245821E-009  0.2009975E+03  0.7561462E-02  0.1148900E+00
         -2   -1    0    0    0  501 -0.00000000000E+00  0.00000000000E+00  0.22713108619E+02  0.22713108619E+02  0.00000000000E+00 0.  1.
          2   -1    0    0  501    0  0.00000000000E+00 -0.00000000000E+00 -0.23658292379E+04  0.23658292379E+04  0.00000000000E+00 0. -1.
         25    2    1    2    0    0 -0.15298105604E+03  0.11358310374E+03 -0.15982186396E+04  0.16143905526E+04  0.12509880662E+03 0.  0.
          5    1    3    3  502    0 -0.11795818118E+03  0.11438592119E+03 -0.15164999344E+04  0.15253811966E+04  0.41800000000E+01 0.  1.
         -5    1    3    3    0  502 -0.35022874860E+02 -0.80281745042E+00 -0.81718705228E+02  0.89009356044E+02  0.41800000000E+01 0.  1.
        -11    1    1    2    0    0  0.64566528487E+02 -0.90142827062E+02 -0.51343419283E+03  0.52527063143E+03  0.00000000000E+00 0. -1.
         11    1    1    2    0    0  0.88414527550E+02 -0.23440276674E+02 -0.23146329686E+03  0.24888116250E+03  0.00000000000E+00 0.  1.
</event>
<event>
 7    1  0.2594791E-009  0.1213859E+03  0.7561462E-02  0.1240828E+00
         -1   -1    0    0    0  501 -0.00000000000E+00  0.00000000000E+00  0.68349255266E+02  0.68349255266E+02  0.00000000000E+00 0.  1.
          1   -1    0    0  501    0  0.00000000000E+00 -0.00000000000E+00 -0.30249152846E+03  0.30249152846E+03  0.00000000000E+00 0. -1.
         25    2    1    2    0    0 -0.81847103169E+02  0.40713720470E+02 -0.98646534770E+02  0.18367152369E+03  0.12509010537E+03 0.  0.
          5    1    3    3  502    0 -0.19370421874E+02  0.66651035657E+02 -0.72847004738E+01  0.69915041720E+02  0.41800000000E+01 0. -1.
         -5    1    3    3    0  502 -0.62476681294E+02 -0.25937315187E+02 -0.91361834296E+02  0.11375648197E+03  0.41800000000E+01 0. -1.
        -11    1    1    2    0    0  0.11222670609E+02 -0.32473382825E+02 -0.10376791614E+03  0.10930804796E+03  0.00000000000E+00 0. -1.
         11    1    1    2    0    0  0.70624432560E+02 -0.82403376448E+01 -0.31727822278E+02  0.77861212073E+02  0.00000000000E+00 0.  1.
</event>
<event>
 7    1  0.2594791E-009  0.2302991E+03  0.7561462E-02  0.1126429E+00
          2   -1    0    0  501    0  0.00000000000E+00  0.00000000000E+00  0.43903851977E+03  0.43903851977E+03  0.00000000000E+00 0. -1.
         -2   -1    0    0    0  501 -0.00000000000E+00 -0.00000000000E+00 -0.13882443326E+03  0.13882443326E+03  0.00000000000E+00 0.  1.
         25    2    1    2    0    0  0.21123118071E+03  0.55660685945E+02  0.18595073069E+03  0.31295599354E+03  0.12508819283E+03 0.  0.
          5    1    3    3  502    0  0.10278802539E+03  0.47847842235E+02  0.21047071202E+02  0.11539170584E+03  0.41800000000E+01 0.  1.
         -5    1    3    3    0  502  0.10844315531E+03  0.78128437099E+01  0.16490365949E+03  0.19756428770E+03  0.41800000000E+01 0.  1.
        -11    1    1    2    0    0 -0.11194488118E+03  0.19732224835E+02  0.44688462397E+02  0.12213957504E+03  0.00000000000E+00 0.  1.
         11    1    1    2    0    0 -0.99286299523E+02 -0.75392910779E+02  0.69574893425E+02  0.14276738445E+03  0.00000000000E+00 0. -1.
</event>
<event>
 7    1  0.2594791E-009  0.1001090E+03  0.7561462E-02  0.1280067E+00
         -1   -1    0    0    0  501 -0.00000000000E+00  0.00000000000E+00  0.64011823411E+03  0.64011823411E+03  0.00000000000E+00 0.  1.
          1   -1    0    0  501    0  0.00000000000E+00 -0.00000000000E+00 -0.24518244316E+02  0.24518244316E+02  0.00000000000E+00 0. -1.
         25    2    1    2    0    0  0.10206368584E+02 -0.68557371441E+01  0.50239679251E+03  0.51788091022E+03  0.12508768504E+03 0.  0.
          5    1    3    3  502    0  0.13395249619E+02 -0.57220941925E+02  0.39226684823E+03  0.39666663777E+03  0.41800000000E+01 0. -1.
         -5    1    3    3    0  502 -0.31888810345E+01  0.50365204781E+02  0.11012994429E+03  0.12121427244E+03  0.41800000000E+01 0. -1.
        -11    1    1    2    0    0  0.15205736733E+01 -0.41184131535E+02  0.34210701725E+02  0.53561338175E+02  0.00000000000E+00 0. -1.
         11    1    1    2    0    0 -0.11726942258E+02  0.48039868679E+02  0.78992495551E+02  0.93194230030E+02  0.00000000000E+00 0.  1.
</event>
<event>
 7    1  0.2594791E-009  0.1059794E+03  0.7561462E-02  0.1268202E+00
         -1   -1    0    0    0  501 -0.00000000000E+00  0.00000000000E+00  0.26976097806E+03  0.26976097806E+03  0.00000000000E+00 0.  1.
          1   -1    0    0  501    0  0.00000000000E+00 -0.00000000000E+00 -0.55765391187E+02  0.55765391187E+02  0.00000000000E+00 0. -1.
         25    2    1    2    0    0 -0.48841098665E+02  0.21457591821E+02  0.93917035630E+02  0.16527292948E+03  0.12509536551E+03 0.  0.
          5    1    3    3  502    0 -0.25184038207E+01  0.57758289519E+02  0.44915243275E+01  0.58137841005E+02  0.41800000000E+01 0.  1.
         -5    1    3    3    0  502 -0.46322694844E+02 -0.36300697697E+02  0.89425511303E+02  0.10713508848E+03  0.41800000000E+01 0.  1.
        -11    1    1    2    0    0 -0.16465944472E+02 -0.24611350696E+02  0.82934279017E+01  0.30751046434E+02  0.00000000000E+00 0. -1.
         11    1    1    2    0    0  0.65307043137E+02  0.31537588745E+01  0.11178512334E+03  0.12950239333E+03  0.00000000000E+00 0.  1.
</event>
<event>
 7    1  0.2594791E-009  0.8332018E+02  0.7561462E-02  0.1319885E+00
         -4   -1    0    0    0  501 -0.00000000000E+00  0.00000000000E+00  0.21604982723E+03  0.21604982723E+03  0.00000000000E+00 0.  1.
          4   -1    0    0  501    0  0.00000000000E+00 -0.00000000000E+00 -0.65764802009E+02  0.65764802009E+02  0.00000000000E+00 0. -1.
         25    2    1    2    0    0 -0.38525983738E+02 -0.31120090685E+02  0.77604918615E+02  0.15532238069E+03  0.12509918897E+03 0.  0.
          5    1    3    3  502    0 -0.32944680996E+02 -0.39903351646E+02 -0.21059062679E+02  0.56023084523E+02  0.41800000000E+01 0.  1.
         -5    1    3    3    0  502 -0.55813027423E+01  0.87832609611E+01  0.98663981295E+02  0.99299296162E+02  0.41800000000E+01 0.  1.
        -11    1    1    2    0    0 -0.26202180873E+02  0.28522634692E+02  0.28271405473E+02  0.47951718840E+02  0.00000000000E+00 0.  1.
         11    1    1    2    0    0  0.64728164611E+02  0.25974559938E+01  0.44408701135E+02  0.78540529716E+02  0.00000000000E+00 0. -1.
</event>
<event>
 7    1  0.2594791E-009  0.9180213E+02  0.7561462E-02  0.1298545E+00
          1   -1    0    0  501    0  0.00000000000E+00  0.00000000000E+00  0.15367170173E+03  0.15367170173E+03  0.00000000000E+00 0. -1.
         -1   -1    0    0    0  501 -0.00000000000E+00 -0.00000000000E+00 -0.60721199951E+02  0.60721199951E+02  0.00000000000E+00 0.  1.
         25    2    1    2    0    0  0.15231224554E+02  0.23470582608E+02  0.80707233384E+02  0.15147142857E+03  0.12508827964E+03 0.  0.
          5    1    3    3  502    0 -0.54595001171E+02  0.76501589124E+01  0.25082297071E+02  0.60710238927E+02  0.41800000000E+01 0.  1.
         -5    1    3    3    0  502  0.69826225725E+02  0.15820423696E+02  0.55624936313E+02  0.90761189639E+02  0.41800000000E+01 0.  1.
        -11    1    1    2    0    0  0.11540747020E+02 -0.27220924955E+02 -0.61825438093E+01  0.30205818068E+02  0.00000000000E+00 0.  1.
         11    1    1    2    0    0 -0.26771971574E+02  0.37503423472E+01  0.18425812201E+02  0.32715655044E+02  0.00000000000E+00 0. -1.
</event>
<event>
 7    1  0.2594791E-009  0.7877996E+02  0.7561462E-02  0.1332550E+00
          1   -1    0    0  501    0  0.00000000000E+00  0.00000000000E+00  0.34618350653E+03  0.34618350653E+03  0.00000000000E+00 0. -1.
         -1   -1    0    0    0  501 -0.00000000000E+00 -0.00000000000E+00 -0.44323591145E+02  0.44323591145E+02  0.00000000000E+00 0.  1.
         25    2    1    2    0    0 -0.36689956396E+02 -0.18869050166E+02  0.23642926152E+03  0.27063866751E+03  0.12507717096E+03 0.  0.
          5    1    3    3  502    0  0.27951860152E+01 -0.33707967842E+02  0.39297658399E+01  0.34306786799E+02  0.41800000000E+01 0. -1.
         -5    1    3    3    0  502 -0.39485142411E+02  0.14838917676E+02  0.23249949568E+03  0.23633188071E+03  0.41800000000E+01 0. -1.
        -11    1    1    2    0    0 -0.43657205010E+00 -0.24214062951E+02  0.57567828469E+02  0.62454513963E+02  0.00000000000E+00 0. -1.
         11    1    1    2    0    0  0.37126528446E+02  0.43083113117E+02  0.78628253948E+01  0.57413916200E+02  0.00000000000E+00 0.  1.
</event>
<event>
 7    1  0.2594791E-009  0.8366128E+02  0.7561462E-02  0.1318971E+00
          2   -1    0    0  501    0  0.00000000000E+00  0.00000000000E+00  0.15132567992E+02  0.15132567992E+02  0.00000000000E+00 0. -1.
         -2   -1    0    0    0  501 -0.00000000000E+00 -0.00000000000E+00 -0.87547893083E+03  0.87547893083E+03  0.00000000000E+00 0.  1.
         25    2    1    2    0    0 -0.80816877772E+01  0.32596414384E+02 -0.57487169412E+03  0.58928145101E+03  0.12508926372E+03 0.  0.
          5    1    3    3  502    0 -0.92924973275E+01  0.51624354435E+02 -0.56493162077E+03  0.56737697612E+03  0.41800000000E+01 0.  1.
         -5    1    3    3    0  502  0.12108095502E+01 -0.19027940051E+02 -0.99400733495E+01  0.21904474898E+02  0.41800000000E+01 0.  1.
        -11    1    1    2    0    0  0.17157993226E+02  0.28581132836E+02 -0.77784997432E+02  0.84627322486E+02  0.00000000000E+00 0. -1.
         11    1    1    2    0    0 -0.90763054489E+01 -0.61177547220E+02 -0.20768967128E+03  0.21670272532E+03  0.00000000000E+00 0.  1.
</event>
<event>
 6    1  0.2594791E-009  0.1053335E+03  0.7561462E-02  0.1269464E+00
         -2   -1    0    0    0  501 -0.00000000000E+00  0.00000000000E+00  0.10508562168E+03  0.10508562168E+03  0.00000000000E+00 0.  1.
          2   -1    0    0  501    0  0.00000000000E+00 -0.00000000000E+00 -0.13716779554E+03  0.13716779554E+03  0.00000000000E+00 0. -1.
          5    1    1    2  502    0 -0.21337189442E+02 -0.37061896909E+02  0.33381735268E+02  0.54412062130E+02  0.41800000000E+01 0.  1.
         -5    1    1    2    0  502  0.48679685583E+02  0.55561660902E+02 -0.17787322129E+02  0.76096459702E+02  0.41800000000E+01 0.  1.
        -11    1    1    2    0    0 -0.50791225265E+02 -0.37821134406E+02 -0.50823814148E+02  0.81198810682E+02  0.00000000000E+00 0.  1.
         11    1    1    2    0    0  0.23448729123E+02  0.19321370413E+02  0.31472271416E+01  0.30546084705E+02  0.00000000000E+00 0. -1.
</event>
<event>
 7    1  0.2594791E-009  0.1051278E+03  0.7561462E-02  0.1269868E+00
          1   -1    0    0  501    0  0.00000000000E+00  0.00000000000E+00  0.47066967780E+03  0.47066967780E+03  0.00000000000E+00 0. -1.
         -1   -1    0    0    0  501 -0.00000000000E+00 -0.00000000000E+00 -0.25733332993E+02  0.25733332993E+02  0.00000000000E+00 0.  1.
         25    2    1    2    0    0  0.63865241502E+01  0.15107735791E+01  0.21443301678E+03  0.24834060487E+03  0.12509383364E+03 0.  0.
          5    1    3    3  502    0 -0.12236109329E+02  0.60872107289E+02  0.94177158454E+02  0.11288022587E+03  0.41800000000E+01 0. -1.
         -5    1    3    3    0  502  0.18622633479E+02 -0.59361333710E+02  0.12025585833E+03  0.13546037900E+03  0.41800000000E+01 0. -1.
        -11    1    1    2    0    0  0.36753054822E+02 -0.16109188302E+02  0.64840001782E+02  0.76252992187E+02  0.00000000000E+00 0. -1.
         11    1    1    2    0    0 -0.43139578972E+02  0.14598414723E+02  0.16566332624E+03  0.17180941373E+03  0.00000000000E+00 0.  1.
</event>
<event>
 7    1  0.2594791E-009  0.2230439E+03  0.7561462E-02  0.1131634E+00
          1   -1    0    0  501    0  0.00000000000E+00  0.00000000000E+00  0.11661644088E+04  0.11661644088E+04  0.00000000000E+00 0. -1.
         -1   -1    0    0    0  501 -0.00000000000E+00 -0.00000000000E+00 -0.45544895071E+02  0.45544895071E+02  0.00000000000E+00 0.  1.
         25    2    1    2    0    0  0.12255958195E+03  0.15705227963E+03  0.47314870270E+03  0.52839757421E+03  0.12509209368E+03 0.  0.
          5    1    3    3  502    0 -0.10446879218E+02  0.65199331491E+02  0.83530997531E+02  0.10655979571E+03  0.41800000000E+01 0.  1.
         -5    1    3    3    0  502  0.13300646116E+03  0.91852948140E+02  0.38961770517E+03  0.42183777850E+03  0.41800000000E+01 0.  1.
        -11    1    1    2    0    0 -0.41288616100E+02  0.12041712721E+00  0.11239481013E+03  0.11973870579E+03  0.00000000000E+00 0.  1.
         11    1    1    2    0    0 -0.81270965847E+02 -0.15717269676E+03  0.53507600087E+03  0.56357302385E+03  0.00000000000E+00 0. -1.
</event>
<event>
 7    1  0.2594791E-009  0.8078949E+02  0.7561462E-02  0.1326826E+00
          1   -1    0    0  501    0  0.00000000000E+00  0.00000000000E+00  0.20309296429E+03  0.20309296429E+03  0.00000000000E+00 0. -1.
         -1   -1    0    0    0  501 -0.00000000000E+00 -0.00000000000E+00 -0.69349966360E+02  0.69349966360E+02  0.00000000000E+00 0.  1.
         25    2    1    2    0    0 -0.18910337745E+02 -0.27610426700E+02  0.94433093199E+02  0.16026836155E+03  0.12509357333E+03 0.  0.
          5    1    3    3  502    0 -0.94728204217E+01  0.14389476688E+02 -0.26472553210E+02  0.31860003760E+02  0.41800000000E+01 0.  1.
         -5    1    3    3    0  502 -0.94375173228E+01 -0.41999903389E+02  0.12090564641E+03  0.12840835779E+03  0.41800000000E+01 0.  1.
        -11    1    1    2    0    0  0.99518043754E+01 -0.35495004390E+02  0.30470085576E+02  0.47826351125E+02  0.00000000000E+00 0. -1.
         11    1    1    2    0    0  0.89585333691E+01  0.63105431090E+02  0.88398191529E+01  0.64348217969E+02  0.00000000000E+00 0.  1.
</event>
<event>
 7    1  0.2594791E-009  0.1136145E+03  0.7561462E-02  0.1254019E+00
          2   -1    0    0  501    0  0.00000000000E+00  0.00000000000E+00  0.30372001849E+03  0.30372001849E+03  0.00000000000E+00 0.  1.
         -2   -1    0    0    0  501 -0.00000000000E+00 -0.00000000000E+00 -0.57819705004E+02  0.57819705004E+02  0.00000000000E+00 0. -1.
         25    2    1    2    0    0 -0.22741336241E+00 -0.61882451792E+02  0.75072066763E+02  0.15847256196E+03  0.12509295796E+03 0.  0.
          5    1    3    3  502    0  0.39959212407E+02  0.92308469817E+01  0.63729255879E+02  0.75900182128E+02  0.41800000000E+01 0. -1.
         -5    1    3    3    0  502 -0.40186625769E+02 -0.71113298774E+02  0.11342810884E+02  0.82572379837E+02  0.41800000000E+01 0. -1.
        -11    1    1    2    0    0  0.30427260263E+02 -0.49958674913E+01  0.83442945465E+02  0.88957866471E+02  0.00000000000E+00 0.  1.
         11    1    1    2    0    0 -0.30199846901E+02  0.66878319284E+02  0.87385301262E+02  0.11410929506E+03  0.00000000000E+00 0. -1.
</event>
<event>
 7    1  0.2594791E-009  0.1280479E+03  0.7561462E-02  0.1230381E+00
         -2   -1    0    0    0  501 -0.00000000000E+00  0.00000000000E+00  0.24443582538E+03  0.24443582538E+03  0.00000000000E+00 0.  1.
          2   -1    0    0  501    0  0.00000000000E+00 -0.00000000000E+00 -0.72154113822E+02  0.72154113822E+02  0.00000000000E+00 0. -1.
         25    2    1    2    0    0  0.60740067931E+02 -0.39665107693E+02  0.63805683830E+02  0.15805514686E+03  0.12509031753E+03 0.  0.
          5    1    3    3  502    0  0.81146805528E+01  0.42549821320E+02  0.44756622726E+01  0.43747448927E+02  0.41800000000E+01 0. -1.
         -5    1    3    3    0  502  0.52625387378E+02 -0.82214929014E+02  0.59330021557E+02  0.11430769794E+03  0.41800000000E+01 0. -1.
        -11    1    1    2    0    0 -0.75866386673E+02  0.38146264583E+01  0.79986541135E+02  0.11030914180E+03  0.00000000000E+00 0.  1.
         11    1    1    2    0    0  0.15126318742E+02  0.35850481235E+02  0.28489486588E+02  0.48225650535E+02  0.00000000000E+00 0. -1.
</event>
<event>
 7    1  0.2902424E-009  0.1122903E+03  0.7561462E-02  0.1256386E+00
          2   -1    0    0  501    0  0.00000000000E+00  0.00000000000E+00  0.28322656281E+03  0.28322656281E+03  0.00000000000E+00 0. -1.
         -2   -1    0    0    0  501 -0.00000000000E+00 -0.00000000000E+00 -0.75446996683E+02  0.75446996683E+02  0.00000000000E+00 0.  1.
         25    2    1    2    0    0  0.51772476889E+02  0.82153682487E+02  0.99850710540E+02  0.18720815440E+03  0.12508841580E+03 0.  0.
          5    1    3    3  502    0  0.52673714274E+02  0.97844418932E+02  0.11847246726E+03  0.16248460970E+03  0.41800000000E+01 0.  1.
         -5    1    3    3    0  502 -0.90123738471E+00 -0.15690736445E+02 -0.18621756719E+02  0.24723544696E+02  0.41800000000E+01 0.  1.
        -11    1    1    2    0    0 -0.38740782595E+02 -0.60262669598E+02  0.12536454659E+02  0.72729638240E+02  0.00000000000E+00 0.  1.
         11    1    1    2    0    0 -0.13031694294E+02 -0.21891012888E+02  0.95392400928E+02  0.98735766854E+02  0.00000000000E+00 0. -1.
</event>
<event>
 7    1  0.2594791E-009  0.9394211E+02  0.7561462E-02  0.1293577E+00
          3   -1    0    0  501    0  0.00000000000E+00  0.00000000000E+00  0.60466834702E+02  0.60466834702E+02  0.00000000000E+00 0. -1.
         -3   -1    0    0    0  501 -0.00000000000E+00 -0.00000000000E+00 -0.38737885230E+03  0.38737885230E+03  0.00000000000E+00 0.  1.
         25    2    1    2    0    0  0.17557040824E+02 -0.58884253622E+02 -0.32290392472E+03  0.35169766618E+03  0.12509475925E+03 0.  0.
          5    1    3    3  502    0  0.15689747157E+02  0.12974037011E+02 -0.24397905931E+03  0.24486271170E+03  0.41800000000E+01 0. -1.
         -5    1    3    3    0  502  0.18672936666E+01 -0.71858290633E+02 -0.78924865413E+02  0.10683495448E+03  0.41800000000E+01 0. -1.
        -11    1    1    2    0    0  0.28495798985E+02  0.19870782964E+02 -0.80360138539E+01  0.35657202555E+02  0.00000000000E+00 0.  1.
         11    1    1    2    0    0 -0.46052839809E+02  0.39013470658E+02  0.40279209735E+01  0.60490818267E+02  0.00000000000E+00 0. -1.
</event>
<event>
 6    1  0.2594791E-009  0.1139191E+03  0.7561462E-02  0.1253480E+00
         -1   -1    0    0    0  501 -0.00000000000E+00  0.00000000000E+00  0.28843959375E+02  0.28843959375E+02  0.00000000000E+00 0.  1.
          1   -1    0    0  501    0  0.00000000000E+00 -0.00000000000E+00 -0.72100099687E+03  0.72100099687E+03  0.00000000000E+00 0. -1.
          5    1    1    2  502    0  0.65263475687E+01 -0.24017955023E+02 -0.11199859103E+02  0.27610951088E+02  0.41800000000E+01 0.  1.
         -5    1    1    2    0  502  0.82808252296E+02  0.37020527505E+02 -0.42999510441E+03  0.43947808628E+03  0.41800000000E+01 0.  1.
        -11    1    1    2    0    0 -0.82867493579E+02  0.13990873824E+02 -0.23745205416E+03  0.25188537882E+03  0.00000000000E+00 0. -1.
         11    1    1    2    0    0 -0.64671062859E+01 -0.26993446306E+02 -0.13510019821E+02  0.30870540046E+02  0.00000000000E+00 0.  1.
</event>
<event>
 7    1  0.2594791E-009  0.3734586E+03  0.7561462E-02  0.1053378E+00
         -2   -1    0    0    0  501 -0.00000000000E+00  0.00000000000E+00  0.16169673253E+03  0.16169673253E+03  0.00000000000E+00 0.  1.
          2   -1    0    0  501    0  0.00000000000E+00 -0.00000000000E+00 -0.11221338635E+04  0.11221338635E+04  0.00000000000E+00 0. -1.
         25    2    1    2    0    0 -0.32937092432E+03 -0.17512899381E+03 -0.22348626808E+03  0.45249190836E+03  0.12508974715E+03 0.  0.
          5    1    3    3  502    0 -0.20062945326E+03 -0.11060489884E+03 -0.20460923137E+03  0.30719380060E+03  0.41800000000E+01 0.  1.
         -5    1    3    3    0  502 -0.12874147106E+03 -0.64524094970E+02 -0.18877036714E+02  0.14529810776E+03  0.41800000000E+01 0.  1.
        -11    1    1    2    0    0  0.16131423571E+03  0.73031173856E+02 -0.44895725277E+03  0.48261625523E+03  0.00000000000E+00 0. -1.
         11    1    1    2    0    0  0.16805668861E+03  0.10209781996E+03 -0.28799361015E+03  0.34872243248E+03  0.00000000000E+00 0.  1.
</event>
<event>
 7    1  0.2594791E-009  0.1895334E+03  0.7561462E-02  0.1158883E+00
         -1   -1    0    0    0  501 -0.00000000000E+00  0.00000000000E+00  0.21895894746E+03  0.21895894746E+03  0.00000000000E+00 0.  1.
          1   -1    0    0  501    0  0.00000000000E+00 -0.00000000000E+00 -0.24261796319E+03  0.24261796319E+03  0.00000000000E+00 0. -1.
         25    2    1    2    0    0  0.59704003293E+02  0.15615445768E+03 -0.12979257312E+03  0.24585222792E+03  0.12509365799E+03 0.  0.
          5    1    3    3  502    0 -0.14835864743E+00 -0.20778364509E+02 -0.71627161216E+01  0.22372736627E+02  0.41800000000E+01 0.  1.
         -5    1    3    3    0  502  0.59852361941E+02  0.17693282219E+03 -0.12262985700E+03  0.22347949129E+03  0.41800000000E+01 0.  1.
        -11    1    1    2    0    0 -0.26120470301E+02 -0.11497740521E+03  0.27917687349E+02  0.12116715704E+03  0.00000000000E+00 0. -1.
         11    1    1    2    0    0 -0.33583532993E+02 -0.41177052471E+02  0.78215870050E+02  0.94557525698E+02  0.00000000000E+00 0.  1.
</event>
<event>
 7    1  0.2594791E-009  0.3321475E+03  0.7561462E-02  0.1070191E+00
          2   -1    0    0  501    0  0.00000000000E+00  0.00000000000E+00  0.22762323640E+04  0.22762323640E+04  0.00000000000E+00 0.  1.
         -2   -1    0    0    0  501 -0.00000000000E+00 -0.00000000000E+00 -0.51942713707E+02  0.51942713707E+02  0.00000000000E+00 0. -1.
         25    2    1    2    0    0  0.24764789043E+03 -0.21397967890E+03  0.11351249325E+04  0.11879742236E+04  0.12512938505E+03 0.  0.
          5    1    3    3  502    0  0.32438443589E+02 -0.93592749839E+01  0.29392353960E+03  0.29588573501E+03  0.41800000000E+01 0. -1.
         -5    1    3    3    0  502  0.21520944684E+03 -0.20462040391E+03  0.84120139291E+03  0.89208848863E+03  0.41800000000E+01 0. -1.
        -11    1    1    2    0    0 -0.17945639385E+03  0.11517938925E+03  0.60887361450E+03  0.64513406935E+03  0.00000000000E+00 0.  1.
         11    1    1    2    0    0 -0.68191496577E+02  0.98800289643E+02  0.48029110325E+03  0.49506678469E+03  0.00000000000E+00 0. -1.
</event>
<event>
 7    1  0.2594791E-009  0.1229300E+03  0.7561462E-02  0.1238340E+00
          2   -1    0    0  501    0  0.00000000000E+00  0.00000000000E+00  0.38812155052E+03  0.38812155052E+03  0.00000000000E+00 0. -1.
         -2   -1    0    0    0  501 -0.00000000000E+00 -0.00000000000E+00 -0.51323503009E+02  0.51323503009E+02  0.00000000000E+00 0.  1.
         25    2    1    2    0    0 -0.41227046187E+02  0.44920452937E+02  0.80579596103E+02  0.16080331395E+03  0.12508844087E+03 0.  0.
          5    1    3    3  502    0 -0.82933562112E+02  0.82596798411E+01  0.46913906411E+02  0.95731839272E+02  0.41800000000E+01 0.  1.
         -5    1    3    3    0  502  0.41706515925E+02  0.36660773096E+02  0.33665689692E+02  0.65071474680E+02  0.41800000000E+01 0.  1.
        -11    1    1    2    0    0  0.66159878232E+02 -0.15111024287E+02  0.13104771948E+03  0.14757702166E+03  0.00000000000E+00 0. -1.
         11    1    1    2    0    0 -0.24932832045E+02 -0.29809428650E+02  0.12517073193E+03  0.13106471791E+03  0.00000000000E+00 0.  1.
</event>
<event>
 7    1  0.2594791E-009  0.1137749E+03  0.7561462E-02  0.1253735E+00
         -1   -1    0    0    0  501 -0.00000000000E+00  0.00000000000E+00  0.13070355526E+03  0.13070355526E+03  0.00000000000E+00 0.  1.
          1   -1    0    0  501    0  0.00000000000E+00 -0.00000000000E+00 -0.18985132972E+03  0.18985132972E+03  0.00000000000E+00 0. -1.
         25    2    1    2    0    0  0.36095028527E+02  0.73746628287E+02  0.49278210673E+02  0.15753531730E+03  0.12509043881E+03 0.  0.
          5    1    3    3  502    0  0.72350481066E+02  0.18970446565E+02 -0.65801119079E+00  0.74915788270E+02  0.41800000000E+01 0.  1.
         -5    1    3    3    0  502 -0.36255452539E+02  0.54776181723E+02  0.49936221864E+02  0.82619529029E+02  0.41800000000E+01 0.  1.
        -11    1    1    2    0    0 -0.11934495925E+02 -0.54878328556E+02 -0.11818358394E+03  0.13084885422E+03  0.00000000000E+00 0. -1.
         11    1    1    2    0    0 -0.24160532603E+02 -0.18868299731E+02  0.97575988015E+01  0.32170713464E+02  0.00000000000E+00 0.  1.
</event>
<event>
 7    1  0.2594791E-009  0.8938841E+02  0.7561462E-02  0.1304340E+00
         -3   -1    0    0    0  501 -0.00000000000E+00  0.00000000000E+00  0.64699408944E+02  0.64699408944E+02  0.00000000000E+00 0.  1.
          3   -1    0    0  501    0  0.00000000000E+00 -0.00000000000E+00 -0.20653185576E+03  0.20653185576E+03  0.00000000000E+00 0. -1.
         25    2    1    2    0    0 -0.25793255069E+02 -0.32989718208E+02 -0.86833628387E+02  0.15792936249E+03  0.12509193020E+03 0.  0.
          5    1    3    3  502    0 -0.39430741041E+02 -0.74506637970E+02 -0.73855590983E+02  0.11215232124E+03  0.41800000000E+01 0.  1.
         -5    1    3    3    0  502  0.13637485972E+02  0.41516919762E+02 -0.12978037404E+02  0.45777041244E+02  0.41800000000E+01 0.  1.
        -11    1    1    2    0    0  0.18804492037E+02  0.22332010114E+01  0.22631424165E+02  0.29508938768E+02  0.00000000000E+00 0.  1.
         11    1    1    2    0    0  0.69887630321E+01  0.30756517197E+02 -0.77630242596E+02  0.83792963453E+02  0.00000000000E+00 0. -1.
</event>
<event>
 7    1  0.2594791E-009  0.9777670E+02  0.7561462E-02  0.1285042E+00
          1   -1    0    0  501    0  0.00000000000E+00  0.00000000000E+00  0.38811541758E+03  0.38811541758E+03  0.00000000000E+00 0. -1.
         -1   -1    0    0    0  501 -0.00000000000E+00 -0.00000000000E+00 -0.41502533878E+02  0.41502533878E+02  0.00000000000E+00 0.  1.
         25    2    1    2    0    0 -0.64305007691E+02 -0.49501431337E+01  0.17264487678E+03  0.22274044278E+03  0.12508962163E+03 0.  0.
          5    1    3    3  502    0 -0.58982337359E+01 -0.28697400530E+02  0.15405874792E+03  0.15687542882E+03  0.41800000000E+01 0.  1.
         -5    1    3    3    0  502 -0.58406773955E+02  0.23747257396E+02  0.18586128866E+02  0.65865013959E+02  0.41800000000E+01 0.  1.
        -11    1    1    2    0    0  0.34119430580E+02 -0.37489699709E+02  0.44971814043E+02  0.67764866898E+02  0.00000000000E+00 0. -1.
         11    1    1    2    0    0  0.30185577111E+02  0.42439842842E+02  0.12899619288E+03  0.13911264178E+03  0.00000000000E+00 0.  1.
</event>
<event>
 7    1  0.2594791E-009  0.1113654E+03  0.7561462E-02  0.1258062E+00
         -1   -1    0    0    0  501 -0.00000000000E+00  0.00000000000E+00  0.11869034222E+03  0.11869034222E+03  0.00000000000E+00 0.  1.
          1   -1    0    0  501    0  0.00000000000E+00 -0.00000000000E+00 -0.12200464161E+03  0.12200464161E+03  0.00000000000E+00 0. -1.
         25    2    1    2    0    0  0.28109957140E+02 -0.15005245661E+01 -0.41335533811E+02  0.13473563185E+03  0.12511052262E+03 0.  0.
          5    1    3    3  502    0 -0.45956589073E+02 -0.18329634444E+02 -0.29487356739E+02  0.57749114154E+02  0.41800000000E+01 0. -1.
         -5    1    3    3    0  502  0.74066546213E+02  0.16829109878E+02 -0.11848177072E+02  0.76986517697E+02  0.41800000000E+01 0. -1.
        -11    1    1    2    0    0  0.34437552636E+02 -0.17904303768E+00  0.38124780841E+01  0.34648406560E+02  0.00000000000E+00 0.  1.
         11    1    1    2    0    0 -0.62547509776E+02  0.16795676037E+01  0.34208756340E+02  0.71310945421E+02  0.00000000000E+00 0. -1.
</event>
<event>
 7    1  0.2594791E-009  0.1162869E+03  0.7561462E-02  0.1249351E+00
          1   -1    0    0  501    0  0.00000000000E+00  0.00000000000E+00  0.23195101407E+03  0.23195101407E+03  0.00000000000E+00 0. -1.
         -1   -1    0    0    0  501 -0.00000000000E+00 -0.00000000000E+00 -0.84483361977E+02  0.84483361977E+02  0.00000000000E+00 0.  1.
         25    2    1    2    0    0  0.35634724278E+02 -0.63334123525E+02  0.13314245808E+03  0.19661016242E+03  0.12509035553E+03 0.  0.
          5    1    3    3  502    0  0.67669703545E+02 -0.45606686412E+02  0.13704279704E+03  0.15955362498E+03  0.41800000000E+01 0.  1.
         -5    1    3    3    0  502 -0.32034979267E+02 -0.17727437113E+02 -0.39003389604E+01  0.37056537442E+02  0.41800000000E+01 0.  1.
        -11    1    1    2    0    0  0.26035337541E+02  0.60007467387E+00 -0.11016659531E+02  0.28276592399E+02  0.00000000000E+00 0.  1.
         11    1    1    2    0    0 -0.61670061819E+02  0.62734048852E+02  0.25341853537E+02  0.91547621219E+02  0.00000000000E+00 0. -1.
</event>
<event>
 6    1  0.2594791E-009  0.1149025E+03  0.7561462E-02  0.1251751E+00
          3   -1    0    0  501    0  0.00000000000E+00  0.00000000000E+00  0.59518647065E+03  0.59518647065E+03  0.00000000000E+00 0. -1.
         -3   -1    0    0    0  501 -0.00000000000E+00 -0.00000000000E+00 -0.29121539071E+02  0.29121539071E+02  0.00000000000E+00 0.  1.
          5    1    1    2  502    0  0.62523109449E+02  0.11274939387E+02  0.23069460757E+03  0.23931932190E+03  0.41800000000E+01 0.  1.
         -5    1    1    2    0  502 -0.61489147014E+02  0.25896569371E+02  0.22938238250E+03  0.23892529650E+03  0.41800000000E+01 0.  1.
        -11    1    1    2    0    0  0.31266378272E+02 -0.54349498698E+02  0.77547200099E+02  0.99724734455E+02  0.00000000000E+00 0. -1.
         11    1    1    2    0    0 -0.32300340707E+02  0.17177989940E+02  0.28440741410E+02  0.46338656866E+02  0.00000000000E+00 0.  1.
</event>
<event>
 7    1  0.3323743E-009  0.2917818E+03  0.7561462E-02  0.1089422E+00
         -2   -1    0    0    0  501 -0.00000000000E+00  0.00000000000E+00  0.31483488761E+03  0.31483488761E+03  0.00000000000E+00 0.  1.
          2   -1    0    0  501    0  0.00000000000E+00 -0.00000000000E+00 -0.31716576851E+03  0.31716576851E+03  0.00000000000E+00 0. -1.
         25    2    1    2    0    0  0.10653846901E+03 -0.26526324516E+03 -0.79948173103E+02  0.32211685474E+03  0.12511004402E+03 0.  0.
          5    1    3    3  502    0  0.78896299096E+02 -0.22433926619E+03 -0.11220457804E+03  0.26298302625E+03  0.41800000000E+01 0. -1.
         -5    1    3    3    0  502  0.27642169915E+02 -0.40923978969E+02  0.32256404932E+02  0.59133828486E+02  0.41800000000E+01 0. -1.
        -11    1    1    2    0    0 -0.10445172628E+03  0.16125678893E+03  0.26411831527E+02  0.19393684524E+03  0.00000000000E+00 0. -1.
         11    1    1    2    0    0 -0.20867427315E+01  0.10400645623E+03  0.51205460683E+02  0.11594695614E+03  0.00000000000E+00 0.  1.
</event>
<event>
 7    1  0.2594791E-009  0.2285752E+03  0.7561462E-02  0.1127647E+00
          1   -1    0    0  501    0  0.00000000000E+00  0.00000000000E+00  0.12365399605E+04  0.12365399605E+04  0.00000000000E+00 0. -1.
         -1   -1    0    0    0  501 -0.00000000000E+00 -0.00000000000E+00 -0.43810173343E+02  0.43810173343E+02  0.00000000000E+00 0.  1.
         25    2    1    2    0    0 -0.13850774396E+03 -0.14794191609E+03  0.51926995551E+03  0.57127989064E+03  0.12509284985E+03 0.  0.
          5    1    3    3  502    0 -0.17700039333E+02 -0.10756334697E+03  0.27294851514E+03  0.29394137055E+03  0.41800000000E+01 0. -1.
         -5    1    3    3    0  502 -0.12080770462E+03 -0.40378569119E+02  0.24632144037E+03  0.27733852009E+03  0.41800000000E+01 0. -1.
        -11    1    1    2    0    0  0.69961492888E+02  0.15756959609E+02  0.18476114214E+03  0.19819074627E+03  0.00000000000E+00 0.  1.
         11    1    1    2    0    0  0.68546251068E+02  0.13218495648E+03  0.48869868953E+03  0.51087949695E+03  0.00000000000E+00 0. -1.
</event>
<event>
 7    1  0.2594791E-009  0.8093199E+02  0.7561462E-02  0.1326427E+00
         -1   -1    0    0    0  501 -0.00000000000E+00  0.00000000000E+00  0.11683641441E+03  0.11683641441E+03  0.00000000000E+00 0.  1.
          1   -1    0    0  501    0  0.00000000000E+00 -0.00000000000E+00 -0.27618021415E+03  0.27618021415E+03  0.00000000000E+00 0. -1.
         25    2    1    2    0    0 -0.38350412975E+01 -0.26974624487E+01  0.71434521192E+02  0.14412463470E+03  0.12508811160E+03 0.  0.
          5    1    3    3  502    0  0.89487097685E+01  0.45340944232E+02  0.80980500418E+02  0.93333779942E+02  0.41800000000E+01 0. -1.
         -5    1    3    3    0  502 -0.12783751066E+02 -0.48038406680E+02 -0.95459792259E+01  0.50790854758E+02  0.41800000000E+01 0. -1.
        -11    1    1    2    0    0  0.11989135792E+02  0.32518528993E+02 -0.20702157232E+03  0.20990265723E+03  0.00000000000E+00 0. -1.
         11    1    1    2    0    0 -0.81540944944E+01 -0.29821066544E+02 -0.23756748602E+02  0.38989336632E+02  0.00000000000E+00 0.  1.
</event>
<event>
 7    1  0.2594791E-009  0.1485111E+03  0.7561462E-02  0.1202315E+00
          2   -1    0    0  501    0  0.00000000000E+00  0.00000000000E+00  0.12989946164E+03  0.12989946164E+03  0.00000000000E+00 0. -1.
         -2   -1    0    0    0  501 -0.00000000000E+00 -0.00000000000E+00 -0.18728365590E+03  0.18728365590E+03  0.00000000000E+00 0.  1.
         25    2    1    2    0    0  0.39958378307E+02  0.10340372126E+03 -0.55019114936E+02  0.17596397490E+03  0.12508883198E+03 0.  0.
          5    1    3    3  502    0 -0.37244968315E+02  0.17194598579E+02 -0.42943229695E+02  0.59535159878E+02  0.41800000000E+01 0.  1.
         -5    1    3    3    0  502  0.77203346622E+02  0.86209122683E+02 -0.12075885241E+02  0.11642881502E+03  0.41800000000E+01 0.  1.
        -11    1    1    2    0    0 -0.21077561177E+01  0.15274049461E+02 -0.61350627693E+01  0.16594523734E+02  0.00000000000E+00 0.  1.
         11    1    1    2    0    0 -0.37850622190E+02 -0.11867777072E+03  0.37699834441E+01  0.12462461891E+03  0.00000000000E+00 0. -1.
</event>
<event>
 7    1  0.2594791E-009  0.1347865E+03  0.7561462E-02  0.1220521E+00
         -2   -1    0    0    0  501 -0.00000000000E+00  0.00000000000E+00  0.16723979844E+03  0.16723979844E+03  0.00000000000E+00 0.  1.
          2   -1    0    0  501    0  0.00000000000E+00 -0.00000000000E+00 -0.12873471074E+03  0.12873471074E+03  0.00000000000E+00 0. -1.
         25    2    1    2    0    0 -0.55266450200E+02  0.58176072099E+02 -0.28068338171E+02  0.15124150739E+03  0.12508927239E+03 0.  0.
          5    1    3    3  502    0  0.38250032059E+02  0.12582419780E+02  0.75778478125E+01  0.41185900712E+02  0.41800000000E+01 0.  1.
         -5    1    3    3    0  502 -0.93516482259E+02  0.45593652318E+02 -0.35646185983E+02  0.11005560668E+03  0.41800000000E+01 0.  1.
        -11    1    1    2    0    0 -0.68376696207E+01 -0.62349282118E+02  0.50289151475E+02  0.80393939215E+02  0.00000000000E+00 0.  1.
         11    1    1    2    0    0  0.62104119821E+02  0.41732100195E+01  0.16284274401E+02  0.64339062577E+02  0.00000000000E+00 0. -1.
</event>
<event>
 7    1  0.2594791E-009  0.8939215E+02  0.7561462E-02  0.1304330E+00
          2   -1    0    0  501    0  0.00000000000E+00  0.00000000000E+00  0.39986255950E+03  0.39986255950E+03  0.00000000000E+00 0.  1.
         -2   -1    0    0    0  501 -0.00000000000E+00 -0.00000000000E+00 -0.36579152463E+02  0.36579152463E+02  0.00000000000E+00 0. -1.
         25    2    1    2    0    0  0.43240319387E+02  0.16508982659E+02  0.25292987301E+03  0.28594432074E+03  0.12509341380E+03 0.  0.
          5    1    3    3  502    0  0.83413617992E+02 -0.97796811155E+01  0.17787306129E+03  0.19674799151E+03  0.41800000000E+01 0.  1.
         -5    1    3    3    0  502 -0.40173298604E+02  0.26288663774E+02  0.75056811718E+02  0.89196329236E+02  0.41800000000E+01 0.  1.
        -11    1    1    2    0    0 -0.92704778307E+01 -0.55731615874E+01 -0.15937263144E+02  0.19261314748E+02  0.00000000000E+00 0. -1.
         11    1    1    2    0    0 -0.33969841556E+02 -0.10935821071E+02  0.12629079717E+03  0.13123607647E+03  0.00000000000E+00 0.  1.
</event>
<event>
 7    1  0.2594791E-009  0.1136960E+03  0.7561462E-02  0.1253875E+00
         -2   -1    0    0    0  501 -0.00000000000E+00  0.00000000000E+00  0.73351467061E+02  0.73351467061E+02  0.00000000000E+00 0.  1.
          2   -1    0    0  501    0  0.00000000000E+00 -0.00000000000E+00 -0.22656977891E+03  0.22656977891E+03  0.00000000000E+00 0. -1.
         25    2    1    2    0    0 -0.68946690382E+02 -0.41592464384E+01 -0.74665609756E+02  0.16123567490E+03  0.12510413316E+03 0.  0.
          5    1    3    3  502    0 -0.19296389748E+02 -0.45087282423E+02 -0.82717737423E+02  0.96254403421E+02  0.41800000000E+01 0. -1.
         -5    1    3    3    0  502 -0.49650300634E+02  0.40928035984E+02  0.80521276667E+01  0.64981271475E+02  0.41800000000E+01 0. -1.
        -11    1    1    2    0    0  0.40971381309E+02  0.47109185145E+02 -0.36014546906E+02  0.72076188858E+02  0.00000000000E+00 0.  1.
         11    1    1    2    0    0  0.27975309073E+02 -0.42949938706E+02 -0.42538155188E+02  0.66609382217E+02  0.00000000000E+00 0. -1.
</event>
<event>
 7    1  0.2594791E-009  0.1078827E+03  0.7561462E-02  0.1264542E+00
         -4   -1    0    0    0  501 -0.00000000000E+00  0.00000000000E+00  0.64898702218E+02  0.64898702218E+02  0.00000000000E+00 0.  1.
          4   -1    0    0  501    0  0.00000000000E+00 -0.00000000000E+00 -0.30527884832E+03  0.30527884832E+03  0.00000000000E+00 0. -1.
         25    2    1    2    0    0 -0.30646220566E+02 -0.22335968549E+02 -0.23678957146E+03  0.27047025033E+03  0.12508704503E+03 0.  0.
          5    1    3    3  502    0  0.23086709658E+02  0.32517443026E+02 -0.14641359210E+03  0.15180511393E+03  0.41800000000E+01 0. -1.
         -5    1    3    3    0  502 -0.53732930224E+02 -0.54853411574E+02 -0.90375979369E+02  0.11866513641E+03  0.41800000000E+01 0. -1.
        -11    1    1    2    0    0  0.57018680978E+02  0.37596456906E+02  0.36282475288E+01  0.68394354537E+02  0.00000000000E+00 0.  1.
         11    1    1    2    0    0 -0.26372460412E+02 -0.15260488358E+02 -0.72188221714E+01  0.31312945672E+02  0.00000000000E+00 0. -1.
</event>
<event>
 7    1  0.2594791E-009  0.1182529E+03  0.7561462E-02  0.1246007E+00
         -1   -1    0    0    0  501 -0.00000000000E+00  0.00000000000E+00  0.40393664276E+02  0.40393664276E+02  0.00000000000E+00 0.  1.
          1   -1    0    0  501    0  0.00000000000E+00 -0.00000000000E+00 -0.42305847191E+03  0.42305847191E+03  0.00000000000E+00 0. -1.
         25    2    1    2    0    0 -0.16793590928E+02  0.64284368609E+02 -0.15674857810E+03  0.21126019109E+03  0.12508495858E+03 0.  0.
          5    1    3    3  502    0 -0.66964226488E+02  0.53653639481E+02 -0.71890361612E+02  0.11202061039E+03  0.41800000000E+01 0. -1.
         -5    1    3    3    0  502  0.50170635560E+02  0.10630729128E+02 -0.84858216484E+02  0.99239580708E+02  0.41800000000E+01 0. -1.
        -11    1    1    2    0    0  0.41309454834E+02 -0.14734092716E+02 -0.44260182647E+02  0.62309937528E+02  0.00000000000E+00 0.  1.
         11    1    1    2    0    0 -0.24515863906E+02 -0.49550275893E+02 -0.18165604689E+03  0.18988200757E+03  0.00000000000E+00 0. -1.
</event>
<event>
 7    1  0.2594791E-009  0.1246367E+03  0.7561462E-02  0.1235638E+00
         -2   -1    0    0    0  501 -0.00000000000E+00  0.00000000000E+00  0.79652559546E+02  0.79652559546E+02  0.00000000000E+00 0. -1.
          2   -1    0    0  501    0  0.00000000000E+00 -0.00000000000E+00 -0.23270456231E+03  0.23270456231E+03  0.00000000000E+00 0.  1.
         25    2    1    2    0    0  0.38212994488E+02  0.62463088002E+02 -0.12610242060E+03  0.19212330540E+03  0.12509066187E+03 0.  0.
          5    1    3    3  502    0 -0.26735492885E+02 -0.15440160784E+02 -0.12087295651E+01  0.31178816078E+02  0.41800000000E+01 0. -1.
         -5    1    3    3    0  502  0.64948487373E+02  0.77903248786E+02 -0.12489369103E+03  0.16094448932E+03  0.41800000000E+01 0. -1.
        -11    1    1    2    0    0 -0.59472829048E+02 -0.10407705569E+02 -0.80378794462E+01  0.60909319781E+02  0.00000000000E+00 0.  1.
         11    1    1    2    0    0  0.21259834560E+02 -0.52055382432E+02 -0.18911702719E+02  0.59324496673E+02  0.00000000000E+00 0. -1.
</event>
<event>
 7    1  0.2594791E-009  0.2491226E+03  0.7561462E-02  0.1113861E+00
         -2   -1    0    0    0  501 -0.00000000000E+00  0.00000000000E+00  0.66685191078E+02  0.66685191078E+02  0.00000000000E+00 0. -1.
          2   -1    0    0  501    0  0.00000000000E+00 -0.00000000000E+00 -0.10229183232E+04  0.10229183232E+04  0.00000000000E+00 0.  1.
         25    2    1    2    0    0  0.82443330688E+02  0.22242619821E+03 -0.48328783153E+03  0.55270713331E+03  0.12509088966E+03 0.  0.
          5    1    3    3  502    0 -0.81125164189E+01  0.33520853295E+02 -0.11686374523E+02  0.36653843969E+02  0.41800000000E+01 0.  1.
         -5    1    3    3    0  502  0.90555847107E+02  0.18890534492E+03 -0.47160145701E+03  0.51605328934E+03  0.41800000000E+01 0.  1.
        -11    1    1    2    0    0 -0.34896226366E+02 -0.19697710212E+03 -0.37997862096E+03  0.42941993172E+03  0.00000000000E+00 0.  1.
         11    1    1    2    0    0 -0.47547104322E+02 -0.25449096090E+02 -0.92966679616E+02  0.10747644923E+03  0.00000000000E+00 0. -1.
</event>
<event>
 7    1  0.2594791E-009  0.1216082E+03  0.7561462E-02  0.1240467E+00
          1   -1    0    0  501    0  0.00000000000E+00  0.00000000000E+00  0.10592264839E+04  0.10592264839E+04  0.00000000000E+00 0. -1.
         -1   -1    0    0    0  501 -0.00000000000E+00 -0.00000000000E+00 -0.48249537955E+02  0.48249537955E+02  0.00000000000E+00 0.  1.
         25    2    1    2    0    0  0.99730824145E+02  0.16681313460E+02  0.93596794332E+03  0.94968800137E+03  0.12508719167E+03 0.  0.
          5    1    3    3  502    0  0.19154612245E+02  0.47906492864E+02  0.14423473426E+03  0.15324184218E+03  0.41800000000E+01 0.  1.
         -5    1    3    3    0  502  0.80576211899E+02 -0.31225179404E+02  0.79173320906E+03  0.79644615919E+03  0.41800000000E+01 0.  1.
        -11    1    1    2    0    0 -0.12049984579E+02 -0.12191831514E+02  0.67533002139E+02  0.69674595528E+02  0.00000000000E+00 0. -1.
         11    1    1    2    0    0 -0.87680839565E+02 -0.44894819465E+01  0.74760004893E+01  0.88113424961E+02  0.00000000000E+00 0.  1.
</event>
<event>
 7    1  0.2594791E-009  0.2047242E+03  0.7561462E-02  0.1145813E+00
          1   -1    0    0  501    0  0.00000000000E+00  0.00000000000E+00  0.71539430361E+03  0.71539430361E+03  0.00000000000E+00 0. -1.
         -1   -1    0    0    0  501 -0.00000000000E+00 -0.00000000000E+00 -0.72765009790E+02  0.72765009790E+02  0.00000000000E+00 0.  1.
         25    2    1    2    0    0  0.10742310567E+03  0.16819670976E+03  0.32812700757E+03  0.40390981321E+03  0.12508376112E+03 0.  0.
          5    1    3    3  502    0  0.19069774991E+02  0.17328157382E+02  0.15725056081E+03  0.15940242355E+03  0.41800000000E+01 0. -1.
         -5    1    3    3    0  502  0.88353330680E+02  0.15086855238E+03  0.17087644676E+03  0.24450738966E+03  0.41800000000E+01 0. -1.
        -11    1    1    2    0    0 -0.37827757824E+02 -0.11441030354E+03  0.11658926506E+03  0.16767144523E+03  0.00000000000E+00 0.  1.
         11    1    1    2    0    0 -0.69595347848E+02 -0.53786406223E+02  0.19791302119E+03  0.21657805496E+03  0.00000000000E+00 0. -1.
</event>
<event>
 7    1  0.2594791E-009  0.1058978E+03  0.7561462E-02  0.1268361E+00
         -1   -1    0    0    0  501 -0.00000000000E+00  0.00000000000E+00  0.14343911027E+03  0.14343911027E+03  0.00000000000E+00 0.  1.
          1   -1    0    0  501    0  0.00000000000E+00 -0.00000000000E+00 -0.10280324419E+03  0.10280324419E+03  0.00000000000E+00 0. -1.
         25    2    1    2    0    0 -0.21921961771E+02 -0.53954851076E+02  0.17277922301E+02  0.13906086646E+03  0.12509076552E+03 0.  0.
          5    1    3    3  502    0  0.40105971575E+02 -0.31834019420E+02  0.44220944906E+02  0.67785382766E+02  0.41800000000E+01 0.  1.
         -5    1    3    3    0  502 -0.62027933346E+02 -0.22120831656E+02 -0.26943022605E+02  0.71275483691E+02  0.41800000000E+01 0.  1.
        -11    1    1    2    0    0  0.47866194868E+02  0.48056453266E+02  0.37019773942E+02  0.77272627588E+02  0.00000000000E+00 0.  1.
         11    1    1    2    0    0 -0.25944233097E+02  0.58983978103E+01 -0.13661830166E+02  0.29908860413E+02  0.00000000000E+00 0. -1.
</event>
<event>
 7    1  0.2594791E-009  0.1414366E+03  0.7561462E-02  0.1211409E+00
          2   -1    0    0  501    0  0.00000000000E+00  0.00000000000E+00  0.94826915476E+02  0.94826915476E+02  0.00000000000E+00 0. -1.
         -2   -1    0    0    0  501 -0.00000000000E+00 -0.00000000000E+00 -0.28364351695E+03  0.28364351695E+03  0.00000000000E+00 0.  1.
         25    2    1    2    0    0 -0.93479368883E+02  0.55145714468E+01 -0.19235382096E+03  0.24782162694E+03  0.12508702345E+03 0.  0.
          5    1    3    3  502    0 -0.98364450442E+02 -0.41739411705E+02 -0.14878092635E+03  0.18322385228E+03  0.41800000000E+01 0.  1.
         -5    1    3    3    0  502  0.48850815588E+01  0.47253983152E+02 -0.43572894610E+02  0.64597774654E+02  0.41800000000E+01 0.  1.
        -11    1    1    2    0    0  0.92158583302E+02 -0.35112445153E+02 -0.77942508128E+01  0.98928452058E+02  0.00000000000E+00 0.  1.
         11    1    1    2    0    0  0.13207855802E+01  0.29597873706E+02  0.11331470300E+02  0.31720353429E+02  0.00000000000E+00 0. -1.
</event>
<event>
 7    1  0.2594791E-009  0.8324871E+02  0.7561462E-02  0.1320077E+00
         -1   -1    0    0    0  501 -0.00000000000E+00  0.00000000000E+00  0.31542420396E+02  0.31542420396E+02  0.00000000000E+00 0.  1.
          1   -1    0    0  501    0  0.00000000000E+00 -0.00000000000E+00 -0.49735631290E+03  0.49735631290E+03  0.00000000000E+00 0. -1.
         25    2    1    2    0    0 -0.17936319859E+02 -0.25597377280E+02 -0.37511277090E+03  0.39665354437E+03  0.12508999189E+03 0.  0.
          5    1    3    3  502    0  0.53063834431E+02 -0.16437303458E+02 -0.19465021018E+03  0.20246513822E+03  0.41800000000E+01 0. -1.
         -5    1    3    3    0  502 -0.71000154289E+02 -0.91600738223E+01 -0.18046256072E+03  0.19418840615E+03  0.41800000000E+01 0. -1.
        -11    1    1    2    0    0  0.10811934498E+02 -0.16302855375E+01  0.17394543268E+02  0.20545702569E+02  0.00000000000E+00 0.  1.
         11    1    1    2    0    0  0.71243853611E+01  0.27227662817E+02 -0.10809566487E+03  0.11169948636E+03  0.00000000000E+00 0. -1.
</event>
<event>
 7    1  0.2594791E-009  0.1063030E+03  0.7561462E-02  0.1267574E+00
         -2   -1    0    0    0  501 -0.00000000000E+00  0.00000000000E+00  0.25539320427E+02  0.25539320427E+02  0.00000000000E+00 0.  1.
          2   -1    0    0  501    0  0.00000000000E+00 -0.00000000000E+00 -0.47971454872E+03  0.47971454872E+03  0.00000000000E+00 0. -1.
         25    2    1    2    0    0 -0.24421559643E+02 -0.94915802156E+01 -0.25738416852E+03  0.28736810738E+03  0.12508923320E+03 0.  0.
          5    1    3    3  502    0 -0.26445431077E+02  0.54980313034E+02 -0.99851006606E+02  0.11708924616E+03  0.41800000000E+01 0.  1.
         -5    1    3    3    0  502  0.20238714339E+01 -0.64471893249E+02 -0.15753316191E+03  0.17027886122E+03  0.41800000000E+01 0.  1.
        -11    1    1    2    0    0  0.16059935665E+02 -0.36600910097E+02 -0.51259738170E+02  0.65000837770E+02  0.00000000000E+00 0.  1.
         11    1    1    2    0    0  0.83616239785E+01  0.46092490313E+02 -0.14553132161E+03  0.15288492401E+03  0.00000000000E+00 0. -1.
</event>
<event>
 7    1  0.2594791E-009  0.1868739E+03  0.7561462E-02  0.1161311E+00
         -2   -1    0    0    0  501 -0.00000000000E+00  0.00000000000E+00  0.77584177306E+02  0.77584177306E+02  0.00000000000E+00 0.  1.
          2   -1    0    0  501    0  0.00000000000E+00 -0.00000000000E+00 -0.52149805795E+03  0.52149805795E+03  0.00000000000E+00 0. -1.
         25    2    1    2    0    0 -0.26893210248E+02 -0.16143013680E+03 -0.30576018358E+03  0.36867217303E+03  0.12508775910E+03 0.  0.
          5    1    3    3  502    0 -0.14596641146E+02 -0.18146813580E+03 -0.26956674783E+03  0.32531131271E+03  0.41800000000E+01 0. -1.
         -5    1    3    3    0  502 -0.12296569102E+02  0.20037999001E+02 -0.36193435759E+02  0.43360860319E+02  0.41800000000E+01 0. -1.
        -11    1    1    2    0    0  0.33226813442E+02  0.87999930142E+02 -0.28496061108E+02  0.98285473673E+02  0.00000000000E+00 0. -1.
         11    1    1    2    0    0 -0.63336031942E+01  0.73430206654E+02 -0.10965763596E+03  0.13212458856E+03  0.00000000000E+00 0.  1.
</event>
<event>
 7    1  0.2594791E-009  0.1010097E+03  0.7561462E-02  0.1278187E+00
          1   -1    0    0  501    0  0.00000000000E+00  0.00000000000E+00  0.18397430079E+03  0.18397430079E+03  0.00000000000E+00 0. -1.
         -1   -1    0    0    0  501 -0.00000000000E+00 -0.00000000000E+00 -0.11039679345E+03  0.11039679345E+03  0.00000000000E+00 0.  1.
         25    2    1    2    0    0  0.59283043894E+02 -0.59697141590E+02  0.73066762235E+02  0.16752731507E+03  0.12509365109E+03 0.  0.
          5    1    3    3  502    0  0.59073498437E+02 -0.77422392179E+02  0.96958282621E+02  0.13748558469E+03  0.41800000000E+01 0.  1.
         -5    1    3    3    0  502  0.20954545662E+00  0.17725250589E+02 -0.23891520386E+02  0.30041730378E+02  0.41800000000E+01 0.  1.
        -11    1    1    2    0    0 -0.29960563609E+02  0.43540590702E+02 -0.45638052984E+02  0.69830153162E+02  0.00000000000E+00 0.  1.
         11    1    1    2    0    0 -0.29322480285E+02  0.16156550888E+02  0.46148798080E+02  0.57013626011E+02  0.00000000000E+00 0. -1.
</event>
<event>
 7    1  0.2594791E-009  0.2016074E+03  0.7561462E-02  0.1148390E+00
         -1   -1    0    0    0  501 -0.00000000000E+00  0.00000000000E+00  0.41904281669E+03  0.41904281669E+03  0.00000000000E+00 0.  1.
          1   -1    0    0  501    0  0.00000000000E+00 -0.00000000000E+00 -0.10923638152E+03  0.10923638152E+03  0.00000000000E+00 0. -1.
         25    2    1    2    0    0 -0.13582417409E+03 -0.12120789465E+03  0.19446402580E+03  0.29428655787E+03  0.12509500716E+03 0.  0.
          5    1    3    3  502    0  0.23588646592E+02 -0.15997539645E+02  0.16528993270E+02  0.33211828333E+02  0.41800000000E+01 0. -1.
         -5    1    3    3    0  502 -0.15941282069E+03 -0.10521035501E+03  0.17793503253E+03  0.26107472953E+03  0.41800000000E+01 0. -1.
        -11    1    1    2    0    0  0.89325375333E+02  0.65329419894E+02  0.17408088802E+02  0.11202677063E+03  0.00000000000E+00 0. -1.
         11    1    1    2    0    0  0.46498798761E+02  0.55878474759E+02  0.97934320568E+02  0.12196586970E+03  0.00000000000E+00 0.  1.
</event>
<event>
 7    1  0.2594791E-009  0.1344052E+03  0.7561462E-02  0.1221062E+00
         -2   -1    0    0    0  501 -0.00000000000E+00  0.00000000000E+00  0.44230528003E+03  0.44230528003E+03  0.00000000000E+00 0.  1.
          2   -1    0    0  501    0  0.00000000000E+00 -0.00000000000E+00 -0.46218673180E+02  0.46218673180E+02  0.00000000000E+00 0. -1.
         25    2    1    2    0    0  0.54408144808E+02  0.80387078948E+02  0.20648239661E+03  0.26020237440E+03  0.12509183366E+03 0.  0.
          5    1    3    3  502    0  0.39743128621E+02 -0.18305930597E+02  0.19215918017E+02  0.47972359468E+02  0.41800000000E+01 0.  1.
         -5    1    3    3    0  502  0.14665016187E+02  0.98693009545E+02  0.18726647859E+03  0.21223001493E+03  0.41800000000E+01 0.  1.
        -11    1    1    2    0    0 -0.11308394789E+02  0.15892029964E+02  0.16209684215E+02  0.25361196175E+02  0.00000000000E+00 0. -1.
         11    1    1    2    0    0 -0.43099750019E+02 -0.96279108911E+02  0.17339452602E+03  0.20296038263E+03  0.00000000000E+00 0.  1.
</event>
<event>
 7    1  0.2594791E-009  0.1285668E+03  0.7561462E-02  0.1229598E+00
          4   -1    0    0  501    0  0.00000000000E+00  0.00000000000E+00  0.30216715801E+02  0.30216715801E+02  0.00000000000E+00 0. -1.
         -4   -1    0    0    0  501 -0.00000000000E+00 -0.00000000000E+00 -0.71673264317E+03  0.71673264317E+03  0.00000000000E+00 0.  1.
         25    2    1    2    0    0  0.97087635458E+02  0.15897966090E+02 -0.42373184667E+03  0.45263121607E+03  0.12509030976E+03 0.  0.
          5    1    3    3  502    0  0.18179275768E+02  0.38592389648E+02 -0.30627857249E+03  0.30926347178E+03  0.41800000000E+01 0. -1.
         -5    1    3    3    0  502  0.78908359690E+02 -0.22694423558E+02 -0.11745327418E+03  0.14336774430E+03  0.41800000000E+01 0. -1.
        -11    1    1    2    0    0 -0.38008594206E+02 -0.50794281113E+02 -0.13887571925E+03  0.15267998436E+03  0.00000000000E+00 0.  1.
         11    1    1    2    0    0 -0.59079041252E+02  0.34896315023E+02 -0.12390836145E+03  0.14163815854E+03  0.00000000000E+00 0. -1.
</event>
<event>
 7    1  0.2594791E-009  0.1135174E+03  0.7561462E-02  0.1254191E+00
          2   -1    0    0  501    0  0.00000000000E+00  0.00000000000E+00  0.20075444403E+03  0.20075444403E+03  0.00000000000E+00 0. -1.
         -2   -1    0    0    0  501 -0.00000000000E+00 -0.00000000000E+00 -0.11646409447E+03  0.11646409447E+03  0.00000000000E+00 0.  1.
         25    2    1    2    0    0 -0.41312289187E+02  0.93086482610E+02  0.16460513022E+02  0.16214631972E+03  0.12509469224E+03 0.  0.
          5    1    3    3  502    0 -0.18950047963E+02 -0.61871354815E+01  0.50747875426E+02  0.54682759839E+02  0.41800000000E+01 0. -1.
         -5    1    3    3    0  502 -0.22362241223E+02  0.99273618092E+02 -0.34287362404E+02  0.10746355988E+03  0.41800000000E+01 0. -1.
        -11    1    1    2    0    0  0.43424115414E+02 -0.75421828755E+02  0.21822034343E+01  0.87056694539E+02  0.00000000000E+00 0.  1.
         11    1    1    2    0    0 -0.21118262277E+01 -0.17664653856E+02  0.65647633105E+02  0.68015524243E+02  0.00000000000E+00 0. -1.
</event>
<event>
 7    1  0.2594791E-009  0.1350696E+03  0.7561462E-02  0.1220121E+00
          1   -1    0    0  501    0  0.00000000000E+00  0.00000000000E+00  0.31221431746E+03  0.31221431746E+03  0.00000000000E+00 0. -1.
         -1   -1    0    0    0  501 -0.00000000000E+00 -0.00000000000E+00 -0.87685136140E+02  0.87685136140E+02  0.00000000000E+00 0.  1.
         25    2    1    2    0    0 -0.98619770821E+02 -0.28310158813E+02  0.34346896319E+02  0.16539147699E+03  0.12508919652E+03 0.  0.
          5    1    3    3  502    0 -0.12067187714E+03 -0.12981746790E+02  0.52922426276E+02  0.13247068840E+03  0.41800000000E+01 0.  1.
         -5    1    3    3    0  502  0.22052106321E+02 -0.15328412023E+02 -0.18575529957E+02  0.32920788592E+02  0.41800000000E+01 0.  1.
        -11    1    1    2    0    0  0.38911231592E+02 -0.20878831740E+02  0.21890285296E+02  0.49286855744E+02  0.00000000000E+00 0. -1.
         11    1    1    2    0    0  0.59708539229E+02  0.49188990553E+02  0.16829199970E+03  0.18522112086E+03  0.00000000000E+00 0.  1.
</event>
<event>
 7    1  0.2594791E-009  0.1113680E+03  0.7561462E-02  0.1258057E+00
         -1   -1    0    0    0  501 -0.00000000000E+00  0.00000000000E+00  0.38705513432E+03  0.38705513432E+03  0.00000000000E+00 0.  1.
          1   -1    0    0  501    0  0.00000000000E+00 -0.00000000000E+00 -0.49088768933E+02  0.49088768933E+02  0.00000000000E+00 0. -1.
         25    2    1    2    0    0  0.84470250102E+01  0.67320326435E+02  0.10525853389E+03  0.17700008351E+03  0.12508513909E+03 0.  0.
          5    1    3    3  502    0 -0.35163940857E+02  0.57380008520E+02  0.55704725005E+01  0.67657007606E+02  0.41800000000E+01 0.  1.
         -5    1    3    3    0  502  0.43610965867E+02  0.99403179155E+01  0.99688061387E+02  0.10934307590E+03  0.41800000000E+01 0.  1.
        -11    1    1    2    0    0  0.39402528096E+02 -0.34377610347E+02  0.78168317856E+02  0.94046080354E+02  0.00000000000E+00 0.  1.
         11    1    1    2    0    0 -0.47849553106E+02 -0.32942716088E+02  0.15453951364E+03  0.16509773939E+03  0.00000000000E+00 0. -1.
</event>
<event>
 7    1  0.2594791E-009  0.8904153E+02  0.7561462E-02  0.1305189E+00
          1   -1    0    0  501    0  0.00000000000E+00  0.00000000000E+00  0.12848496769E+02  0.12848496769E+02  0.00000000000E+00 0. -1.
         -1   -1    0    0    0  501 -0.00000000000E+00 -0.00000000000E+00 -0.12181390332E+04  0.12181390332E+04  0.00000000000E+00 0.  1.
         25    2    1    2    0    0 -0.42057535893E+02  0.16449210993E+02 -0.88164346600E+03  0.89162082754E+03  0.12511229388E+03 0.  0.
          5    1    3    3  502    0 -0.19916130224E+02  0.43469311354E+02 -0.12111088946E+03  0.13027491400E+03  0.41800000000E+01 0. -1.
         -5    1    3    3    0  502 -0.22141405669E+02 -0.27020100361E+02 -0.76053257654E+03  0.76134591353E+03  0.41800000000E+01 0. -1.
        -11    1    1    2    0    0  0.67726889725E+02 -0.13575215901E+02 -0.16889711081E+03  0.18247589462E+03  0.00000000000E+00 0. -1.
         11    1    1    2    0    0 -0.25669353832E+02 -0.28739950913E+01 -0.15474995963E+03  0.15689080782E+03  0.00000000000E+00 0.  1.
</event>
<event>
 7    1  0.2594791E-009  0.8496219E+02  0.7561462E-02  0.1315531E+00
         -1   -1    0    0    0  501 -0.00000000000E+00  0.00000000000E+00  0.53482680912E+02  0.53482680912E+02  0.00000000000E+00 0.  1.
          1   -1    0    0  501    0  0.00000000000E+00 -0.00000000000E+00 -0.22658309895E+03  0.22658309895E+03  0.00000000000E+00 0. -1.
         25    2    1    2    0    0  0.44111377215E+01 -0.91354203320E+01 -0.65933279097E+02  0.14176811448E+03  0.12509231372E+03 0.  0.
          5    1    3    3  502    0 -0.47098824417E+02  0.12975691326E+02 -0.69939557223E+02  0.85414763896E+02  0.41800000000E+01 0.  1.
         -5    1    3    3    0  502  0.51509962138E+02 -0.22111111658E+02  0.40062781260E+01  0.56353350589E+02  0.41800000000E+01 0.  1.
        -11    1    1    2    0    0  0.12956824675E+02 -0.23997832123E+02 -0.27845636017E+01  0.27414030107E+02  0.00000000000E+00 0.  1.
         11    1    1    2    0    0 -0.17367962396E+02  0.33133252455E+02 -0.10438257534E+03  0.11088363527E+03  0.00000000000E+00 0. -1.
</event>
<event>
 7    1  0.3195142E-009  0.1109956E+03  0.7561462E-02  0.1258737E+00
         -2   -1    0    0    0  501 -0.00000000000E+00  0.00000000000E+00  0.45041407867E+02  0.45041407867E+02  0.00000000000E+00 0.  1.
          2   -1    0    0  501    0  0.00000000000E+00 -0.00000000000E+00 -0.41155210622E+03  0.41155210622E+03  0.00000000000E+00 0. -1.
         25    2    1    2    0    0 -0.75600172152E+02  0.30891533384E+02 -0.22536093018E+03  0.27038211872E+03  0.12509703596E+03 0.  0.
          5    1    3    3  502    0 -0.29405004090E+02 -0.24615916052E+02 -0.55475266597E+01  0.38972362523E+02  0.41800000000E+01 0. -1.
         -5    1    3    3    0  502 -0.46195168062E+02  0.55507449436E+02 -0.21981340352E+03  0.23140975619E+03  0.41800000000E+01 0. -1.
        -11    1    1    2    0    0  0.34078833340E+02 -0.53779212623E+02 -0.41897842721E+02  0.76216794848E+02  0.00000000000E+00 0.  1.
         11    1    1    2    0    0  0.41521338812E+02  0.22887679239E+02 -0.99251925451E+02  0.10999460052E+03  0.00000000000E+00 0. -1.
</event>
<event>
 7    1  0.2594791E-009  0.2237261E+03  0.7561462E-02  0.1131135E+00
         -3   -1    0    0    0  501 -0.00000000000E+00  0.00000000000E+00  0.44754881131E+02  0.44754881131E+02  0.00000000000E+00 0.  1.
          3   -1    0    0  501    0  0.00000000000E+00 -0.00000000000E+00 -0.14281232677E+04  0.14281232677E+04  0.00000000000E+00 0. -1.
         25    2    1    2    0    0  0.18846767729E+03 -0.10245712963E+03 -0.93884470919E+03  0.97113011094E+03  0.12508707212E+03 0.  0.
          5    1    3    3  502    0  0.10379907053E+03 -0.84494137654E+02 -0.32974127566E+03  0.35589364650E+03  0.41800000000E+01 0.  1.
         -5    1    3    3    0  502  0.84668606767E+02 -0.17962991976E+02 -0.60910343352E+03  0.61523646445E+03  0.41800000000E+01 0.  1.
        -11    1    1    2    0    0 -0.18671176604E+03  0.77963791296E+02 -0.35188215194E+03  0.40590723717E+03  0.00000000000E+00 0.  1.
         11    1    1    2    0    0 -0.17559112579E+01  0.24493338334E+02 -0.92641525405E+02  0.95840800687E+02  0.00000000000E+00 0. -1.
</event>
<event>
 7    1  0.2594791E-009  0.8777911E+02  0.7561462E-02  0.1308321E+00
          1   -1    0    0  501    0  0.00000000000E+00  0.00000000000E+00  0.88337320826E+02  0.88337320826E+02  0.00000000000E+00 0. -1.
         -1   -1    0    0    0  501 -0.00000000000E+00 -0.00000000000E+00 -0.17443694891E+03  0.17443694891E+03  0.00000000000E+00 0.  1.
         25    2    1    2    0    0 -0.26786547938E+02  0.12705850764E+02  0.88072219432E+01  0.12886384680E+03  0.12509742627E+03 0.  0.
          5    1    3    3  502    0  0.28518268970E+01  0.40175334778E+02  0.54387564848E+02  0.67806121046E+02  0.41800000000E+01 0.  1.
         -5    1    3    3    0  502 -0.29638374835E+02 -0.27469484014E+02 -0.45580342905E+02  0.61057725754E+02  0.41800000000E+01 0.  1.
        -11    1    1    2    0    0  0.59264629522E+02  0.78748753599E+00 -0.57891769088E+02  0.82851514030E+02  0.00000000000E+00 0.  1.
         11    1    1    2    0    0 -0.32478081584E+02 -0.13493338300E+02 -0.37015080943E+02  0.51058908910E+02  0.00000000000E+00 0. -1.
</event>
<event>
 7    1  0.2594791E-009  0.8368607E+02  0.7561462E-02  0.1318905E+00
          2   -1    0    0  501    0  0.00000000000E+00  0.00000000000E+00  0.54942155289E+03  0.54942155289E+03  0.00000000000E+00 0. -1.
         -2   -1    0    0    0  501 -0.00000000000E+00 -0.00000000000E+00 -0.26575083780E+02  0.26575083780E+02  0.00000000000E+00 0.  1.
         25    2    1    2    0    0  0.41631222058E+01  0.51466177686E+02  0.33339342164E+03  0.35981161154E+03  0.12508846138E+03 0.  0.
          5    1    3    3  502    0  0.17972360494E+02  0.42332488576E+02  0.28132829601E+02  0.54073781375E+02  0.41800000000E+01 0. -1.
         -5    1    3    3    0  502 -0.13809238288E+02  0.91336891091E+01  0.30526059204E+03  0.30573783016E+03  0.41800000000E+01 0. -1.
        -11    1    1    2    0    0 -0.72483137116E+01 -0.77531522811E+02  0.14007187217E+03  0.16026167494E+03  0.00000000000E+00 0. -1.
         11    1    1    2    0    0  0.30851915058E+01  0.26065345126E+02  0.49381175294E+02  0.55923350191E+02  0.00000000000E+00 0.  1.
</event>
<event>
 7    1  0.2594791E-009  0.1090576E+03  0.7561462E-02  0.1262325E+00
         -1   -1    0    0    0  501 -0.00000000000E+00  0.00000000000E+00  0.44997357447E+02  0.44997357447E+02  0.00000000000E+00 0.  1.
          1   -1    0    0  501    0  0.00000000000E+00 -0.00000000000E+00 -0.32913529070E+03  0.32913529070E+03  0.00000000000E+00 0. -1.
         25    2    1    2    0    0  0.49205789649E+02  0.21531861007E+01 -0.20123216910E+03  0.24200867077E+03  0.12509182589E+03 0.  0.
          5    1    3    3  502    0 -0.41584922127E+02 -0.82387642805E+01 -0.72387238450E+02  0.83991473827E+02  0.41800000000E+01 0.  1.
         -5    1    3    3    0  502  0.90790711775E+02  0.10391950381E+02 -0.12884493065E+03  0.15801719695E+03  0.41800000000E+01 0.  1.
        -11    1    1    2    0    0 -0.49386213615E+02 -0.28945986425E+02 -0.15078623447E+02  0.59196563333E+02  0.00000000000E+00 0.  1.
         11    1    1    2    0    0  0.18042396664E+00  0.26792800325E+02 -0.67827140709E+02  0.72927414042E+02  0.00000000000E+00 0. -1.
</event>
<event>
 7    1  0.2594791E-009  0.1064588E+03  0.7561462E-02  0.1267272E+00
          2   -1    0    0  501    0  0.00000000000E+00  0.00000000000E+00  0.18778045523E+03  0.18778045523E+03  0.00000000000E+00 0.  1.
         -2   -1    0    0    0  501 -0.00000000000E+00 -0.00000000000E+00 -0.97706306136E+02  0.97706306136E+02  0.00000000000E+00 0. -1.
         25    2    1    2    0    0  0.78983510103E+02  0.25793405018E+02  0.51274102890E+02  0.15868308560E+03  0.12509034103E+03 0.  0.
          5    1    3    3  502    0  0.41084177122E+02  0.34706784527E+02 -0.34748959464E+02  0.64167227506E+02  0.41800000000E+01 0.  1.
         -5    1    3    3    0  502  0.37899332981E+02 -0.89133795094E+01  0.86023062353E+02  0.94515858095E+02  0.41800000000E+01 0.  1.
        -11    1    1    2    0    0 -0.77823277764E+02 -0.51991685763E+02  0.36575092501E+02  0.10048549817E+03  0.00000000000E+00 0. -1.
         11    1    1    2    0    0 -0.11602323397E+01  0.26198280745E+02  0.22249537006E+01  0.26318177597E+02  0.00000000000E+00 0.  1.
</event>
<event>
 7    1  0.2594791E-009  0.1126114E+03  0.7561462E-02  0.1255809E+00
          1   -1    0    0  501    0  0.00000000000E+00  0.00000000000E+00  0.77831779411E+03  0.77831779411E+03  0.00000000000E+00 0. -1.
         -1   -1    0    0    0  501 -0.00000000000E+00 -0.00000000000E+00 -0.24292035185E+02  0.24292035185E+02  0.00000000000E+00 0.  1.
         25    2    1    2    0    0  0.50795575415E+02 -0.44363745883E+02  0.56242587229E+03  0.58010212851E+03  0.12508910926E+03 0.  0.
          5    1    3    3  502    0 -0.15032150283E+02  0.24673966839E+02  0.28926028646E+03  0.29072969560E+03  0.41800000000E+01 0. -1.
         -5    1    3    3    0  502  0.65827725697E+02 -0.69037712722E+02  0.27316558583E+03  0.28937243291E+03  0.41800000000E+01 0. -1.
        -11    1    1    2    0    0 -0.17940434425E+02 -0.20860971793E+02  0.14854963289E+02  0.31268342870E+02  0.00000000000E+00 0.  1.
         11    1    1    2    0    0 -0.32855140990E+02  0.65224717676E+02  0.17674492335E+03  0.19123935791E+03  0.00000000000E+00 0. -1.
</event>
<event>
 7    1  0.2639424E-009  0.1352493E+03  0.7561462E-02  0.1219868E+00
         -1   -1    0    0    0  501 -0.00000000000E+00  0.00000000000E+00  0.30061505155E+02  0.30061505155E+02  0.00000000000E+00 0.  1.
          1   -1    0    0  501    0  0.00000000000E+00 -0.00000000000E+00 -0.66040519391E+03  0.66040519391E+03  0.00000000000E+00 0. -1.
         25    2    1    2    0    0 -0.13296283560E+02 -0.88388049840E+02 -0.35102552423E+03  0.38321767494E+03  0.12509048410E+03 0.  0.
          5    1    3    3  502    0  0.31378315631E+02 -0.99941960484E+02 -0.27346907174E+03  0.29287505827E+03  0.41800000000E+01 0. -1.
         -5    1    3    3    0  502 -0.44674599190E+02  0.11553910644E+02 -0.77556452488E+02  0.90342616668E+02  0.41800000000E+01 0. -1.
        -11    1    1    2    0    0 -0.33249312814E+02  0.42579182290E+02 -0.18353575113E+03  0.19132139324E+03  0.00000000000E+00 0.  1.
         11    1    1    2    0    0  0.46545596374E+02  0.45808867551E+02 -0.95782413394E+02  0.11592763089E+03  0.00000000000E+00 0. -1.
</event>
<event>
 7    1  0.2594791E-009  0.1656267E+03  0.7561462E-02  0.1182487E+00
          2   -1    0    0  501    0  0.00000000000E+00  0.00000000000E+00  0.29568231710E+03  0.29568231710E+03  0.00000000000E+00 0.  1.
         -2   -1    0    0    0  501 -0.00000000000E+00 -0.00000000000E+00 -0.13471761900E+03  0.13471761900E+03  0.00000000000E+00 0. -1.
         25    2    1    2    0    0  0.15613914357E+03 -0.54276663737E+02  0.11421755565E+03  0.23668127780E+03  0.12508792451E+03 0.  0.
          5    1    3    3  502    0  0.40802700820E+02 -0.10640933237E+02 -0.26149949716E+02  0.49793394386E+02  0.41800000000E+01 0.  1.
         -5    1    3    3    0  502  0.11533644275E+03 -0.43635730500E+02  0.14036750537E+03  0.18688788341E+03  0.41800000000E+01 0.  1.
        -11    1    1    2    0    0 -0.12253198226E+02  0.65802189213E+01  0.39592745374E+02  0.41964575943E+02  0.00000000000E+00 0.  1.
         11    1    1    2    0    0 -0.14388594534E+03  0.47696444815E+02  0.71543970720E+01  0.15175408236E+03  0.00000000000E+00 0. -1.
</event>
<event>
 7    1  0.2594791E-009  0.1737355E+03  0.7561462E-02  0.1174007E+00
         -1   -1    0    0    0  501 -0.00000000000E+00  0.00000000000E+00  0.70661871319E+02  0.70661871319E+02  0.00000000000E+00 0.  1.
          1   -1    0    0  501    0  0.00000000000E+00 -0.00000000000E+00 -0.70613846299E+03  0.70613846299E+03  0.00000000000E+00 0. -1.
         25    2    1    2    0    0  0.11950223950E+03 -0.12325664216E+03 -0.17075886822E+03  0.27254094575E+03  0.12508793290E+03 0.  0.
          5    1    3    3  502    0  0.51249185247E+02 -0.74348826002E+02 -0.16516409014E+03  0.18828403009E+03  0.41800000000E+01 0.  1.
         -5    1    3    3    0  502  0.68253054252E+02 -0.48907816154E+02 -0.55947780798E+01  0.84256915665E+02  0.41800000000E+01 0.  1.
        -11    1    1    2    0    0 -0.44004875987E+02  0.31181922701E+02 -0.27524629575E+03  0.28048041774E+03  0.00000000000E+00 0. -1.
         11    1    1    2    0    0 -0.75497363512E+02  0.92074719455E+02 -0.18947142771E+03  0.22377897082E+03  0.00000000000E+00 0.  1.
</event>
<event>
 7    1  0.2594791E-009  0.1913985E+03  0.7561462E-02  0.1157206E+00
          2   -1    0    0  501    0  0.00000000000E+00  0.00000000000E+00  0.55554330845E+03  0.55554330845E+03  0.00000000000E+00 0. -1.
         -2   -1    0    0    0  501 -0.00000000000E+00 -0.00000000000E+00 -0.90408768265E+02  0.90408768265E+02  0.00000000000E+00 0.  1.
         25    2    1    2    0    0  0.38495277025E+02  0.16287524551E+03  0.95284649606E+02  0.22964721746E+03  0.12509375718E+03 0.  0.
          5    1    3    3  502    0  0.74035767812E+02  0.15546092219E+03  0.81979435053E+02  0.19075506131E+03  0.41800000000E+01 0. -1.
         -5    1    3    3    0  502 -0.35540490788E+02  0.74143233125E+01  0.13305214553E+02  0.38892156149E+02  0.41800000000E+01 0. -1.
        -11    1    1    2    0    0 -0.15347260895E+02 -0.77965746148E+01  0.31646934548E+01  0.17502579163E+02  0.00000000000E+00 0.  1.
         11    1    1    2    0    0 -0.23148016130E+02 -0.15507867089E+03  0.36668519712E+03  0.39880228009E+03  0.00000000000E+00 0. -1.
</event>
<event>
 7    1  0.2601228E-009  0.1326343E+03  0.7561462E-02  0.1223598E+00
          1   -1    0    0  501    0  0.00000000000E+00  0.00000000000E+00  0.45004633726E+03  0.45004633726E+03  0.00000000000E+00 0. -1.
         -1   -1    0    0    0  501 -0.00000000000E+00 -0.00000000000E+00 -0.42009120169E+02  0.42009120169E+02  0.00000000000E+00 0.  1.
         25    2    1    2    0    0  0.11655939473E+02 -0.82937939812E+02  0.21257779898E+03  0.26048204306E+03  0.12508801443E+03 0.  0.
          5    1    3    3  502    0  0.58314957999E+02 -0.85043027737E+02  0.13666284912E+03  0.17125173758E+03  0.41800000000E+01 0. -1.
         -5    1    3    3    0  502 -0.46659018525E+02  0.21050879248E+01  0.75914949855E+02  0.89230305482E+02  0.41800000000E+01 0. -1.
        -11    1    1    2    0    0 -0.45776137492E+02  0.48759428776E+02  0.15410673981E+03  0.16799352342E+03  0.00000000000E+00 0. -1.
         11    1    1    2    0    0  0.34120198018E+02  0.34178511036E+02  0.41352678302E+02  0.63579890942E+02  0.00000000000E+00 0.  1.
</event>
<event>
 7    1  0.2594791E-009  0.9967838E+02  0.7561462E-02  0.1280974E+00
          1   -1    0    0  501    0  0.00000000000E+00  0.00000000000E+00  0.13762592848E+03  0.13762592848E+03  0.00000000000E+00 0. -1.
         -1   -1    0    0    0  501 -0.00000000000E+00 -0.00000000000E+00 -0.89263628231E+02  0.89263628231E+02  0.00000000000E+00 0.  1.
         25    2    1    2    0    0 -0.43379050521E+02 -0.31194596388E+02  0.55982548681E+02  0.14709349292E+03  0.12509038745E+03 0.  0.
          5    1    3    3  502    0  0.15677384312E+02  0.38232707371E+02  0.31357543810E+01  0.41651238245E+02  0.41800000000E+01 0.  1.
         -5    1    3    3    0  502 -0.59056434833E+02 -0.69427303760E+02  0.52846794300E+02  0.10544225467E+03  0.41800000000E+01 0.  1.
        -11    1    1    2    0    0  0.30925951337E+02  0.40555572973E+02  0.14240161338E+02  0.52952348014E+02  0.00000000000E+00 0. -1.
         11    1    1    2    0    0  0.12453099184E+02 -0.93609765848E+01 -0.21860409767E+02  0.26843715784E+02  0.00000000000E+00 0.  1.
</event>
<event>
 7    1  0.2594791E-009  0.1097110E+03  0.7561462E-02  0.1261106E+00
          1   -1    0    0  501    0  0.00000000000E+00  0.00000000000E+00  0.10607766486E+02  0.10607766486E+02  0.00000000000E+00 0. -1.
         -1   -1    0    0    0  501 -0.00000000000E+00 -0.00000000000E+00 -0.14106299464E+04  0.14106299464E+04  0.00000000000E+00 0.  1.
         25    2    1    2    0    0  0.34691237543E+02  0.14618909503E+02 -0.10260444588E+04  0.10343268654E+04  0.12509052108E+03 0.  0.
          5    1    3    3  502    0 -0.33552394063E+02  0.36512716908E+02 -0.61923082106E+03  0.62122719177E+03  0.41800000000E+01 0. -1.
         -5    1    3    3    0  502  0.68243631606E+02 -0.21893807405E+02 -0.40681363775E+03  0.41309967359E+03  0.41800000000E+01 0. -1.
        -11    1    1    2    0    0  0.17952682629E+02 -0.36640896709E+02 -0.12556693955E+03  0.13202996036E+03  0.00000000000E+00 0. -1.
         11    1    1    2    0    0 -0.52643920172E+02  0.22021987207E+02 -0.24841078154E+03  0.25488088715E+03  0.00000000000E+00 0.  1.
</event>
<event>
 7    1  0.2594791E-009  0.6668532E+02  0.7561462E-02  0.1371742E+00
         -2   -1    0    0    0  501 -0.00000000000E+00  0.00000000000E+00  0.32738035156E+02  0.32738035156E+02  0.00000000000E+00 0.  1.
          2   -1    0    0  501    0  0.00000000000E+00 -0.00000000000E+00 -0.35624903683E+03  0.35624903683E+03  0.00000000000E+00 0. -1.
         25    2    1    2    0    0  0.90943833603E+01 -0.71925546651E+01 -0.15961988814E+03  0.20312575212E+03  0.12508845603E+03 0.  0.
          5    1    3    3  502    0 -0.83605766856E+01 -0.22463837414E+02  0.13894200623E+02  0.28018644593E+02  0.41800000000E+01 0.  1.
         -5    1    3    3    0  502  0.17454960046E+02  0.15271282749E+02 -0.17351408877E+03  0.17510710753E+03  0.41800000000E+01 0.  1.
        -11    1    1    2    0    0 -0.38907595473E+02  0.29008101421E+02 -0.11294999032E+03  0.12293482520E+03  0.00000000000E+00 0.  1.
         11    1    1    2    0    0  0.29813212113E+02 -0.21815546756E+02 -0.50941123210E+02  0.62926494664E+02  0.00000000000E+00 0. -1.
</event>
<event>
 6    1  0.2594791E-009  0.8846425E+02  0.7561462E-02  0.1306614E+00
         -1   -1    0    0    0  501 -0.00000000000E+00  0.00000000000E+00  0.95694416459E+02  0.95694416459E+02  0.00000000000E+00 0.  1.
          1   -1    0    0  501    0  0.00000000000E+00 -0.00000000000E+00 -0.12607793412E+03  0.12607793412E+03  0.00000000000E+00 0. -1.
          5    1    1    2  502    0  0.43171718995E+02  0.96474796658E+01 -0.65772272604E+02  0.79374652304E+02  0.41800000000E+01 0.  1.
         -5    1    1    2    0  502 -0.41093083372E+02 -0.45348140890E+01  0.29459878205E+02  0.50936851726E+02  0.41800000000E+01 0.  1.
        -11    1    1    2    0    0 -0.16298478973E+02 -0.45390161098E+02 -0.71695874588E+00  0.48232988412E+02  0.00000000000E+00 0. -1.
         11    1    1    2    0    0  0.14219843351E+02  0.40277495521E+02  0.66458354794E+01  0.43227858142E+02  0.00000000000E+00 0.  1.
</event>
<event>
 7    1  0.2594791E-009  0.1113753E+03  0.7561462E-02  0.1258044E+00
          2   -1    0    0  501    0  0.00000000000E+00  0.00000000000E+00  0.42702024743E+03  0.42702024743E+03  0.00000000000E+00 0. -1.
         -2   -1    0    0    0  501 -0.00000000000E+00 -0.00000000000E+00 -0.38344780843E+02  0.38344780843E+02  0.00000000000E+00 0.  1.
         25    2    1    2    0    0  0.79058185906E+01 -0.43978320386E+02  0.31127682551E+03  0.33843343543E+03  0.12508930204E+03 0.  0.
          5    1    3    3  502    0  0.39790960707E+02  0.31250264007E+02  0.10926115134E+03  0.12047975409E+03  0.41800000000E+01 0.  1.
         -5    1    3    3    0  502 -0.31885142116E+02 -0.75228584392E+02  0.20201567417E+03  0.21795368134E+03  0.41800000000E+01 0.  1.
        -11    1    1    2    0    0 -0.25613881170E+01  0.66739615266E+02  0.28274050967E+02  0.72526953011E+02  0.00000000000E+00 0.  1.
         11    1    1    2    0    0 -0.53444304737E+01 -0.22761294881E+02  0.49124590116E+02  0.54404639837E+02  0.00000000000E+00 0. -1.
</event>
<event>
 7    1  0.2594791E-009  0.1050683E+03  0.7561462E-02  0.1269985E+00
          1   -1    0    0  501    0  0.00000000000E+00  0.00000000000E+00  0.16613780940E+03  0.16613780940E+03  0.00000000000E+00 0. -1.
         -1   -1    0    0    0  501 -0.00000000000E+00 -0.00000000000E+00 -0.10036288223E+03  0.10036288223E+03  0.00000000000E+00 0.  1.
         25    2    1    2    0    0 -0.52843587107E+02  0.44983816865E+02  0.30982398251E+02  0.14636846458E+03  0.12509128645E+03 0.  0.
          5    1    3    3  502    0  0.23141362043E+02  0.14750361536E+02  0.54508941376E+02  0.61170196114E+02  0.41800000000E+01 0.  1.
         -5    1    3    3    0  502 -0.75984949150E+02  0.30233455330E+02 -0.23526543126E+02  0.85198268468E+02  0.41800000000E+01 0.  1.
        -11    1    1    2    0    0  0.16428584236E+02 -0.59172131477E+02  0.48984270546E+02  0.78553792298E+02  0.00000000000E+00 0. -1.
         11    1    1    2    0    0  0.36415002871E+02  0.14188314612E+02 -0.14191741621E+02  0.41578434745E+02  0.00000000000E+00 0.  1.
</event>
<event>
 7    1  0.2594791E-009  0.9115058E+02  0.7561462E-02  0.1300089E+00
         -1   -1    0    0    0  501 -0.00000000000E+00  0.00000000000E+00  0.40514766101E+02  0.40514766101E+02  0.00000000000E+00 0.  1.
          1   -1    0    0  501    0  0.00000000000E+00 -0.00000000000E+00 -0.31207734020E+03  0.31207734020E+03  0.00000000000E+00 0. -1.
         25    2    1    2    0    0 -0.16135328790E+02 -0.24838885188E+02 -0.17333874007E+03  0.21580302565E+03  0.12508920023E+03 0.  0.
          5    1    3    3  502    0 -0.63596017246E+02  0.11608739563E+01 -0.49880107808E+02  0.80940092617E+02  0.41800000000E+01 0. -1.
         -5    1    3    3    0  502  0.47460688457E+02 -0.25999759144E+02 -0.12345863227E+03  0.13486293303E+03  0.41800000000E+01 0. -1.
        -11    1    1    2    0    0 -0.14637464670E+02  0.29714250659E+02 -0.10023629788E+03  0.10556754936E+03  0.00000000000E+00 0. -1.
         11    1    1    2    0    0  0.30772793460E+02 -0.48753654718E+01  0.20124638553E+01  0.31221531298E+02  0.00000000000E+00 0.  1.
</event>
<event>
 7    1  0.2710129E-009  0.1087522E+03  0.7561462E-02  0.1262898E+00
         -2   -1    0    0    0  501 -0.00000000000E+00  0.00000000000E+00  0.40954118258E+02  0.40954118258E+02  0.00000000000E+00 0.  1.
          2   -1    0    0  501    0  0.00000000000E+00 -0.00000000000E+00 -0.37152380698E+03  0.37152380698E+03  0.00000000000E+00 0. -1.
         25    2    1    2    0    0 -0.21672893298E+02 -0.26706830814E+02 -0.10530527301E+03  0.16709292098E+03  0.12509146495E+03 0.  0.
          5    1    3    3  502    0  0.34275901028E+01 -0.74449297519E+02 -0.71089118855E+02  0.10308046127E+03  0.41800000000E+01 0. -1.
         -5    1    3    3    0  502 -0.25100483401E+02  0.47742466705E+02 -0.34216154152E+02  0.64012459717E+02  0.41800000000E+01 0. -1.
        -11    1    1    2    0    0  0.20491717939E+00 -0.29029862867E+02 -0.32493216588E+02  0.43572744386E+02  0.00000000000E+00 0.  1.
         11    1    1    2    0    0  0.21467976119E+02  0.55736693680E+02 -0.19277119913E+03  0.20181225987E+03  0.00000000000E+00 0. -1.
</event>
<event>
 7    1  0.2594791E-009  0.5831088E+02  0.7561462E-02  0.1405060E+00
          1   -1    0    0  501    0  0.00000000000E+00  0.00000000000E+00  0.30450979038E+03  0.30450979038E+03  0.00000000000E+00 0. -1.
         -1   -1    0    0    0  501 -0.00000000000E+00 -0.00000000000E+00 -0.38101041578E+02  0.38101041578E+02  0.00000000000E+00 0.  1.
         25    2    1    2    0    0 -0.13217174392E+02 -0.55051409653E+01  0.15384861283E+03  0.19880740245E+03  0.12509990937E+03 0.  0.
          5    1    3    3  502    0  0.22430762813E+02  0.75887651751E+01 -0.13210122485E+02  0.27435528304E+02  0.41800000000E+01 0. -1.
         -5    1    3    3    0  502 -0.35647937205E+02 -0.13093906140E+02  0.16705873531E+03  0.17137187415E+03  0.41800000000E+01 0. -1.
        -11    1    1    2    0    0  0.33653504345E+02  0.32905295015E+01  0.48627498798E+01  0.34161854100E+02  0.00000000000E+00 0.  1.
         11    1    1    2    0    0 -0.20436329953E+02  0.22146114638E+01  0.10769738609E+03  0.10964157540E+03  0.00000000000E+00 0. -1.
</event>
<event>
 7    1  0.2594791E-009  0.1068703E+03  0.7561462E-02  0.1266478E+00
         -4   -1    0    0    0  501 -0.00000000000E+00  0.00000000000E+00  0.70654709209E+02  0.70654709209E+02  0.00000000000E+00 0.  1.
          4   -1    0    0  501    0  0.00000000000E+00 -0.00000000000E+00 -0.18444313593E+03  0.18444313593E+03  0.00000000000E+00 0. -1.
         25    2    1    2    0    0 -0.32094033185E+02  0.13739776761E+02 -0.55611026437E+02  0.14127509003E+03  0.12508899380E+03 0.  0.
          5    1    3    3  502    0  0.30288483848E+02 -0.35125320475E+02 -0.37724426567E+02  0.59931503836E+02  0.41800000000E+01 0.  1.
         -5    1    3    3    0  502 -0.62382517032E+02  0.48865097236E+02 -0.17886599870E+02  0.81343586189E+02  0.41800000000E+01 0.  1.
        -11    1    1    2    0    0  0.19119201447E+02 -0.47740661598E+02 -0.57884047107E+02  0.77429177596E+02  0.00000000000E+00 0. -1.
         11    1    1    2    0    0  0.12974831738E+02  0.34000884837E+02 -0.29335317505E+00  0.36393577516E+02  0.00000000000E+00 0.  1.
</event>
<event>
 7    1  0.2594791E-009  0.1367274E+03  0.7561462E-02  0.1217802E+00
         -2   -1    0    0    0  501 -0.00000000000E+00  0.00000000000E+00  0.17011468231E+03  0.17011468231E+03  0.00000000000E+00 0.  1.
          2   -1    0    0  501    0  0.00000000000E+00 -0.00000000000E+00 -0.12135687166E+03  0.12135687166E+03  0.00000000000E+00 0. -1.
         25    2    1    2    0    0 -0.83285183998E+02 -0.38004601905E+02  0.14178459178E+02  0.15565815677E+03  0.12509061285E+03 0.  0.
          5    1    3    3  502    0  0.27280218739E+02 -0.60883739111E+01  0.27868782131E+02  0.39691561430E+02  0.41800000000E+01 0. -1.
         -5    1    3    3    0  502 -0.11056540274E+03 -0.31916227994E+02 -0.13690322953E+02  0.11596659534E+03  0.41800000000E+01 0. -1.
        -11    1    1    2    0    0  0.97521850528E+02  0.92606047483E+01  0.17630540186E+02  0.99534446690E+02  0.00000000000E+00 0. -1.
         11    1    1    2    0    0 -0.14236666530E+02  0.28743997157E+02  0.16948811289E+02  0.36278950516E+02  0.00000000000E+00 0.  1.
</event>
<event>
 7    1  0.2594791E-009  0.1261751E+03  0.7561462E-02  0.1233244E+00
          3   -1    0    0  501    0  0.00000000000E+00  0.00000000000E+00  0.27897923251E+03  0.27897923251E+03  0.00000000000E+00 0. -1.
         -3   -1    0    0    0  501 -0.00000000000E+00 -0.00000000000E+00 -0.77701413403E+02  0.77701413403E+02  0.00000000000E+00 0.  1.
         25    2    1    2    0    0  0.75150162923E+02  0.38878647960E+02  0.45581934620E+02  0.15774973209E+03  0.12509264150E+03 0.  0.
          5    1    3    3  502    0  0.10439122181E+03  0.65076295275E+01  0.44956559451E+02  0.11392296112E+03  0.41800000000E+01 0.  1.
         -5    1    3    3    0  502 -0.29241058890E+02  0.32371018433E+02  0.62537516924E+00  0.43826770968E+02  0.41800000000E+01 0.  1.
        -11    1    1    2    0    0 -0.65401453982E+02 -0.17090435051E+01  0.39217624140E+02  0.76277736306E+02  0.00000000000E+00 0.  1.
         11    1    1    2    0    0 -0.97487089406E+01 -0.37169604455E+02  0.11647826034E+03  0.12265317751E+03  0.00000000000E+00 0. -1.
</event>
<event>
 7    1  0.2594791E-009  0.7798018E+02  0.7561462E-02  0.1334883E+00
         -2   -1    0    0    0  501 -0.00000000000E+00  0.00000000000E+00  0.23216010303E+02  0.23216010303E+02  0.00000000000E+00 0. -1.
          2   -1    0    0  501    0  0.00000000000E+00 -0.00000000000E+00 -0.60981990643E+03  0.60981990643E+03  0.00000000000E+00 0.  1.
         25    2    1    2    0    0 -0.90655471291E+01 -0.32910866168E+02 -0.43134973779E+03  0.45041559079E+03  0.12508516650E+03 0.  0.
          5    1    3    3  502    0 -0.35223976344E+02  0.83277630272E+01 -0.37046998885E+03  0.37225739104E+03  0.41800000000E+01 0. -1.
         -5    1    3    3    0  502  0.26158429215E+02 -0.41238629195E+02 -0.60879748940E+02  0.78158199749E+02  0.41800000000E+01 0. -1.
        -11    1    1    2    0    0 -0.21842841152E+02 -0.41701984968E+01 -0.12197926513E+03  0.12398968258E+03  0.00000000000E+00 0. -1.
         11    1    1    2    0    0  0.30908388281E+02  0.37081064665E+02 -0.33274893204E+02  0.58630643358E+02  0.00000000000E+00 0.  1.
</event>
<event>
 7    1  0.2594791E-009  0.3126363E+03  0.7561462E-02  0.1079089E+00
          2   -1    0    0  501    0  0.00000000000E+00  0.00000000000E+00  0.49491100045E+03  0.49491100045E+03  0.00000000000E+00 0.  1.
         -2   -1    0    0    0  501 -0.00000000000E+00 -0.00000000000E+00 -0.32358415475E+03  0.32358415475E+03  0.00000000000E+00 0. -1.
         25    2    1    2    0    0 -0.29854041771E+03 -0.47169494162E+02  0.32950725382E+03  0.46429966292E+03  0.12509118468E+03 0.  0.
          5    1    3    3  502    0 -0.23231393369E+03 -0.67105675290E+02  0.18655073237E+03  0.30543670963E+03  0.41800000000E+01 0. -1.
         -5    1    3    3    0  502 -0.66226484021E+02  0.19936181128E+02  0.14295652145E+03  0.15886295329E+03  0.41800000000E+01 0. -1.
        -11    1    1    2    0    0  0.22466153657E+03 -0.32629553550E+01 -0.91392082989E+02  0.24256126179E+03  0.00000000000E+00 0. -1.
         11    1    1    2    0    0  0.73878881145E+02  0.50432449517E+02 -0.66788325130E+02  0.11163423049E+03  0.00000000000E+00 0.  1.
</event>
<event>
 7    1  0.2594791E-009  0.1210651E+03  0.7561462E-02  0.1241350E+00
          2   -1    0    0  501    0  0.00000000000E+00  0.00000000000E+00  0.28878926236E+03  0.28878926236E+03  0.00000000000E+00 0. -1.
         -2   -1    0    0    0  501 -0.00000000000E+00 -0.00000000000E+00 -0.73399601366E+02  0.73399601366E+02  0.00000000000E+00 0.  1.
         25    2    1    2    0    0  0.57759335853E+02 -0.21578662068E+02  0.24019260261E+02  0.14150569351E+03  0.12508060161E+03 0.  0.
          5    1    3    3  502    0  0.78687696588E+02  0.28952361913E+02  0.78301634802E+01  0.84313561867E+02  0.41800000000E+01 0.  1.
         -5    1    3    3    0  502 -0.20928360735E+02 -0.50531023980E+02  0.16189096780E+02  0.57192131645E+02  0.41800000000E+01 0.  1.
        -11    1    1    2    0    0  0.14765830464E+02 -0.15893663805E+02  0.78127974486E+02  0.81084022444E+02  0.00000000000E+00 0. -1.
         11    1    1    2    0    0 -0.72525166317E+02  0.37472325872E+02  0.11324242625E+03  0.13959914777E+03  0.00000000000E+00 0.  1.
</event>
<event>
 7    1  0.2594791E-009  0.1073980E+03  0.7561462E-02  0.1265466E+00
         -2   -1    0    0    0  501 -0.00000000000E+00  0.00000000000E+00  0.16581394233E+02  0.16581394233E+02  0.00000000000E+00 0. -1.
          2   -1    0    0  501    0  0.00000000000E+00 -0.00000000000E+00 -0.13227632316E+04  0.13227632316E+04  0.00000000000E+00 0.  1.
         25    2    1    2    0    0  0.37389118642E+02  0.75408782787E+02 -0.95372161785E+03  0.96556559276E+03  0.12509020290E+03 0.  0.
          5    1    3    3  502    0 -0.13757926114E+02 -0.15886455719E+02 -0.47675751248E+03  0.47723878522E+03  0.41800000000E+01 0.  1.
         -5    1    3    3    0  502  0.51147044756E+02  0.91295238506E+02 -0.47696410537E+03  0.48832680755E+03  0.41800000000E+01 0.  1.
        -11    1    1    2    0    0 -0.37176333315E+02 -0.45620516488E+02 -0.33308375906E+03  0.33824266708E+03  0.00000000000E+00 0.  1.
         11    1    1    2    0    0 -0.21278532761E+00 -0.29788266299E+02 -0.19376460423E+02  0.35536365954E+02  0.00000000000E+00 0. -1.
</event>
<event>
 7    1  0.2594791E-009  0.7146812E+02  0.7561462E-02  0.1355171E+00
         -1   -1    0    0    0  501 -0.00000000000E+00  0.00000000000E+00  0.43058469310E+02  0.43058469310E+02  0.00000000000E+00 0.  1.
          1   -1    0    0  501    0  0.00000000000E+00 -0.00000000000E+00 -0.31153240120E+03  0.31153240120E+03  0.00000000000E+00 0. -1.
         25    2    1    2    0    0 -0.13665149279E+02 -0.10772390190E+02 -0.21613787990E+03  0.25033031790E+03  0.12508758627E+03 0.  0.
          5    1    3    3  502    0 -0.26665678497E+02  0.98536281057E+01  0.38193936671E+01  0.28986420347E+02  0.41800000000E+01 0. -1.
         -5    1    3    3    0  502  0.13000529218E+02 -0.20626018295E+02 -0.21995727357E+03  0.22134389756E+03  0.41800000000E+01 0. -1.
        -11    1    1    2    0    0  0.18376725733E+02 -0.37078855017E+02 -0.30738962672E+02  0.51550260564E+02  0.00000000000E+00 0. -1.
         11    1    1    2    0    0 -0.47115764545E+01  0.47851245207E+02 -0.21597089324E+02  0.52710292048E+02  0.00000000000E+00 0.  1.
</event>
<event>
 7    1  0.2594791E-009  0.8108804E+02  0.7561462E-02  0.1325992E+00
         -2   -1    0    0    0  501 -0.00000000000E+00  0.00000000000E+00  0.23758143295E+02  0.23758143295E+02  0.00000000000E+00 0.  1.
          2   -1    0    0  501    0  0.00000000000E+00 -0.00000000000E+00 -0.52171745342E+03  0.52171745342E+03  0.00000000000E+00 0. -1.
         25    2    1    2    0    0  0.23816911812E+02  0.27910426470E+01 -0.27564100881E+03  0.30364329333E+03  0.12508496568E+03 0.  0.
          5    1    3    3  502    0 -0.20092914454E+02 -0.74795201102E+01 -0.25126290477E+03  0.25221060276E+03  0.41800000000E+01 0.  1.
         -5    1    3    3    0  502  0.43909826266E+02  0.10270562757E+02 -0.24378104036E+02  0.51432690562E+02  0.41800000000E+01 0.  1.
        -11    1    1    2    0    0 -0.39111202587E+02 -0.39309752776E+02 -0.12351809600E+03  0.13539447134E+03  0.00000000000E+00 0.  1.
         11    1    1    2    0    0  0.15294290775E+02  0.36518710129E+02 -0.98800205317E+02  0.10643783204E+03  0.00000000000E+00 0. -1.
</event>
<event>
 7    1  0.2594791E-009  0.7013246E+02  0.7561462E-02  0.1359643E+00
          1   -1    0    0  501    0  0.00000000000E+00  0.00000000000E+00  0.29498372680E+03  0.29498372680E+03  0.00000000000E+00 0. -1.
         -1   -1    0    0    0  501 -0.00000000000E+00 -0.00000000000E+00 -0.45360028152E+02  0.45360028152E+02  0.00000000000E+00 0.  1.
         25    2    1    2    0    0 -0.27225910366E+02  0.30042745952E+02  0.13937492061E+03  0.19161659833E+03  0.12509090888E+03 0.  0.
          5    1    3    3  502    0 -0.18782574028E+02  0.52281435090E+02  0.59540013485E+01  0.56027279733E+02  0.41800000000E+01 0. -1.
         -5    1    3    3    0  502 -0.84433363372E+01 -0.22238689138E+02  0.13342091926E+03  0.13558931860E+03  0.41800000000E+01 0. -1.
        -11    1    1    2    0    0  0.38444312884E+02 -0.14184307104E+02  0.45170033612E+01  0.41225757489E+02  0.00000000000E+00 0.  1.
         11    1    1    2    0    0 -0.11218402519E+02 -0.15858438848E+02  0.10573177468E+03  0.10750139913E+03  0.00000000000E+00 0. -1.
</event>
<event>
 7    1  0.2594791E-009  0.1308885E+03  0.7561462E-02  0.1226143E+00
         -1   -1    0    0    0  501 -0.00000000000E+00  0.00000000000E+00  0.13315530510E+03  0.13315530510E+03  0.00000000000E+00 0.  1.
          1   -1    0    0  501    0  0.00000000000E+00 -0.00000000000E+00 -0.19564225393E+03  0.19564225393E+03  0.00000000000E+00 0. -1.
         25    2    1    2    0    0 -0.33595453411E+02  0.72191756758E+02 -0.12311875801E+03  0.19273297282E+03  0.12508983175E+03 0.  0.
          5    1    3    3  502    0  0.31223162678E+02  0.73353531765E+02 -0.46914594264E+02  0.92596317772E+02  0.41800000000E+01 0.  1.
         -5    1    3    3    0  502 -0.64818616088E+02 -0.11617750070E+01 -0.76204163746E+02  0.10013665505E+03  0.41800000000E+01 0.  1.
        -11    1    1    2    0    0  0.26400551191E+02  0.14412910863E+02  0.33506171679E+02  0.45026488241E+02  0.00000000000E+00 0.  1.
         11    1    1    2    0    0  0.71949022195E+01 -0.86604667622E+02  0.27125637501E+02  0.91038097968E+02  0.00000000000E+00 0. -1.
</event>
<event>
 7    1  0.2594791E-009  0.7967247E+02  0.7561462E-02  0.1329984E+00
         -2   -1    0    0    0  501 -0.00000000000E+00  0.00000000000E+00  0.39867793366E+02  0.39867793366E+02  0.00000000000E+00 0.  1.
          2   -1    0    0  501    0  0.00000000000E+00 -0.00000000000E+00 -0.36462577108E+03  0.36462577108E+03  0.00000000000E+00 0. -1.
         25    2    1    2    0    0  0.17953576005E+02  0.46284146534E+02 -0.15505273373E+03  0.20531694623E+03  0.12509654295E+03 0.  0.
          5    1    3    3  502    0 -0.13756305969E+02  0.60184040661E+02 -0.18797727903E+02  0.64669789535E+02  0.41800000000E+01 0. -1.
         -5    1    3    3    0  502  0.31709881975E+02 -0.13899894127E+02 -0.13625500583E+03  0.14064715669E+03  0.41800000000E+01 0. -1.
        -11    1    1    2    0    0  0.53139455256E+01 -0.37260274381E+02 -0.17010323606E+03  0.17421732687E+03  0.00000000000E+00 0. -1.
         11    1    1    2    0    0 -0.23267521531E+02 -0.90238721532E+01  0.39799207993E+00  0.24959291347E+02  0.00000000000E+00 0.  1.
</event>
<event>
 7    1  0.2594791E-009  0.3044256E+03  0.7561462E-02  0.1083049E+00
          2   -1    0    0  501    0  0.00000000000E+00  0.00000000000E+00  0.99950835830E+03  0.99950835830E+03  0.00000000000E+00 0.  1.
         -2   -1    0    0    0  501 -0.00000000000E+00 -0.00000000000E+00 -0.10470389978E+03  0.10470389978E+03  0.00000000000E+00 0. -1.
         25    2    1    2    0    0 -0.28698437510E+03  0.87818615840E+02  0.37059954307E+03  0.49301478536E+03  0.12508963352E+03 0.  0.
          5    1    3    3  502    0 -0.95799871925E+02  0.17692561876E+01  0.45503712691E+02  0.10615463248E+03  0.41800000000E+01 0.  1.
         -5    1    3    3    0  502 -0.19118450317E+03  0.86049359652E+02  0.32509583038E+03  0.38686015288E+03  0.41800000000E+01 0.  1.
        -11    1    1    2    0    0  0.35627488281E+02  0.35348800433E+01  0.21455197192E+02  0.41738936075E+02  0.00000000000E+00 0. -1.
         11    1    1    2    0    0  0.25135688682E+03 -0.91353495883E+02  0.50274971825E+03  0.56945853665E+03  0.00000000000E+00 0.  1.
</event>
<event>
 7    1  0.2594791E-009  0.1262100E+03  0.7561462E-02  0.1233190E+00
         -1   -1    0    0    0  501 -0.00000000000E+00  0.00000000000E+00  0.64512750207E+02  0.64512750207E+02  0.00000000000E+00 0.  1.
          1   -1    0    0  501    0  0.00000000000E+00 -0.00000000000E+00 -0.31158891117E+03  0.31158891117E+03  0.00000000000E+00 0. -1.
         25    2    1    2    0    0  0.81909229082E+02  0.33315002119E+02 -0.15481408695E+03  0.21779306637E+03  0.12508959615E+03 0.  0.
          5    1    3    3  502    0  0.42955465474E+02  0.79994335374E+02 -0.78250390034E+02  0.11993690694E+03  0.41800000000E+01 0. -1.
         -5    1    3    3    0  502  0.38953763609E+02 -0.46679333254E+02 -0.76563696915E+02  0.97856159426E+02  0.41800000000E+01 0. -1.
        -11    1    1    2    0    0 -0.37493227133E+02  0.97275307111E+01  0.88936678883E+01  0.39742474295E+02  0.00000000000E+00 0.  1.
         11    1    1    2    0    0 -0.44416001949E+02 -0.43042532831E+02 -0.10115574190E+03  0.11856612071E+03  0.00000000000E+00 0. -1.
</event>
<event>
 7    1  0.2594791E-009  0.1349885E+03  0.7561462E-02  0.1220236E+00
          2   -1    0    0  501    0  0.00000000000E+00  0.00000000000E+00  0.62372691882E+03  0.62372691882E+03  0.00000000000E+00 0. -1.
         -2   -1    0    0    0  501 -0.00000000000E+00 -0.00000000000E+00 -0.37711298894E+02  0.37711298894E+02  0.00000000000E+00 0.  1.
         25    2    1    2    0    0  0.10264284348E+03 -0.16322911824E+01  0.37116602484E+03  0.40490743675E+03  0.12509035394E+03 0.  0.
          5    1    3    3  502    0  0.63502776470E+01  0.50249274868E+02  0.93007271132E+02  0.10598651110E+03  0.41800000000E+01 0.  1.
         -5    1    3    3    0  502  0.96292565835E+02 -0.51881566051E+02  0.27815875371E+03  0.29892092565E+03  0.41800000000E+01 0.  1.
        -11    1    1    2    0    0 -0.87654992818E+02  0.15804879279E+02  0.21815779125E+03  0.23563958466E+03  0.00000000000E+00 0. -1.
         11    1    1    2    0    0 -0.14987850664E+02 -0.14172588096E+02 -0.33081961680E+01  0.20891196298E+02  0.00000000000E+00 0.  1.
</event>
<event>
 7    1  0.2594791E-009  0.1492044E+03  0.7561462E-02  0.1201454E+00
          1   -1    0    0  501    0  0.00000000000E+00  0.00000000000E+00  0.53622400534E+03  0.53622400534E+03  0.00000000000E+00 0. -1.
         -1   -1    0    0    0  501 -0.00000000000E+00 -0.00000000000E+00 -0.48606260580E+02  0.48606260580E+02  0.00000000000E+00 0.  1.
         25    2    1    2    0    0  0.94205828635E+02 -0.38756675547E+02  0.20692339899E+03  0.26237608610E+03  0.12508836661E+03 0.  0.
          5    1    3    3  502    0  0.17538726787E+02 -0.61837476740E+02  0.36499133397E+02  0.74034718921E+02  0.41800000000E+01 0. -1.
         -5    1    3    3    0  502  0.76667101848E+02  0.23080801194E+02  0.17042426559E+03  0.18834136718E+03  0.41800000000E+01 0. -1.
        -11    1    1    2    0    0 -0.86813068839E+01  0.64049490943E+02  0.15851627014E+03  0.17118735432E+03  0.00000000000E+00 0. -1.
         11    1    1    2    0    0 -0.85524521751E+02 -0.25292815397E+02  0.12217807563E+03  0.15126682550E+03  0.00000000000E+00 0.  1.
</event>
<event>
 7    1  0.2594791E-009  0.8772848E+02  0.7561462E-02  0.1308448E+00
         -1   -1    0    0    0  501 -0.00000000000E+00  0.00000000000E+00  0.72296006949E+02  0.72296006949E+02  0.00000000000E+00 0.  1.
          1   -1    0    0  501    0  0.00000000000E+00 -0.00000000000E+00 -0.18864193504E+03  0.18864193504E+03  0.00000000000E+00 0. -1.
         25    2    1    2    0    0  0.11167042186E+02 -0.33259770860E+02 -0.37018934272E+02  0.13509677512E+03  0.12509924845E+03 0.  0.
          5    1    3    3  502    0  0.13100149106E+02  0.44044764757E+02  0.59657084155E+01  0.46525447725E+02  0.41800000000E+01 0.  1.
         -5    1    3    3    0  502 -0.19331069207E+01 -0.77304535617E+02 -0.42984642688E+02  0.88571327394E+02  0.41800000000E+01 0.  1.
        -11    1    1    2    0    0 -0.62442250025E+01 -0.80971082601E+01  0.17594494748E+02  0.20349932518E+02  0.00000000000E+00 0.  1.
         11    1    1    2    0    0 -0.49228171831E+01  0.41356879120E+02 -0.96921488568E+02  0.10549123436E+03  0.00000000000E+00 0. -1.
</event>
<event>
 7    1  0.2594791E-009  0.1576402E+03  0.7561462E-02  0.1191387E+00
         -1   -1    0    0    0  501 -0.00000000000E+00  0.00000000000E+00  0.12356399733E+03  0.12356399733E+03  0.00000000000E+00 0.  1.
          1   -1    0    0  501    0  0.00000000000E+00 -0.00000000000E+00 -0.46578305574E+03  0.46578305574E+03  0.00000000000E+00 0. -1.
         25    2    1    2    0    0 -0.87295205455E+00 -0.15058461253E+03  0.92193062976E+01  0.19598563219E+03  0.12509550288E+03 0.  0.
          5    1    3    3  502    0  0.58770110408E+01 -0.47017186851E+02 -0.55892653962E+02  0.73393571143E+02  0.41800000000E+01 0. -1.
         -5    1    3    3    0  502 -0.67499630954E+01 -0.10356742568E+03  0.65111960260E+02  0.12259206105E+03  0.41800000000E+01 0. -1.
        -11    1    1    2    0    0  0.31933869557E+02  0.94233545290E+02 -0.28032360130E+03  0.29745765166E+03  0.00000000000E+00 0.  1.
         11    1    1    2    0    0 -0.31060917503E+02  0.56351067243E+02 -0.71114763412E+02  0.95903769221E+02  0.00000000000E+00 0. -1.
</event>
<event>
 7    1  0.2594791E-009  0.1028005E+03  0.7561462E-02  0.1274515E+00
          4   -1    0    0  501    0  0.00000000000E+00  0.00000000000E+00  0.44052700377E+02  0.44052700377E+02  0.00000000000E+00 0. -1.
         -4   -1    0    0    0  501 -0.00000000000E+00 -0.00000000000E+00 -0.32419020357E+03  0.32419020357E+03  0.00000000000E+00 0.  1.
         25    2    1    2    0    0 -0.39619015759E+02 -0.17659845815E+01 -0.11793917494E+03  0.17643771654E+03  0.12509130155E+03 0.  0.
          5    1    3    3  502    0 -0.72761255172E+02 -0.24051349316E+02 -0.11210637013E+03  0.13586014236E+03  0.41800000000E+01 0.  1.
         -5    1    3    3    0  502  0.33142239414E+02  0.22285364735E+02 -0.58328048079E+01  0.40577574184E+02  0.41800000000E+01 0.  1.
        -11    1    1    2    0    0 -0.20379127964E+02  0.17287800957E+02 -0.10186984144E+03  0.10531686244E+03  0.00000000000E+00 0.  1.
         11    1    1    2    0    0  0.59998143723E+02 -0.15521816375E+02 -0.60328486807E+02  0.86488324959E+02  0.00000000000E+00 0. -1.
</event>
<event>
 7    1  0.2594791E-009  0.1250212E+03  0.7561462E-02  0.1235036E+00
          4   -1    0    0  501    0  0.00000000000E+00  0.00000000000E+00  0.17688871139E+03  0.17688871139E+03  0.00000000000E+00 0. -1.
         -4   -1    0    0    0  501 -0.00000000000E+00 -0.00000000000E+00 -0.11383150187E+03  0.11383150187E+03  0.00000000000E+00 0.  1.
         25    2    1    2    0    0 -0.20194002164E+02  0.86743267145E+02  0.48566533173E+02  0.16105443679E+03  0.12509049263E+03 0.  0.
          5    1    3    3  502    0 -0.73188197229E+01 -0.23722039593E+02  0.42748849629E+02  0.49610853945E+02  0.41800000000E+01 0. -1.
         -5    1    3    3    0  502 -0.12875182441E+02  0.11046530674E+03  0.58176835438E+01  0.11144358285E+03  0.41800000000E+01 0. -1.
        -11    1    1    2    0    0 -0.25403582110E+02 -0.45409565450E+02 -0.23763463601E+02  0.57202035110E+02  0.00000000000E+00 0.  1.
         11    1    1    2    0    0  0.45597584274E+02 -0.41333701695E+02  0.38254139953E+02  0.72463741354E+02  0.00000000000E+00 0. -1.
</event>
<event>
 7    1  0.2594791E-009  0.9388177E+02  0.7561462E-02  0.1293715E+00
          1   -1    0    0  501    0  0.00000000000E+00  0.00000000000E+00  0.44516014999E+03  0.44516014999E+03  0.00000000000E+00 0. -1.
         -1   -1    0    0    0  501 -0.00000000000E+00 -0.00000000000E+00 -0.27836075327E+02  0.27836075327E+02  0.00000000000E+00 0.  1.
         25    2    1    2    0    0  0.17312067465E+02  0.26390657520E+02  0.26513825997E+03  0.29485874149E+03  0.12508879265E+03 0.  0.
          5    1    3    3  502    0  0.59466839527E+02 -0.52505270723E+01  0.21043565681E+03  0.21877959479E+03  0.41800000000E+01 0.  1.
         -5    1    3    3    0  502 -0.42154772062E+02  0.31641184592E+02  0.54702603155E+02  0.76079146696E+02  0.41800000000E+01 0.  1.
        -11    1    1    2    0    0 -0.12807261790E+02 -0.49690193304E+02  0.44668772652E+02  0.68032643014E+02  0.00000000000E+00 0.  1.
         11    1    1    2    0    0 -0.45048056746E+01  0.23299535785E+02  0.10751704205E+03  0.11010484082E+03  0.00000000000E+00 0. -1.
</event>
<event>
 7    1  0.2594791E-009  0.1183134E+03  0.7561462E-02  0.1245906E+00
         -2   -1    0    0    0  501 -0.00000000000E+00  0.00000000000E+00  0.19354136070E+03  0.19354136070E+03  0.00000000000E+00 0.  1.
          2   -1    0    0  501    0  0.00000000000E+00 -0.00000000000E+00 -0.92020817679E+02  0.92020817679E+02  0.00000000000E+00 0. -1.
         25    2    1    2    0    0 -0.75894707373E+02 -0.16993255505E+02  0.52802813696E+02  0.15648288943E+03  0.12509988093E+03 0.  0.
          5    1    3    3  502    0 -0.38715426014E+02  0.41994931829E+02 -0.14928994001E+02  0.59184506187E+02  0.41800000000E+01 0.  1.
         -5    1    3    3    0  502 -0.37179281359E+02 -0.58988187333E+02  0.67731807697E+02  0.97298383240E+02  0.41800000000E+01 0.  1.
        -11    1    1    2    0    0  0.84261199161E+02  0.33754188772E+02  0.17157147064E+02  0.92377825472E+02  0.00000000000E+00 0. -1.
         11    1    1    2    0    0 -0.83664917873E+01 -0.16760933267E+02  0.31560582262E+02  0.36701463479E+02  0.00000000000E+00 0.  1.
</event>
<event>
 7    1  0.2594791E-009  0.1209070E+03  0.7561462E-02  0.1241608E+00
          2   -1    0    0  501    0  0.00000000000E+00  0.00000000000E+00  0.71698622249E+03  0.71698622249E+03  0.00000000000E+00 0. -1.
         -2   -1    0    0    0  501 -0.00000000000E+00 -0.00000000000E+00 -0.25201034251E+02  0.25201034251E+02  0.00000000000E+00 0.  1.
         25    2    1    2    0    0  0.23941890271E+02  0.75533236451E+02  0.43720896321E+03  0.46160317000E+03  0.12508926861E+03 0.  0.
          5    1    3    3  502    0  0.37738338067E+02 -0.23771148243E+02  0.18058413432E+03  0.18605738796E+03  0.41800000000E+01 0. -1.
         -5    1    3    3    0  502 -0.13796447796E+02  0.99304384694E+02  0.25662482889E+03  0.27554578203E+03  0.41800000000E+01 0. -1.
        -11    1    1    2    0    0  0.18173996052E+02 -0.21085431066E+02  0.16644359490E+03  0.16875532530E+03  0.00000000000E+00 0. -1.
         11    1    1    2    0    0 -0.42115886323E+02 -0.54447805385E+02  0.88132630135E+02  0.11182876145E+03  0.00000000000E+00 0.  1.
</event>
<event>
 7    1  0.2626364E-009  0.9018431E+02  0.7561462E-02  0.1302406E+00
          2   -1    0    0  501    0  0.00000000000E+00  0.00000000000E+00  0.95757513780E+02  0.95757513780E+02  0.00000000000E+00 0. -1.
         -2   -1    0    0    0  501 -0.00000000000E+00 -0.00000000000E+00 -0.15564584909E+03  0.15564584909E+03  0.00000000000E+00 0.  1.
         25    2    1    2    0    0 -0.48232160446E+02  0.26713186388E+02 -0.44693969670E+02  0.14382217814E+03  0.12508929760E+03 0.  0.
          5    1    3    3  502    0 -0.72394362851E+02  0.10427240138E+02  0.17228224772E+02  0.75259253506E+02  0.41800000000E+01 0. -1.
         -5    1    3    3    0  502  0.24162202405E+02  0.16285946250E+02 -0.61922194442E+02  0.68562924638E+02  0.41800000000E+01 0. -1.
        -11    1    1    2    0    0  0.27899138058E+02  0.14700553152E+02 -0.43294020254E+02  0.53561556709E+02  0.00000000000E+00 0.  1.
         11    1    1    2    0    0  0.20333022388E+02 -0.41413739540E+02  0.28099654611E+02  0.54019628020E+02  0.00000000000E+00 0. -1.
</event>
<event>
 7    1  0.2594791E-009  0.2437358E+03  0.7561462E-02  0.1117329E+00
          2   -1    0    0  501    0  0.00000000000E+00  0.00000000000E+00  0.69833743497E+03  0.69833743497E+03  0.00000000000E+00 0. -1.
         -2   -1    0    0    0  501 -0.00000000000E+00 -0.00000000000E+00 -0.11023145295E+03  0.11023145295E+03  0.00000000000E+00 0.  1.
         25    2    1    2    0    0 -0.22437869543E+03 -0.45362678411E+02  0.13625618473E+03  0.29431145773E+03  0.12509961917E+03 0.  0.
          5    1    3    3  502    0 -0.14232605669E+03 -0.82451286531E+02  0.56549474302E+02  0.17398343745E+03  0.41800000000E+01 0.  1.
         -5    1    3    3    0  502 -0.82052638742E+02  0.37088608120E+02  0.79706710427E+02  0.12032802028E+03  0.41800000000E+01 0.  1.
        -11    1    1    2    0    0  0.57344311036E+02  0.30882394506E+02  0.62170406328E+02  0.90040278330E+02  0.00000000000E+00 0.  1.
         11    1    1    2    0    0  0.16703438440E+03  0.14480283905E+02  0.38967939096E+03  0.42421715186E+03  0.00000000000E+00 0. -1.
</event>
<event>
 7    1  0.2594791E-009  0.1299792E+03  0.7561462E-02  0.1227487E+00
         -2   -1    0    0    0  501 -0.00000000000E+00  0.00000000000E+00  0.31415424039E+02  0.31415424039E+02  0.00000000000E+00 0.  1.
          2   -1    0    0  501    0  0.00000000000E+00 -0.00000000000E+00 -0.77157446561E+03  0.77157446561E+03  0.00000000000E+00 0. -1.
         25    2    1    2    0    0 -0.64133987273E+02  0.71511791285E+02 -0.54551520082E+03  0.56785646292E+03  0.12508806314E+03 0.  0.
          5    1    3    3  502    0 -0.61868132011E+02  0.10495925754E+03 -0.46080576369E+03  0.47665872042E+03  0.41800000000E+01 0.  1.
         -5    1    3    3    0  502 -0.22658552619E+01 -0.33447466254E+02 -0.84709437125E+02  0.91197742499E+02  0.41800000000E+01 0.  1.
        -11    1    1    2    0    0  0.22072635838E+02 -0.54671843113E+02 -0.33650756820E+02  0.67886560650E+02  0.00000000000E+00 0.  1.
         11    1    1    2    0    0  0.42061351436E+02 -0.16839948171E+02 -0.16099308393E+03  0.16724686608E+03  0.00000000000E+00 0. -1.
</event>
<event>
 7    1  0.2594791E-009  0.1048207E+03  0.7561462E-02  0.1270473E+00
         -1   -1    0    0    0  501 -0.00000000000E+00  0.00000000000E+00  0.32589476084E+03  0.32589476084E+03  0.00000000000E+00 0.  1.
          1   -1    0    0  501    0  0.00000000000E+00 -0.00000000000E+00 -0.68806589393E+02  0.68806589393E+02  0.00000000000E+00 0. -1.
         25    2    1    2    0    0  0.28177706093E+02 -0.76220985582E+02  0.22376005225E+03  0.26892355589E+03  0.12509075173E+03 0.  0.
          5    1    3    3  502    0 -0.35851087542E+02 -0.36807860319E+02  0.26890642787E+02  0.58143771194E+02  0.41800000000E+01 0. -1.
         -5    1    3    3    0  502  0.64028793634E+02 -0.39413125264E+02  0.19686940946E+03  0.21077978470E+03  0.41800000000E+01 0. -1.
        -11    1    1    2    0    0 -0.29846005207E+02  0.66057575720E+02  0.61953920746E+02  0.95355522298E+02  0.00000000000E+00 0.  1.
         11    1    1    2    0    0  0.16682991139E+01  0.10163409862E+02 -0.28625801546E+02  0.30422272041E+02  0.00000000000E+00 0. -1.
</event>
<event>
 7    1  0.2594791E-009  0.9717627E+02  0.7561462E-02  0.1286348E+00
          1   -1    0    0  501    0  0.00000000000E+00  0.00000000000E+00  0.81759363454E+02  0.81759363454E+02  0.00000000000E+00 0. -1.
         -1   -1    0    0    0  501 -0.00000000000E+00 -0.00000000000E+00 -0.25216810617E+03  0.25216810617E+03  0.00000000000E+00 0.  1.
         25    2    1    2    0    0  0.63698350330E+02 -0.12202842627E+02 -0.17994942755E+03  0.22854981174E+03  0.12508729259E+03 0.  0.
          5    1    3    3  502    0  0.76870113296E+02 -0.44338127534E+02 -0.17059363507E+03  0.19233965945E+03  0.41800000000E+01 0.  1.
         -5    1    3    3    0  502 -0.13171762965E+02  0.32135284906E+02 -0.93557924764E+01  0.36210152285E+02  0.41800000000E+01 0.  1.
        -11    1    1    2    0    0 -0.45636408677E+02 -0.45950329930E+01 -0.32791705181E+02  0.56383437762E+02  0.00000000000E+00 0.  1.
         11    1    1    2    0    0 -0.18061941653E+02  0.16797875620E+02  0.42332390013E+02  0.48994220127E+02  0.00000000000E+00 0. -1.
</event>
<event>
 7    1  0.2594791E-009  0.9741990E+02  0.7561462E-02  0.1285817E+00
          3   -1    0    0  501    0  0.00000000000E+00  0.00000000000E+00  0.32480142206E+03  0.32480142206E+03  0.00000000000E+00 0. -1.
         -3   -1    0    0    0  501 -0.00000000000E+00 -0.00000000000E+00 -0.42439710581E+02  0.42439710581E+02  0.00000000000E+00 0.  1.
         25    2    1    2    0    0  0.35004122616E+02  0.12127197069E+02  0.12008530733E+03  0.17731492325E+03  0.12509094077E+03 0.  0.
          5    1    3    3  502    0  0.57260952074E+02  0.54960781376E+02  0.57168545430E+02  0.97904132234E+02  0.41800000000E+01 0. -1.
         -5    1    3    3    0  502 -0.22256829458E+02 -0.42833584307E+02  0.62916761902E+02  0.79410791019E+02  0.41800000000E+01 0. -1.
        -11    1    1    2    0    0 -0.24930403223E+02 -0.34388312003E+02  0.22569158294E+02  0.48098315078E+02  0.00000000000E+00 0.  1.
         11    1    1    2    0    0 -0.10073719393E+02  0.22261114934E+02  0.13970724586E+03  0.14182789431E+03  0.00000000000E+00 0. -1.
</event>
<event>
 7    1  0.2794878E-009  0.1221045E+03  0.7561462E-02  0.1239665E+00
          1   -1    0    0  501    0  0.00000000000E+00  0.00000000000E+00  0.68154544945E+03  0.68154544945E+03  0.00000000000E+00 0. -1.
         -1   -1    0    0    0  501 -0.00000000000E+00 -0.00000000000E+00 -0.32270855162E+02  0.32270855162E+02  0.00000000000E+00 0.  1.
         25    2    1    2    0    0 -0.18770053474E+02  0.91188378498E+02  0.44564194847E+03  0.47213650688E+03  0.12509396313E+03 0.  0.
          5    1    3    3  502    0 -0.48848372791E+02  0.91455868042E+02  0.41925478090E+03  0.43190552558E+03  0.41800000000E+01 0. -1.
         -5    1    3    3    0  502  0.30078319317E+02 -0.26748954413E+00  0.26387167576E+02  0.40230981299E+02  0.41800000000E+01 0. -1.
        -11    1    1    2    0    0  0.32414697642E+02 -0.21120607640E+02  0.14262037552E+03  0.14777470759E+03  0.00000000000E+00 0. -1.
         11    1    1    2    0    0 -0.13644644168E+02 -0.70067770858E+02  0.61012270296E+02  0.93905090140E+02  0.00000000000E+00 0.  1.
</event>
<event>
 7    1  0.2594791E-009  0.1211192E+03  0.7561462E-02  0.1241262E+00
         -2   -1    0    0    0  501 -0.00000000000E+00  0.00000000000E+00  0.32231494635E+02  0.32231494635E+02  0.00000000000E+00 0.  1.
          2   -1    0    0  501    0  0.00000000000E+00 -0.00000000000E+00 -0.61889134871E+03  0.61889134871E+03  0.00000000000E+00 0. -1.
         25    2    1    2    0    0 -0.37807287330E+02  0.82359246250E+02 -0.32772288467E+03  0.36230209183E+03  0.12509228670E+03 0.  0.
          5    1    3    3  502    0 -0.43510522635E+02  0.11152044520E+03 -0.22019148600E+03  0.25066259829E+03  0.41800000000E+01 0. -1.
         -5    1    3    3    0  502  0.57032353049E+01 -0.29161198951E+02 -0.10753139867E+03  0.11163949354E+03  0.41800000000E+01 0. -1.
        -11    1    1    2    0    0  0.24730738122E+02 -0.32117652373E+02 -0.21717714220E+02  0.45987086371E+02  0.00000000000E+00 0.  1.
         11    1    1    2    0    0  0.13076549208E+02 -0.50241593878E+02 -0.23721925519E+03  0.24283366514E+03  0.00000000000E+00 0. -1.
</event>
<event>
 7    1  0.2812631E-009  0.1620893E+03  0.7561462E-02  0.1186358E+00
          1   -1    0    0  501    0  0.00000000000E+00  0.00000000000E+00  0.87449894809E+03  0.87449894809E+03  0.00000000000E+00 0. -1.
         -1   -1    0    0    0  501 -0.00000000000E+00 -0.00000000000E+00 -0.51110307761E+02  0.51110307761E+02  0.00000000000E+00 0.  1.
         25    2    1    2    0    0  0.14166998942E+03 -0.40331899035E+02  0.19778834995E+03  0.27652425484E+03  0.12509350165E+03 0.  0.
          5    1    3    3  502    0  0.83954706900E+02 -0.24791943633E+01  0.18894405092E+03  0.20681360205E+03  0.41800000000E+01 0. -1.
         -5    1    3    3    0  502  0.57715282517E+02 -0.37852704671E+02  0.88442990371E+01  0.69710652790E+02  0.41800000000E+01 0. -1.
        -11    1    1    2    0    0 -0.98241069384E+02  0.67966568142E+02  0.38805805560E+03  0.40602932974E+03  0.00000000000E+00 0.  1.
         11    1    1    2    0    0 -0.43428920033E+02 -0.27634669107E+02  0.23754223478E+03  0.24305567127E+03  0.00000000000E+00 0. -1.
</event>
<event>
 7    1  0.2594791E-009  0.1152594E+03  0.7561462E-02  0.1251129E+00
         -2   -1    0    0    0  501 -0.00000000000E+00  0.00000000000E+00  0.15954604024E+03  0.15954604024E+03  0.00000000000E+00 0.  1.
          2   -1    0    0  501    0  0.00000000000E+00 -0.00000000000E+00 -0.14318695430E+03  0.14318695430E+03  0.00000000000E+00 0. -1.
         25    2    1    2    0    0 -0.10402738279E+03 -0.11790058118E+02  0.18948872881E+02  0.16421586874E+03  0.12508832849E+03 0.  0.
          5    1    3    3  502    0 -0.10652257396E+03 -0.13480343047E+02 -0.32693493263E+02  0.11231703038E+03  0.41800000000E+01 0.  1.
         -5    1    3    3    0  502  0.24951911748E+01  0.16902849286E+01  0.51642366144E+02  0.51898838359E+02  0.41800000000E+01 0.  1.
        -11    1    1    2    0    0  0.57953952112E+02 -0.20694842750E+02 -0.37638642146E+02  0.72136013644E+02  0.00000000000E+00 0. -1.
         11    1    1    2    0    0  0.46073430677E+02  0.32484900868E+02  0.35048855204E+02  0.66381112147E+02  0.00000000000E+00 0.  1.
</event>
<event>
 7    1  0.2594791E-009  0.9608153E+02  0.7561462E-02  0.1288759E+00
          2   -1    0    0  501    0  0.00000000000E+00  0.00000000000E+00  0.26167867586E+03  0.26167867586E+03  0.00000000000E+00 0. -1.
         -2   -1    0    0    0  501 -0.00000000000E+00 -0.00000000000E+00 -0.48031003314E+02  0.48031003314E+02  0.00000000000E+00 0.  1.
         25    2    1    2    0    0 -0.51359724046E+01  0.20620091421E+02  0.14855640138E+03  0.19536490117E+03  0.12508746474E+03 0.  0.
          5    1    3    3  502    0 -0.58981219863E+02  0.37794662048E+02  0.84334742183E+02  0.10971345366E+03  0.41800000000E+01 0. -1.
         -5    1    3    3    0  502  0.53845247458E+02 -0.17174570628E+02  0.64221659197E+02  0.85651447507E+02  0.41800000000E+01 0. -1.
        -11    1    1    2    0    0  0.45775600545E+00 -0.42721268333E+02  0.77554601116E+02  0.88543957800E+02  0.00000000000E+00 0.  1.
         11    1    1    2    0    0  0.46782163992E+01  0.22101176912E+02 -0.12463329953E+02  0.25800820201E+02  0.00000000000E+00 0. -1.
</event>
<event>
 7    1  0.2594791E-009  0.1138662E+03  0.7561462E-02  0.1253573E+00
          1   -1    0    0  501    0  0.00000000000E+00  0.00000000000E+00  0.47389725195E+03  0.47389725195E+03  0.00000000000E+00 0. -1.
         -1   -1    0    0    0  501 -0.00000000000E+00 -0.00000000000E+00 -0.41689869093E+02  0.41689869093E+02  0.00000000000E+00 0.  1.
         25    2    1    2    0    0 -0.13098046922E+02  0.71673907605E+02  0.33882963333E+03  0.36845856410E+03  0.12508990834E+03 0.  0.
          5    1    3    3  502    0 -0.31871858820E+02 -0.16717868720E+02  0.19651582654E+03  0.19982803857E+03  0.41800000000E+01 0.  1.
         -5    1    3    3    0  502  0.18773811898E+02  0.88391776326E+02  0.14231380679E+03  0.16863052552E+03  0.41800000000E+01 0.  1.
        -11    1    1    2    0    0 -0.28948734234E+02 -0.25349157442E+02  0.70868905543E+02  0.80641247322E+02  0.00000000000E+00 0. -1.
         11    1    1    2    0    0  0.42046781156E+02 -0.46324750163E+02  0.22508843980E+02  0.66487309620E+02  0.00000000000E+00 0.  1.
</event>
<event>
 7    1  0.2594791E-009  0.9614039E+02  0.7561462E-02  0.1288628E+00
          2   -1    0    0  501    0  0.00000000000E+00  0.00000000000E+00  0.11587733721E+03  0.11587733721E+03  0.00000000000E+00 0. -1.
         -2   -1    0    0    0  501 -0.00000000000E+00 -0.00000000000E+00 -0.11657829929E+03  0.11657829929E+03  0.00000000000E+00 0.  1.
         25    2    1    2    0    0  0.45313030005E+02 -0.52297114417E+01 -0.10570459316E+02  0.13356723048E+03  0.12509136612E+03 0.  0.
          5    1    3    3  502    0  0.41122463962E+02  0.35745683232E+02 -0.51686896235E+02  0.75218472162E+02  0.41800000000E+01 0.  1.
         -5    1    3    3    0  502  0.41905660435E+01 -0.40975394674E+02  0.41116436919E+02  0.58348758319E+02  0.41800000000E+01 0.  1.
        -11    1    1    2    0    0 -0.30766234669E+02 -0.38998955738E+02  0.15389051529E+02  0.52002910028E+02  0.00000000000E+00 0. -1.
         11    1    1    2    0    0 -0.14546795336E+02  0.44228667180E+02 -0.55195542903E+01  0.46885495994E+02  0.00000000000E+00 0.  1.
</event>
<event>
 7    1  0.2594791E-009  0.9875797E+02  0.7561462E-02  0.1282930E+00
         -4   -1    0    0    0  501 -0.00000000000E+00  0.00000000000E+00  0.80422957022E+02  0.80422957022E+02  0.00000000000E+00 0.  1.
          4   -1    0    0  501    0  0.00000000000E+00 -0.00000000000E+00 -0.18022930478E+03  0.18022930478E+03  0.00000000000E+00 0. -1.
         25    2    1    2    0    0  0.48917741266E+02 -0.17015794768E+02 -0.61023232805E+02  0.14847981676E+03  0.12505973917E+03 0.  0.
          5    1    3    3  502    0  0.58313530813E+02 -0.48064405309E+02 -0.80436311705E+02  0.11044513377E+03  0.41800000000E+01 0.  1.
         -5    1    3    3    0  502 -0.93957895470E+01  0.31048610541E+02  0.19413078900E+02  0.38034682989E+02  0.41800000000E+01 0.  1.
        -11    1    1    2    0    0  0.18926602409E+02  0.84994274874E+01  0.14646388338E+02  0.25396323311E+02  0.00000000000E+00 0.  1.
         11    1    1    2    0    0 -0.67844343675E+02  0.85163672810E+01 -0.53429503289E+02  0.86776121727E+02  0.00000000000E+00 0. -1.
</event>
<event>
 7    1  0.2594791E-009  0.1384281E+03  0.7561462E-02  0.1215460E+00
         -1   -1    0    0    0  501 -0.00000000000E+00  0.00000000000E+00  0.32208549226E+03  0.32208549226E+03  0.00000000000E+00 0.  1.
          1   -1    0    0  501    0  0.00000000000E+00 -0.00000000000E+00 -0.84520163609E+02  0.84520163609E+02  0.00000000000E+00 0. -1.
         25    2    1    2    0    0 -0.11340191614E+03 -0.46273801854E+02  0.10871165464E+03  0.20607564822E+03  0.12509072552E+03 0.  0.
          5    1    3    3  502    0 -0.10319266223E+03 -0.16918469486E+02  0.13094969605E+03  0.16763130807E+03  0.41800000000E+01 0. -1.
         -5    1    3    3    0  502 -0.10209253909E+02 -0.29355332367E+02 -0.22238041413E+02  0.38444340151E+02  0.41800000000E+01 0. -1.
        -11    1    1    2    0    0  0.23516626822E+01  0.28239831520E+02 -0.14537235004E+01  0.28374842971E+02  0.00000000000E+00 0. -1.
         11    1    1    2    0    0  0.11105025346E+03  0.18033970334E+02  0.13030739751E+03  0.17215516468E+03  0.00000000000E+00 0.  1.
</event>
<event>
 7    1  0.2594791E-009  0.1000512E+03  0.7561462E-02  0.1280188E+00
          1   -1    0    0  501    0  0.00000000000E+00  0.00000000000E+00  0.18087447158E+03  0.18087447158E+03  0.00000000000E+00 0. -1.
         -1   -1    0    0    0  501 -0.00000000000E+00 -0.00000000000E+00 -0.13436775791E+03  0.13436775791E+03  0.00000000000E+00 0.  1.
         25    2    1    2    0    0 -0.84207529460E+02  0.82226346828E+01  0.10070101634E+03  0.18151422457E+03  0.12509276274E+03 0.  0.
          5    1    3    3  502    0 -0.83496702516E+02  0.93269357893E+01  0.34772415300E+01  0.84191773179E+02  0.41800000000E+01 0.  1.
         -5    1    3    3    0  502 -0.71082694413E+00 -0.11043011065E+01  0.97223774810E+02  0.97322451388E+02  0.41800000000E+01 0.  1.
        -11    1    1    2    0    0  0.25723774478E+02  0.31674748434E+02  0.54359794906E+01  0.41164938173E+02  0.00000000000E+00 0. -1.
         11    1    1    2    0    0  0.58483754983E+02 -0.39897383117E+02 -0.59630282158E+02  0.92563066753E+02  0.00000000000E+00 0.  1.
</event>
<event>
 7    1  0.2594791E-009  0.1079457E+03  0.7561462E-02  0.1264422E+00
          1   -1    0    0  501    0  0.00000000000E+00  0.00000000000E+00  0.75890789334E+02  0.75890789334E+02  0.00000000000E+00 0. -1.
         -1   -1    0    0    0  501 -0.00000000000E+00 -0.00000000000E+00 -0.30095385741E+03  0.30095385741E+03  0.00000000000E+00 0.  1.
         25    2    1    2    0    0  0.76041096879E+01 -0.67296005809E+02 -0.23651005947E+03  0.27599093274E+03  0.12508961523E+03 0.  0.
          5    1    3    3  502    0  0.24835092519E+02  0.30706119960E+02 -0.44185141577E+02  0.59409147104E+02  0.41800000000E+01 0. -1.
         -5    1    3    3    0  502 -0.17230982831E+02 -0.98002125769E+02 -0.19232491790E+03  0.21658178563E+03  0.41800000000E+01 0. -1.
        -11    1    1    2    0    0 -0.20906573921E+02  0.26985300658E+02 -0.27045099725E+02  0.43551448930E+02  0.00000000000E+00 0.  1.
         11    1    1    2    0    0  0.13302464233E+02  0.40310705151E+02  0.38492091120E+02  0.57302265079E+02  0.00000000000E+00 0. -1.
</event>
<event>
 7    1  0.2594791E-009  0.3486141E+03  0.7561462E-02  0.1063185E+00
          2   -1    0    0  501    0  0.00000000000E+00  0.00000000000E+00  0.77518954528E+03  0.77518954528E+03  0.00000000000E+00 0. -1.
         -2   -1    0    0    0  501 -0.00000000000E+00 -0.00000000000E+00 -0.24723527530E+03  0.24723527530E+03  0.00000000000E+00 0.  1.
         25    2    1    2    0    0 -0.18151361609E+03  0.28350487795E+03  0.56703443577E+03  0.67119151335E+03  0.12509111718E+03 0.  0.
          5    1    3    3  502    0 -0.13184405190E+03  0.10966083998E+03  0.21163553881E+03  0.27242508609E+03  0.41800000000E+01 0. -1.
         -5    1    3    3    0  502 -0.49669564187E+02  0.17384403798E+03  0.35539889696E+03  0.39876642726E+03  0.41800000000E+01 0. -1.
        -11    1    1    2    0    0  0.79072372848E+01 -0.66349277493E+02 -0.29516534519E+02  0.73047770913E+02  0.00000000000E+00 0.  1.
         11    1    1    2    0    0  0.17360637880E+03 -0.21715560046E+03 -0.95636312765E+01  0.27818553632E+03  0.00000000000E+00 0. -1.
</event>
<event>
 7    1  0.2594791E-009  0.1455633E+03  0.7561462E-02  0.1206033E+00
         -2   -1    0    0    0  501 -0.00000000000E+00  0.00000000000E+00  0.11658708840E+03  0.11658708840E+03  0.00000000000E+00 0.  1.
          2   -1    0    0  501    0  0.00000000000E+00 -0.00000000000E+00 -0.21537662663E+03  0.21537662663E+03  0.00000000000E+00 0. -1.
         25    2    1    2    0    0  0.79401904895E+00  0.10702754875E+03 -0.26499373653E+01  0.16465224955E+03  0.12509122454E+03 0.  0.
          5    1    3    3  502    0 -0.57739542474E+02  0.23500596218E+02 -0.33647683571E+01  0.62569376325E+02  0.41800000000E+01 0. -1.
         -5    1    3    3    0  502  0.58533561523E+02  0.83526952528E+02  0.71483099187E+00  0.10208287323E+03  0.41800000000E+01 0. -1.
        -11    1    1    2    0    0 -0.32475568634E+02 -0.73941642580E+02 -0.28541451922E+02  0.85654209140E+02  0.00000000000E+00 0.  1.
         11    1    1    2    0    0  0.31681549585E+02 -0.33085906166E+02 -0.67598148949E+02  0.81657256336E+02  0.00000000000E+00 0. -1.
</event>
<event>
 7    1  0.2594791E-009  0.2092223E+03  0.7561462E-02  0.1142183E+00
          1   -1    0    0  501    0  0.00000000000E+00  0.00000000000E+00  0.48980876033E+02  0.48980876033E+02  0.00000000000E+00 0. -1.
         -1   -1    0    0    0  501 -0.00000000000E+00 -0.00000000000E+00 -0.10953663196E+04  0.10953663196E+04  0.00000000000E+00 0.  1.
         25    2    1    2    0    0  0.18847169454E+03  0.73325758524E+02 -0.52362632311E+03  0.57509202621E+03  0.12509222937E+03 0.  0.
          5    1    3    3  502    0  0.71891920514E+02  0.48409723091E+02 -0.37296262494E+03  0.38292367585E+03  0.41800000000E+01 0.  1.
         -5    1    3    3    0  502  0.11657977402E+03  0.24916035433E+02 -0.15066369818E+03  0.19216835036E+03  0.41800000000E+01 0.  1.
        -11    1    1    2    0    0 -0.25870462412E+01 -0.18365865705E+02 -0.99802321266E+01  0.21061881793E+02  0.00000000000E+00 0. -1.
         11    1    1    2    0    0 -0.18588464830E+03 -0.54959892819E+02 -0.51277888835E+03  0.54819328765E+03  0.00000000000E+00 0.  1.
</event>
<event>
 7    1  0.2594791E-009  0.8087377E+02  0.7561462E-02  0.1326590E+00
         -3   -1    0    0    0  501 -0.00000000000E+00  0.00000000000E+00  0.97158667715E+02  0.97158667715E+02  0.00000000000E+00 0.  1.
          3   -1    0    0  501    0  0.00000000000E+00 -0.00000000000E+00 -0.14173733726E+03  0.14173733726E+03  0.00000000000E+00 0. -1.
         25    2    1    2    0    0 -0.42840728211E+02  0.14847673534E+02 -0.22840922633E+02  0.13500057699E+03  0.12509063369E+03 0.  0.
          5    1    3    3  502    0 -0.42984661528E+02  0.29420387641E+02  0.42852768351E+02  0.67580119052E+02  0.41800000000E+01 0.  1.
         -5    1    3    3    0  502  0.14393331706E+00 -0.14572714108E+02 -0.65693690984E+02  0.67420457937E+02  0.41800000000E+01 0.  1.
        -11    1    1    2    0    0 -0.24443419401E+02 -0.11364245422E+02  0.10845332838E+02  0.29055947246E+02  0.00000000000E+00 0.  1.
         11    1    1    2    0    0  0.67284147612E+02 -0.34834281118E+01 -0.32583079746E+02  0.74839480737E+02  0.00000000000E+00 0. -1.
</event>
<event>
 7    1  0.2594791E-009  0.1284438E+03  0.7561462E-02  0.1229783E+00
         -2   -1    0    0    0  501 -0.00000000000E+00  0.00000000000E+00  0.27536745364E+03  0.27536745364E+03  0.00000000000E+00 0.  1.
          2   -1    0    0  501    0  0.00000000000E+00 -0.00000000000E+00 -0.63436873433E+02  0.63436873433E+02  0.00000000000E+00 0. -1.
         25    2    1    2    0    0 -0.74731590534E+02  0.10096168152E+02  0.12572748162E+03  0.19272132807E+03  0.12508943770E+03 0.  0.
          5    1    3    3  502    0 -0.95134856321E+02 -0.29595219808E+02  0.99088037939E+02  0.14057890875E+03  0.41800000000E+01 0. -1.
         -5    1    3    3    0  502  0.20403265787E+02  0.39691387960E+02  0.26639443685E+02  0.52142419323E+02  0.41800000000E+01 0. -1.
        -11    1    1    2    0    0  0.32995334581E+02  0.36893465160E+02  0.60537237342E+02  0.78195760631E+02  0.00000000000E+00 0. -1.
         11    1    1    2    0    0  0.41736255954E+02 -0.46989633313E+02  0.25665861237E+02  0.67887238366E+02  0.00000000000E+00 0.  1.
</event>
<event>
 7    1  0.2594791E-009  0.6681903E+02  0.7561462E-02  0.1371257E+00
          1   -1    0    0  501    0  0.00000000000E+00  0.00000000000E+00  0.79162193192E+02  0.79162193192E+02  0.00000000000E+00 0. -1.
         -1   -1    0    0    0  501 -0.00000000000E+00 -0.00000000000E+00 -0.19734592041E+03  0.19734592041E+03  0.00000000000E+00 0.  1.
         25    2    1    2    0    0  0.39547221036E+00 -0.35291870592E+02 -0.12087014739E+03  0.17749503736E+03  0.12509685540E+03 0.  0.
          5    1    3    3  502    0 -0.22869765046E+02 -0.31869492789E+02 -0.14090352549E+03  0.14632144962E+03  0.41800000000E+01 0. -1.
         -5    1    3    3    0  502  0.23265237257E+02 -0.34223778032E+01  0.20033378102E+02  0.31173587741E+02  0.41800000000E+01 0. -1.
        -11    1    1    2    0    0  0.29361202198E+02  0.93090805298E+01  0.35970713017E+02  0.47356429022E+02  0.00000000000E+00 0. -1.
         11    1    1    2    0    0 -0.29756674408E+02  0.25982790062E+02 -0.33284292839E+02  0.51656647211E+02  0.00000000000E+00 0.  1.
</event>
<event>
 7    1  0.2594791E-009  0.9821277E+02  0.7561462E-02  0.1284100E+00
          2   -1    0    0  501    0  0.00000000000E+00  0.00000000000E+00  0.60381411919E+03  0.60381411919E+03  0.00000000000E+00 0. -1.
         -2   -1    0    0    0  501 -0.00000000000E+00 -0.00000000000E+00 -0.37831950554E+02  0.37831950554E+02  0.00000000000E+00 0.  1.
         25    2    1    2    0    0  0.78548522237E+02 -0.15863065669E+02  0.46074300158E+03  0.48409987575E+03  0.12508824485E+03 0.  0.
          5    1    3    3  502    0  0.62480200525E+02 -0.25216226954E+02  0.88196571522E+02  0.11106638190E+03  0.41800000000E+01 0.  1.
         -5    1    3    3    0  502  0.16068321711E+02  0.93531612846E+01  0.37254643006E+03  0.37303349386E+03  0.41800000000E+01 0.  1.
        -11    1    1    2    0    0  0.14286697695E+02  0.87550237967E+01  0.41380808070E+02  0.44644500773E+02  0.00000000000E+00 0.  1.
         11    1    1    2    0    0 -0.92835219931E+02  0.71080418724E+01  0.63858358980E+02  0.11290169321E+03  0.00000000000E+00 0. -1.
</event>
<event>
 7    1  0.2594791E-009  0.1071555E+03  0.7561462E-02  0.1265930E+00
          1   -1    0    0  501    0  0.00000000000E+00  0.00000000000E+00  0.49762344344E+03  0.49762344344E+03  0.00000000000E+00 0. -1.
         -1   -1    0    0    0  501 -0.00000000000E+00 -0.00000000000E+00 -0.26653062490E+02  0.26653062490E+02  0.00000000000E+00 0.  1.
         25    2    1    2    0    0 -0.17425554574E+02  0.48728515828E+01  0.33725622194E+03  0.36017048613E+03  0.12511444842E+03 0.  0.
          5    1    3    3  502    0  0.33708212050E+02 -0.39544623540E+02  0.20495591431E+03  0.21148148860E+03  0.41800000000E+01 0. -1.
         -5    1    3    3    0  502 -0.51133766624E+02  0.44417475123E+02  0.13230030763E+03  0.14868899753E+03  0.41800000000E+01 0. -1.
        -11    1    1    2    0    0 -0.31925001800E+02  0.21379269561E+02  0.44131165255E+02  0.58513576661E+02  0.00000000000E+00 0.  1.
         11    1    1    2    0    0  0.49350556374E+02 -0.26252121143E+02  0.89582993756E+02  0.10559244314E+03  0.00000000000E+00 0. -1.
</event>
<event>
 7    1  0.2594791E-009  0.1920744E+03  0.7561462E-02  0.1156604E+00
         -2   -1    0    0    0  501 -0.00000000000E+00  0.00000000000E+00  0.11792200620E+03  0.11792200620E+03  0.00000000000E+00 0.  1.
          2   -1    0    0  501    0  0.00000000000E+00 -0.00000000000E+00 -0.44209615272E+03  0.44209615272E+03  0.00000000000E+00 0. -1.
         25    2    1    2    0    0 -0.15704174041E+03  0.30519118562E+02 -0.19596021713E+02  0.20401798841E+03  0.12508321509E+03 0.  0.
          5    1    3    3  502    0 -0.26962806612E+02  0.61681031611E+02 -0.19443822647E+02  0.70193142400E+02  0.41800000000E+01 0.  1.
         -5    1    3    3    0  502 -0.13007893380E+03 -0.31161913049E+02 -0.15219906626E+00  0.13382484601E+03  0.41800000000E+01 0.  1.
        -11    1    1    2    0    0  0.15931269547E+03 -0.72284574958E+01 -0.27876728041E+03  0.32116036829E+03  0.00000000000E+00 0. -1.
         11    1    1    2    0    0 -0.22709550554E+01 -0.23290661066E+02 -0.25810844398E+02  0.34839802214E+02  0.00000000000E+00 0.  1.
</event>
<event>
 7    1  0.2594791E-009  0.1088866E+03  0.7561462E-02  0.1262646E+00
          2   -1    0    0  501    0  0.00000000000E+00  0.00000000000E+00  0.28270455597E+03  0.28270455597E+03  0.00000000000E+00 0. -1.
         -2   -1    0    0    0  501 -0.00000000000E+00 -0.00000000000E+00 -0.87710941383E+02  0.87710941383E+02  0.00000000000E+00 0.  1.
         25    2    1    2    0    0  0.46943260616E+02  0.40929497702E+02  0.21875473811E+03  0.25957833909E+03  0.12509350575E+03 0.  0.
          5    1    3    3  502    0  0.56464078725E+02 -0.23626856205E+02  0.51865057313E+02  0.80336026106E+02  0.41800000000E+01 0.  1.
         -5    1    3    3    0  502 -0.95208181096E+01  0.64556353907E+02  0.16688968080E+03  0.17924231299E+03  0.41800000000E+01 0.  1.
        -11    1    1    2    0    0  0.11053432135E+02 -0.30059965627E+02  0.19656195050E+02  0.37578529765E+02  0.00000000000E+00 0. -1.
         11    1    1    2    0    0 -0.57996692751E+02 -0.10869532075E+02 -0.43417318572E+02  0.73258628499E+02  0.00000000000E+00 0.  1.
</event>
<event>
 7    1  0.2594791E-009  0.1057972E+03  0.7561462E-02  0.1268557E+00
          1   -1    0    0  501    0  0.00000000000E+00  0.00000000000E+00  0.10319537758E+03  0.10319537758E+03  0.00000000000E+00 0. -1.
         -1   -1    0    0    0  501 -0.00000000000E+00 -0.00000000000E+00 -0.25054901011E+03  0.25054901011E+03  0.00000000000E+00 0.  1.
         25    2    1    2    0    0  0.40915861000E+02 -0.37890843127E+02  0.35245758263E+02  0.14142176533E+03  0.12509208032E+03 0.  0.
          5    1    3    3  502    0  0.82538375731E+02 -0.24211037048E+02  0.43753703214E+02  0.96595117518E+02  0.41800000000E+01 0. -1.
         -5    1    3    3    0  502 -0.41622514732E+02 -0.13679806079E+02 -0.85079449512E+01  0.44826647814E+02  0.41800000000E+01 0. -1.
        -11    1    1    2    0    0 -0.52763941847E+02  0.13676839272E+02 -0.17644397471E+03  0.18467150756E+03  0.00000000000E+00 0.  1.
         11    1    1    2    0    0  0.11848080847E+02  0.24214003855E+02 -0.61554160851E+01  0.27651114799E+02  0.00000000000E+00 0. -1.
</event>
<event>
 7    1  0.2594791E-009  0.8620863E+02  0.7561462E-02  0.1312302E+00
          2   -1    0    0  501    0  0.00000000000E+00  0.00000000000E+00  0.62420864820E+03  0.62420864820E+03  0.00000000000E+00 0. -1.
         -2   -1    0    0    0  501 -0.00000000000E+00 -0.00000000000E+00 -0.52239754873E+02  0.52239754873E+02  0.00000000000E+00 0.  1.
         25    2    1    2    0    0 -0.48418239989E+01 -0.23695681323E+02  0.57025760319E+03  0.58431627039E+03  0.12508733460E+03 0.  0.
          5    1    3    3  502    0  0.59284192692E+01 -0.51362643544E+02  0.53715595867E+03  0.53965476338E+03  0.41800000000E+01 0. -1.
         -5    1    3    3    0  502 -0.10770243268E+02  0.27666962221E+02  0.33101644526E+02  0.44661507016E+02  0.41800000000E+01 0. -1.
        -11    1    1    2    0    0 -0.20885482894E+02 -0.26748609555E+02 -0.75165337369E+01  0.34759024559E+02  0.00000000000E+00 0.  1.
         11    1    1    2    0    0  0.25727306893E+02  0.50444290878E+02  0.92278238733E+01  0.57373108122E+02  0.00000000000E+00 0. -1.
</event>
<event>
 6    1  0.2594791E-009  0.7047998E+02  0.7561462E-02  0.1358468E+00
         -1   -1    0    0    0  501 -0.00000000000E+00  0.00000000000E+00  0.28262848189E+03  0.28262848189E+03  0.00000000000E+00 0.  1.
          1   -1    0    0  501    0  0.00000000000E+00 -0.00000000000E+00 -0.58371435137E+02  0.58371435137E+02  0.00000000000E+00 0. -1.
          5    1    1    2  502    0 -0.17224454967E+02 -0.31806365348E+02  0.20914543704E+03  0.21229133981E+03  0.41800000000E+01 0.  1.
         -5    1    1    2    0  502 -0.14669815316E+02  0.20616070840E+02 -0.80706059942E+01  0.26885552615E+02  0.41800000000E+01 0.  1.
        -11    1    1    2    0    0  0.30696835467E+02  0.39803007929E+02 -0.16484333090E+02  0.52899039550E+02  0.00000000000E+00 0. -1.
         11    1    1    2    0    0  0.11974348158E+01 -0.28612713421E+02  0.39666548799E+02  0.48923985048E+02  0.00000000000E+00 0.  1.
</event>
<event>
 7    1  0.2594791E-009  0.1204668E+03  0.7561462E-02  0.1242329E+00
          1   -1    0    0  501    0  0.00000000000E+00  0.00000000000E+00  0.11379787407E+03  0.11379787407E+03  0.00000000000E+00 0. -1.
         -1   -1    0    0    0  501 -0.00000000000E+00 -0.00000000000E+00 -0.13895218912E+03  0.13895218912E+03  0.00000000000E+00 0.  1.
         25    2    1    2    0    0  0.54551774679E+02 -0.36491935670E+02 -0.90066064680E+01  0.14155179651E+03  0.12509290406E+03 0.  0.
          5    1    3    3  502    0  0.28256680386E+02 -0.79929390769E+02  0.13333479232E+02  0.85920902949E+02  0.41800000000E+01 0.  1.
         -5    1    3    3    0  502  0.26295094293E+02  0.43437455099E+02 -0.22340085700E+02  0.55630893562E+02  0.41800000000E+01 0.  1.
        -11    1    1    2    0    0 -0.15754784405E+02  0.58442752534E+02 -0.25449870097E+02  0.65661742616E+02  0.00000000000E+00 0.  1.
         11    1    1    2    0    0 -0.38796990274E+02 -0.21950816865E+02  0.93021615130E+01  0.45536524068E+02  0.00000000000E+00 0. -1.
</event>
<event>
 7    1  0.2594791E-009  0.8349152E+02  0.7561462E-02  0.1319425E+00
         -1   -1    0    0    0  501 -0.00000000000E+00  0.00000000000E+00  0.26952517090E+02  0.26952517090E+02  0.00000000000E+00 0.  1.
          1   -1    0    0  501    0  0.00000000000E+00 -0.00000000000E+00 -0.61767603496E+03  0.61767603496E+03  0.00000000000E+00 0. -1.
         25    2    1    2    0    0  0.49757916344E+02  0.45344156888E+02 -0.27054924107E+03  0.30557483714E+03  0.12508855440E+03 0.  0.
          5    1    3    3  502    0 -0.70389693968E+01  0.12740963576E+02  0.95414461213E+01  0.17899464715E+02  0.41800000000E+01 0. -1.
         -5    1    3    3    0  502  0.56796885741E+02  0.32603193312E+02 -0.28009068720E+03  0.28767537242E+03  0.41800000000E+01 0. -1.
        -11    1    1    2    0    0 -0.99550322207E+01 -0.45333009378E+02 -0.27481567092E+03  0.27870744050E+03  0.00000000000E+00 0. -1.
         11    1    1    2    0    0 -0.39802884123E+02 -0.11147509975E-01 -0.45358605871E+02  0.60346274412E+02  0.00000000000E+00 0.  1.
</event>
<event>
 7    1  0.2594791E-009  0.7650899E+02  0.7561462E-02  0.1339261E+00
          4   -1    0    0  501    0  0.00000000000E+00  0.00000000000E+00  0.23116503075E+03  0.23116503075E+03  0.00000000000E+00 0. -1.
         -4   -1    0    0    0  501 -0.00000000000E+00 -0.00000000000E+00 -0.52877851395E+02  0.52877851395E+02  0.00000000000E+00 0.  1.
         25    2    1    2    0    0  0.65399912669E+01  0.11664427532E+02  0.12641800515E+03  0.17834532284E+03  0.12508681704E+03 0.  0.
          5    1    3    3  502    0  0.25898350536E+02 -0.47636948095E+02  0.92277227148E+02  0.10711004824E+03  0.41800000000E+01 0.  1.
         -5    1    3    3    0  502 -0.19358359269E+02  0.59301375627E+02  0.34140778002E+02  0.71235274601E+02  0.41800000000E+01 0.  1.
        -11    1    1    2    0    0  0.13410536551E+02 -0.88937181516E+00  0.73285717543E+02  0.74507918160E+02  0.00000000000E+00 0. -1.
         11    1    1    2    0    0 -0.19950527818E+02 -0.10775055717E+02 -0.21416543339E+02  0.31189641141E+02  0.00000000000E+00 0.  1.
</event>
<event>
 7    1  0.2594791E-009  0.1973531E+03  0.7561462E-02  0.1151992E+00
         -2   -1    0    0    0  501 -0.00000000000E+00  0.00000000000E+00  0.40508459287E+03  0.40508459287E+03  0.00000000000E+00 0.  1.
          2   -1    0    0  501    0  0.00000000000E+00 -0.00000000000E+00 -0.11398391566E+03  0.11398391566E+03  0.00000000000E+00 0. -1.
         25    2    1    2    0    0  0.33266362849E+02  0.17461650543E+03  0.89014465235E+02  0.23487914738E+03  0.12508822482E+03 0.  0.
          5    1    3    3  502    0  0.47861699929E+02  0.36112605104E+02  0.73105866384E+02  0.94640386026E+02  0.41800000000E+01 0. -1.
         -5    1    3    3    0  502 -0.14595337080E+02  0.13850390033E+03  0.15908598851E+02  0.14023876136E+03  0.41800000000E+01 0. -1.
        -11    1    1    2    0    0 -0.51239163013E+02 -0.16875972761E+03  0.19740569008E+03  0.26471551516E+03  0.00000000000E+00 0.  1.
         11    1    1    2    0    0  0.17972800165E+02 -0.58567778150E+01  0.46805218944E+01  0.19473845982E+02  0.00000000000E+00 0. -1.
</event>
<event>
 7    1  0.2594791E-009  0.1406774E+03  0.7561462E-02  0.1212420E+00
         -2   -1    0    0    0  501 -0.00000000000E+00  0.00000000000E+00  0.74872939468E+02  0.74872939468E+02  0.00000000000E+00 0.  1.
          2   -1    0    0  501    0  0.00000000000E+00 -0.00000000000E+00 -0.49591607850E+03  0.49591607850E+03  0.00000000000E+00 0. -1.
         25    2    1    2    0    0 -0.72891073215E+01  0.11025997937E+03 -0.39009425549E+03  0.42429612517E+03  0.12507309677E+03 0.  0.
          5    1    3    3  502    0 -0.29383878397E+02  0.12606692555E+03 -0.25026877739E+03  0.28179463331E+03  0.41800000000E+01 0. -1.
         -5    1    3    3    0  502  0.22094771075E+02 -0.15806946183E+02 -0.13982547810E+03  0.14250149186E+03  0.41800000000E+01 0. -1.
        -11    1    1    2    0    0 -0.17720947716E+02 -0.91210863653E+02  0.11547970321E+02  0.93631240806E+02  0.00000000000E+00 0.  1.
         11    1    1    2    0    0  0.25010055037E+02 -0.19049115717E+02 -0.42496853862E+02  0.52861651987E+02  0.00000000000E+00 0. -1.
</event>
<event>
 7    1  0.2594791E-009  0.9777239E+02  0.7561462E-02  0.1285051E+00
          2   -1    0    0  501    0  0.00000000000E+00  0.00000000000E+00  0.14436476601E+03  0.14436476601E+03  0.00000000000E+00 0. -1.
         -2   -1    0    0    0  501 -0.00000000000E+00 -0.00000000000E+00 -0.99988780971E+02  0.99988780971E+02  0.00000000000E+00 0.  1.
         25    2    1    2    0    0 -0.37677249596E+02 -0.33736066786E+02  0.24804820283E+02  0.13718639045E+03  0.12508848579E+03 0.  0.
          5    1    3    3  502    0 -0.62425680543E+02  0.86443206910E+00  0.56236192652E+02  0.84129035404E+02  0.41800000000E+01 0.  1.
         -5    1    3    3    0  502  0.24748430947E+02 -0.34600498855E+02 -0.31431372369E+02  0.53057355045E+02  0.41800000000E+01 0.  1.
        -11    1    1    2    0    0  0.47536233838E+02 -0.72384844665E+01 -0.17369248701E+02  0.51125140443E+02  0.00000000000E+00 0.  1.
         11    1    1    2    0    0 -0.98589842425E+01  0.40974551253E+02  0.36940413456E+02  0.56042016086E+02  0.00000000000E+00 0. -1.
</event>
<event>
 7    1  0.2594791E-009  0.9700026E+02  0.7561462E-02  0.1286734E+00
         -1   -1    0    0    0  501 -0.00000000000E+00  0.00000000000E+00  0.10334165677E+03  0.10334165677E+03  0.00000000000E+00 0.  1.
          1   -1    0    0  501    0  0.00000000000E+00 -0.00000000000E+00 -0.25087005327E+03  0.25087005327E+03  0.00000000000E+00 0. -1.
         25    2    1    2    0    0 -0.56162117109E+02 -0.28980013768E+02 -0.19468869402E+03  0.23988571603E+03  0.12508974610E+03 0.  0.
          5    1    3    3  502    0 -0.49915880679E+02 -0.58747467668E+02 -0.19441487770E+03  0.20918287973E+03  0.41800000000E+01 0.  1.
         -5    1    3    3    0  502 -0.62462364296E+01  0.29767453900E+02 -0.27381631862E+00  0.30702836296E+02  0.41800000000E+01 0.  1.
        -11    1    1    2    0    0  0.30193822965E+01 -0.16116847631E+02  0.41235592853E+02  0.44376159871E+02  0.00000000000E+00 0.  1.
         11    1    1    2    0    0  0.53142734812E+02  0.45096861399E+02  0.59247046657E+01  0.69949834144E+02  0.00000000000E+00 0. -1.
</event>
<event>
 7    1  0.2594791E-009  0.1299410E+03  0.7561462E-02  0.1227543E+00
         -2   -1    0    0    0  501 -0.00000000000E+00  0.00000000000E+00  0.65180028589E+03  0.65180028589E+03  0.00000000000E+00 0.  1.
          2   -1    0    0  501    0  0.00000000000E+00 -0.00000000000E+00 -0.56693236528E+02  0.56693236528E+02  0.00000000000E+00 0. -1.
         25    2    1    2    0    0  0.71273257541E+02 -0.29107421525E+02  0.56860719606E+03  0.58727163233E+03  0.12508679987E+03 0.  0.
          5    1    3    3  502    0  0.60476235832E+02  0.42458564604E+02  0.26630971143E+03  0.27640267656E+03  0.41800000000E+01 0.  1.
         -5    1    3    3    0  502  0.10797021709E+02 -0.71565986128E+02  0.30229748463E+03  0.31086895577E+03  0.41800000000E+01 0.  1.
        -11    1    1    2    0    0 -0.77884768411E+00 -0.24687210248E+02 -0.81615252354E+01  0.26012986136E+02  0.00000000000E+00 0.  1.
         11    1    1    2    0    0 -0.70494409856E+02  0.53794631772E+02  0.34661378531E+02  0.95208903944E+02  0.00000000000E+00 0. -1.
</event>
<event>
 7    1  0.2594791E-009  0.1010653E+03  0.7561462E-02  0.1278072E+00
          1   -1    0    0  501    0  0.00000000000E+00  0.00000000000E+00  0.67102029529E+03  0.67102029529E+03  0.00000000000E+00 0. -1.
         -1   -1    0    0    0  501 -0.00000000000E+00 -0.00000000000E+00 -0.20511952291E+02  0.20511952291E+02  0.00000000000E+00 0.  1.
         25    2    1    2    0    0  0.23617635401E+02 -0.36369248389E+02  0.38783845211E+03  0.40980919413E+03  0.12507755887E+03 0.  0.
          5    1    3    3  502    0 -0.35219940791E+02 -0.14587483354E+02  0.29620059491E+03  0.29867290424E+03  0.41800000000E+01 0. -1.
         -5    1    3    3    0  502  0.58837576191E+02 -0.21781765035E+02  0.91637857198E+02  0.11113628990E+03  0.41800000000E+01 0. -1.
        -11    1    1    2    0    0 -0.56968795217E+02  0.88280406513E+01  0.13079173987E+03  0.14293305128E+03  0.00000000000E+00 0.  1.
         11    1    1    2    0    0  0.33351159816E+02  0.27541207738E+02  0.13187815103E+03  0.13879000217E+03  0.00000000000E+00 0. -1.
</event>
<event>
 7    1  0.2594791E-009  0.1057295E+03  0.7561462E-02  0.1268689E+00
         -2   -1    0    0    0  501 -0.00000000000E+00  0.00000000000E+00  0.20992865024E+03  0.20992865024E+03  0.00000000000E+00 0.  1.
          2   -1    0    0  501    0  0.00000000000E+00 -0.00000000000E+00 -0.77226795145E+02  0.77226795145E+02  0.00000000000E+00 0. -1.
         25    2    1    2    0    0  0.47620239871E+02  0.10952105827E+02  0.12945248126E+03  0.18652925300E+03  0.12509029320E+03 0.  0.
          5    1    3    3  502    0 -0.16390977042E+02  0.50019333644E+02  0.26464932177E+02  0.59063211068E+02  0.41800000000E+01 0. -1.
         -5    1    3    3    0  502  0.64011216913E+02 -0.39067227817E+02  0.10298754908E+03  0.12746604193E+03  0.41800000000E+01 0. -1.
        -11    1    1    2    0    0  0.16209204344E+02  0.63620908714E+01 -0.23531453496E+02  0.29273602603E+02  0.00000000000E+00 0. -1.
         11    1    1    2    0    0 -0.63829444215E+02 -0.17314196698E+02  0.26780827335E+02  0.71352589784E+02  0.00000000000E+00 0.  1.
</event>
<event>
 7    1  0.2594791E-009  0.1383021E+03  0.7561462E-02  0.1215632E+00
         -1   -1    0    0    0  501 -0.00000000000E+00  0.00000000000E+00  0.41727609845E+02  0.41727609845E+02  0.00000000000E+00 0.  1.
          1   -1    0    0  501    0  0.00000000000E+00 -0.00000000000E+00 -0.75543692306E+03  0.75543692306E+03  0.00000000000E+00 0. -1.
         25    2    1    2    0    0 -0.73714159345E+02  0.11436024870E+03 -0.30094011603E+03  0.35316278220E+03  0.12508778327E+03 0.  0.
          5    1    3    3  502    0 -0.31895365760E+02  0.24484529958E+02 -0.22397428400E+03  0.22759340689E+03  0.41800000000E+01 0.  1.
         -5    1    3    3    0  502 -0.41818793585E+02  0.89875718743E+02 -0.76965832024E+02  0.12556937531E+03  0.41800000000E+01 0.  1.
        -11    1    1    2    0    0  0.22262525816E+02 -0.22370658051E+02 -0.20064961292E+02  0.37398784325E+02  0.00000000000E+00 0.  1.
         11    1    1    2    0    0  0.51451633529E+02 -0.91989590650E+02 -0.39270423590E+03  0.40660296639E+03  0.00000000000E+00 0. -1.
</event>
<event>
 7    1  0.5316225E-009  0.1216734E+03  0.7561462E-02  0.1240362E+00
         -2   -1    0    0    0  501 -0.00000000000E+00  0.00000000000E+00  0.50649657490E+02  0.50649657490E+02  0.00000000000E+00 0.  1.
          2   -1    0    0  501    0  0.00000000000E+00 -0.00000000000E+00 -0.56134217333E+03  0.56134217333E+03  0.00000000000E+00 0. -1.
         25    2    1    2    0    0 -0.48032897685E+01  0.11248935521E+03 -0.15978606288E+03  0.23206834406E+03  0.12508878366E+03 0.  0.
          5    1    3    3  502    0  0.31258165193E+01  0.11972318589E+02  0.21170154613E+02  0.24874786183E+02  0.41800000000E+01 0.  1.
         -5    1    3    3    0  502 -0.79291062878E+01  0.10051703662E+03 -0.18095621749E+03  0.20719355788E+03  0.41800000000E+01 0.  1.
        -11    1    1    2    0    0  0.24423389971E+02 -0.12428186647E+02 -0.20731677768E+02  0.34362250568E+02  0.00000000000E+00 0.  1.
         11    1    1    2    0    0 -0.19620100202E+02 -0.10006116856E+03 -0.33017477519E+03  0.34556123619E+03  0.00000000000E+00 0. -1.
</event>
<event>
 7    1  0.2594791E-009  0.1308274E+03  0.7561462E-02  0.1226233E+00
         -2   -1    0    0    0  501 -0.00000000000E+00  0.00000000000E+00  0.57116663856E+02  0.57116663856E+02  0.00000000000E+00 0.  1.
          2   -1    0    0  501    0  0.00000000000E+00 -0.00000000000E+00 -0.34728702546E+03  0.34728702546E+03  0.00000000000E+00 0. -1.
         25    2    1    2    0    0  0.20187581737E+02 -0.87348238859E+02 -0.16621040497E+03  0.22651812354E+03  0.12508920131E+03 0.  0.
          5    1    3    3  502    0  0.42673990894E+02 -0.10550180983E+03 -0.90793570567E+02  0.14564561865E+03  0.41800000000E+01 0.  1.
         -5    1    3    3    0  502 -0.22486409157E+02  0.18153570970E+02 -0.75416834405E+02  0.80872504891E+02  0.41800000000E+01 0.  1.
        -11    1    1    2    0    0 -0.49629938590E+02  0.64041815461E+02 -0.50740128563E+02  0.95598355522E+02  0.00000000000E+00 0.  1.
         11    1    1    2    0    0  0.29442356853E+02  0.23306423397E+02 -0.73219828065E+02  0.82287210248E+02  0.00000000000E+00 0. -1.
</event>
<event>
 7    1  0.2594791E-009  0.8072668E+02  0.7561462E-02  0.1327002E+00
          1   -1    0    0  501    0  0.00000000000E+00  0.00000000000E+00  0.28056443119E+03  0.28056443119E+03  0.00000000000E+00 0. -1.
         -1   -1    0    0    0  501 -0.00000000000E+00 -0.00000000000E+00 -0.72786152030E+02  0.72786152030E+02  0.00000000000E+00 0.  1.
         25    2    1    2    0    0  0.36840056657E+02 -0.18120731420E+02  0.21660996791E+03  0.25348147293E+03  0.12508968079E+03 0.  0.
          5    1    3    3  502    0 -0.88319751446E+01 -0.56966387183E+02  0.16299675948E+03  0.17294099876E+03  0.41800000000E+01 0. -1.
         -5    1    3    3    0  502  0.45672031802E+02  0.38845655763E+02  0.53613208433E+02  0.80540474167E+02  0.41800000000E+01 0. -1.
        -11    1    1    2    0    0 -0.12530533963E+02 -0.10759355333E+01 -0.48178405671E+02  0.49792877922E+02  0.00000000000E+00 0.  1.
         11    1    1    2    0    0 -0.24309522694E+02  0.19196666953E+02  0.39346716927E+02  0.50076232373E+02  0.00000000000E+00 0. -1.
</event>
<event>
 7    1  0.2594791E-009  0.7248702E+02  0.7561462E-02  0.1351834E+00
         -1   -1    0    0    0  501 -0.00000000000E+00  0.00000000000E+00  0.25587907762E+02  0.25587907762E+02  0.00000000000E+00 0.  1.
          1   -1    0    0  501    0  0.00000000000E+00 -0.00000000000E+00 -0.53108924240E+03  0.53108924240E+03  0.00000000000E+00 0. -1.
         25    2    1    2    0    0 -0.42202965487E+02  0.33739602255E+02 -0.27585195596E+03  0.30767167381E+03  0.12509239066E+03 0.  0.
          5    1    3    3  502    0 -0.21227095799E+02  0.62507116913E+01  0.62951374685E+01  0.23382945676E+02  0.41800000000E+01 0.  1.
         -5    1    3    3    0  502 -0.20975869687E+02  0.27488890563E+02 -0.28214709343E+03  0.28428872813E+03  0.41800000000E+01 0.  1.
        -11    1    1    2    0    0  0.55964695050E+02 -0.55297070412E+01 -0.92032706722E+02  0.10785473498E+03  0.00000000000E+00 0.  1.
         11    1    1    2    0    0 -0.13761729564E+02 -0.28209895213E+02 -0.13761667196E+03  0.14115074137E+03  0.00000000000E+00 0. -1.
</event>
<event>
 7    1  0.2594791E-009  0.1955975E+03  0.7561462E-02  0.1153507E+00
         -2   -1    0    0    0  501 -0.00000000000E+00  0.00000000000E+00  0.51605876016E+02  0.51605876016E+02  0.00000000000E+00 0.  1.
          2   -1    0    0  501    0  0.00000000000E+00 -0.00000000000E+00 -0.80869045826E+03  0.80869045826E+03  0.00000000000E+00 0. -1.
         25    2    1    2    0    0 -0.11416771769E+03 -0.12295278978E+03 -0.49233265612E+03  0.53496772026E+03  0.12508941264E+03 0.  0.
          5    1    3    3  502    0  0.26983458568E+02 -0.27427368912E+02 -0.97382227504E+02  0.10479092630E+03  0.41800000000E+01 0.  1.
         -5    1    3    3    0  502 -0.14115117626E+03 -0.95525420867E+02 -0.39495042862E+03  0.43017679395E+03  0.41800000000E+01 0.  1.
        -11    1    1    2    0    0  0.39114124496E+02  0.93549066128E+02 -0.10262179825E+03  0.14426564381E+03  0.00000000000E+00 0.  1.
         11    1    1    2    0    0  0.75053593197E+02  0.29403723651E+02 -0.16213012787E+03  0.18106297020E+03  0.00000000000E+00 0. -1.
</event>
<event>
 7    1  0.2594791E-009  0.9422560E+02  0.7561462E-02  0.1292930E+00
         -2   -1    0    0    0  501 -0.00000000000E+00  0.00000000000E+00  0.11775031727E+02  0.11775031727E+02  0.00000000000E+00 0. -1.
          2   -1    0    0  501    0  0.00000000000E+00 -0.00000000000E+00 -0.11211555518E+04  0.11211555518E+04  0.00000000000E+00 0.  1.
         25    2    1    2    0    0  0.24742286002E+02 -0.24418844084E+02 -0.77468892275E+03  0.78549287573E+03  0.12509064761E+03 0.  0.
          5    1    3    3  502    0 -0.29660440600E+02 -0.40263322944E+02 -0.59318354614E+03  0.59530250186E+03  0.41800000000E+01 0. -1.
         -5    1    3    3    0  502  0.54402726602E+02  0.15844478859E+02 -0.18150537662E+03  0.19019037387E+03  0.41800000000E+01 0. -1.
        -11    1    1    2    0    0 -0.30616261546E+02  0.48119279285E+02 -0.29769974067E+03  0.30311376759E+03  0.00000000000E+00 0.  1.
         11    1    1    2    0    0  0.58739755435E+01 -0.23700435201E+02 -0.36991856678E+02  0.44323940234E+02  0.00000000000E+00 0. -1.
</event>
<event>
 7    1  0.2594791E-009  0.1297299E+03  0.7561462E-02  0.1227857E+00
         -2   -1    0    0    0  501 -0.00000000000E+00  0.00000000000E+00  0.58822563197E+02  0.58822563197E+02  0.00000000000E+00 0. -1.
          2   -1    0    0  501    0  0.00000000000E+00 -0.00000000000E+00 -0.41828273494E+03  0.41828273494E+03  0.00000000000E+00 0.  1.
         25    2    1    2    0    0  0.44564610802E+02 -0.97528306067E+02 -0.13773216805E+03  0.21474465934E+03  0.12508934239E+03 0.  0.
          5    1    3    3  502    0  0.25166314233E+02 -0.10062928091E+03 -0.15613958182E+03  0.18750103189E+03  0.41800000000E+01 0. -1.
         -5    1    3    3    0  502  0.19398296570E+02  0.31009748426E+01  0.18407413774E+02  0.27243627450E+02  0.41800000000E+01 0. -1.
        -11    1    1    2    0    0 -0.44438174911E+02  0.69428419926E+01 -0.10781544075E+03  0.11682090441E+03  0.00000000000E+00 0.  1.
         11    1    1    2    0    0 -0.12643589138E+00  0.90585464074E+02 -0.11391256295E+03  0.14553973439E+03  0.00000000000E+00 0. -1.
</event>
<event>
 7    1  0.2594791E-009  0.1894984E+03  0.7561462E-02  0.1158914E+00
          2   -1    0    0  501    0  0.00000000000E+00  0.00000000000E+00  0.10787673412E+04  0.10787673412E+04  0.00000000000E+00 0. -1.
         -2   -1    0    0    0  501 -0.00000000000E+00 -0.00000000000E+00 -0.41118654966E+02  0.41118654966E+02  0.00000000000E+00 0.  1.
         25    2    1    2    0    0 -0.12198193669E+03 -0.10232776324E+03  0.31801921376E+03  0.37700534735E+03  0.12508496155E+03 0.  0.
          5    1    3    3  502    0 -0.72421906240E+02 -0.12692192213E+03  0.21497678773E+03  0.25997422658E+03  0.41800000000E+01 0. -1.
         -5    1    3    3    0  502 -0.49560030447E+02  0.24594158890E+02  0.10304242602E+03  0.11703112078E+03  0.41800000000E+01 0. -1.
        -11    1    1    2    0    0  0.33880484236E+02  0.79339609705E+02  0.45276514999E+03  0.46091099133E+03  0.00000000000E+00 0.  1.
         11    1    1    2    0    0  0.88101452451E+02  0.22988153532E+02  0.26686432249E+03  0.28196965749E+03  0.00000000000E+00 0. -1.
</event>
<event>
 7    1  0.2594791E-009  0.9191863E+02  0.7561462E-02  0.1298271E+00
          1   -1    0    0  501    0  0.00000000000E+00  0.00000000000E+00  0.28082013172E+03  0.28082013172E+03  0.00000000000E+00 0. -1.
         -1   -1    0    0    0  501 -0.00000000000E+00 -0.00000000000E+00 -0.56767100877E+02  0.56767100877E+02  0.00000000000E+00 0.  1.
         25    2    1    2    0    0  0.20795297482E+02  0.24593905807E+02  0.19904820677E+03  0.23728947304E+03  0.12509516696E+03 0.  0.
          5    1    3    3  502    0  0.45295582629E+02 -0.17613467546E+02  0.17695628172E+03  0.18355631856E+03  0.41800000000E+01 0.  1.
         -5    1    3    3    0  502 -0.24500285147E+02  0.42207373353E+02  0.22091925049E+02  0.53733154476E+02  0.41800000000E+01 0.  1.
        -11    1    1    2    0    0  0.15835049959E+02  0.21813070945E+02  0.30756913666E+02  0.40896779941E+02  0.00000000000E+00 0. -1.
         11    1    1    2    0    0 -0.36630347441E+02 -0.46406976752E+02 -0.57520895897E+01  0.59400979618E+02  0.00000000000E+00 0.  1.
</event>
<event>
 7    1  0.2594791E-009  0.1256352E+03  0.7561462E-02  0.1234080E+00
         -1   -1    0    0    0  501 -0.00000000000E+00  0.00000000000E+00  0.18461695080E+03  0.18461695080E+03  0.00000000000E+00 0.  1.
          1   -1    0    0  501    0  0.00000000000E+00 -0.00000000000E+00 -0.19518213805E+03  0.19518213805E+03  0.00000000000E+00 0. -1.
         25    2    1    2    0    0  0.79683847577E+02 -0.68139459426E+02  0.10724223761E+03  0.19529719224E+03  0.12509034444E+03 0.  0.
          5    1    3    3  502    0  0.37220819496E+02 -0.71139924333E+01  0.11430987130E+03  0.12049986460E+03  0.41800000000E+01 0.  1.
         -5    1    3    3    0  502  0.42463028081E+02 -0.61025466993E+02 -0.70676336897E+01  0.74797327636E+02  0.41800000000E+01 0.  1.
        -11    1    1    2    0    0 -0.13394583994E+02  0.71077909064E+02 -0.81111861705E+02  0.10867666790E+03  0.00000000000E+00 0.  1.
         11    1    1    2    0    0 -0.66289263583E+02 -0.29384496372E+01 -0.36695563157E+02  0.75825228704E+02  0.00000000000E+00 0. -1.
</event>
<event>
 7    1  0.2594791E-009  0.8502202E+02  0.7561462E-02  0.1315375E+00
          2   -1    0    0  501    0  0.00000000000E+00  0.00000000000E+00  0.18937358988E+03  0.18937358988E+03  0.00000000000E+00 0. -1.
         -2   -1    0    0    0  501 -0.00000000000E+00 -0.00000000000E+00 -0.66306392641E+02  0.66306392641E+02  0.00000000000E+00 0.  1.
         25    2    1    2    0    0  0.28723277425E+02 -0.59931052480E+01  0.61130479882E+02  0.14228535251E+03  0.12508893632E+03 0.  0.
          5    1    3    3  502    0  0.69935817638E+02 -0.24888210213E+02  0.12017685697E+02  0.75314930563E+02  0.41800000000E+01 0.  1.
         -5    1    3    3    0  502 -0.41212540213E+02  0.18895104965E+02  0.49112794184E+02  0.66970421942E+02  0.41800000000E+01 0.  1.
        -11    1    1    2    0    0 -0.15287086961E+02 -0.17415765361E+02 -0.17795479275E+02  0.29217854019E+02  0.00000000000E+00 0.  1.
         11    1    1    2    0    0 -0.13436190463E+02  0.23408870609E+02  0.79732196636E+02  0.84176776000E+02  0.00000000000E+00 0. -1.
</event>
<event>
 7    1  0.2594791E-009  0.1629987E+03  0.7561462E-02  0.1185352E+00
         -1   -1    0    0    0  501 -0.00000000000E+00  0.00000000000E+00  0.49313697831E+02  0.49313697831E+02  0.00000000000E+00 0.  1.
          1   -1    0    0  501    0  0.00000000000E+00 -0.00000000000E+00 -0.77146118645E+03  0.77146118645E+03  0.00000000000E+00 0. -1.
         25    2    1    2    0    0 -0.67081579705E+02 -0.13526005914E+03 -0.25630717896E+03  0.32270299367E+03  0.12509448512E+03 0.  0.
          5    1    3    3  502    0  0.18810075519E+01 -0.26602172701E+02 -0.15908409909E+03  0.16135810102E+03  0.41800000000E+01 0.  1.
         -5    1    3    3    0  502 -0.68962587257E+02 -0.10865788644E+03 -0.97223079869E+02  0.16134489265E+03  0.41800000000E+01 0.  1.
        -11    1    1    2    0    0 -0.17887525859E+02  0.30446256939E+02 -0.52536792614E+02  0.63301285304E+02  0.00000000000E+00 0.  1.
         11    1    1    2    0    0  0.84969105565E+02  0.10481380220E+03 -0.41330351705E+03  0.43477060531E+03  0.00000000000E+00 0. -1.
</event>
<event>
 7    1  0.2594791E-009  0.1036619E+03  0.7561462E-02  0.1272779E+00
          1   -1    0    0  501    0  0.00000000000E+00  0.00000000000E+00  0.78038186965E+02  0.78038186965E+02  0.00000000000E+00 0. -1.
         -1   -1    0    0    0  501 -0.00000000000E+00 -0.00000000000E+00 -0.29324917939E+03  0.29324917939E+03  0.00000000000E+00 0.  1.
         25    2    1    2    0    0  0.11330498239E+02 -0.45448721108E+02 -0.23158930835E+03  0.26734965248E+03  0.12509301538E+03 0.  0.
          5    1    3    3  502    0 -0.59831575572E+01 -0.77025360038E+02 -0.79247476373E+02  0.11075350638E+03  0.41800000000E+01 0.  1.
         -5    1    3    3    0  502  0.17313655797E+02  0.31576638930E+02 -0.15234183198E+03  0.15659614610E+03  0.41800000000E+01 0.  1.
        -11    1    1    2    0    0 -0.14830772041E+02  0.68651225581E+02  0.30477614425E+02  0.76562572802E+02  0.00000000000E+00 0. -1.
         11    1    1    2    0    0  0.35002738017E+01 -0.23202504473E+02 -0.14099298493E+02  0.27375141068E+02  0.00000000000E+00 0.  1.
</event>
<event>
 7    1  0.2594791E-009  0.1512406E+03  0.7561462E-02  0.1198957E+00
         -2   -1    0    0    0  501 -0.00000000000E+00  0.00000000000E+00  0.73486077863E+02  0.73486077863E+02  0.00000000000E+00 0. -1.
          2   -1    0    0  501    0  0.00000000000E+00 -0.00000000000E+00 -0.57832640007E+03  0.57832640007E+03  0.00000000000E+00 0.  1.
         25    2    1    2    0    0  0.12217747114E+03 -0.35324689415E+02 -0.45287112603E+03  0.48673840845E+03  0.12508738279E+03 0.  0.
          5    1    3    3  502    0  0.11579442561E+03 -0.68408505330E+02 -0.41301615858E+03  0.43438219606E+03  0.41800000000E+01 0. -1.
         -5    1    3    3    0  502  0.63830455240E+01  0.33083815915E+02 -0.39854967452E+02  0.52356212394E+02  0.41800000000E+01 0. -1.
        -11    1    1    2    0    0 -0.36690517407E+02  0.31569360674E+02  0.20861249840E+02  0.52706833958E+02  0.00000000000E+00 0. -1.
         11    1    1    2    0    0 -0.85486953731E+02  0.37553287410E+01 -0.72830446013E+02  0.11236723552E+03  0.00000000000E+00 0.  1.
</event>
<event>
 7    1  0.3338759E-009  0.1298067E+03  0.7561462E-02  0.1227743E+00
          2   -1    0    0  501    0  0.00000000000E+00  0.00000000000E+00  0.68854670292E+03  0.68854670292E+03  0.00000000000E+00 0. -1.
         -2   -1    0    0    0  501 -0.00000000000E+00 -0.00000000000E+00 -0.28781323523E+02  0.28781323523E+02  0.00000000000E+00 0.  1.
         25    2    1    2    0    0  0.33543368885E+02  0.81319553353E+02  0.39630302871E+03  0.42478416503E+03  0.12508984347E+03 0.  0.
          5    1    3    3  502    0 -0.97800609170E+01 -0.30006389670E+02  0.60918204481E+02  0.68735238778E+02  0.41800000000E+01 0.  1.
         -5    1    3    3    0  502  0.43323429802E+02  0.11132594302E+03  0.33538482423E+03  0.35604892625E+03  0.41800000000E+01 0.  1.
        -11    1    1    2    0    0  0.95225246058E+01 -0.58955247566E+02  0.65144806634E+02  0.88375593474E+02  0.00000000000E+00 0.  1.
         11    1    1    2    0    0 -0.43065893491E+02 -0.22364305786E+02  0.19831754405E+03  0.20416826794E+03  0.00000000000E+00 0. -1.
</event>
<event>
 7    1  0.2594791E-009  0.8418290E+02  0.7561462E-02  0.1317583E+00
          2   -1    0    0  501    0  0.00000000000E+00  0.00000000000E+00  0.42987554569E+02  0.42987554569E+02  0.00000000000E+00 0. -1.
         -2   -1    0    0    0  501 -0.00000000000E+00 -0.00000000000E+00 -0.28199171308E+03  0.28199171308E+03  0.00000000000E+00 0.  1.
         25    2    1    2    0    0  0.38490586639E+01  0.15580434225E+02 -0.11614553055E+03  0.17144496709E+03  0.12508408089E+03 0.  0.
          5    1    3    3  502    0  0.50635595681E+02  0.38990523470E+02 -0.30354754697E+02  0.70873888020E+02  0.41800000000E+01 0.  1.
         -5    1    3    3    0  502 -0.46786537017E+02 -0.23410089245E+02 -0.85790775853E+02  0.10057107907E+03  0.41800000000E+01 0.  1.
        -11    1    1    2    0    0  0.22467293280E+02 -0.11392440410E+02 -0.12432026273E+03  0.12684673701E+03  0.00000000000E+00 0.  1.
         11    1    1    2    0    0 -0.26316351944E+02 -0.41879938147E+01  0.14616347652E+01  0.26687563546E+02  0.00000000000E+00 0. -1.
</event>
<event>
 7    1  0.3442133E-009  0.8775912E+02  0.7561462E-02  0.1308371E+00
         -2   -1    0    0    0  501 -0.00000000000E+00  0.00000000000E+00  0.93484059228E+02  0.93484059228E+02  0.00000000000E+00 0.  1.
          2   -1    0    0  501    0  0.00000000000E+00 -0.00000000000E+00 -0.18342187305E+03  0.18342187305E+03  0.00000000000E+00 0. -1.
         25    2    1    2    0    0  0.62283932737E+02 -0.38072739214E+02 -0.44447197936E+02  0.15149656834E+03  0.12508730977E+03 0.  0.
          5    1    3    3  502    0 -0.17246304739E+01 -0.37222813385E+02  0.33683539099E+02  0.50404021593E+02  0.41800000000E+01 0.  1.
         -5    1    3    3    0  502  0.64008563210E+02 -0.84992582945E+00 -0.78130737035E+02  0.10109254675E+03  0.41800000000E+01 0.  1.
        -11    1    1    2    0    0 -0.30351801390E+02  0.25171486397E+02  0.25185743610E+02  0.46788430795E+02  0.00000000000E+00 0.  1.
         11    1    1    2    0    0 -0.31932131346E+02  0.12901252817E+02 -0.70676359493E+02  0.78620933139E+02  0.00000000000E+00 0. -1.
</event>
<event>
 7    1  0.2594791E-009  0.9218647E+02  0.7561462E-02  0.1297642E+00
         -2   -1    0    0    0  501 -0.00000000000E+00  0.00000000000E+00  0.12658764223E+03  0.12658764223E+03  0.00000000000E+00 0. -1.
          2   -1    0    0  501    0  0.00000000000E+00 -0.00000000000E+00 -0.99355097007E+02  0.99355097007E+02  0.00000000000E+00 0.  1.
         25    2    1    2    0    0  0.16693705222E+01 -0.10072578763E+01  0.44938577327E+02  0.13293259600E+03  0.12509115868E+03 0.  0.
          5    1    3    3  502    0 -0.49976705001E+02 -0.44961527831E+01 -0.16031814425E+02  0.52842955126E+02  0.41800000000E+01 0.  1.
         -5    1    3    3    0  502  0.51646075524E+02  0.34888949068E+01  0.60970391753E+02  0.80089640873E+02  0.41800000000E+01 0.  1.
        -11    1    1    2    0    0  0.35916281824E+02 -0.17771577424E+02 -0.29044510495E+02  0.49491331100E+02  0.00000000000E+00 0.  1.
         11    1    1    2    0    0 -0.37585652346E+02  0.18778835300E+02  0.11338478387E+02  0.43518812135E+02  0.00000000000E+00 0. -1.
</event>
<event>
 7    1  0.2594791E-009  0.1160609E+03  0.7561462E-02  0.1249740E+00
         -2   -1    0    0    0  501 -0.00000000000E+00  0.00000000000E+00  0.15759598743E+03  0.15759598743E+03  0.00000000000E+00 0.  1.
          2   -1    0    0  501    0  0.00000000000E+00 -0.00000000000E+00 -0.90885281734E+02  0.90885281734E+02  0.00000000000E+00 0. -1.
         25    2    1    2    0    0  0.27991990328E+02  0.39170516739E+02  0.56003007340E+02  0.14526168241E+03  0.12508692434E+03 0.  0.
          5    1    3    3  502    0 -0.36912348865E+02  0.55605201025E+02  0.30411662248E+02  0.73462925891E+02  0.41800000000E+01 0. -1.
         -5    1    3    3    0  502  0.64904339193E+02 -0.16434684286E+02  0.25591345093E+02  0.71798756516E+02  0.41800000000E+01 0. -1.
        -11    1    1    2    0    0 -0.55513373891E+02 -0.43212676097E+02  0.21223912448E+02  0.73481456952E+02  0.00000000000E+00 0.  1.
         11    1    1    2    0    0  0.27521383563E+02  0.40421593574E+01 -0.10516214093E+02  0.29738129806E+02  0.00000000000E+00 0. -1.
</event>
<event>
 7    1  0.2594791E-009  0.1388975E+03  0.7561462E-02  0.1214820E+00
         -2   -1    0    0    0  501 -0.00000000000E+00  0.00000000000E+00  0.54353917313E+02  0.54353917313E+02  0.00000000000E+00 0. -1.
          2   -1    0    0  501    0  0.00000000000E+00 -0.00000000000E+00 -0.42967490064E+03  0.42967490064E+03  0.00000000000E+00 0.  1.
         25    2    1    2    0    0  0.40152524550E+02 -0.97636756341E+02 -0.21062943542E+03  0.26675286993E+03  0.12508866110E+03 0.  0.
          5    1    3    3  502    0  0.77621874641E+02 -0.50626132997E+02 -0.78473234956E+02  0.12150589191E+03  0.41800000000E+01 0. -1.
         -5    1    3    3    0  502 -0.37469350091E+02 -0.47010623344E+02 -0.13215620046E+03  0.14524697802E+03  0.41800000000E+01 0. -1.
        -11    1    1    2    0    0  0.18449833215E+02  0.30554423253E+02 -0.10277333114E+03  0.10879488370E+03  0.00000000000E+00 0.  1.
         11    1    1    2    0    0 -0.58602357765E+02  0.67082333088E+02 -0.61918216772E+02  0.10848106432E+03  0.00000000000E+00 0. -1.
</event>
<event>
 6    1  0.3458848E-009  0.1453240E+03  0.7561462E-02  0.1206339E+00
          2   -1    0    0  501    0  0.00000000000E+00  0.00000000000E+00  0.10818235490E+04  0.10818235490E+04  0.00000000000E+00 0. -1.
         -2   -1    0    0    0  501 -0.00000000000E+00 -0.00000000000E+00 -0.24582625088E+02  0.24582625088E+02  0.00000000000E+00 0.  1.
          5    1    1    2  502    0 -0.12926556695E+03  0.18655862345E+02  0.61919304525E+03  0.63283104197E+03  0.41800000000E+01 0.  1.
         -5    1    1    2    0  502  0.13816149319E+02  0.13702235369E+02  0.15942682899E+02  0.25500564192E+02  0.41800000000E+01 0.  1.
        -11    1    1    2    0    0  0.70000808229E+02  0.17960958461E+02  0.13560621078E+03  0.15366116485E+03  0.00000000000E+00 0.  1.
         11    1    1    2    0    0  0.45448609405E+02 -0.50319056175E+02  0.28649898504E+03  0.29441340312E+03  0.00000000000E+00 0. -1.
</event>
<event>
 7    1  0.2594791E-009  0.1236644E+03  0.7561462E-02  0.1237171E+00
          4   -1    0    0  501    0  0.00000000000E+00  0.00000000000E+00  0.98203934858E+02  0.98203934858E+02  0.00000000000E+00 0. -1.
         -4   -1    0    0    0  501 -0.00000000000E+00 -0.00000000000E+00 -0.17433448172E+03  0.17433448172E+03  0.00000000000E+00 0.  1.
         25    2    1    2    0    0  0.66542810288E+02  0.38321606419E+02 -0.36690441615E+02  0.15129747022E+03  0.12509294493E+03 0.  0.
          5    1    3    3  502    0 -0.35943648238E+02 -0.27378203796E+01 -0.97302047355E+01  0.37571143092E+02  0.41800000000E+01 0. -1.
         -5    1    3    3    0  502  0.10248645853E+03  0.41059426799E+02 -0.26960236879E+02  0.11372632713E+03  0.41800000000E+01 0. -1.
        -11    1    1    2    0    0  0.58053211452E+00 -0.33234146904E+02 -0.42380988911E+02  0.53860874103E+02  0.00000000000E+00 0.  1.
         11    1    1    2    0    0 -0.67123342402E+02 -0.50874595148E+01  0.29408836683E+01  0.67380072249E+02  0.00000000000E+00 0. -1.
</event>
<event>
 7    1  0.2594791E-009  0.1308500E+03  0.7561462E-02  0.1226200E+00
         -4   -1    0    0    0  501 -0.00000000000E+00  0.00000000000E+00  0.75602563297E+02  0.75602563297E+02  0.00000000000E+00 0.  1.
          4   -1    0    0  501    0  0.00000000000E+00 -0.00000000000E+00 -0.39394963369E+03  0.39394963369E+03  0.00000000000E+00 0. -1.
         25    2    1    2    0    0 -0.49363076894E+02  0.96228639553E+02 -0.27479849530E+03  0.32071627241E+03  0.12509216578E+03 0.  0.
          5    1    3    3  502    0 -0.24103924019E+02 -0.21787045474E+02 -0.19062141582E+02  0.37901347539E+02  0.41800000000E+01 0.  1.
         -5    1    3    3    0  502 -0.25259152875E+02  0.11801568503E+03 -0.25573635372E+03  0.28281492487E+03  0.41800000000E+01 0.  1.
        -11    1    1    2    0    0  0.21319723272E+02 -0.38862144096E+02 -0.67402698490E+02  0.80671684052E+02  0.00000000000E+00 0. -1.
         11    1    1    2    0    0  0.28043353623E+02 -0.57366495457E+02  0.23854123397E+02  0.68164240526E+02  0.00000000000E+00 0.  1.
</event>
<event>
 7    1  0.2594791E-009  0.9469100E+02  0.7561462E-02  0.1291874E+00
          2   -1    0    0  501    0  0.00000000000E+00  0.00000000000E+00  0.23727635591E+03  0.23727635591E+03  0.00000000000E+00 0.  1.
         -2   -1    0    0    0  501 -0.00000000000E+00 -0.00000000000E+00 -0.59031740030E+02  0.59031740030E+02  0.00000000000E+00 0. -1.
         25    2    1    2    0    0  0.58733910163E+02  0.39298912021E+01  0.70589786960E+02  0.15522662755E+03  0.12508905479E+03 0.  0.
          5    1    3    3  502    0  0.56446428695E+02 -0.31244363825E+02 -0.11613844726E+02  0.65686858446E+02  0.41800000000E+01 0. -1.
         -5    1    3    3    0  502  0.22874814682E+01  0.35174255027E+02  0.82203631686E+02  0.89539769100E+02  0.41800000000E+01 0. -1.
        -11    1    1    2    0    0 -0.28836669245E+02 -0.35512083307E+02  0.40628981581E+02  0.61183132465E+02  0.00000000000E+00 0. -1.
         11    1    1    2    0    0 -0.29897240918E+02  0.31582192105E+02  0.67025847341E+02  0.79898335931E+02  0.00000000000E+00 0.  1.
</event>
<event>
 7    1  0.2594791E-009  0.3398953E+03  0.7561462E-02  0.1066841E+00
          1   -1    0    0  501    0  0.00000000000E+00  0.00000000000E+00  0.68998752038E+02  0.68998752038E+02  0.00000000000E+00 0. -1.
         -1   -1    0    0    0  501 -0.00000000000E+00 -0.00000000000E+00 -0.21854607121E+04  0.21854607121E+04  0.00000000000E+00 0.  1.
         25    2    1    2    0    0  0.78789333990E+02 -0.32445672281E+03 -0.58923368352E+03  0.68871202302E+03  0.12509193708E+03 0.  0.
          5    1    3    3  502    0  0.59772387146E+02 -0.81694984674E+02 -0.26116349459E+03  0.28012613604E+03  0.41800000000E+01 0. -1.
         -5    1    3    3    0  502  0.19016946844E+02 -0.24276173814E+03 -0.32807018893E+03  0.40858588698E+03  0.41800000000E+01 0. -1.
        -11    1    1    2    0    0 -0.32454840574E+02  0.18920284697E+03 -0.68154019609E+03  0.70805937101E+03  0.00000000000E+00 0. -1.
         11    1    1    2    0    0 -0.46334493416E+02  0.13525387584E+03 -0.84568808042E+03  0.85768807009E+03  0.00000000000E+00 0.  1.
</event>
<event>
 7    1  0.2594791E-009  0.1017570E+03  0.7561462E-02  0.1276644E+00
          2   -1    0    0  501    0  0.00000000000E+00  0.00000000000E+00  0.91374357588E+03  0.91374357588E+03  0.00000000000E+00 0.  1.
         -2   -1    0    0    0  501 -0.00000000000E+00 -0.00000000000E+00 -0.15392541809E+02  0.15392541809E+02  0.00000000000E+00 0. -1.
         25    2    1    2    0    0 -0.21270386456E+02  0.43793970633E+02  0.51156935223E+03  0.52888596959E+03  0.12508727148E+03 0.  0.
          5    1    3    3  502    0 -0.19279161213E+01 -0.27050441030E+02  0.35324325366E+03  0.35430736921E+03  0.41800000000E+01 0.  1.
         -5    1    3    3    0  502 -0.19342470335E+02  0.70844411664E+02  0.15832609857E+03  0.17457860038E+03  0.41800000000E+01 0.  1.
        -11    1    1    2    0    0  0.20539984092E+02  0.25767954342E+02  0.14215369837E+03  0.14592310433E+03  0.00000000000E+00 0.  1.
         11    1    1    2    0    0  0.73040236439E+00 -0.69561924975E+02  0.24462798347E+03  0.25432704377E+03  0.00000000000E+00 0. -1.
</event>
<event>
 7    1  0.2594791E-009  0.1705562E+03  0.7561462E-02  0.1177269E+00
          3   -1    0    0  501    0  0.00000000000E+00  0.00000000000E+00  0.51341703533E+02  0.51341703533E+02  0.00000000000E+00 0. -1.
         -3   -1    0    0    0  501 -0.00000000000E+00 -0.00000000000E+00 -0.58810736490E+03  0.58810736490E+03  0.00000000000E+00 0.  1.
         25    2    1    2    0    0  0.81561286787E+01  0.13545658991E+03 -0.27189572877E+03  0.32861819533E+03  0.12509045044E+03 0.  0.
          5    1    3    3  502    0 -0.76375608685E+01  0.15494578220E+03 -0.25350079802E+03  0.29723165167E+03  0.41800000000E+01 0. -1.
         -5    1    3    3    0  502  0.15793689547E+02 -0.19489192287E+02 -0.18394930751E+02  0.31386543658E+02  0.41800000000E+01 0. -1.
        -11    1    1    2    0    0  0.36865947446E+02 -0.37011168382E+02 -0.63668335822E+02  0.82356430547E+02  0.00000000000E+00 0.  1.
         11    1    1    2    0    0 -0.45022076125E+02 -0.98445421528E+02 -0.20120159678E+03  0.22847444256E+03  0.00000000000E+00 0. -1.
</event>
<event>
 7    1  0.2594791E-009  0.9250464E+02  0.7561462E-02  0.1296897E+00
         -1   -1    0    0    0  501 -0.00000000000E+00  0.00000000000E+00  0.42754183844E+02  0.42754183844E+02  0.00000000000E+00 0.  1.
          1   -1    0    0  501    0  0.00000000000E+00 -0.00000000000E+00 -0.29701097342E+03  0.29701097342E+03  0.00000000000E+00 0. -1.
         25    2    1    2    0    0  0.46578954881E+01  0.30826581352E+02 -0.13893696220E+03  0.18953369525E+03  0.12509023968E+03 0.  0.
          5    1    3    3  502    0  0.19561964056E+01 -0.44502001169E+02 -0.87218072972E+02  0.98024075947E+02  0.41800000000E+01 0.  1.
         -5    1    3    3    0  502  0.27016990824E+01  0.75328582521E+02 -0.51718889228E+02  0.91509619306E+02  0.41800000000E+01 0.  1.
        -11    1    1    2    0    0  0.26027580781E+02 -0.17223409949E+02 -0.11517796357E+01  0.31231513058E+02  0.00000000000E+00 0.  1.
         11    1    1    2    0    0 -0.30685476269E+02 -0.13603171404E+02 -0.11416804774E+03  0.11899994895E+03  0.00000000000E+00 0. -1.
</event>
<event>
 7    1  0.2594791E-009  0.1504928E+03  0.7561462E-02  0.1199869E+00
          2   -1    0    0  501    0  0.00000000000E+00  0.00000000000E+00  0.93462274501E+03  0.93462274501E+03  0.00000000000E+00 0. -1.
         -2   -1    0    0    0  501 -0.00000000000E+00 -0.00000000000E+00 -0.36466873903E+02  0.36466873903E+02  0.00000000000E+00 0.  1.
         25    2    1    2    0    0 -0.41588159103E+02 -0.10391629117E+03  0.72821165678E+03  0.74730717231E+03  0.12509045597E+03 0.  0.
          5    1    3    3  502    0 -0.70976259281E+02 -0.11524370707E+03  0.61431631074E+03  0.62906338587E+03  0.41800000000E+01 0.  1.
         -5    1    3    3    0  502  0.29388100178E+02  0.11327415904E+02  0.11389534604E+03  0.11824378644E+03  0.41800000000E+01 0.  1.
        -11    1    1    2    0    0 -0.19153467121E+02  0.91164049038E+01  0.16199535606E+01  0.21274124909E+02  0.00000000000E+00 0.  1.
         11    1    1    2    0    0  0.60741626224E+02  0.94799886262E+02  0.16832426077E+03  0.20250832170E+03  0.00000000000E+00 0. -1.
</event>
<event>
 7    1  0.2594791E-009  0.6714739E+02  0.7561462E-02  0.1370071E+00
          2   -1    0    0  501    0  0.00000000000E+00  0.00000000000E+00  0.11424488123E+03  0.11424488123E+03  0.00000000000E+00 0. -1.
         -2   -1    0    0    0  501 -0.00000000000E+00 -0.00000000000E+00 -0.11534613127E+03  0.11534613127E+03  0.00000000000E+00 0.  1.
         25    2    1    2    0    0 -0.20586121551E+01 -0.80845114912E+01  0.36817287590E+02  0.13066132140E+03  0.12508905241E+03 0.  0.
          5    1    3    3  502    0 -0.38746586936E+02 -0.11716684031E+02 -0.32472549605E+02  0.52062631145E+02  0.41800000000E+01 0.  1.
         -5    1    3    3    0  502  0.36687974781E+02  0.36321725395E+01  0.69289837196E+02  0.78598690253E+02  0.41800000000E+01 0.  1.
        -11    1    1    2    0    0 -0.26764170358E+02  0.83996713094E+00  0.20274555765E+02  0.33586961327E+02  0.00000000000E+00 0. -1.
         11    1    1    2    0    0  0.28822782513E+02  0.72445443603E+01 -0.58193093399E+02  0.65342729773E+02  0.00000000000E+00 0.  1.
</event>
<event>
 7    1  0.2594791E-009  0.9175826E+02  0.7561462E-02  0.1298649E+00
          1   -1    0    0  501    0  0.00000000000E+00  0.00000000000E+00  0.58429305889E+02  0.58429305889E+02  0.00000000000E+00 0. -1.
         -1   -1    0    0    0  501 -0.00000000000E+00 -0.00000000000E+00 -0.44907629121E+03  0.44907629121E+03  0.00000000000E+00 0.  1.
         25    2    1    2    0    0  0.20995746649E+02  0.15560251563E+02 -0.39345930740E+03  0.41369148799E+03  0.12508987908E+03 0.  0.
          5    1    3    3  502    0  0.58880939545E+02  0.36503534001E+02 -0.13706753932E+03  0.15363741658E+03  0.41800000000E+01 0. -1.
         -5    1    3    3    0  502 -0.37885192895E+02 -0.20943282438E+02 -0.25639176808E+03  0.26005407141E+03  0.41800000000E+01 0. -1.
        -11    1    1    2    0    0  0.80394678777E+01 -0.34848810450E+02 -0.29441088583E+02  0.46323323829E+02  0.00000000000E+00 0.  1.
         11    1    1    2    0    0 -0.29035214527E+02  0.19288558887E+02  0.32253410667E+02  0.47490785277E+02  0.00000000000E+00 0. -1.
</event>
<event>
 7    1  0.2594791E-009  0.1184464E+03  0.7561462E-02  0.1245682E+00
         -2   -1    0    0    0  501 -0.00000000000E+00  0.00000000000E+00  0.21384495132E+02  0.21384495132E+02  0.00000000000E+00 0.  1.
          2   -1    0    0  501    0  0.00000000000E+00 -0.00000000000E+00 -0.15012433490E+04  0.15012433490E+04  0.00000000000E+00 0. -1.
         25    2    1    2    0    0 -0.40440057520E+02  0.52673030239E+02 -0.13106292206E+04  0.13182584697E+04  0.12508634036E+03 0.  0.
          5    1    3    3  502    0  0.28025187287E+02 -0.23478909864E+02 -0.46190042482E+03  0.46336394462E+03  0.41800000000E+01 0.  1.
         -5    1    3    3    0  502 -0.68465244807E+02  0.76151940103E+02 -0.84872879581E+03  0.85489452505E+03  0.41800000000E+01 0.  1.
        -11    1    1    2    0    0  0.51443836325E+02 -0.63799324183E+02 -0.82680222403E+02  0.11641667079E+03  0.00000000000E+00 0.  1.
         11    1    1    2    0    0 -0.11003778805E+02  0.11126293944E+02 -0.86549410804E+02  0.87952703628E+02  0.00000000000E+00 0. -1.
</event>
<event>
 7    1  0.2594791E-009  0.1679182E+03  0.7561462E-02  0.1180036E+00
          1   -1    0    0  501    0  0.00000000000E+00  0.00000000000E+00  0.86813995266E+03  0.86813995266E+03  0.00000000000E+00 0. -1.
         -1   -1    0    0    0  501 -0.00000000000E+00 -0.00000000000E+00 -0.33206878048E+02  0.33206878048E+02  0.00000000000E+00 0.  1.
         25    2    1    2    0    0 -0.10112866692E+03  0.10124439411E+03  0.46930699893E+03  0.50633345462E+03  0.12508826249E+03 0.  0.
          5    1    3    3  502    0 -0.71068906727E+02 -0.12552242511E+02  0.17909368659E+03  0.19313303516E+03  0.41800000000E+01 0.  1.
         -5    1    3    3    0  502 -0.30059760196E+02  0.11379663662E+03  0.29021331235E+03  0.31320041946E+03  0.41800000000E+01 0.  1.
        -11    1    1    2    0    0  0.30053225166E+02 -0.49302785782E+02  0.10372658713E+03  0.11871464065E+03  0.00000000000E+00 0.  1.
         11    1    1    2    0    0  0.71075441757E+02 -0.51941608325E+02  0.26189948855E+03  0.27629873543E+03  0.00000000000E+00 0. -1.
</event>
<event>
 7    1  0.2594791E-009  0.2296638E+03  0.7561462E-02  0.1126877E+00
          1   -1    0    0  501    0  0.00000000000E+00  0.00000000000E+00  0.11301255199E+03  0.11301255199E+03  0.00000000000E+00 0. -1.
         -1   -1    0    0    0  501 -0.00000000000E+00 -0.00000000000E+00 -0.50724008584E+03  0.50724008584E+03  0.00000000000E+00 0.  1.
         25    2    1    2    0    0 -0.22307666682E+02  0.20619364862E+03 -0.26846763107E+03  0.36157600040E+03  0.12509549317E+03 0.  0.
          5    1    3    3  502    0  0.37075413856E+02  0.15012373976E+03 -0.21097925671E+03  0.26161315471E+03  0.41800000000E+01 0.  1.
         -5    1    3    3    0  502 -0.59383080538E+02  0.56069908860E+02 -0.57488374351E+02  0.99962845695E+02  0.41800000000E+01 0.  1.
        -11    1    1    2    0    0 -0.27183401968E+02 -0.33114210667E+02 -0.42470281099E+02  0.60325890522E+02  0.00000000000E+00 0.  1.
         11    1    1    2    0    0  0.49491068650E+02 -0.17307943796E+03 -0.83289621686E+02  0.19835074691E+03  0.00000000000E+00 0. -1.
</event>
<event>
 7    1  0.2594791E-009  0.9463230E+02  0.7561462E-02  0.1292006E+00
          2   -1    0    0  501    0  0.00000000000E+00  0.00000000000E+00  0.31175614881E+03  0.31175614881E+03  0.00000000000E+00 0. -1.
         -2   -1    0    0    0  501 -0.00000000000E+00 -0.00000000000E+00 -0.36737831675E+02  0.36737831675E+02  0.00000000000E+00 0.  1.
         25    2    1    2    0    0  0.79319925439E+01  0.44346623728E+01  0.18662712443E+03  0.22485494178E+03  0.12508988182E+03 0.  0.
          5    1    3    3  502    0  0.53205723106E+02 -0.11611359212E+02  0.16149957241E+03  0.17048535692E+03  0.41800000000E+01 0. -1.
         -5    1    3    3    0  502 -0.45273730562E+02  0.16046021585E+02  0.25127552020E+02  0.54369584864E+02  0.41800000000E+01 0. -1.
        -11    1    1    2    0    0  0.29959416517E+02 -0.28658155481E+02  0.41128085539E+02  0.58398424069E+02  0.00000000000E+00 0.  1.
         11    1    1    2    0    0 -0.37891409061E+02  0.24223493108E+02  0.47263107161E+02  0.65240614631E+02  0.00000000000E+00 0. -1.
</event>
<event>
 7    1  0.2594791E-009  0.9898515E+02  0.7561462E-02  0.1282445E+00
          2   -1    0    0  501    0  0.00000000000E+00  0.00000000000E+00  0.74845778676E+03  0.74845778676E+03  0.00000000000E+00 0.  1.
         -2   -1    0    0    0  501 -0.00000000000E+00 -0.00000000000E+00 -0.20209305182E+02  0.20209305182E+02  0.00000000000E+00 0. -1.
         25    2    1    2    0    0 -0.51014700174E+02 -0.30011907773E+01  0.49665138298E+03  0.51470506949E+03  0.12508879075E+03 0.  0.
          5    1    3    3  502    0 -0.48447615698E+02  0.53242416250E+02  0.35437355998E+03  0.36163520123E+03  0.41800000000E+01 0. -1.
         -5    1    3    3    0  502 -0.25670844759E+01 -0.56243607027E+02  0.14227782299E+03  0.15306986826E+03  0.41800000000E+01 0. -1.
        -11    1    1    2    0    0  0.16532403093E+02  0.23918241106E+02  0.13304712571E+02  0.31975271480E+02  0.00000000000E+00 0. -1.
         11    1    1    2    0    0  0.34482297081E+02 -0.20917050328E+02  0.21829238603E+03  0.22198675097E+03  0.00000000000E+00 0.  1.
</event>
<event>
 7    1  0.2594791E-009  0.9055775E+02  0.7561462E-02  0.1301507E+00
          1   -1    0    0  501    0  0.00000000000E+00  0.00000000000E+00  0.73258129062E+02  0.73258129062E+02  0.00000000000E+00 0. -1.
         -1   -1    0    0    0  501 -0.00000000000E+00 -0.00000000000E+00 -0.29262827183E+03  0.29262827183E+03  0.00000000000E+00 0.  1.
         25    2    1    2    0    0  0.20760479276E+02 -0.43707956992E+02 -0.22619734862E+03  0.26297035426E+03  0.12508710442E+03 0.  0.
          5    1    3    3  502    0 -0.27656152468E+02 -0.18154279836E+02 -0.34125911308E+01  0.33519528993E+02  0.41800000000E+01 0.  1.
         -5    1    3    3    0  502  0.48416631744E+02 -0.25553677155E+02 -0.22278475749E+03  0.22945082527E+03  0.41800000000E+01 0.  1.
        -11    1    1    2    0    0  0.26161423276E+02  0.37222409948E+02 -0.18603678974E+02  0.49153074589E+02  0.00000000000E+00 0.  1.
         11    1    1    2    0    0 -0.46921902552E+02  0.64855470433E+01  0.25430884829E+02  0.53762972041E+02  0.00000000000E+00 0. -1.
</event>
<event>
 7    1  0.2594791E-009  0.2112994E+03  0.7561462E-02  0.1140541E+00
          2   -1    0    0  501    0  0.00000000000E+00  0.00000000000E+00  0.36821839727E+03  0.36821839727E+03  0.00000000000E+00 0. -1.
         -2   -1    0    0    0  501 -0.00000000000E+00 -0.00000000000E+00 -0.15699965275E+03  0.15699965275E+03  0.00000000000E+00 0.  1.
         25    2    1    2    0    0  0.19314727179E+03  0.53520905037E+02  0.25178668829E+02  0.23759643944E+03  0.12509095407E+03 0.  0.
          5    1    3    3  502    0  0.12203804563E+02 -0.12529062075E+02  0.40508273271E+02  0.44320456289E+02  0.41800000000E+01 0. -1.
         -5    1    3    3    0  502  0.18094346723E+03  0.66049967112E+02 -0.15329604442E+02  0.19327598315E+03  0.41800000000E+01 0. -1.
        -11    1    1    2    0    0 -0.12211680733E+03 -0.67537367462E+02  0.15580256550E+03  0.20916082341E+03  0.00000000000E+00 0. -1.
         11    1    1    2    0    0 -0.71030464468E+02  0.14016462425E+02  0.30237510198E+02  0.78460787177E+02  0.00000000000E+00 0.  1.
</event>
<event>
 7    1  0.2594791E-009  0.9913798E+02  0.7561462E-02  0.1282119E+00
         -3   -1    0    0    0  501 -0.00000000000E+00  0.00000000000E+00  0.67579536554E+02  0.67579536554E+02  0.00000000000E+00 0.  1.
          3   -1    0    0  501    0  0.00000000000E+00 -0.00000000000E+00 -0.20407616102E+03  0.20407616102E+03  0.00000000000E+00 0. -1.
         25    2    1    2    0    0 -0.32766110249E+01  0.38572353937E+02 -0.48857529194E+02  0.13976051967E+03  0.12508949609E+03 0.  0.
          5    1    3    3  502    0 -0.56497938601E+02  0.42528890814E+02 -0.49163736043E+02  0.86228005669E+02  0.41800000000E+01 0. -1.
         -5    1    3    3    0  502  0.53221327576E+02 -0.39565368775E+01  0.30620684871E+00  0.53532514004E+02  0.41800000000E+01 0. -1.
        -11    1    1    2    0    0 -0.79028627359E+01 -0.54154112319E+02 -0.96368690900E+02  0.11082440032E+03  0.00000000000E+00 0. -1.
         11    1    1    2    0    0  0.11179473761E+02  0.15581758383E+02  0.87295956309E+01  0.21070777578E+02  0.00000000000E+00 0.  1.
</event>
<event>
 7    1  0.2594791E-009  0.1471150E+03  0.7561462E-02  0.1204064E+00
          2   -1    0    0  501    0  0.00000000000E+00  0.00000000000E+00  0.30015490360E+03  0.30015490360E+03  0.00000000000E+00 0. -1.
         -2   -1    0    0    0  501 -0.00000000000E+00 -0.00000000000E+00 -0.80974733155E+02  0.80974733155E+02  0.00000000000E+00 0.  1.
         25    2    1    2    0    0  0.10754762843E+03 -0.31261717004E+02  0.11203997732E+03  0.20185285612E+03  0.12509129336E+03 0.  0.
          5    1    3    3  502    0 -0.21457263085E+02  0.14514350336E+02  0.37972893045E+02  0.46157269319E+02  0.41800000000E+01 0.  1.
         -5    1    3    3    0  502  0.12900489152E+03 -0.45776067340E+02  0.74067084279E+02  0.15569558680E+03  0.41800000000E+01 0.  1.
        -11    1    1    2    0    0 -0.85849854058E+02 -0.79585943827E+01  0.10291287603E+03  0.13425571392E+03  0.00000000000E+00 0. -1.
         11    1    1    2    0    0 -0.21697774376E+02  0.39220311386E+02  0.42273170870E+01  0.45021066712E+02  0.00000000000E+00 0.  1.
</event>
<event>
 7    1  0.4366301E-009  0.1163830E+03  0.7561462E-02  0.1249186E+00
         -2   -1    0    0    0  501 -0.00000000000E+00  0.00000000000E+00  0.61788054361E+02  0.61788054361E+02  0.00000000000E+00 0.  1.
          2   -1    0    0  501    0  0.00000000000E+00 -0.00000000000E+00 -0.30959592383E+03  0.30959592383E+03  0.00000000000E+00 0. -1.
         25    2    1    2    0    0 -0.99021036429E+01 -0.73753800076E+02 -0.78954044572E+02  0.16558716162E+03  0.12509073610E+03 0.  0.
          5    1    3    3  502    0 -0.12357724681E+02  0.32554686615E+02 -0.37594908435E+02  0.51413719182E+02  0.41800000000E+01 0.  1.
         -5    1    3    3    0  502  0.24556210377E+01 -0.10630848669E+03 -0.41359136137E+02  0.11417344244E+03  0.41800000000E+01 0.  1.
        -11    1    1    2    0    0  0.31732463659E+02  0.47613737213E+02 -0.33673000518E+02  0.66391928614E+02  0.00000000000E+00 0.  1.
         11    1    1    2    0    0 -0.21830360016E+02  0.26140062863E+02 -0.13518082438E+03  0.13940488795E+03  0.00000000000E+00 0. -1.
</event>
<event>
 7    1  0.2594791E-009  0.1397987E+03  0.7561462E-02  0.1213600E+00
         -4   -1    0    0    0  501 -0.00000000000E+00  0.00000000000E+00  0.43725705423E+03  0.43725705423E+03  0.00000000000E+00 0.  1.
          4   -1    0    0  501    0  0.00000000000E+00 -0.00000000000E+00 -0.58627222282E+02  0.58627222282E+02  0.00000000000E+00 0. -1.
         25    2    1    2    0    0 -0.48068076834E+02 -0.81880046287E+02  0.30962359536E+03  0.34717296887E+03  0.12508963793E+03 0.  0.
          5    1    3    3  502    0 -0.75616012843E+02 -0.91855308760E+02  0.28431113350E+03  0.30822957706E+03  0.41800000000E+01 0.  1.
         -5    1    3    3    0  502  0.27547936009E+02  0.99752624726E+01  0.25312461865E+02  0.38943391806E+02  0.41800000000E+01 0.  1.
        -11    1    1    2    0    0 -0.24088252623E+02  0.42239631132E+02  0.17926638572E+02  0.51824653623E+02  0.00000000000E+00 0. -1.
         11    1    1    2    0    0  0.72156329457E+02  0.39640415155E+02  0.51079598020E+02  0.96886654025E+02  0.00000000000E+00 0.  1.
</event>
<event>
 7    1  0.2594791E-009  0.1411275E+03  0.7561462E-02  0.1211820E+00
          3   -1    0    0  501    0  0.00000000000E+00  0.00000000000E+00  0.89964589424E+02  0.89964589424E+02  0.00000000000E+00 0.  1.
         -3   -1    0    0    0  501 -0.00000000000E+00 -0.00000000000E+00 -0.24530844646E+03  0.24530844646E+03  0.00000000000E+00 0. -1.
         25    2    1    2    0    0  0.21131329278E+01  0.81878995528E+02 -0.70466014992E+02  0.16529153946E+03  0.12508876252E+03 0.  0.
          5    1    3    3  502    0 -0.50257629626E+02  0.64684486463E+02 -0.88250723108E+01  0.82494038729E+02  0.41800000000E+01 0.  1.
         -5    1    3    3    0  502  0.52370762554E+02  0.17194509065E+02 -0.61640942682E+02  0.82797500730E+02  0.41800000000E+01 0.  1.
        -11    1    1    2    0    0  0.41131844030E+02  0.10935206935E+02 -0.11742749019E+02  0.44150872002E+02  0.00000000000E+00 0.  1.
         11    1    1    2    0    0 -0.43244976958E+02 -0.92814202463E+02 -0.73135093023E+02  0.12583062442E+03  0.00000000000E+00 0. -1.
</event>
<event>
 7    1  0.2594791E-009  0.1165831E+03  0.7561462E-02  0.1248843E+00
         -2   -1    0    0    0  501 -0.00000000000E+00  0.00000000000E+00  0.18474870400E+03  0.18474870400E+03  0.00000000000E+00 0.  1.
          2   -1    0    0  501    0  0.00000000000E+00 -0.00000000000E+00 -0.12002962693E+03  0.12002962693E+03  0.00000000000E+00 0. -1.
         25    2    1    2    0    0  0.87489553565E+02  0.32128694872E+02  0.79454739057E+02  0.17506790017E+03  0.12509611942E+03 0.  0.
          5    1    3    3  502    0  0.12082276286E+02  0.50752140913E+02  0.81956304244E+02  0.97242323156E+02  0.41800000000E+01 0. -1.
         -5    1    3    3    0  502  0.75407277280E+02 -0.18623446041E+02 -0.25015651873E+01  0.77825577014E+02  0.41800000000E+01 0. -1.
        -11    1    1    2    0    0 -0.44834991952E+02  0.67358936233E+01 -0.45571665262E+02  0.64283166078E+02  0.00000000000E+00 0. -1.
         11    1    1    2    0    0 -0.42654561613E+02 -0.38864588495E+02  0.30836003280E+02  0.65427264680E+02  0.00000000000E+00 0.  1.
</event>
<event>
 7    1  0.2594791E-009  0.1343877E+03  0.7561462E-02  0.1221087E+00
         -1   -1    0    0    0  501 -0.00000000000E+00  0.00000000000E+00  0.11370145192E+03  0.11370145192E+03  0.00000000000E+00 0.  1.
          1   -1    0    0  501    0  0.00000000000E+00 -0.00000000000E+00 -0.17672786817E+03  0.17672786817E+03  0.00000000000E+00 0. -1.
         25    2    1    2    0    0  0.57875779815E+02 -0.67641477450E+02 -0.16463215261E+02  0.15441057019E+03  0.12508641560E+03 0.  0.
          5    1    3    3  502    0  0.14015170242E+02 -0.93149221838E+02 -0.34493633756E+02  0.10040162198E+03  0.41800000000E+01 0. -1.
         -5    1    3    3    0  502  0.43860609573E+02  0.25507744387E+02  0.18030418495E+02  0.54008948212E+02  0.41800000000E+01 0. -1.
        -11    1    1    2    0    0 -0.58723641456E+02  0.86580485194E+02 -0.51241902697E+02  0.11649197000E+03  0.00000000000E+00 0. -1.
         11    1    1    2    0    0  0.84786164057E+00 -0.18939007744E+02  0.46787017151E+01  0.19526779904E+02  0.00000000000E+00 0.  1.
</event>
<event>
 7    1  0.2594791E-009  0.9993663E+02  0.7561462E-02  0.1280429E+00
         -2   -1    0    0    0  501 -0.00000000000E+00  0.00000000000E+00  0.22839240493E+02  0.22839240493E+02  0.00000000000E+00 0.  1.
          2   -1    0    0  501    0  0.00000000000E+00 -0.00000000000E+00 -0.56439141929E+03  0.56439141929E+03  0.00000000000E+00 0. -1.
         25    2    1    2    0    0 -0.14103156590E+02  0.10848614761E+02 -0.23420866607E+03  0.26611489356E+03  0.12508735286E+03 0.  0.
          5    1    3    3  502    0  0.12020335304E+02  0.56508160586E+02 -0.18538329041E+03  0.19422177385E+03  0.41800000000E+01 0. -1.
         -5    1    3    3    0  502 -0.26123491895E+02 -0.45659545825E+02 -0.48825375659E+02  0.71893119712E+02  0.41800000000E+01 0. -1.
        -11    1    1    2    0    0  0.50958014888E+02 -0.73981815616E+00 -0.21915998020E+03  0.22500747440E+03  0.00000000000E+00 0. -1.
         11    1    1    2    0    0 -0.36854858297E+02 -0.10108796605E+02 -0.88183532530E+02  0.96108291830E+02  0.00000000000E+00 0.  1.
</event>
<event>
 7    1  0.2594791E-009  0.1174982E+03  0.7561462E-02  0.1247282E+00
          2   -1    0    0  501    0  0.00000000000E+00  0.00000000000E+00  0.30630637799E+03  0.30630637799E+03  0.00000000000E+00 0. -1.
         -2   -1    0    0    0  501 -0.00000000000E+00 -0.00000000000E+00 -0.55020675330E+02  0.55020675330E+02  0.00000000000E+00 0.  1.
         25    2    1    2    0    0  0.59827818226E+02  0.17458979730E+02  0.10308863316E+03  0.17365618463E+03  0.12508005583E+03 0.  0.
          5    1    3    3  502    0 -0.16277342321E+02 -0.26882117889E+02  0.74489020287E+02  0.80954843454E+02  0.41800000000E+01 0. -1.
         -5    1    3    3    0  502  0.76105160547E+02  0.44341097619E+02  0.28599612872E+02  0.92701341179E+02  0.41800000000E+01 0. -1.
        -11    1    1    2    0    0 -0.13513903730E+02 -0.54286178753E+02  0.69907936136E+02  0.89536217993E+02  0.00000000000E+00 0.  1.
         11    1    1    2    0    0 -0.46313914496E+02  0.36827199023E+02  0.78289133360E+02  0.98134650690E+02  0.00000000000E+00 0. -1.
</event>
<event>
 7    1  0.2594791E-009  0.8623324E+02  0.7561462E-02  0.1312239E+00
         -2   -1    0    0    0  501 -0.00000000000E+00  0.00000000000E+00  0.11623640342E+02  0.11623640342E+02  0.00000000000E+00 0.  1.
          2   -1    0    0  501    0  0.00000000000E+00 -0.00000000000E+00 -0.11300215407E+04  0.11300215407E+04  0.00000000000E+00 0. -1.
         25    2    1    2    0    0 -0.42406809255E+02 -0.93462366172E+01 -0.65363114204E+03  0.66690820216E+03  0.12508873115E+03 0.  0.
          5    1    3    3  502    0  0.11606992923E+02  0.13079935030E+02 -0.52759183426E+03  0.52789811798E+03  0.41800000000E+01 0.  1.
         -5    1    3    3    0  502 -0.54013802178E+02 -0.22426171647E+02 -0.12603930778E+03  0.13901008418E+03  0.41800000000E+01 0.  1.
        -11    1    1    2    0    0  0.68755110307E+02  0.10104923727E+02 -0.36435281908E+03  0.37092095040E+03  0.00000000000E+00 0. -1.
         11    1    1    2    0    0 -0.26348301052E+02 -0.75868711014E+00 -0.10041393919E+03  0.10381602843E+03  0.00000000000E+00 0.  1.
</event>
<event>
 7    1  0.2594791E-009  0.1220172E+03  0.7561462E-02  0.1239806E+00
         -2   -1    0    0    0  501 -0.00000000000E+00  0.00000000000E+00  0.49655750299E+02  0.49655750299E+02  0.00000000000E+00 0.  1.
          2   -1    0    0  501    0  0.00000000000E+00 -0.00000000000E+00 -0.34560721003E+03  0.34560721003E+03  0.00000000000E+00 0. -1.
         25    2    1    2    0    0 -0.26524516889E+02  0.60168623758E+02 -0.11470427319E+03  0.18203226588E+03  0.12511939199E+03 0.  0.
          5    1    3    3  502    0 -0.31595143063E+02 -0.33037309080E+02 -0.23954384312E+02  0.51778391093E+02  0.41800000000E+01 0.  1.
         -5    1    3    3    0  502  0.50706261739E+01  0.93205932838E+02 -0.90749888883E+02  0.13025387479E+03  0.41800000000E+01 0.  1.
        -11    1    1    2    0    0  0.20833294839E+02 -0.80721536300E+02 -0.10507606549E+03  0.13413042956E+03  0.00000000000E+00 0.  1.
         11    1    1    2    0    0  0.56912220497E+01  0.20552912542E+02 -0.76171121047E+02  0.79100264879E+02  0.00000000000E+00 0. -1.
</event>
<event>
 7    1  0.2594791E-009  0.1295507E+03  0.7561462E-02  0.1228124E+00
         -1   -1    0    0    0  501 -0.00000000000E+00  0.00000000000E+00  0.13370567180E+03  0.13370567180E+03  0.00000000000E+00 0.  1.
          1   -1    0    0  501    0  0.00000000000E+00 -0.00000000000E+00 -0.16614194710E+03  0.16614194710E+03  0.00000000000E+00 0. -1.
         25    2    1    2    0    0 -0.43251099443E+02 -0.90426982012E+02 -0.33549155099E+02  0.16377075653E+03  0.12509044011E+03 0.  0.
          5    1    3    3  502    0 -0.59294928701E+02 -0.38752244498E+02 -0.68978549932E+02  0.98960283822E+02  0.41800000000E+01 0. -1.
         -5    1    3    3    0  502  0.16043829258E+02 -0.51674737514E+02  0.35429394834E+02  0.64810472708E+02  0.41800000000E+01 0. -1.
        -11    1    1    2    0    0 -0.40104509356E+01 -0.16493262482E+02 -0.81136993423E+01  0.18813387282E+02  0.00000000000E+00 0.  1.
         11    1    1    2    0    0  0.47261550379E+02  0.10692024449E+03  0.92265791337E+01  0.11726347509E+03  0.00000000000E+00 0. -1.
</event>
<event>
 7    1  0.2594791E-009  0.1073649E+03  0.7561462E-02  0.1265529E+00
         -2   -1    0    0    0  501 -0.00000000000E+00  0.00000000000E+00  0.26561287856E+02  0.26561287856E+02  0.00000000000E+00 0.  1.
          2   -1    0    0  501    0  0.00000000000E+00 -0.00000000000E+00 -0.53006864961E+03  0.53006864961E+03  0.00000000000E+00 0. -1.
         25    2    1    2    0    0  0.37973126864E+02 -0.20640998434E+02 -0.33494423744E+03  0.36014390159E+03  0.12509188015E+03 0.  0.
          5    1    3    3  502    0  0.81816974266E+02 -0.29186019825E+02 -0.23561235424E+03  0.25115034323E+03  0.41800000000E+01 0. -1.
         -5    1    3    3    0  502 -0.43843847402E+02  0.85450213910E+01 -0.99331883198E+02  0.10899355837E+03  0.41800000000E+01 0. -1.
        -11    1    1    2    0    0 -0.60050444744E+01  0.43300087188E+02 -0.31366473568E+02  0.53803473621E+02  0.00000000000E+00 0.  1.
         11    1    1    2    0    0 -0.31968082390E+02 -0.22659088754E+02 -0.13719665075E+03  0.14268256225E+03  0.00000000000E+00 0. -1.
</event>
<event>
 7    1  0.2594791E-009  0.9778495E+02  0.7561462E-02  0.1285024E+00
          1   -1    0    0  501    0  0.00000000000E+00  0.00000000000E+00  0.19536978697E+03  0.19536978697E+03  0.00000000000E+00 0. -1.
         -1   -1    0    0    0  501 -0.00000000000E+00 -0.00000000000E+00 -0.81082609294E+02  0.81082609294E+02  0.00000000000E+00 0.  1.
         25    2    1    2    0    0  0.23633357301E+02 -0.39273824382E+02  0.16853160834E+02  0.13428344862E+03  0.12508815566E+03 0.  0.
          5    1    3    3  502    0  0.12855544658E+02 -0.66540201785E+02  0.54015196395E+02  0.86763917176E+02  0.41800000000E+01 0.  1.
         -5    1    3    3    0  502  0.10777812643E+02  0.27266377404E+02 -0.37162035561E+02  0.47519531449E+02  0.41800000000E+01 0.  1.
        -11    1    1    2    0    0 -0.21281113947E+02  0.66964318812E+02  0.46842371813E+02  0.84447105349E+02  0.00000000000E+00 0.  1.
         11    1    1    2    0    0 -0.23522433540E+01 -0.27690494431E+02  0.50591645031E+02  0.57721842291E+02  0.00000000000E+00 0. -1.
</event>
<event>
 7    1  0.2594791E-009  0.1580077E+03  0.7561462E-02  0.1190965E+00
          1   -1    0    0  501    0  0.00000000000E+00  0.00000000000E+00  0.42897118570E+03  0.42897118570E+03  0.00000000000E+00 0. -1.
         -1   -1    0    0    0  501 -0.00000000000E+00 -0.00000000000E+00 -0.65846167580E+02  0.65846167580E+02  0.00000000000E+00 0.  1.
         25    2    1    2    0    0  0.12195374928E+03  0.39619341726E+02  0.16835258483E+03  0.24583055878E+03  0.12509061360E+03 0.  0.
          5    1    3    3  502    0  0.54392024962E+02 -0.44939780395E+02  0.61720007856E+02  0.93834471337E+02  0.41800000000E+01 0. -1.
         -5    1    3    3    0  502  0.67561724319E+02  0.84559122120E+02  0.10663257697E+03  0.15199608745E+03  0.41800000000E+01 0. -1.
        -11    1    1    2    0    0 -0.69183461128E+02 -0.47140089362E+02  0.17146392251E+03  0.19080989503E+03  0.00000000000E+00 0. -1.
         11    1    1    2    0    0 -0.52770288154E+02  0.75207476358E+01  0.23308510779E+02  0.58176899467E+02  0.00000000000E+00 0.  1.
</event>
<event>
 7    1  0.2594791E-009  0.1346430E+03  0.7561462E-02  0.1220725E+00
          3   -1    0    0  501    0  0.00000000000E+00  0.00000000000E+00  0.63921626941E+03  0.63921626941E+03  0.00000000000E+00 0. -1.
         -3   -1    0    0    0  501 -0.00000000000E+00 -0.00000000000E+00 -0.31341468445E+02  0.31341468445E+02  0.00000000000E+00 0.  1.
         25    2    1    2    0    0  0.20760510827E+02  0.88995570485E+02  0.32636196649E+03  0.36126283122E+03  0.12508992637E+03 0.  0.
          5    1    3    3  502    0  0.64776473679E+02  0.60830237540E+02  0.27005619403E+03  0.28433102131E+03  0.41800000000E+01 0. -1.
         -5    1    3    3    0  502 -0.44015962851E+02  0.28165332945E+02  0.56305772451E+02  0.76931809916E+02  0.41800000000E+01 0. -1.
        -11    1    1    2    0    0 -0.39021397480E+02 -0.20652102892E+01  0.94400774895E+02  0.10216868824E+03  0.00000000000E+00 0. -1.
         11    1    1    2    0    0  0.18260886653E+02 -0.86930360196E+02  0.18711205958E+03  0.20712621839E+03  0.00000000000E+00 0.  1.
</event>
<event>
 7    1  0.2594791E-009  0.1907963E+03  0.7561462E-02  0.1157745E+00
         -2   -1    0    0    0  501 -0.00000000000E+00  0.00000000000E+00  0.21491137130E+02  0.21491137130E+02  0.00000000000E+00 0.  1.
          2   -1    0    0  501    0  0.00000000000E+00 -0.00000000000E+00 -0.19035757503E+04  0.19035757503E+04  0.00000000000E+00 0. -1.
         25    2    1    2    0    0 -0.16907459323E+03  0.16370641253E+02 -0.10452415456E+04  0.10663170818E+04  0.12509202355E+03 0.  0.
          5    1    3    3  502    0  0.11593993334E+02  0.56028110711E+01 -0.14658425861E+02  0.19953797184E+02  0.41800000000E+01 0.  1.
         -5    1    3    3    0  502 -0.18066858656E+03  0.10767830182E+02 -0.10305831198E+04  0.10463632847E+04  0.41800000000E+01 0.  1.
        -11    1    1    2    0    0  0.60545436577E+02  0.31672566627E+02 -0.21216758310E+03  0.22289904595E+03  0.00000000000E+00 0. -1.
         11    1    1    2    0    0  0.10852915665E+03 -0.48043207880E+02 -0.62467548447E+03  0.63585075966E+03  0.00000000000E+00 0.  1.
</event>
<event>
 7    1  0.2594791E-009  0.1848194E+03  0.7561462E-02  0.1163219E+00
          3   -1    0    0  501    0  0.00000000000E+00  0.00000000000E+00  0.11269484376E+03  0.11269484376E+03  0.00000000000E+00 0. -1.
         -3   -1    0    0    0  501 -0.00000000000E+00 -0.00000000000E+00 -0.39160028492E+03  0.39160028492E+03  0.00000000000E+00 0.  1.
         25    2    1    2    0    0 -0.16469604265E+03 -0.53853722215E+01 -0.23029199675E+03  0.30957133289E+03  0.12508484193E+03 0.  0.
          5    1    3    3  502    0 -0.56870735771E+02  0.40431691353E+02 -0.15556621699E+03  0.17055005869E+03  0.41800000000E+01 0. -1.
         -5    1    3    3    0  502 -0.10782530688E+03 -0.45817063575E+02 -0.74725779769E+02  0.13902127420E+03  0.41800000000E+01 0. -1.
        -11    1    1    2    0    0  0.87423897696E+02 -0.36352930334E+02 -0.70748227944E+00  0.94683546424E+02  0.00000000000E+00 0. -1.
         11    1    1    2    0    0  0.77272144953E+02  0.41738302555E+02 -0.47905962128E+02  0.10004024937E+03  0.00000000000E+00 0.  1.
</event>
<event>
 7    1  0.3436808E-009  0.1288604E+03  0.7561462E-02  0.1229157E+00
          2   -1    0    0  501    0  0.00000000000E+00  0.00000000000E+00  0.56310730083E+03  0.56310730083E+03  0.00000000000E+00 0. -1.
         -2   -1    0    0    0  501 -0.00000000000E+00 -0.00000000000E+00 -0.37814516440E+02  0.37814516440E+02  0.00000000000E+00 0.  1.
         25    2    1    2    0    0 -0.94077170112E+02 -0.23605542369E+02  0.29773200700E+03  0.33719361909E+03  0.12508978054E+03 0.  0.
          5    1    3    3  502    0 -0.56994872135E+02 -0.67996511787E+02  0.11394698563E+03  0.14447604991E+03  0.41800000000E+01 0.  1.
         -5    1    3    3    0  502 -0.37082297977E+02  0.44390969419E+02  0.18378502137E+03  0.19271756917E+03  0.41800000000E+01 0.  1.
        -11    1    1    2    0    0  0.16763093194E+02  0.28901176969E+02  0.13435582994E+02  0.36011029061E+02  0.00000000000E+00 0.  1.
         11    1    1    2    0    0  0.77314076917E+02 -0.52956346006E+01  0.21412519439E+03  0.22771716911E+03  0.00000000000E+00 0. -1.
</event>
<event>
 7    1  0.2594791E-009  0.5990172E+02  0.7561462E-02  0.1398245E+00
          2   -1    0    0  501    0  0.00000000000E+00  0.00000000000E+00  0.14521778882E+03  0.14521778882E+03  0.00000000000E+00 0. -1.
         -2   -1    0    0    0  501 -0.00000000000E+00 -0.00000000000E+00 -0.94495870847E+02  0.94495870847E+02  0.00000000000E+00 0.  1.
         25    2    1    2    0    0  0.13438722079E+02  0.80637438516E+01 -0.14334282838E+02  0.12688379956E+03  0.12509357981E+03 0.  0.
          5    1    3    3  502    0  0.33324510420E+02 -0.23157766223E+01 -0.63951482417E+02  0.72271365833E+02  0.41800000000E+01 0.  1.
         -5    1    3    3    0  502 -0.19885788340E+02  0.10379520474E+02  0.49617199580E+02  0.54612433724E+02  0.41800000000E+01 0.  1.
        -11    1    1    2    0    0  0.12197173197E+02 -0.28197996637E+02  0.73066331807E+02  0.79262771160E+02  0.00000000000E+00 0. -1.
         11    1    1    2    0    0 -0.25635895276E+02  0.20134252786E+02 -0.80101309970E+01  0.33567088948E+02  0.00000000000E+00 0.  1.
</event>
<event>
 7    1  0.2594791E-009  0.1616470E+03  0.7561462E-02  0.1186850E+00
         -1   -1    0    0    0  501 -0.00000000000E+00  0.00000000000E+00  0.26485629435E+03  0.26485629435E+03  0.00000000000E+00 0. -1.
          1   -1    0    0  501    0  0.00000000000E+00 -0.00000000000E+00 -0.11758685592E+03  0.11758685592E+03  0.00000000000E+00 0.  1.
         25    2    1    2    0    0  0.12903661800E+03  0.96169484870E+01  0.26764277988E+02  0.18195181165E+03  0.12508877128E+03 0.  0.
          5    1    3    3  502    0  0.10621099588E+02  0.44135506576E+02  0.36149119037E+02  0.58180597319E+02  0.41800000000E+01 0. -1.
         -5    1    3    3    0  502  0.11841551842E+03 -0.34518558089E+02 -0.93848410499E+01  0.12377121433E+03  0.41800000000E+01 0. -1.
        -11    1    1    2    0    0 -0.78282627575E+02 -0.46953154227E+02  0.97115697790E+02  0.13328250909E+03  0.00000000000E+00 0. -1.
         11    1    1    2    0    0 -0.50753990429E+02  0.37336205740E+02  0.23389462652E+02  0.67208829529E+02  0.00000000000E+00 0.  1.
</event>
<event>
 7    1  0.2594791E-009  0.9602920E+02  0.7561462E-02  0.1288875E+00
         -3   -1    0    0    0  501 -0.00000000000E+00  0.00000000000E+00  0.80588071298E+02  0.80588071298E+02  0.00000000000E+00 0.  1.
          3   -1    0    0  501    0  0.00000000000E+00 -0.00000000000E+00 -0.15398894381E+03  0.15398894381E+03  0.00000000000E+00 0. -1.
         25    2    1    2    0    0 -0.44739568049E+02  0.15279750697E+02  0.22505195870E+01  0.13373226379E+03  0.12507659177E+03 0.  0.
          5    1    3    3  502    0 -0.82679646958E+02 -0.15947777326E+02 -0.94600033288E+00  0.84312649936E+02  0.41800000000E+01 0.  1.
         -5    1    3    3    0  502  0.37940078909E+02  0.31227528023E+02  0.31965199199E+01  0.49419613856E+02  0.41800000000E+01 0.  1.
        -11    1    1    2    0    0  0.56148921305E+01 -0.18350144694E+02 -0.46909827130E+01  0.19755002980E+02  0.00000000000E+00 0.  1.
         11    1    1    2    0    0  0.39124675918E+02  0.30703939970E+01 -0.70960409388E+02  0.81089748338E+02  0.00000000000E+00 0. -1.
</event>
<event>
 7    1  0.2594791E-009  0.1068900E+03  0.7561462E-02  0.1266440E+00
         -2   -1    0    0    0  501 -0.00000000000E+00  0.00000000000E+00  0.95461244614E+01  0.95461244614E+01  0.00000000000E+00 0.  1.
          2   -1    0    0  501    0  0.00000000000E+00 -0.00000000000E+00 -0.16804711056E+04  0.16804711056E+04  0.00000000000E+00 0. -1.
         25    2    1    2    0    0 -0.14414898790E+02 -0.18573601865E+02 -0.13297096776E+04  0.13357880577E+04  0.12509652452E+03 0.  0.
          5    1    3    3  502    0 -0.53750335708E+02  0.29384667484E+02 -0.50070075838E+03  0.50445146359E+03  0.41800000000E+01 0.  1.
         -5    1    3    3    0  502  0.39335436919E+02 -0.47958269349E+02 -0.82900891924E+03  0.83133659415E+03  0.41800000000E+01 0.  1.
        -11    1    1    2    0    0 -0.36911167680E+02  0.63924205200E+01 -0.20010105422E+03  0.20357732988E+03  0.00000000000E+00 0. -1.
         11    1    1    2    0    0  0.51326066470E+02  0.12181181345E+02 -0.14111424933E+03  0.15065184248E+03  0.00000000000E+00 0.  1.
</event>
<event>
 7    1  0.2594791E-009  0.1686904E+03  0.7561462E-02  0.1179221E+00
          1   -1    0    0  501    0  0.00000000000E+00  0.00000000000E+00  0.56501049987E+03  0.56501049987E+03  0.00000000000E+00 0. -1.
         -1   -1    0    0    0  501 -0.00000000000E+00 -0.00000000000E+00 -0.64012151637E+02  0.64012151637E+02  0.00000000000E+00 0.  1.
         25    2    1    2    0    0  0.13211029097E+03 -0.79589695137E+02  0.28730959486E+03  0.34925886319E+03  0.12508917485E+03 0.  0.
          5    1    3    3  502    0  0.67794250293E+02 -0.17303945739E+02  0.23554927258E+03  0.24575682925E+03  0.41800000000E+01 0.  1.
         -5    1    3    3    0  502  0.64316040678E+02 -0.62285749397E+02  0.51760322281E+02  0.10350203394E+03  0.41800000000E+01 0.  1.
        -11    1    1    2    0    0 -0.28402816236E+02  0.67519995368E+02  0.64068755140E+02  0.97316366198E+02  0.00000000000E+00 0.  1.
         11    1    1    2    0    0 -0.10370747474E+03  0.12069699768E+02  0.14961999824E+03  0.18244742213E+03  0.00000000000E+00 0. -1.
</event>
<event>
 7    1  0.2594791E-009  0.1013175E+03  0.7561462E-02  0.1277550E+00
         -2   -1    0    0    0  501 -0.00000000000E+00  0.00000000000E+00  0.90491626674E+02  0.90491626674E+02  0.00000000000E+00 0.  1.
          2   -1    0    0  501    0  0.00000000000E+00 -0.00000000000E+00 -0.19014407102E+03  0.19014407102E+03  0.00000000000E+00 0. -1.
         25    2    1    2    0    0 -0.45427823480E+02 -0.57432963588E+02 -0.64795275161E+02  0.15876870431E+03  0.12508733483E+03 0.  0.
          5    1    3    3  502    0  0.33333962403E+01  0.13265375063E+02  0.28503584002E+02  0.31890569249E+02  0.41800000000E+01 0. -1.
         -5    1    3    3    0  502 -0.48761219720E+02 -0.70698338651E+02 -0.93298859163E+02  0.12687813507E+03  0.41800000000E+01 0. -1.
        -11    1    1    2    0    0  0.12366087848E+01  0.58138007264E+02  0.98748688800E+01  0.58983642862E+02  0.00000000000E+00 0.  1.
         11    1    1    2    0    0  0.44191214695E+02 -0.70504367574E+00 -0.44732038064E+02  0.62883350517E+02  0.00000000000E+00 0. -1.
</event>
<event>
 7    1  0.2594791E-009  0.1426003E+03  0.7561462E-02  0.1209872E+00
          2   -1    0    0  501    0  0.00000000000E+00  0.00000000000E+00  0.12736926974E+04  0.12736926974E+04  0.00000000000E+00 0. -1.
         -2   -1    0    0    0  501 -0.00000000000E+00 -0.00000000000E+00 -0.27795105298E+02  0.27795105298E+02  0.00000000000E+00 0.  1.
         25    2    1    2    0    0  0.35232560061E+02  0.10648561782E+03  0.10161108913E+04  0.10299073129E+04  0.12508880753E+03 0.  0.
          5    1    3    3  502    0 -0.28451297428E+02  0.43194800502E+02  0.14194695140E+03  0.15113463047E+03  0.41800000000E+01 0.  1.
         -5    1    3    3    0  502  0.63683857489E+02  0.63290817322E+02  0.87416393985E+03  0.87877268244E+03  0.41800000000E+01 0.  1.
        -11    1    1    2    0    0 -0.65318891609E+02 -0.80541462046E+02  0.18166665247E+03  0.20917996397E+03  0.00000000000E+00 0. -1.
         11    1    1    2    0    0  0.30086331548E+02 -0.25944155779E+02  0.48120048363E+02  0.62400525795E+02  0.00000000000E+00 0.  1.
</event>
<event>
 7    1  0.2594791E-009  0.3316900E+03  0.7561462E-02  0.1070392E+00
         -1   -1    0    0    0  501 -0.00000000000E+00  0.00000000000E+00  0.18554341073E+03  0.18554341073E+03  0.00000000000E+00 0.  1.
          1   -1    0    0  501    0  0.00000000000E+00 -0.00000000000E+00 -0.72685067593E+03  0.72685067593E+03  0.00000000000E+00 0. -1.
         25    2    1    2    0    0  0.26375073309E+03  0.17877571506E+03 -0.45490042220E+03  0.56930365431E+03  0.12508817369E+03 0.  0.
          5    1    3    3  502    0  0.72739042208E+02 -0.82152729674E+01 -0.76172683128E+02  0.10572704964E+03  0.41800000000E+01 0. -1.
         -5    1    3    3    0  502  0.19101169088E+03  0.18699098803E+03 -0.37872773907E+03  0.46357660467E+03  0.41800000000E+01 0. -1.
        -11    1    1    2    0    0 -0.24971067902E+03 -0.15157778306E+03 -0.10113000354E+03  0.30912541977E+03  0.00000000000E+00 0.  1.
         11    1    1    2    0    0 -0.14040054070E+02 -0.27197931996E+02  0.14723160539E+02  0.33965012578E+02  0.00000000000E+00 0. -1.
</event>
<event>
 7    1  0.2594791E-009  0.8760924E+02  0.7561462E-02  0.1308747E+00
          1   -1    0    0  501    0  0.00000000000E+00  0.00000000000E+00  0.48661923485E+03  0.48661923485E+03  0.00000000000E+00 0. -1.
         -1   -1    0    0    0  501 -0.00000000000E+00 -0.00000000000E+00 -0.24894115311E+02  0.24894115311E+02  0.00000000000E+00 0.  1.
         25    2    1    2    0    0 -0.10591526511E+02 -0.16199483710E+01  0.29802710050E+03  0.32339021339E+03  0.12508506233E+03 0.  0.
          5    1    3    3  502    0 -0.57745404712E+02  0.70007693358E+00  0.24721445888E+03  0.25390447604E+03  0.41800000000E+01 0.  1.
         -5    1    3    3    0  502  0.47153878201E+02 -0.23200253045E+01  0.50812641613E+02  0.69485737346E+02  0.41800000000E+01 0.  1.
        -11    1    1    2    0    0  0.18882223915E+02 -0.30982002069E+02  0.14533994505E+03  0.14980027523E+03  0.00000000000E+00 0. -1.
         11    1    1    2    0    0 -0.82906974043E+01  0.32601950440E+02  0.18358073990E+02  0.38322861539E+02  0.00000000000E+00 0.  1.
</event>
<event>
 7    1  0.2594791E-009  0.1557801E+03  0.7561462E-02  0.1193545E+00
          2   -1    0    0  501    0  0.00000000000E+00  0.00000000000E+00  0.55376200399E+03  0.55376200399E+03  0.00000000000E+00 0. -1.
         -2   -1    0    0    0  501 -0.00000000000E+00 -0.00000000000E+00 -0.52238377210E+02  0.52238377210E+02  0.00000000000E+00 0.  1.
         25    2    1    2    0    0  0.97932081025E+02  0.74367766001E+02  0.34655658600E+03  0.38842003641E+03  0.12508956898E+03 0.  0.
          5    1    3    3  502    0  0.38049967160E+02  0.98954195029E+02  0.17076469636E+03  0.20104175347E+03  0.41800000000E+01 0. -1.
         -5    1    3    3    0  502  0.59882113865E+02 -0.24586429028E+02  0.17579188964E+03  0.18737828294E+03  0.41800000000E+01 0. -1.
        -11    1    1    2    0    0 -0.85266649034E+02 -0.23890395270E+02  0.53263773122E+02  0.10333528899E+03  0.00000000000E+00 0. -1.
         11    1    1    2    0    0 -0.12665431991E+02 -0.50477370731E+02  0.10170326766E+03  0.11424505581E+03  0.00000000000E+00 0.  1.
</event>
<event>
 7    1  0.2594791E-009  0.1453575E+03  0.7561462E-02  0.1206297E+00
          1   -1    0    0  501    0  0.00000000000E+00  0.00000000000E+00  0.16670455071E+04  0.16670455071E+04  0.00000000000E+00 0. -1.
         -1   -1    0    0    0  501 -0.00000000000E+00 -0.00000000000E+00 -0.33151471914E+02  0.33151471914E+02  0.00000000000E+00 0.  1.
         25    2    1    2    0    0  0.96903574490E+02  0.18942312591E+02  0.15078277382E+04  0.15162258731E+04  0.12508915289E+03 0.  0.
          5    1    3    3  502    0  0.62358439642E+02 -0.51167938312E+02  0.81369177482E+03  0.81769096223E+03  0.41800000000E+01 0. -1.
         -5    1    3    3    0  502  0.34545134848E+02  0.70110250903E+02  0.69413596338E+03  0.69853491085E+03  0.41800000000E+01 0. -1.
        -11    1    1    2    0    0 -0.11358562196E+03 -0.17525331718E+02  0.96839872381E+02  0.15028902705E+03  0.00000000000E+00 0.  1.
         11    1    1    2    0    0  0.16682047475E+02 -0.14169808727E+01  0.29226424643E+02  0.33682078917E+02  0.00000000000E+00 0. -1.
</event>
<event>
 7    1  0.2594791E-009  0.1277986E+03  0.7561462E-02  0.1230759E+00
         -1   -1    0    0    0  501 -0.00000000000E+00  0.00000000000E+00  0.66638743828E+02  0.66638743828E+02  0.00000000000E+00 0.  1.
          1   -1    0    0  501    0  0.00000000000E+00 -0.00000000000E+00 -0.29273800763E+03  0.29273800763E+03  0.00000000000E+00 0. -1.
         25    2    1    2    0    0  0.59975287784E+02 -0.61581749800E+02 -0.14412675580E+03  0.20930728608E+03  0.12509065200E+03 0.  0.
          5    1    3    3  502    0  0.78307469233E+02 -0.12259927345E+02 -0.32381976212E+02  0.85722986063E+02  0.41800000000E+01 0.  1.
         -5    1    3    3    0  502 -0.18332181449E+02 -0.49321822455E+02 -0.11174477958E+03  0.12358430002E+03  0.41800000000E+01 0.  1.
        -11    1    1    2    0    0 -0.89532809177E+01  0.70995852085E+02 -0.33289953778E+02  0.78922704432E+02  0.00000000000E+00 0.  1.
         11    1    1    2    0    0 -0.51022006866E+02 -0.94141022846E+01 -0.48682554229E+02  0.71146760943E+02  0.00000000000E+00 0. -1.
</event>
<event>
 7    1  0.2594791E-009  0.9639426E+02  0.7561462E-02  0.1288066E+00
          1   -1    0    0  501    0  0.00000000000E+00  0.00000000000E+00  0.37746911216E+03  0.37746911216E+03  0.00000000000E+00 0. -1.
         -1   -1    0    0    0  501 -0.00000000000E+00 -0.00000000000E+00 -0.77572922564E+02  0.77572922564E+02  0.00000000000E+00 0.  1.
         25    2    1    2    0    0 -0.49228048177E+02  0.17127852281E+02  0.32134668441E+03  0.34875135648E+03  0.12508818095E+03 0.  0.
          5    1    3    3  502    0 -0.27529374342E+02 -0.47801765385E+02  0.21655834518E+03  0.22351256003E+03  0.41800000000E+01 0.  1.
         -5    1    3    3    0  502 -0.21698673835E+02  0.64929617666E+02  0.10478833924E+03  0.12523879645E+03  0.41800000000E+01 0.  1.
        -11    1    1    2    0    0 -0.84055857047E+00 -0.18766987762E+02  0.29412724667E+02  0.34900067918E+02  0.00000000000E+00 0. -1.
         11    1    1    2    0    0  0.50068606748E+02  0.16391354815E+01 -0.50863219481E+02  0.71390610327E+02  0.00000000000E+00 0.  1.
</event>
<event>
 7    1  0.2594791E-009  0.1030027E+03  0.7561462E-02  0.1274106E+00
          1   -1    0    0  501    0  0.00000000000E+00  0.00000000000E+00  0.94845987147E+02  0.94845987147E+02  0.00000000000E+00 0. -1.
         -1   -1    0    0    0  501 -0.00000000000E+00 -0.00000000000E+00 -0.13750189809E+03  0.13750189809E+03  0.00000000000E+00 0.  1.
         25    2    1    2    0    0  0.13685409123E+02 -0.40191139965E+02 -0.53559098525E+01  0.13220662846E+03  0.12508912297E+03 0.  0.
          5    1    3    3  502    0 -0.35986147514E+02  0.16118570586E+02 -0.33500728530E+02  0.51909366618E+02  0.41800000000E+01 0. -1.
         -5    1    3    3    0  502  0.49671556637E+02 -0.56309710552E+02  0.28144818677E+02  0.80297261843E+02  0.41800000000E+01 0. -1.
        -11    1    1    2    0    0 -0.28673176517E+02 -0.16109457528E+02 -0.42600657638E+01  0.33163441223E+02  0.00000000000E+00 0.  1.
         11    1    1    2    0    0  0.14987767394E+02  0.56300597494E+02 -0.33039935322E+02  0.66977815549E+02  0.00000000000E+00 0. -1.
</event>
<event>
 7    1  0.2594791E-009  0.1885756E+03  0.7561462E-02  0.1159752E+00
         -2   -1    0    0    0  501 -0.00000000000E+00  0.00000000000E+00  0.59181348172E+02  0.59181348172E+02  0.00000000000E+00 0.  1.
          2   -1    0    0  501    0  0.00000000000E+00 -0.00000000000E+00 -0.94958502790E+03  0.94958502790E+03  0.00000000000E+00 0. -1.
         25    2    1    2    0    0 -0.29882036799E+02 -0.17551412233E+03 -0.69963430389E+03  0.73268957861E+03  0.12509083170E+03 0.  0.
          5    1    3    3  502    0  0.90815320497E+01 -0.90682819807E+02 -0.54051709878E+03  0.54816243442E+03  0.41800000000E+01 0.  1.
         -5    1    3    3    0  502 -0.38963568848E+02 -0.84831302522E+02 -0.15911720511E+03  0.18452714420E+03  0.41800000000E+01 0.  1.
        -11    1    1    2    0    0 -0.22768920589E+02  0.82581916699E+02 -0.49375861251E+02  0.98874528493E+02  0.00000000000E+00 0.  1.
         11    1    1    2    0    0  0.52650957387E+02  0.92932205630E+02 -0.14139351459E+03  0.17720226896E+03  0.00000000000E+00 0. -1.
</event>
<event>
 7    1  0.2594791E-009  0.9003303E+02  0.7561462E-02  0.1302772E+00
         -2   -1    0    0    0  501 -0.00000000000E+00  0.00000000000E+00  0.51451337801E+02  0.51451337801E+02  0.00000000000E+00 0.  1.
          2   -1    0    0  501    0  0.00000000000E+00 -0.00000000000E+00 -0.35814337934E+03  0.35814337934E+03  0.00000000000E+00 0. -1.
         25    2    1    2    0    0 -0.77534496509E+02 -0.96702066553E+01 -0.14697562271E+03  0.20819475762E+03  0.12505243853E+03 0.  0.
          5    1    3    3  502    0  0.18811644123E+01 -0.45502322067E+01 -0.12549380678E+03  0.12565990344E+03  0.41800000000E+01 0.  1.
         -5    1    3    3    0  502 -0.79415660921E+02 -0.51199744487E+01 -0.21481815923E+02  0.82534854172E+02  0.41800000000E+01 0.  1.
        -11    1    1    2    0    0  0.59946144997E+02 -0.16691452234E+02 -0.32316589995E+02  0.70117807058E+02  0.00000000000E+00 0.  1.
         11    1    1    2    0    0  0.17588351511E+02  0.26361658889E+02 -0.12739982884E+03  0.13128215246E+03  0.00000000000E+00 0. -1.
</event>
<event>
 7    1  0.2594791E-009  0.7758855E+02  0.7561462E-02  0.1336037E+00
          1   -1    0    0  501    0  0.00000000000E+00  0.00000000000E+00  0.15168738760E+03  0.15168738760E+03  0.00000000000E+00 0. -1.
         -1   -1    0    0    0  501 -0.00000000000E+00 -0.00000000000E+00 -0.15068253920E+03  0.15068253920E+03  0.00000000000E+00 0.  1.
         25    2    1    2    0    0 -0.70126568270E+02 -0.78033751473E+01 -0.77075847010E+02  0.16299452826E+03  0.12509157370E+03 0.  0.
          5    1    3    3  502    0 -0.11327541650E+02  0.15196277127E+02  0.31690436243E+02  0.37161757058E+02  0.41800000000E+01 0.  1.
         -5    1    3    3    0  502 -0.58799026620E+02 -0.22999652274E+02 -0.10876628325E+03  0.12583277120E+03  0.41800000000E+01 0.  1.
        -11    1    1    2    0    0  0.57820123532E+02  0.12783876597E+02  0.98553027612E+02  0.11497518618E+03  0.00000000000E+00 0. -1.
         11    1    1    2    0    0  0.12306444737E+02 -0.49805014501E+01 -0.20472332208E+02  0.24400212352E+02  0.00000000000E+00 0.  1.
</event>
<event>
 7    1  0.2594791E-009  0.2230981E+03  0.7561462E-02  0.1131594E+00
         -2   -1    0    0    0  501 -0.00000000000E+00  0.00000000000E+00  0.40597355523E+02  0.40597355523E+02  0.00000000000E+00 0. -1.
          2   -1    0    0  501    0  0.00000000000E+00 -0.00000000000E+00 -0.14324088349E+04  0.14324088349E+04  0.00000000000E+00 0.  1.
         25    2    1    2    0    0  0.20475179851E+03 -0.65607823154E+02 -0.69072347187E+03  0.73414893740E+03  0.12509221494E+03 0.  0.
          5    1    3    3  502    0  0.10976732879E+03 -0.51467258251E+02 -0.19852954005E+03  0.23265681983E+03  0.41800000000E+01 0.  1.
         -5    1    3    3    0  502  0.94984469729E+02 -0.14140564903E+02 -0.49219393182E+03  0.50149211757E+03  0.41800000000E+01 0.  1.
        -11    1    1    2    0    0 -0.15282379110E+03  0.83120933528E+02 -0.46458760469E+03  0.49609055942E+03  0.00000000000E+00 0.  1.
         11    1    1    2    0    0 -0.51928007414E+02 -0.17513110374E+02 -0.23650040285E+03  0.24276669363E+03  0.00000000000E+00 0. -1.
</event>
<event>
 7    1  0.2594791E-009  0.9763346E+02  0.7561462E-02  0.1285353E+00
         -1   -1    0    0    0  501 -0.00000000000E+00  0.00000000000E+00  0.85565686588E+02  0.85565686588E+02  0.00000000000E+00 0.  1.
          1   -1    0    0  501    0  0.00000000000E+00 -0.00000000000E+00 -0.37164898708E+03  0.37164898708E+03  0.00000000000E+00 0. -1.
         25    2    1    2    0    0  0.47686785102E+02  0.60319969989E+02 -0.30452378470E+03  0.33807261934E+03  0.12508330124E+03 0.  0.
          5    1    3    3  502    0  0.49312418812E+02  0.32813756662E+02 -0.38891277817E+02  0.70982118633E+02  0.41800000000E+01 0.  1.
         -5    1    3    3    0  502 -0.16256337098E+01  0.27506213327E+02 -0.26563250689E+03  0.26709050071E+03  0.41800000000E+01 0.  1.
        -11    1    1    2    0    0 -0.30534860026E+01 -0.63217003067E+02  0.33925880726E+02  0.71810017662E+02  0.00000000000E+00 0.  1.
         11    1    1    2    0    0 -0.44633299099E+02  0.28970330783E+01 -0.15485396514E+02  0.47332036660E+02  0.00000000000E+00 0. -1.
</event>
<event>
 7    1  0.2594791E-009  0.1159959E+03  0.7561462E-02  0.1249853E+00
          2   -1    0    0  501    0  0.00000000000E+00  0.00000000000E+00  0.33533312881E+03  0.33533312881E+03  0.00000000000E+00 0. -1.
         -2   -1    0    0    0  501 -0.00000000000E+00 -0.00000000000E+00 -0.73904622677E+02  0.73904622677E+02  0.00000000000E+00 0.  1.
         25    2    1    2    0    0 -0.86977759198E+02 -0.17273542500E+02  0.23369594817E+03  0.27950881519E+03  0.12509146940E+03 0.  0.
          5    1    3    3  502    0 -0.48444330876E+02 -0.61680494527E+02  0.68867681259E+02  0.10445844399E+03  0.41800000000E+01 0. -1.
         -5    1    3    3    0  502 -0.38533428321E+02  0.44406952028E+02  0.16482826691E+03  0.17505037120E+03  0.41800000000E+01 0. -1.
        -11    1    1    2    0    0  0.48638994673E+02  0.26051379653E+02 -0.27717093264E+02  0.61746768690E+02  0.00000000000E+00 0.  1.
         11    1    1    2    0    0  0.38338764524E+02 -0.87778371529E+01  0.55449651231E+02  0.67982167603E+02  0.00000000000E+00 0. -1.
</event>
<event>
 7    1  0.2594791E-009  0.1345724E+03  0.7561462E-02  0.1220825E+00
         -1   -1    0    0    0  501 -0.00000000000E+00  0.00000000000E+00  0.24866379343E+03  0.24866379343E+03  0.00000000000E+00 0.  1.
          1   -1    0    0  501    0  0.00000000000E+00 -0.00000000000E+00 -0.94344430522E+02  0.94344430522E+02  0.00000000000E+00 0. -1.
         25    2    1    2    0    0 -0.10715570014E+03  0.96727780188E+01  0.88561965993E+02  0.18725794249E+03  0.12508560468E+03 0.  0.
          5    1    3    3  502    0 -0.12201338296E+03  0.14222939813E+01  0.10663183171E+03  0.16210215444E+03  0.41800000000E+01 0. -1.
         -5    1    3    3    0  502  0.14857682820E+02  0.82504840375E+01 -0.18069865713E+02  0.25155788052E+02  0.41800000000E+01 0. -1.
        -11    1    1    2    0    0  0.76269526316E+01 -0.27411865771E+02 -0.91918526379E+01  0.29901019153E+02  0.00000000000E+00 0. -1.
         11    1    1    2    0    0  0.99528747507E+02  0.17739087752E+02  0.74949249555E+02  0.12584926231E+03  0.00000000000E+00 0.  1.
</event>
<event>
 7    1  0.2594791E-009  0.1297813E+03  0.7561462E-02  0.1227781E+00
          1   -1    0    0  501    0  0.00000000000E+00  0.00000000000E+00  0.76381199564E+03  0.76381199564E+03  0.00000000000E+00 0. -1.
         -1   -1    0    0    0  501 -0.00000000000E+00 -0.00000000000E+00 -0.31008077057E+02  0.31008077057E+02  0.00000000000E+00 0.  1.
         25    2    1    2    0    0  0.60798437113E+02  0.90777276928E+02  0.40143409731E+03  0.43443237171E+03  0.12508072251E+03 0.  0.
          5    1    3    3  502    0 -0.23944157192E+02 -0.12464298558E+01  0.16617529562E+03  0.16794813939E+03  0.41800000000E+01 0. -1.
         -5    1    3    3    0  502  0.84742594306E+02  0.92023706784E+02  0.23525880169E+03  0.26648423232E+03  0.41800000000E+01 0. -1.
        -11    1    1    2    0    0 -0.58561100374E+02 -0.80555397182E+02  0.33486067244E+03  0.34935690124E+03  0.00000000000E+00 0. -1.
         11    1    1    2    0    0 -0.22373367395E+01 -0.10221879746E+02 -0.34908511734E+01  0.11030799751E+02  0.00000000000E+00 0.  1.
</event>
<event>
 7    1  0.2594791E-009  0.1096163E+03  0.7561462E-02  0.1261282E+00
         -1   -1    0    0    0  501 -0.00000000000E+00  0.00000000000E+00  0.50495574698E+02  0.50495574698E+02  0.00000000000E+00 0.  1.
          1   -1    0    0  501    0  0.00000000000E+00 -0.00000000000E+00 -0.24853546154E+03  0.24853546154E+03  0.00000000000E+00 0. -1.
         25    2    1    2    0    0 -0.23069565269E+01 -0.37051292588E+02 -0.12954830633E+03  0.18386995641E+03  0.12508907573E+03 0.  0.
          5    1    3    3  502    0  0.48235597422E+02 -0.57980144639E+02 -0.78219713741E+02  0.10873898128E+03  0.41800000000E+01 0.  1.
         -5    1    3    3    0  502 -0.50542553948E+02  0.20928852051E+02 -0.51328592590E+02  0.75130975137E+02  0.41800000000E+01 0.  1.
        -11    1    1    2    0    0  0.26301435367E+01  0.62913034899E+02 -0.62273255005E+02  0.88560295303E+02  0.00000000000E+00 0. -1.
         11    1    1    2    0    0 -0.32318700981E+00 -0.25861742312E+02 -0.62183255098E+01  0.26600784526E+02  0.00000000000E+00 0.  1.
</event>
<event>
 7    1  0.2594791E-009  0.1528120E+03  0.7561462E-02  0.1197060E+00
         -2   -1    0    0    0  501 -0.00000000000E+00  0.00000000000E+00  0.85911643169E+02  0.85911643169E+02  0.00000000000E+00 0.  1.
          2   -1    0    0  501    0  0.00000000000E+00 -0.00000000000E+00 -0.40793978027E+03  0.40793978027E+03  0.00000000000E+00 0. -1.
         25    2    1    2    0    0  0.44209988989E+02 -0.12952410586E+03 -0.87096743906E+02  0.20485137201E+03  0.12508886717E+03 0.  0.
          5    1    3    3  502    0  0.17311412561E+02 -0.79128142494E+02  0.19877646596E+02  0.83507731221E+02  0.41800000000E+01 0.  1.
         -5    1    3    3    0  502  0.26898576428E+02 -0.50395963367E+02 -0.10697439050E+03  0.12134364079E+03  0.41800000000E+01 0.  1.
        -11    1    1    2    0    0 -0.35643222618E+02 -0.17491169718E+01 -0.37605074833E+02  0.51842457330E+02  0.00000000000E+00 0.  1.
         11    1    1    2    0    0 -0.85667663713E+01  0.13127322283E+03 -0.19732631836E+03  0.23715759409E+03  0.00000000000E+00 0. -1.
</event>
<event>
 7    1  0.2594791E-009  0.1682859E+03  0.7561462E-02  0.1179647E+00
         -1   -1    0    0    0  501 -0.00000000000E+00  0.00000000000E+00  0.49257589653E+03  0.49257589653E+03  0.00000000000E+00 0.  1.
          1   -1    0    0  501    0  0.00000000000E+00 -0.00000000000E+00 -0.87368339989E+02  0.87368339989E+02  0.00000000000E+00 0. -1.
         25    2    1    2    0    0  0.81238606441E+02 -0.13252613726E+03  0.33095039229E+03  0.38644308377E+03  0.12508879486E+03 0.  0.
          5    1    3    3  502    0  0.78272655868E+02 -0.11069714937E+03  0.14276233142E+03  0.19692390207E+03  0.41800000000E+01 0.  1.
         -5    1    3    3    0  502  0.29659505731E+01 -0.21828987895E+02  0.18818806088E+03  0.18951918170E+03  0.41800000000E+01 0.  1.
        -11    1    1    2    0    0  0.42967026489E+01  0.75693401425E+02  0.35786905603E+02  0.83837075842E+02  0.00000000000E+00 0. -1.
         11    1    1    2    0    0 -0.85535309090E+02  0.56832735836E+02  0.38470258641E+02  0.10966407691E+03  0.00000000000E+00 0.  1.
</event>
<event>
 7    1  0.2594791E-009  0.1231620E+03  0.7561462E-02  0.1237970E+00
         -2   -1    0    0    0  501 -0.00000000000E+00  0.00000000000E+00  0.22996253748E+02  0.22996253748E+02  0.00000000000E+00 0.  1.
          2   -1    0    0  501    0  0.00000000000E+00 -0.00000000000E+00 -0.14618792607E+04  0.14618792607E+04  0.00000000000E+00 0. -1.
         25    2    1    2    0    0  0.21750469943E+02  0.10676051912E+03 -0.11585023654E+04  0.11703193905E+04  0.12509537812E+03 0.  0.
          5    1    3    3  502    0  0.54264822592E+01  0.29676295233E+02 -0.46908567589E+02  0.55928662792E+02  0.41800000000E+01 0.  1.
         -5    1    3    3    0  502  0.16323987684E+02  0.77084223884E+02 -0.11115937978E+04  0.11143907277E+04  0.41800000000E+01 0.  1.
        -11    1    1    2    0    0  0.11760491960E+02 -0.10251129966E+03 -0.24395192509E+03  0.26487623050E+03  0.00000000000E+00 0.  1.
         11    1    1    2    0    0 -0.33510961903E+02 -0.42492194542E+01 -0.36428716401E+02  0.49679893441E+02  0.00000000000E+00 0. -1.
</event>
<event>
 7    1  0.2594791E-009  0.1291783E+03  0.7561462E-02  0.1228680E+00
         -1   -1    0    0    0  501 -0.00000000000E+00  0.00000000000E+00  0.83534330348E+02  0.83534330348E+02  0.00000000000E+00 0.  1.
          1   -1    0    0  501    0  0.00000000000E+00 -0.00000000000E+00 -0.29475517751E+03  0.29475517751E+03  0.00000000000E+00 0. -1.
         25    2    1    2    0    0 -0.10561504189E+03  0.10219836512E+02 -0.65942790587E+02  0.17678888267E+03  0.12508747049E+03 0.  0.
          5    1    3    3  502    0 -0.11654348868E+03  0.37471304852E+02 -0.77511625355E+02  0.14495519275E+03  0.41800000000E+01 0. -1.
         -5    1    3    3    0  502  0.10928446789E+02 -0.27251468340E+02  0.11568834768E+02  0.31833689918E+02  0.41800000000E+01 0. -1.
        -11    1    1    2    0    0  0.23766328903E+02 -0.36684465664E+00  0.99276035445E+01  0.25759081440E+02  0.00000000000E+00 0.  1.
         11    1    1    2    0    0  0.81848712986E+02 -0.98529918551E+01 -0.15520566012E+03  0.17574154375E+03  0.00000000000E+00 0. -1.
</event>
<event>
 7    1  0.2594791E-009  0.1365370E+03  0.7561462E-02  0.1218066E+00
         -1   -1    0    0    0  501 -0.00000000000E+00  0.00000000000E+00  0.14396387692E+03  0.14396387692E+03  0.00000000000E+00 0.  1.
          1   -1    0    0  501    0  0.00000000000E+00 -0.00000000000E+00 -0.18051668429E+03  0.18051668429E+03  0.00000000000E+00 0. -1.
         25    2    1    2    0    0 -0.75340980847E+02  0.28017622551E+02 -0.10259045244E+03  0.18063613680E+03  0.12507342811E+03 0.  0.
          5    1    3    3  502    0 -0.10884688419E+03  0.20843723617E+02 -0.60950617598E+02  0.12654862780E+03  0.41800000000E+01 0.  1.
         -5    1    3    3    0  502  0.33505903341E+02  0.71738989339E+01 -0.41639834843E+02  0.54087509005E+02  0.41800000000E+01 0.  1.
        -11    1    1    2    0    0 -0.19189199535E+02  0.14448471703E+02  0.98509737387E+01  0.25961999093E+02  0.00000000000E+00 0.  1.
         11    1    1    2    0    0  0.94530180382E+02 -0.42466094254E+02  0.56186671333E+02  0.11788242532E+03  0.00000000000E+00 0. -1.
</event>
<event>
 7    1  0.2594791E-009  0.5534367E+02  0.7561462E-02  0.1418481E+00
         -2   -1    0    0    0  501 -0.00000000000E+00  0.00000000000E+00  0.26577387816E+03  0.26577387816E+03  0.00000000000E+00 0.  1.
          2   -1    0    0  501    0  0.00000000000E+00 -0.00000000000E+00 -0.50829315062E+02  0.50829315062E+02  0.00000000000E+00 0. -1.
         25    2    1    2    0    0 -0.40367821517E+02  0.22352113856E+01  0.10557866149E+03  0.16864670332E+03  0.12514111873E+03 0.  0.
          5    1    3    3  502    0 -0.29420345762E+01 -0.11817064236E+02  0.12383328191E+03  0.12450081399E+03  0.41800000000E+01 0. -1.
         -5    1    3    3    0  502 -0.37425786940E+02  0.14052275621E+02 -0.18254620426E+02  0.44145889335E+02  0.41800000000E+01 0. -1.
        -11    1    1    2    0    0 -0.27315955401E+01 -0.12926188729E+02 -0.12539653349E+02  0.18215127652E+02  0.00000000000E+00 0. -1.
         11    1    1    2    0    0  0.43099417057E+02  0.10690977344E+02  0.12190555496E+03  0.12974136224E+03  0.00000000000E+00 0.  1.
</event>
<event>
 7    1  0.2594791E-009  0.1991199E+03  0.7561462E-02  0.1150484E+00
          1   -1    0    0  501    0  0.00000000000E+00  0.00000000000E+00  0.79420685321E+03  0.79420685321E+03  0.00000000000E+00 0. -1.
         -1   -1    0    0    0  501 -0.00000000000E+00 -0.00000000000E+00 -0.78163287068E+02  0.78163287068E+02  0.00000000000E+00 0.  1.
         25    2    1    2    0    0  0.40156278682E+02 -0.18266463631E+03  0.58963620682E+03  0.63110631023E+03  0.12508166271E+03 0.  0.
          5    1    3    3  502    0  0.32829285587E+02 -0.58749225056E+01  0.33377741785E+02  0.47369006251E+02  0.41800000000E+01 0.  1.
         -5    1    3    3    0  502  0.73269930958E+01 -0.17678971380E+03  0.55625846503E+03  0.58373730398E+03  0.41800000000E+01 0.  1.
        -11    1    1    2    0    0 -0.73879383218E+01  0.67445470364E+02  0.96210335306E+02  0.11772808384E+03  0.00000000000E+00 0.  1.
         11    1    1    2    0    0 -0.32768340361E+02  0.11521916595E+03  0.30197024017E+02  0.12353574621E+03  0.00000000000E+00 0. -1.
</event>
<event>
 7    1  0.2594791E-009  0.9285910E+02  0.7561462E-02  0.1296072E+00
         -2   -1    0    0    0  501 -0.00000000000E+00  0.00000000000E+00  0.37112870801E+03  0.37112870801E+03  0.00000000000E+00 0. -1.
          2   -1    0    0  501    0  0.00000000000E+00 -0.00000000000E+00 -0.33394241407E+02  0.33394241407E+02  0.00000000000E+00 0.  1.
         25    2    1    2    0    0 -0.13354498285E+02  0.26870020410E+02  0.22414794512E+03  0.25843714592E+03  0.12508843459E+03 0.  0.
          5    1    3    3  502    0 -0.63971314772E+02 -0.11309615053E+02  0.11360664231E+03  0.13093577847E+03  0.41800000000E+01 0.  1.
         -5    1    3    3    0  502  0.50616816487E+02  0.38179635462E+02  0.11054130281E+03  0.12750136746E+03  0.41800000000E+01 0.  1.
        -11    1    1    2    0    0  0.30981666592E+02 -0.96767594554E+01  0.27802981955E+01  0.32576577421E+02  0.00000000000E+00 0.  1.
         11    1    1    2    0    0 -0.17627168307E+02 -0.17193260954E+02  0.11080622329E+03  0.11350922608E+03  0.00000000000E+00 0. -1.
</event>
<event>
 7    1  0.2594791E-009  0.1051724E+03  0.7561462E-02  0.1269780E+00
          1   -1    0    0  501    0  0.00000000000E+00  0.00000000000E+00  0.67874484544E+02  0.67874484544E+02  0.00000000000E+00 0. -1.
         -1   -1    0    0    0  501 -0.00000000000E+00 -0.00000000000E+00 -0.25597930703E+03  0.25597930703E+03  0.00000000000E+00 0.  1.
         25    2    1    2    0    0 -0.55319189640E+02  0.46630689833E+02 -0.88762949794E+02  0.16962439517E+03  0.12513568718E+03 0.  0.
          5    1    3    3  502    0  0.23824718476E+02  0.79427855190E+01 -0.76447955904E+02  0.80575848827E+02  0.41800000000E+01 0. -1.
         -5    1    3    3    0  502 -0.79143908116E+02  0.38687904314E+02 -0.12314993890E+02  0.89048546348E+02  0.41800000000E+01 0. -1.
        -11    1    1    2    0    0 -0.11439662428E+02 -0.23331045234E+02  0.66453462148E+01  0.26820965204E+02  0.00000000000E+00 0. -1.
         11    1    1    2    0    0  0.66758852068E+02 -0.23299644598E+02 -0.10598721891E+03  0.12740843119E+03  0.00000000000E+00 0.  1.
</event>
<event>
 7    1  0.2594791E-009  0.9554076E+02  0.7561462E-02  0.1289963E+00
          1   -1    0    0  501    0  0.00000000000E+00  0.00000000000E+00  0.19786728046E+03  0.19786728046E+03  0.00000000000E+00 0. -1.
         -1   -1    0    0    0  501 -0.00000000000E+00 -0.00000000000E+00 -0.85114682284E+02  0.85114682284E+02  0.00000000000E+00 0.  1.
         25    2    1    2    0    0 -0.48654606771E+02 -0.52197465171E+02  0.88548297964E+02  0.16905945740E+03  0.12509377656E+03 0.  0.
          5    1    3    3  502    0 -0.53967856258E+02 -0.12172442628E+02  0.10996181299E+03  0.12316562257E+03  0.41800000000E+01 0.  1.
         -5    1    3    3    0  502  0.53132494863E+01 -0.40025022542E+02 -0.21413515022E+02  0.45893834828E+02  0.41800000000E+01 0.  1.
        -11    1    1    2    0    0  0.23403178827E+02  0.63252315944E+02  0.43518025572E+02  0.80264455403E+02  0.00000000000E+00 0. -1.
         11    1    1    2    0    0  0.25251427945E+02 -0.11054850773E+02 -0.19313725356E+02  0.33658049943E+02  0.00000000000E+00 0.  1.
</event>
<event>
 7    1  0.2594791E-009  0.1077492E+03  0.7561462E-02  0.1264796E+00
          3   -1    0    0  501    0  0.00000000000E+00  0.00000000000E+00  0.28799093312E+03  0.28799093312E+03  0.00000000000E+00 0. -1.
         -3   -1    0    0    0  501 -0.00000000000E+00 -0.00000000000E+00 -0.58651212735E+02  0.58651212735E+02  0.00000000000E+00 0.  1.
         25    2    1    2    0    0  0.39131092138E+02  0.49939165185E+02  0.84775540433E+02  0.16388671769E+03  0.12508717515E+03 0.  0.
          5    1    3    3  502    0  0.51383652579E+02 -0.21606241791E+01  0.96049310537E+02  0.10903160323E+03  0.41800000000E+01 0. -1.
         -5    1    3    3    0  502 -0.12252560441E+02  0.52099789364E+02 -0.11273770104E+02  0.54855114452E+02  0.41800000000E+01 0. -1.
        -11    1    1    2    0    0  0.22487805057E+02 -0.42587051085E+02  0.78667795577E+02  0.92238713984E+02  0.00000000000E+00 0. -1.
         11    1    1    2    0    0 -0.61618897196E+02 -0.73521141003E+01  0.65896384377E+02  0.90516714187E+02  0.00000000000E+00 0.  1.
</event>
<event>
 7    1  0.2594791E-009  0.1299357E+03  0.7561462E-02  0.1227551E+00
         -2   -1    0    0    0  501 -0.00000000000E+00  0.00000000000E+00  0.11058386464E+04  0.11058386464E+04  0.00000000000E+00 0.  1.
          2   -1    0    0  501    0  0.00000000000E+00 -0.00000000000E+00 -0.17837464028E+02  0.17837464028E+02  0.00000000000E+00 0. -1.
         25    2    1    2    0    0  0.49671430994E+02  0.89684695449E+02  0.73641008441E+03  0.75396007279E+03  0.12508150653E+03 0.  0.
          5    1    3    3  502    0 -0.29203388321E+02  0.47805277362E+02  0.13939754326E+03  0.15029081775E+03  0.41800000000E+01 0. -1.
         -5    1    3    3    0  502  0.78874819314E+02  0.41879418087E+02  0.59701254116E+03  0.60366925504E+03  0.41800000000E+01 0. -1.
        -11    1    1    2    0    0  0.43902548125E+01 -0.41937918808E+02  0.13476324274E+03  0.14120621433E+03  0.00000000000E+00 0.  1.
         11    1    1    2    0    0 -0.54061685806E+02 -0.47746776641E+02  0.21682785521E+03  0.22850982330E+03  0.00000000000E+00 0. -1.
</event>
<event>
 7    1  0.2594791E-009  0.1486239E+03  0.7561462E-02  0.1202174E+00
         -2   -1    0    0    0  501 -0.00000000000E+00  0.00000000000E+00  0.37467675447E+03  0.37467675447E+03  0.00000000000E+00 0. -1.
          2   -1    0    0  501    0  0.00000000000E+00 -0.00000000000E+00 -0.10276531674E+03  0.10276531674E+03  0.00000000000E+00 0.  1.
         25    2    1    2    0    0  0.11472514355E+03  0.44909179254E+01  0.28344720482E+03  0.33040786626E+03  0.12508002743E+03 0.  0.
          5    1    3    3  502    0  0.79832153764E+02  0.49152999515E+02  0.24345682783E+03  0.26091739986E+03  0.41800000000E+01 0.  1.
         -5    1    3    3    0  502  0.34892989786E+02 -0.44662081589E+02  0.39990376988E+02  0.69490466394E+02  0.41800000000E+01 0.  1.
        -11    1    1    2    0    0 -0.84614217709E+02 -0.45206625498E+02 -0.68486089863E+01  0.96177483188E+02  0.00000000000E+00 0. -1.
         11    1    1    2    0    0 -0.30110925841E+02  0.40715707572E+02 -0.46871581010E+01  0.50856721770E+02  0.00000000000E+00 0.  1.
</event>
<event>
 7    1  0.2594791E-009  0.1198529E+03  0.7561462E-02  0.1243340E+00
          1   -1    0    0  501    0  0.00000000000E+00  0.00000000000E+00  0.52681013581E+03  0.52681013581E+03  0.00000000000E+00 0. -1.
         -1   -1    0    0    0  501 -0.00000000000E+00 -0.00000000000E+00 -0.29140366849E+02  0.29140366849E+02  0.00000000000E+00 0.  1.
         25    2    1    2    0    0 -0.12987399953E+02 -0.58233155328E+02  0.29226711874E+03  0.32346190264E+03  0.12509101016E+03 0.  0.
          5    1    3    3  502    0  0.25943575341E+02  0.27186978002E+02  0.13562491270E+03  0.14079698228E+03  0.41800000000E+01 0.  1.
         -5    1    3    3    0  502 -0.38930975294E+02 -0.85420133330E+02  0.15664220604E+03  0.18266492036E+03  0.41800000000E+01 0.  1.
        -11    1    1    2    0    0  0.48001038528E+02  0.54641638562E+02  0.15237278647E+03  0.16884097376E+03  0.00000000000E+00 0. -1.
         11    1    1    2    0    0 -0.35013638575E+02  0.35915167653E+01  0.53029863747E+02  0.63647626256E+02  0.00000000000E+00 0.  1.
</event>
<event>
 7    1  0.2594791E-009  0.1506578E+03  0.7561462E-02  0.1199667E+00
         -1   -1    0    0    0  501 -0.00000000000E+00  0.00000000000E+00  0.12769618762E+03  0.12769618762E+03  0.00000000000E+00 0.  1.
          1   -1    0    0  501    0  0.00000000000E+00 -0.00000000000E+00 -0.20829931584E+03  0.20829931584E+03  0.00000000000E+00 0. -1.
         25    2    1    2    0    0  0.10626918452E+03  0.56152306651E+02 -0.57313501277E+02  0.18270026480E+03  0.12509327803E+03 0.  0.
          5    1    3    3  502    0  0.91356649949E+01 -0.28310302293E+02 -0.43929900724E+02  0.53218814046E+02  0.41800000000E+01 0.  1.
         -5    1    3    3    0  502  0.97133519521E+02  0.84462608944E+02 -0.13383600553E+02  0.12948145075E+03  0.41800000000E+01 0.  1.
        -11    1    1    2    0    0 -0.11324923105E+03 -0.65495924024E+02 -0.36354445295E+02  0.13578199472E+03  0.00000000000E+00 0. -1.
         11    1    1    2    0    0  0.69800465335E+01  0.93436173726E+01  0.13064818349E+02  0.17513243952E+02  0.00000000000E+00 0.  1.
</event>
<event>
 7    1  0.2594791E-009  0.1044786E+03  0.7561462E-02  0.1271150E+00
          2   -1    0    0  501    0  0.00000000000E+00  0.00000000000E+00  0.13081433274E+03  0.13081433274E+03  0.00000000000E+00 0. -1.
         -2   -1    0    0    0  501 -0.00000000000E+00 -0.00000000000E+00 -0.11338152516E+03  0.11338152516E+03  0.00000000000E+00 0.  1.
         25    2    1    2    0    0 -0.39892006474E+02 -0.32761600642E+02  0.20600856248E+02  0.13687952044E+03  0.12508762201E+03 0.  0.
          5    1    3    3  502    0 -0.38477368620E+02  0.41783756012E+02  0.24724348355E+02  0.62089902271E+02  0.41800000000E+01 0. -1.
         -5    1    3    3    0  502 -0.14146378543E+01 -0.74545356655E+02 -0.41234921068E+01  0.74789618171E+02  0.41800000000E+01 0. -1.
        -11    1    1    2    0    0  0.22500214357E+02  0.48756503940E+02 -0.37602506081E+02  0.65554593936E+02  0.00000000000E+00 0.  1.
         11    1    1    2    0    0  0.17391792117E+02 -0.15994903298E+02  0.34434457410E+02  0.41761743518E+02  0.00000000000E+00 0. -1.
</event>
<event>
 7    1  0.2594791E-009  0.1387983E+03  0.7561462E-02  0.1214955E+00
         -1   -1    0    0    0  501 -0.00000000000E+00  0.00000000000E+00  0.63314718023E+02  0.63314718023E+02  0.00000000000E+00 0.  1.
          1   -1    0    0  501    0  0.00000000000E+00 -0.00000000000E+00 -0.36032977628E+03  0.36032977628E+03  0.00000000000E+00 0. -1.
         25    2    1    2    0    0  0.67139611758E+02 -0.73135229624E+02 -0.20857369354E+03  0.26269221789E+03  0.12509087266E+03 0.  0.
          5    1    3    3  502    0  0.88032741479E+02 -0.83317502386E+02 -0.20584933300E+03  0.23892046809E+03  0.41800000000E+01 0. -1.
         -5    1    3    3    0  502 -0.20893129721E+02  0.10182272763E+02 -0.27243605408E+01  0.23771749799E+02  0.41800000000E+01 0. -1.
        -11    1    1    2    0    0  0.88788738126E+01  0.53439433286E+02 -0.49134902924E+02  0.73135805974E+02  0.00000000000E+00 0.  1.
         11    1    1    2    0    0 -0.76018485571E+02  0.19695796338E+02 -0.39306461792E+02  0.87816470439E+02  0.00000000000E+00 0. -1.
</event>
<event>
 7    1  0.2594791E-009  0.1664917E+03  0.7561462E-02  0.1181557E+00
          1   -1    0    0  501    0  0.00000000000E+00  0.00000000000E+00  0.61534494712E+03  0.61534494712E+03  0.00000000000E+00 0. -1.
         -1   -1    0    0    0  501 -0.00000000000E+00 -0.00000000000E+00 -0.59608439553E+02  0.59608439553E+02  0.00000000000E+00 0.  1.
         25    2    1    2    0    0  0.67044330059E+02  0.11452265136E+03  0.44758032134E+03  0.48330740490E+03  0.12509006240E+03 0.  0.
          5    1    3    3  502    0  0.75361400579E+01  0.11772085589E+03  0.24247066441E+03  0.26967478343E+03  0.41800000000E+01 0.  1.
         -5    1    3    3    0  502  0.59508190002E+02 -0.31982045344E+01  0.20510965693E+03  0.21363262147E+03  0.41800000000E+01 0.  1.
        -11    1    1    2    0    0 -0.52735402766E+02 -0.15232808114E+02  0.21047055473E+02  0.58788091414E+02  0.00000000000E+00 0. -1.
         11    1    1    2    0    0 -0.14308927293E+02 -0.99289843241E+02  0.87109130757E+02  0.13285789037E+03  0.00000000000E+00 0.  1.
</event>
<event>
 7    1  0.2594791E-009  0.1070578E+03  0.7561462E-02  0.1266117E+00
          4   -1    0    0  501    0  0.00000000000E+00  0.00000000000E+00  0.12567173664E+02  0.12567173664E+02  0.00000000000E+00 0. -1.
         -4   -1    0    0    0  501 -0.00000000000E+00 -0.00000000000E+00 -0.14005679890E+04  0.14005679890E+04  0.00000000000E+00 0.  1.
         25    2    1    2    0    0 -0.35113847991E+02 -0.21954466259E+02 -0.11106375204E+04  0.11184268158E+04  0.12509140511E+03 0.  0.
          5    1    3    3  502    0 -0.67377718845E+01 -0.63637773491E+02 -0.87856559932E+03  0.88090303013E+03  0.41800000000E+01 0. -1.
         -5    1    3    3    0  502 -0.28376076106E+02  0.41683307232E+02 -0.23207192109E+03  0.23752378566E+03  0.41800000000E+01 0. -1.
        -11    1    1    2    0    0  0.61932913012E+02 -0.40054715538E+01 -0.16346173928E+03  0.17484698946E+03  0.00000000000E+00 0.  1.
         11    1    1    2    0    0 -0.26819065021E+02  0.25959937813E+02 -0.11390155560E+03  0.11986135736E+03  0.00000000000E+00 0. -1.
</event>
<event>
 7    1  0.2594791E-009  0.1710286E+03  0.7561462E-02  0.1176779E+00
          2   -1    0    0  501    0  0.00000000000E+00  0.00000000000E+00  0.57729713791E+03  0.57729713791E+03  0.00000000000E+00 0. -1.
         -2   -1    0    0    0  501 -0.00000000000E+00 -0.00000000000E+00 -0.55159270061E+02  0.55159270061E+02  0.00000000000E+00 0.  1.
         25    2    1    2    0    0 -0.51316622866E+02  0.12988365159E+03  0.23647662540E+03  0.30178123265E+03  0.12509020460E+03 0.  0.
          5    1    3    3  502    0  0.34172411978E+02  0.15686465239E+02  0.20828424781E+02  0.43186972699E+02  0.41800000000E+01 0. -1.
         -5    1    3    3    0  502 -0.85489034843E+02  0.11419718635E+03  0.21564820061E+03  0.25859425995E+03  0.41800000000E+01 0. -1.
        -11    1    1    2    0    0  0.17797134889E+02 -0.12658612764E+03  0.25445317513E+03  0.28475815011E+03  0.00000000000E+00 0.  1.
         11    1    1    2    0    0  0.33519487977E+02 -0.32975239551E+01  0.31208067331E+02  0.45917025219E+02  0.00000000000E+00 0. -1.
</event>
<event>
 7    1  0.2594791E-009  0.1630637E+03  0.7561462E-02  0.1185281E+00
          1   -1    0    0  501    0  0.00000000000E+00  0.00000000000E+00  0.65454109051E+03  0.65454109051E+03  0.00000000000E+00 0. -1.
         -1   -1    0    0    0  501 -0.00000000000E+00 -0.00000000000E+00 -0.51422331474E+02  0.51422331474E+02  0.00000000000E+00 0.  1.
         25    2    1    2    0    0  0.12746056197E+03  0.71731624840E+02  0.29931424496E+03  0.35584683647E+03  0.12508530260E+03 0.  0.
          5    1    3    3  502    0  0.56598070301E+02  0.80095647208E+01  0.23230755484E+03  0.23927341500E+03  0.41800000000E+01 0.  1.
         -5    1    3    3    0  502  0.70862491673E+02  0.63722060119E+02  0.67006690116E+02  0.11657342147E+03  0.41800000000E+01 0.  1.
        -11    1    1    2    0    0 -0.52270225753E+02 -0.82296229356E+02  0.18510270702E+03  0.20920769109E+03  0.00000000000E+00 0. -1.
         11    1    1    2    0    0 -0.75190336221E+02  0.10564604516E+02  0.11870180706E+03  0.14090889443E+03  0.00000000000E+00 0.  1.
</event>
<event>
 7    1  0.2594791E-009  0.8680771E+02  0.7561462E-02  0.1310772E+00
         -2   -1    0    0    0  501 -0.00000000000E+00  0.00000000000E+00  0.17488047485E+02  0.17488047485E+02  0.00000000000E+00 0.  1.
          2   -1    0    0  501    0  0.00000000000E+00 -0.00000000000E+00 -0.76323365001E+03  0.76323365001E+03  0.00000000000E+00 0. -1.
         25    2    1    2    0    0  0.38822585698E+01 -0.93843672493E+00 -0.51563199484E+03  0.53060446645E+03  0.12509513627E+03 0.  0.
          5    1    3    3  502    0  0.33382126651E+02 -0.21979017443E+02 -0.52878781581E+02  0.66415973447E+02  0.41800000000E+01 0. -1.
         -5    1    3    3    0  502 -0.29499868081E+02  0.21040580718E+02 -0.46275321326E+03  0.46418849300E+03  0.41800000000E+01 0. -1.
        -11    1    1    2    0    0  0.15347889584E+02 -0.44790275425E+02 -0.94114763041E+02  0.10535328713E+03  0.00000000000E+00 0.  1.
         11    1    1    2    0    0 -0.19230148154E+02  0.45728712150E+02 -0.13599884464E+03  0.14476394391E+03  0.00000000000E+00 0. -1.
</event>
<event>
 7    1  0.2594791E-009  0.8326048E+02  0.7561462E-02  0.1320045E+00
          1   -1    0    0  501    0  0.00000000000E+00  0.00000000000E+00  0.24166992103E+03  0.24166992103E+03  0.00000000000E+00 0. -1.
         -1   -1    0    0    0  501 -0.00000000000E+00 -0.00000000000E+00 -0.54102136870E+02  0.54102136870E+02  0.00000000000E+00 0.  1.
         25    2    1    2    0    0  0.30836482572E+02 -0.32793268922E+01  0.13672134103E+03  0.18790425858E+03  0.12511451817E+03 0.  0.
          5    1    3    3  502    0  0.44990014252E+02 -0.21633056691E+02  0.94906212354E+00  0.50104527172E+02  0.41800000000E+01 0.  1.
         -5    1    3    3    0  502 -0.14153531680E+02  0.18353729799E+02  0.13577227891E+03  0.13779973141E+03  0.41800000000E+01 0.  1.
        -11    1    1    2    0    0 -0.30949726999E+02  0.43095722551E+02  0.17311241421E+02  0.55810446899E+02  0.00000000000E+00 0. -1.
         11    1    1    2    0    0  0.11324442730E+00 -0.39816395659E+02  0.33535201714E+02  0.52057352426E+02  0.00000000000E+00 0.  1.
</event>
<event>
 7    1  0.2594791E-009  0.1170025E+03  0.7561462E-02  0.1248125E+00
         -2   -1    0    0    0  501 -0.00000000000E+00  0.00000000000E+00  0.83126395338E+02  0.83126395338E+02  0.00000000000E+00 0.  1.
          2   -1    0    0  501    0  0.00000000000E+00 -0.00000000000E+00 -0.27853281188E+03  0.27853281188E+03  0.00000000000E+00 0. -1.
         25    2    1    2    0    0 -0.81365781177E+02 -0.53018490068E+02 -0.15755630939E+03  0.22338973295E+03  0.12509049334E+03 0.  0.
          5    1    3    3  502    0 -0.41429092247E+02  0.21560265088E+02 -0.12349236273E+03  0.13209485519E+03  0.41800000000E+01 0.  1.
         -5    1    3    3    0  502 -0.39936688930E+02 -0.74578755155E+02 -0.34063946660E+02  0.91294877760E+02  0.41800000000E+01 0.  1.
        -11    1    1    2    0    0  0.61621969761E+02  0.54964755973E+02  0.13087823818E+02  0.83604322189E+02  0.00000000000E+00 0.  1.
         11    1    1    2    0    0  0.19743811416E+02 -0.19462659053E+01 -0.50937930967E+02  0.54665152075E+02  0.00000000000E+00 0. -1.
</event>
<event>
 7    1  0.2770183E-009  0.1033093E+03  0.7561462E-02  0.1273487E+00
          1   -1    0    0  501    0  0.00000000000E+00  0.00000000000E+00  0.15006897362E+04  0.15006897362E+04  0.00000000000E+00 0. -1.
         -1   -1    0    0    0  501 -0.00000000000E+00 -0.00000000000E+00 -0.12878562021E+02  0.12878562021E+02  0.00000000000E+00 0.  1.
         25    2    1    2    0    0  0.35240549427E+02  0.30271374329E+02  0.12082118655E+04  0.12155575954E+04  0.12508438446E+03 0.  0.
          5    1    3    3  502    0 -0.32776039450E+02 -0.21454586467E+02  0.60851865829E+03  0.60979258600E+03  0.41800000000E+01 0.  1.
         -5    1    3    3    0  502  0.68016588877E+02  0.51725960796E+02  0.59969320722E+03  0.60576500936E+03  0.41800000000E+01 0.  1.
        -11    1    1    2    0    0  0.18641897082E+01  0.19500398435E+02  0.11283275720E+02  0.22606482552E+02  0.00000000000E+00 0.  1.
         11    1    1    2    0    0 -0.37104739135E+02 -0.49771772765E+02  0.26831603297E+03  0.27540422033E+03  0.00000000000E+00 0. -1.
</event>
<event>
 7    1  0.2765486E-009  0.1235601E+03  0.7561462E-02  0.1237337E+00
         -2   -1    0    0    0  501 -0.00000000000E+00  0.00000000000E+00  0.55059581170E+02  0.55059581170E+02  0.00000000000E+00 0.  1.
          2   -1    0    0  501    0  0.00000000000E+00 -0.00000000000E+00 -0.54775586638E+03  0.54775586638E+03  0.00000000000E+00 0. -1.
         25    2    1    2    0    0 -0.15492379901E+02 -0.12011402458E+03 -0.36320711016E+03  0.40278308649E+03  0.12508963648E+03 0.  0.
          5    1    3    3  502    0 -0.16248576056E+02 -0.12046354553E+03 -0.37287892237E+03  0.39221377483E+03  0.41800000000E+01 0. -1.
         -5    1    3    3    0  502  0.75619615483E+00  0.34952094989E+00  0.96718122054E+01  0.10569311655E+02  0.41800000000E+01 0. -1.
        -11    1    1    2    0    0  0.47376629110E+01  0.58024213189E+02 -0.25031609643E+01  0.58271095587E+02  0.00000000000E+00 0.  1.
         11    1    1    2    0    0  0.10754716990E+02  0.62089811387E+02 -0.12698601409E+03  0.14176126548E+03  0.00000000000E+00 0. -1.
</event>
<event>
 7    1  0.2594791E-009  0.8048846E+02  0.7561462E-02  0.1327671E+00
          3   -1    0    0  501    0  0.00000000000E+00  0.00000000000E+00  0.12939829058E+04  0.12939829058E+04  0.00000000000E+00 0. -1.
         -3   -1    0    0    0  501 -0.00000000000E+00 -0.00000000000E+00 -0.10783039499E+02  0.10783039499E+02  0.00000000000E+00 0.  1.
         25    2    1    2    0    0 -0.29426522608E+02 -0.11271261569E+01  0.91652426944E+03  0.92549490956E+03  0.12512753696E+03 0.  0.
          5    1    3    3  502    0 -0.44834576446E+02  0.12497664015E+02  0.12124958059E+03  0.12994331089E+03  0.41800000000E+01 0.  1.
         -5    1    3    3    0  502  0.15408053838E+02 -0.13624790172E+02  0.79527468884E+03  0.79555159867E+03  0.41800000000E+01 0.  1.
        -11    1    1    2    0    0  0.16267262939E+02 -0.43652034961E+02  0.13146741130E+03  0.13947689498E+03  0.00000000000E+00 0.  1.
         11    1    1    2    0    0  0.13159259669E+02  0.44779161118E+02  0.23520818552E+03  0.23979414072E+03  0.00000000000E+00 0. -1.
</event>
<event>
 7    1  0.2594791E-009  0.7615798E+02  0.7561462E-02  0.1340322E+00
         -4   -1    0    0    0  501 -0.00000000000E+00  0.00000000000E+00  0.59084971241E+03  0.59084971241E+03  0.00000000000E+00 0.  1.
          4   -1    0    0  501    0  0.00000000000E+00 -0.00000000000E+00 -0.24015654001E+02  0.24015654001E+02  0.00000000000E+00 0. -1.
         25    2    1    2    0    0 -0.22879217102E+02 -0.16045562299E+02  0.42839866401E+03  0.44715999033E+03  0.12508286447E+03 0.  0.
          5    1    3    3  502    0 -0.35322604541E+02 -0.52984969398E+02  0.37779904837E+03  0.38315099729E+03  0.41800000000E+01 0.  1.
         -5    1    3    3    0  502  0.12443387438E+02  0.36939407099E+02  0.50599615640E+02  0.64008993046E+02  0.41800000000E+01 0.  1.
        -11    1    1    2    0    0 -0.11677635809E+01  0.23954303952E+02  0.14028831404E+03  0.14232351670E+03  0.00000000000E+00 0.  1.
         11    1    1    2    0    0  0.24046980683E+02 -0.79087416530E+01 -0.18529196367E+01  0.25381859382E+02  0.00000000000E+00 0. -1.
</event>
<event>
 7    1  0.2594791E-009  0.1861299E+03  0.7561462E-02  0.1161999E+00
         -3   -1    0    0    0  501 -0.00000000000E+00  0.00000000000E+00  0.14834486804E+02  0.14834486804E+02  0.00000000000E+00 0.  1.
          3   -1    0    0  501    0  0.00000000000E+00 -0.00000000000E+00 -0.34770653648E+04  0.34770653648E+04  0.00000000000E+00 0. -1.
         25    2    1    2    0    0 -0.50686764413E+02 -0.16247688499E+03 -0.27404202668E+04  0.27485482173E+04  0.12508468302E+03 0.  0.
          5    1    3    3  502    0  0.99998345719E+00 -0.14660119972E+03 -0.23221406891E+04  0.23267676644E+04  0.41800000000E+01 0.  1.
         -5    1    3    3    0  502 -0.51686747871E+02 -0.15875685265E+02 -0.41827957770E+03  0.42178055291E+03  0.41800000000E+01 0.  1.
        -11    1    1    2    0    0  0.36550387871E+02  0.83749317490E+02 -0.28540263694E+03  0.29967406329E+03  0.00000000000E+00 0.  1.
         11    1    1    2    0    0  0.14136376543E+02  0.78727567500E+02 -0.43640797429E+03  0.44367757105E+03  0.00000000000E+00 0. -1.
</event>
<event>
 7    1  0.2594791E-009  0.1960630E+03  0.7561462E-02  0.1153104E+00
          1   -1    0    0  501    0  0.00000000000E+00  0.00000000000E+00  0.28436713277E+03  0.28436713277E+03  0.00000000000E+00 0. -1.
         -1   -1    0    0    0  501 -0.00000000000E+00 -0.00000000000E+00 -0.14858713017E+03  0.14858713017E+03  0.00000000000E+00 0.  1.
         25    2    1    2    0    0 -0.21982733199E+02  0.17100239760E+03  0.42819519200E+02  0.21727249156E+03  0.12509501917E+03 0.  0.
          5    1    3    3  502    0 -0.47594440869E+02  0.35451924008E+02 -0.23731323771E+02  0.64052461666E+02  0.41800000000E+01 0.  1.
         -5    1    3    3    0  502  0.25611707671E+02  0.13555047359E+03  0.66550842971E+02  0.15322002989E+03  0.41800000000E+01 0.  1.
        -11    1    1    2    0    0  0.44006159135E+02 -0.33347302997E+02  0.26561003228E+02  0.61270478630E+02  0.00000000000E+00 0.  1.
         11    1    1    2    0    0 -0.22023425937E+02 -0.13765509460E+03  0.66399480174E+02  0.15441129275E+03  0.00000000000E+00 0. -1.
</event>
<event>
 7    1  0.2594791E-009  0.1335940E+03  0.7561462E-02  0.1222218E+00
         -2   -1    0    0    0  501 -0.00000000000E+00  0.00000000000E+00  0.65847020553E+02  0.65847020553E+02  0.00000000000E+00 0.  1.
          2   -1    0    0  501    0  0.00000000000E+00 -0.00000000000E+00 -0.29825219910E+03  0.29825219910E+03  0.00000000000E+00 0. -1.
         25    2    1    2    0    0  0.49955265132E+02 -0.70121032072E+02 -0.10023649216E+03  0.18195751945E+03  0.12509475157E+03 0.  0.
          5    1    3    3  502    0  0.86625579693E+02 -0.66899865374E+02 -0.94105970515E+02  0.14440564092E+03  0.41800000000E+01 0.  1.
         -5    1    3    3    0  502 -0.36670314562E+02 -0.32211666983E+01 -0.61305216475E+01  0.37551878523E+02  0.41800000000E+01 0.  1.
        -11    1    1    2    0    0 -0.47596114955E+02 -0.27728659069E+01 -0.77515935036E+02  0.91004390711E+02  0.00000000000E+00 0. -1.
         11    1    1    2    0    0 -0.23591501768E+01  0.72893897979E+02 -0.54652751353E+02  0.91137309499E+02  0.00000000000E+00 0.  1.
</event>
<event>
 7    1  0.2594791E-009  0.1362683E+03  0.7561462E-02  0.1218440E+00
          1   -1    0    0  501    0  0.00000000000E+00  0.00000000000E+00  0.80934859652E+02  0.80934859652E+02  0.00000000000E+00 0. -1.
         -1   -1    0    0    0  501 -0.00000000000E+00 -0.00000000000E+00 -0.36222022165E+03  0.36222022165E+03  0.00000000000E+00 0.  1.
         25    2    1    2    0    0  0.30105232562E+02  0.90044932905E+02 -0.26634637413E+03  0.30919538294E+03  0.12508788449E+03 0.  0.
          5    1    3    3  502    0  0.28338585615E+02 -0.26643315664E+02 -0.51618921243E+02  0.64768257152E+02  0.41800000000E+01 0. -1.
         -5    1    3    3    0  502  0.17666469469E+01  0.11668824857E+03 -0.21472745289E+03  0.24442712579E+03  0.41800000000E+01 0. -1.
        -11    1    1    2    0    0  0.90815090778E+01 -0.73573620202E+02  0.22335773027E+02  0.77423757035E+02  0.00000000000E+00 0. -1.
         11    1    1    2    0    0 -0.39186741639E+02 -0.16471312703E+02 -0.37274760895E+02  0.56535941331E+02  0.00000000000E+00 0.  1.
</event>
<event>
 7    1  0.2594791E-009  0.6422711E+02  0.7561462E-02  0.1380903E+00
          1   -1    0    0  501    0  0.00000000000E+00  0.00000000000E+00  0.24514501682E+03  0.24514501682E+03  0.00000000000E+00 0. -1.
         -1   -1    0    0    0  501 -0.00000000000E+00 -0.00000000000E+00 -0.94252261874E+02  0.94252261874E+02  0.00000000000E+00 0.  1.
         25    2    1    2    0    0 -0.15911195292E+02  0.16809834869E+02  0.19655804495E+03  0.23413228146E+03  0.12508846271E+03 0.  0.
          5    1    3    3  502    0 -0.39906686236E+02  0.90629009746E+01  0.56512863318E+01  0.41522153336E+02  0.41800000000E+01 0.  1.
         -5    1    3    3    0  502  0.23995490945E+02  0.77469338944E+01  0.19090675861E+03  0.19261012812E+03  0.41800000000E+01 0.  1.
        -11    1    1    2    0    0  0.30713825952E+02 -0.29257462099E+02  0.12293741219E+02  0.44164174013E+02  0.00000000000E+00 0. -1.
         11    1    1    2    0    0 -0.14802630660E+02  0.12447627230E+02 -0.57959031222E+02  0.61100823221E+02  0.00000000000E+00 0.  1.
</event>
<event>
 7    1  0.2594791E-009  0.2389464E+03  0.7561462E-02  0.1120497E+00
         -2   -1    0    0    0  501 -0.00000000000E+00  0.00000000000E+00  0.54446211412E+02  0.54446211412E+02  0.00000000000E+00 0.  1.
          2   -1    0    0  501    0  0.00000000000E+00 -0.00000000000E+00 -0.12510581770E+04  0.12510581770E+04  0.00000000000E+00 0. -1.
         25    2    1    2    0    0 -0.87712168394E+02 -0.21871221219E+03 -0.53899408072E+03  0.60140697950E+03  0.12508908702E+03 0.  0.
          5    1    3    3  502    0 -0.25186250162E+00 -0.34333561989E+01 -0.13670525888E+03  0.13681246864E+03  0.41800000000E+01 0. -1.
         -5    1    3    3    0  502 -0.87460305892E+02 -0.21527885599E+03 -0.40228882185E+03  0.46459451086E+03  0.41800000000E+01 0. -1.
        -11    1    1    2    0    0  0.29565752089E+02  0.13466779467E+03 -0.26912222066E+03  0.30238438827E+03  0.00000000000E+00 0.  1.
         11    1    1    2    0    0  0.58146416305E+02  0.84044417520E+02 -0.38849566419E+03  0.40171302063E+03  0.00000000000E+00 0. -1.
</event>
<event>
 7    1  0.2594791E-009  0.1354275E+03  0.7561462E-02  0.1219617E+00
         -2   -1    0    0    0  501 -0.00000000000E+00  0.00000000000E+00  0.53525557079E+03  0.53525557079E+03  0.00000000000E+00 0.  1.
          2   -1    0    0  501    0  0.00000000000E+00 -0.00000000000E+00 -0.76720201167E+02  0.76720201167E+02  0.00000000000E+00 0. -1.
         25    2    1    2    0    0  0.15193342883E+02  0.10421568153E+03  0.44029573840E+03  0.46967968068E+03  0.12508764628E+03 0.  0.
          5    1    3    3  502    0  0.66990014605E+02  0.48933325950E+02  0.28472182844E+03  0.29659083674E+03  0.41800000000E+01 0. -1.
         -5    1    3    3    0  502 -0.51796671722E+02  0.55282355582E+02  0.15557390996E+03  0.17308884395E+03  0.41800000000E+01 0. -1.
        -11    1    1    2    0    0 -0.26796554148E+02 -0.52797398261E+02 -0.33839905447E+02  0.68196479220E+02  0.00000000000E+00 0. -1.
         11    1    1    2    0    0  0.11603211265E+02 -0.51418283271E+02  0.52079536667E+02  0.74099612048E+02  0.00000000000E+00 0.  1.
</event>
<event>
 7    1  0.2594791E-009  0.9913154E+02  0.7561462E-02  0.1282133E+00
         -3   -1    0    0    0  501 -0.00000000000E+00  0.00000000000E+00  0.14960938675E+03  0.14960938675E+03  0.00000000000E+00 0.  1.
          3   -1    0    0  501    0  0.00000000000E+00 -0.00000000000E+00 -0.95639797188E+02  0.95639797188E+02  0.00000000000E+00 0. -1.
         25    2    1    2    0    0 -0.49332273466E+02  0.27242255073E+02  0.23997150565E+02  0.13928221743E+03  0.12509140335E+03 0.  0.
          5    1    3    3  502    0 -0.13475117407E+02  0.73498399988E+02 -0.25426721297E+01  0.74883450585E+02  0.41800000000E+01 0. -1.
         -5    1    3    3    0  502 -0.35857156059E+02 -0.46256144915E+02  0.26539822695E+02  0.64398766849E+02  0.41800000000E+01 0. -1.
        -11    1    1    2    0    0  0.42324179355E+01 -0.18282321225E+02  0.51780581592E+02  0.55076176891E+02  0.00000000000E+00 0.  1.
         11    1    1    2    0    0  0.45099855530E+02 -0.89599338480E+01 -0.21808142598E+02  0.50890789609E+02  0.00000000000E+00 0. -1.
</event>
<event>
 7    1  0.2594791E-009  0.5768648E+02  0.7561462E-02  0.1407805E+00
          2   -1    0    0  501    0  0.00000000000E+00  0.00000000000E+00  0.51910681391E+02  0.51910681391E+02  0.00000000000E+00 0. -1.
         -2   -1    0    0    0  501 -0.00000000000E+00 -0.00000000000E+00 -0.43306017509E+03  0.43306017509E+03  0.00000000000E+00 0.  1.
         25    2    1    2    0    0 -0.11678018057E+02 -0.51198062591E+01 -0.40546235621E+02  0.13211203910E+03  0.12508798956E+03 0.  0.
          5    1    3    3  502    0 -0.17839663533E+02  0.74678057072E+01  0.42979696485E+02  0.47315414264E+02  0.41800000000E+01 0.  1.
         -5    1    3    3    0  502  0.61616454764E+01 -0.12587611966E+02 -0.83525932106E+02  0.84796624839E+02  0.41800000000E+01 0.  1.
        -11    1    1    2    0    0  0.21955756288E+02  0.39438032477E+02 -0.26935860869E+03  0.27311439675E+03  0.00000000000E+00 0.  1.
         11    1    1    2    0    0 -0.10277738232E+02 -0.34318226218E+02 -0.71244649394E+02  0.79744420627E+02  0.00000000000E+00 0. -1.
</event>
<event>
 7    1  0.2594791E-009  0.1304904E+03  0.7561462E-02  0.1226730E+00
          2   -1    0    0  501    0  0.00000000000E+00  0.00000000000E+00  0.46040247729E+03  0.46040247729E+03  0.00000000000E+00 0. -1.
         -2   -1    0    0    0  501 -0.00000000000E+00 -0.00000000000E+00 -0.46700775909E+02  0.46700775909E+02  0.00000000000E+00 0.  1.
         25    2    1    2    0    0  0.86589094512E+02  0.12998857051E+02  0.30289420463E+03  0.33920469321E+03  0.12509309782E+03 0.  0.
          5    1    3    3  502    0  0.16802077379E+02 -0.47124137865E+02  0.53773901978E+02  0.73566970223E+02  0.41800000000E+01 0. -1.
         -5    1    3    3    0  502  0.69787017133E+02  0.60122994916E+02  0.24912030266E+03  0.26563772299E+03  0.41800000000E+01 0. -1.
        -11    1    1    2    0    0 -0.21612447014E+02  0.32652613327E+02  0.11632521912E+02  0.40848581237E+02  0.00000000000E+00 0.  1.
         11    1    1    2    0    0 -0.64976647498E+02 -0.45651470378E+02  0.99174974834E+02  0.12704997875E+03  0.00000000000E+00 0. -1.
</event>
<event>
 7    1  0.2594791E-009  0.1065406E+03  0.7561462E-02  0.1267114E+00
          1   -1    0    0  501    0  0.00000000000E+00  0.00000000000E+00  0.90212630530E+02  0.90212630530E+02  0.00000000000E+00 0. -1.
         -1   -1    0    0    0  501 -0.00000000000E+00 -0.00000000000E+00 -0.16904314756E+03  0.16904314756E+03  0.00000000000E+00 0.  1.
         25    2    1    2    0    0  0.52405581881E+02  0.12824270229E+02 -0.17821053057E+02  0.13738694819E+03  0.12508707639E+03 0.  0.
          5    1    3    3  502    0  0.38744621631E+02 -0.38696576330E+02 -0.50598653725E+02  0.74674405815E+02  0.41800000000E+01 0. -1.
         -5    1    3    3    0  502  0.13660960251E+02  0.51520846559E+02  0.32777600668E+02  0.62712542371E+02  0.41800000000E+01 0. -1.
        -11    1    1    2    0    0 -0.45519319773E+02  0.34348702024E+02 -0.25726694175E+02  0.62559608347E+02  0.00000000000E+00 0.  1.
         11    1    1    2    0    0 -0.68862621082E+01 -0.47172972253E+02 -0.35282769796E+02  0.59309221555E+02  0.00000000000E+00 0. -1.
</event>
<event>
 7    1  0.2594791E-009  0.1123743E+03  0.7561462E-02  0.1256235E+00
          2   -1    0    0  501    0  0.00000000000E+00  0.00000000000E+00  0.27682663156E+02  0.27682663156E+02  0.00000000000E+00 0. -1.
         -2   -1    0    0    0  501 -0.00000000000E+00 -0.00000000000E+00 -0.48792385431E+03  0.48792385431E+03  0.00000000000E+00 0.  1.
         25    2    1    2    0    0  0.18275303791E+02  0.12388910088E+02 -0.26497051429E+03  0.29384302371E+03  0.12508747868E+03 0.  0.
          5    1    3    3  502    0  0.63677570334E+02 -0.17857073386E+02 -0.18854480411E+03  0.19985075329E+03  0.41800000000E+01 0.  1.
         -5    1    3    3    0  502 -0.45402266543E+02  0.30245983473E+02 -0.76425710181E+02  0.93992270427E+02  0.41800000000E+01 0.  1.
        -11    1    1    2    0    0 -0.56930097423E+02 -0.26267129109E+02 -0.13475840332E+03  0.14862982651E+03  0.00000000000E+00 0. -1.
         11    1    1    2    0    0  0.38654793632E+02  0.13878219022E+02 -0.60512273547E+02  0.73133667238E+02  0.00000000000E+00 0.  1.
</event>
<event>
 7    1  0.2594791E-009  0.1279529E+03  0.7561462E-02  0.1230525E+00
         -2   -1    0    0    0  501 -0.00000000000E+00  0.00000000000E+00  0.14189102207E+02  0.14189102207E+02  0.00000000000E+00 0.  1.
          2   -1    0    0  501    0  0.00000000000E+00 -0.00000000000E+00 -0.15847264027E+04  0.15847264027E+04  0.00000000000E+00 0. -1.
         25    2    1    2    0    0 -0.67679317248E+02  0.28771139745E+02 -0.12423533902E+04  0.12507990000E+04  0.12509166184E+03 0.  0.
          5    1    3    3  502    0 -0.46635956482E+02  0.75992637611E+02 -0.91743258365E+03  0.92176450971E+03  0.41800000000E+01 0. -1.
         -5    1    3    3    0  502 -0.21043360765E+02 -0.47221497866E+02 -0.32492080654E+03  0.32903449031E+03  0.41800000000E+01 0. -1.
        -11    1    1    2    0    0 -0.73549743841E+01 -0.38428720087E+02 -0.88161172991E+02  0.96453380443E+02  0.00000000000E+00 0.  1.
         11    1    1    2    0    0  0.75034291632E+02  0.96575803422E+01 -0.24002273730E+03  0.25166312443E+03  0.00000000000E+00 0. -1.
</event>
<event>
 6    1  0.2594791E-009  0.2238953E+03  0.7561462E-02  0.1131012E+00
          1   -1    0    0  501    0  0.00000000000E+00  0.00000000000E+00  0.14520021157E+03  0.14520021157E+03  0.00000000000E+00 0. -1.
         -1   -1    0    0    0  501 -0.00000000000E+00 -0.00000000000E+00 -0.41757990337E+03  0.41757990337E+03  0.00000000000E+00 0.  1.
          5    1    1    2  502    0 -0.66157577808E+02 -0.18869917158E+03 -0.62214638623E+02  0.20945724174E+03  0.41800000000E+01 0.  1.
         -5    1    1    2    0  502  0.89097796083E+01 -0.22573166577E+02 -0.72441180431E+02  0.76512280349E+02  0.41800000000E+01 0.  1.
        -11    1    1    2    0    0  0.23100809691E+02  0.15935581460E+03 -0.14177146776E+03  0.21453920883E+03  0.00000000000E+00 0.  1.
         11    1    1    2    0    0  0.34146988509E+02  0.51916523558E+02  0.40475950137E+01  0.62271384021E+02  0.00000000000E+00 0. -1.
</event>
<event>
 7    1  0.2594791E-009  0.1390473E+03  0.7561462E-02  0.1214617E+00
         -1   -1    0    0    0  501 -0.00000000000E+00  0.00000000000E+00  0.20513010572E+02  0.20513010572E+02  0.00000000000E+00 0.  1.
          1   -1    0    0  501    0  0.00000000000E+00 -0.00000000000E+00 -0.15747065904E+04  0.15747065904E+04  0.00000000000E+00 0. -1.
         25    2    1    2    0    0  0.12126770383E+03  0.39899503485E+02 -0.11170669822E+04  0.11312750684E+04  0.12508721483E+03 0.  0.
          5    1    3    3  502    0  0.55369727054E+02  0.54682348183E+02 -0.91219735092E+03  0.91552031397E+03  0.41800000000E+01 0. -1.
         -5    1    3    3    0  502  0.65897976778E+02 -0.14782844699E+02 -0.20486963131E+03  0.21575475447E+03  0.41800000000E+01 0. -1.
        -11    1    1    2    0    0 -0.43272561629E+02 -0.32567010190E+02 -0.30942557974E+03  0.31412945443E+03  0.00000000000E+00 0. -1.
         11    1    1    2    0    0 -0.77995142204E+02 -0.73324932950E+01 -0.12770101787E+03  0.14981507811E+03  0.00000000000E+00 0.  1.
</event>
<event>
 7    1  0.2594791E-009  0.2159713E+03  0.7561462E-02  0.1136923E+00
          2   -1    0    0  501    0  0.00000000000E+00  0.00000000000E+00  0.25379502209E+03  0.25379502209E+03  0.00000000000E+00 0. -1.
         -2   -1    0    0    0  501 -0.00000000000E+00 -0.00000000000E+00 -0.18906350699E+03  0.18906350699E+03  0.00000000000E+00 0.  1.
         25    2    1    2    0    0 -0.17170976102E+03 -0.79872856018E+02  0.15747882780E+02  0.22750635261E+03  0.12508888643E+03 0.  0.
          5    1    3    3  502    0 -0.10418075156E+03  0.19802809584E+02  0.96085825489E+00  0.10613282203E+03  0.41800000000E+01 0. -1.
         -5    1    3    3    0  502 -0.67529009455E+02 -0.99675665603E+02  0.14787024525E+02  0.12137353058E+03  0.41800000000E+01 0. -1.
        -11    1    1    2    0    0  0.12747219886E+03  0.94578554280E+02  0.18848260204E+02  0.15984217630E+03  0.00000000000E+00 0.  1.
         11    1    1    2    0    0  0.44237562154E+02 -0.14705698261E+02  0.30135372117E+02  0.55510000174E+02  0.00000000000E+00 0. -1.
</event>
<event>
 7    1  0.2594791E-009  0.1062970E+03  0.7561462E-02  0.1267585E+00
          1   -1    0    0  501    0  0.00000000000E+00  0.00000000000E+00  0.86209505001E+02  0.86209505001E+02  0.00000000000E+00 0. -1.
         -1   -1    0    0    0  501 -0.00000000000E+00 -0.00000000000E+00 -0.14133605491E+03  0.14133605491E+03  0.00000000000E+00 0.  1.
         25    2    1    2    0    0  0.68020609349E+01 -0.13106030288E+02 -0.18117331774E+02  0.12725250593E+03  0.12508767522E+03 0.  0.
          5    1    3    3  502    0 -0.43473290262E+02 -0.46176178495E+02 -0.20788731935E+02  0.66871594882E+02  0.41800000000E+01 0. -1.
         -5    1    3    3    0  502  0.50275351197E+02  0.33070148207E+02  0.26714001606E+01  0.60380911050E+02  0.41800000000E+01 0. -1.
        -11    1    1    2    0    0  0.30041648076E+02  0.34787908933E+02 -0.34496647954E+02  0.57469278289E+02  0.00000000000E+00 0.  1.
         11    1    1    2    0    0 -0.36843709011E+02 -0.21681878645E+02 -0.25125701793E+01  0.42823775688E+02  0.00000000000E+00 0. -1.
</event>
<event>
 7    1  0.2594791E-009  0.1045893E+03  0.7561462E-02  0.1270931E+00
         -2   -1    0    0    0  501 -0.00000000000E+00  0.00000000000E+00  0.19335939697E+02  0.19335939697E+02  0.00000000000E+00 0.  1.
          2   -1    0    0  501    0  0.00000000000E+00 -0.00000000000E+00 -0.10374063869E+04  0.10374063869E+04  0.00000000000E+00 0. -1.
         25    2    1    2    0    0  0.40430174370E+02 -0.66527569843E+02 -0.73467964680E+03  0.74930789828E+03  0.12509047305E+03 0.  0.
          5    1    3    3  502    0  0.53506722218E+02 -0.51514500810E+02 -0.72091973154E+03  0.72474784914E+03  0.41800000000E+01 0.  1.
         -5    1    3    3    0  502 -0.13076547849E+02 -0.15013069034E+02 -0.13759915262E+02  0.24560049134E+02  0.41800000000E+01 0.  1.
        -11    1    1    2    0    0  0.66649368067E+01  0.67014633903E+02 -0.12249456128E+03  0.13978662341E+03  0.00000000000E+00 0.  1.
         11    1    1    2    0    0 -0.47095111176E+02 -0.48706406034E+00 -0.16089623908E+03  0.16764780487E+03  0.00000000000E+00 0. -1.
</event>
<event>
 7    1  0.2594791E-009  0.9943571E+02  0.7561462E-02  0.1281487E+00
         -2   -1    0    0    0  501 -0.00000000000E+00  0.00000000000E+00  0.11440141846E+03  0.11440141846E+03  0.00000000000E+00 0.  1.
          2   -1    0    0  501    0  0.00000000000E+00 -0.00000000000E+00 -0.11507632972E+03  0.11507632972E+03  0.00000000000E+00 0. -1.
         25    2    1    2    0    0  0.28922575928E+02  0.86669601887E+01 -0.12488536358E+02  0.12929141915E+03  0.12509466787E+03 0.  0.
          5    1    3    3  502    0 -0.28221990105E+02 -0.22563426898E+02 -0.43781894259E+02  0.56920256708E+02  0.41800000000E+01 0. -1.
         -5    1    3    3    0  502  0.57144566033E+02  0.31230387087E+02  0.31293357900E+02  0.72371162443E+02  0.41800000000E+01 0. -1.
        -11    1    1    2    0    0 -0.59014755169E+02  0.12661348020E+02 -0.30152124834E+01  0.60432959282E+02  0.00000000000E+00 0.  1.
         11    1    1    2    0    0  0.30092179241E+02 -0.21328308209E+02  0.14828837573E+02  0.39753369747E+02  0.00000000000E+00 0. -1.
</event>
<event>
 7    1  0.2594791E-009  0.1173370E+03  0.7561462E-02  0.1247556E+00
         -2   -1    0    0    0  501 -0.00000000000E+00  0.00000000000E+00  0.99320262706E+02  0.99320262706E+02  0.00000000000E+00 0.  1.
          2   -1    0    0  501    0  0.00000000000E+00 -0.00000000000E+00 -0.23501731436E+03  0.23501731436E+03  0.00000000000E+00 0. -1.
         25    2    1    2    0    0  0.35105356561E+02  0.56005025070E+02  0.28659453731E+02  0.14435355983E+03  0.12509051545E+03 0.  0.
          5    1    3    3  502    0  0.50529007964E+02 -0.25268255600E+02 -0.17267802689E+00  0.56649515484E+02  0.41800000000E+01 0.  1.
         -5    1    3    3    0  502 -0.15423651404E+02  0.81273280669E+02  0.28832131758E+02  0.87704044348E+02  0.41800000000E+01 0.  1.
        -11    1    1    2    0    0  0.13284448694E+02 -0.43119211651E+02 -0.73601303338E+02  0.86330150259E+02  0.00000000000E+00 0. -1.
         11    1    1    2    0    0 -0.48389805255E+02 -0.12885813418E+02 -0.90755202043E+02  0.10365386697E+03  0.00000000000E+00 0.  1.
</event>
<event>
 7    1  0.2594791E-009  0.8606870E+02  0.7561462E-02  0.1312661E+00
          1   -1    0    0  501    0  0.00000000000E+00  0.00000000000E+00  0.28016084615E+03  0.28016084615E+03  0.00000000000E+00 0. -1.
         -1   -1    0    0    0  501 -0.00000000000E+00 -0.00000000000E+00 -0.44197612128E+02  0.44197612128E+02  0.00000000000E+00 0.  1.
         25    2    1    2    0    0 -0.69263653372E+01 -0.28039632555E+00  0.98958294639E+02  0.15964875406E+03  0.12508767899E+03 0.  0.
          5    1    3    3  502    0 -0.20933962329E+02 -0.41076282834E+02  0.10607156576E+03  0.11573306033E+03  0.41800000000E+01 0.  1.
         -5    1    3    3    0  502  0.14007596992E+02  0.40795886509E+02 -0.71132711225E+01  0.43915693728E+02  0.41800000000E+01 0.  1.
        -11    1    1    2    0    0 -0.36703326944E+02  0.95075310355E+01  0.28604285510E+02  0.47494552368E+02  0.00000000000E+00 0.  1.
         11    1    1    2    0    0  0.43629692281E+02 -0.92271347099E+01  0.10840065387E+03  0.11721515185E+03  0.00000000000E+00 0. -1.
</event>
<event>
 7    1  0.2594791E-009  0.8212597E+02  0.7561462E-02  0.1323124E+00
         -1   -1    0    0    0  501 -0.00000000000E+00  0.00000000000E+00  0.12511411818E+02  0.12511411818E+02  0.00000000000E+00 0.  1.
          1   -1    0    0  501    0  0.00000000000E+00 -0.00000000000E+00 -0.14354014747E+04  0.14354014747E+04  0.00000000000E+00 0. -1.
         25    2    1    2    0    0  0.40716968048E+01 -0.54937443302E+02 -0.10229806906E+04  0.10320713541E+04  0.12508830971E+03 0.  0.
          5    1    3    3  502    0  0.27480881296E+02 -0.44414881676E+02 -0.15339251173E+03  0.16209446507E+03  0.41800000000E+01 0.  1.
         -5    1    3    3    0  502 -0.23409184491E+02 -0.10522561626E+02 -0.86958817885E+03  0.86997688901E+03  0.41800000000E+01 0.  1.
        -11    1    1    2    0    0 -0.21031141577E+02 -0.65827038645E+01 -0.17490210057E+02  0.28134469144E+02  0.00000000000E+00 0.  1.
         11    1    1    2    0    0  0.16959444772E+02  0.61520147167E+02 -0.38241916225E+03  0.38770706330E+03  0.00000000000E+00 0. -1.
</event>
<event>
 7    1  0.2594791E-009  0.2830554E+03  0.7561462E-02  0.1094032E+00
          3   -1    0    0  501    0  0.00000000000E+00  0.00000000000E+00  0.35780283823E+03  0.35780283823E+03  0.00000000000E+00 0. -1.
         -3   -1    0    0    0  501 -0.00000000000E+00 -0.00000000000E+00 -0.24832628502E+03  0.24832628502E+03  0.00000000000E+00 0.  1.
         25    2    1    2    0    0 -0.19104761119E+03 -0.19243896737E+03  0.11524617365E+03  0.32009390613E+03  0.12508589967E+03 0.  0.
          5    1    3    3  502    0 -0.20273326437E+03 -0.16692890647E+03  0.12394188554E+03  0.29042227822E+03  0.41800000000E+01 0.  1.
         -5    1    3    3    0  502  0.11685653183E+02 -0.25510060895E+02 -0.86957118877E+01  0.29671627903E+02  0.41800000000E+01 0.  1.
        -11    1    1    2    0    0  0.91788744540E+02  0.60281724952E+02  0.35988631040E+02  0.11556055361E+03  0.00000000000E+00 0.  1.
         11    1    1    2    0    0  0.99258866647E+02  0.13215724241E+03 -0.41758251481E+02  0.17047466350E+03  0.00000000000E+00 0. -1.
</event>
<event>
 7    1  0.2594791E-009  0.9931613E+02  0.7561462E-02  0.1281741E+00
         -2   -1    0    0    0  501 -0.00000000000E+00  0.00000000000E+00  0.79599874160E+03  0.79599874160E+03  0.00000000000E+00 0.  1.
          2   -1    0    0  501    0  0.00000000000E+00 -0.00000000000E+00 -0.15206435197E+02  0.15206435197E+02  0.00000000000E+00 0. -1.
         25    2    1    2    0    0 -0.22613040387E+02  0.38208719794E+01  0.48880569289E+03  0.50507791586E+03  0.12508695786E+03 0.  0.
          5    1    3    3  502    0 -0.43920917899E+02  0.43690660950E+02  0.40530318359E+03  0.41003178402E+03  0.41800000000E+01 0.  1.
         -5    1    3    3    0  502  0.21307877512E+02 -0.39869788971E+02  0.83502509307E+02  0.95046131837E+02  0.41800000000E+01 0.  1.
        -11    1    1    2    0    0  0.24374659166E+02 -0.44332377454E+02  0.18212148889E+03  0.18901777804E+03  0.00000000000E+00 0.  1.
         11    1    1    2    0    0 -0.17616187793E+01  0.40511505475E+02  0.10986512462E+03  0.11710948290E+03  0.00000000000E+00 0. -1.
</event>
<event>
 7    1  0.2594791E-009  0.1084921E+03  0.7561462E-02  0.1263388E+00
         -4   -1    0    0    0  501 -0.00000000000E+00  0.00000000000E+00  0.45862704219E+02  0.45862704219E+02  0.00000000000E+00 0.  1.
          4   -1    0    0  501    0  0.00000000000E+00 -0.00000000000E+00 -0.41562421538E+03  0.41562421538E+03  0.00000000000E+00 0. -1.
         25    2    1    2    0    0 -0.57395913988E+02  0.52740600802E+02 -0.15044207111E+03  0.21060910075E+03  0.12509002614E+03 0.  0.
          5    1    3    3  502    0 -0.85038682018E+02  0.49849915886E+02 -0.15335676993E+03  0.18235230417E+03  0.41800000000E+01 0. -1.
         -5    1    3    3    0  502  0.27642768030E+02  0.28906849158E+01  0.29146988130E+01  0.28256796578E+02  0.41800000000E+01 0. -1.
        -11    1    1    2    0    0  0.63682840216E+02 -0.37919755963E+02 -0.22245392920E+03  0.23447635839E+03  0.00000000000E+00 0. -1.
         11    1    1    2    0    0 -0.62869262287E+01 -0.14820844839E+02  0.31344891455E+01  0.16401460464E+02  0.00000000000E+00 0.  1.
</event>
<event>
 7    1  0.2594791E-009  0.1188973E+03  0.7561462E-02  0.1244927E+00
          2   -1    0    0  501    0  0.00000000000E+00  0.00000000000E+00  0.12033223942E+04  0.12033223942E+04  0.00000000000E+00 0. -1.
         -2   -1    0    0    0  501 -0.00000000000E+00 -0.00000000000E+00 -0.12591342784E+02  0.12591342784E+02  0.00000000000E+00 0.  1.
         25    2    1    2    0    0 -0.41918232018E+02  0.26414668442E+02  0.81999893008E+03  0.83096366615E+03  0.12508995264E+03 0.  0.
          5    1    3    3  502    0 -0.46465117104E+02 -0.43724052558E+02  0.36795723569E+03  0.37347128347E+03  0.41800000000E+01 0. -1.
         -5    1    3    3    0  502  0.45468850867E+01  0.70138721001E+02  0.45204169439E+03  0.45749238269E+03  0.41800000000E+01 0. -1.
        -11    1    1    2    0    0  0.66860818941E+02  0.34713912136E+00  0.22770323109E+03  0.23731677366E+03  0.00000000000E+00 0.  1.
         11    1    1    2    0    0 -0.24942586923E+02 -0.26761807564E+02  0.14302889029E+03  0.14763329721E+03  0.00000000000E+00 0. -1.
</event>
<event>
 7    1  0.2594791E-009  0.1782615E+03  0.7561462E-02  0.1169496E+00
          1   -1    0    0  501    0  0.00000000000E+00  0.00000000000E+00  0.39575801035E+02  0.39575801035E+02  0.00000000000E+00 0. -1.
         -1   -1    0    0    0  501 -0.00000000000E+00 -0.00000000000E+00 -0.12007145621E+04  0.12007145621E+04  0.00000000000E+00 0.  1.
         25    2    1    2    0    0  0.11514847890E+03  0.89824550895E+02 -0.94279781527E+03  0.96220722562E+03  0.12508957761E+03 0.  0.
          5    1    3    3  502    0  0.96680022986E+02  0.21643825534E+01 -0.60562202387E+03  0.61330842127E+03  0.41800000000E+01 0. -1.
         -5    1    3    3    0  502  0.18468455916E+02  0.87660168342E+02 -0.33717579140E+03  0.34889880436E+03  0.41800000000E+01 0. -1.
        -11    1    1    2    0    0 -0.97504077535E+02 -0.10745826762E+03 -0.20013323867E+03  0.24719959069E+03  0.00000000000E+00 0.  1.
         11    1    1    2    0    0 -0.17644401366E+02  0.17633716721E+02 -0.18207707097E+02  0.30883546796E+02  0.00000000000E+00 0. -1.
</event>
<event>
 7    1  0.2594791E-009  0.1037269E+03  0.7561462E-02  0.1272648E+00
          2   -1    0    0  501    0  0.00000000000E+00  0.00000000000E+00  0.32769093663E+03  0.32769093663E+03  0.00000000000E+00 0. -1.
         -2   -1    0    0    0  501 -0.00000000000E+00 -0.00000000000E+00 -0.36942324766E+02  0.36942324766E+02  0.00000000000E+00 0.  1.
         25    2    1    2    0    0 -0.71767952511E+01  0.11025648702E+02  0.14737644925E+03  0.19375314152E+03  0.12508953088E+03 0.  0.
          5    1    3    3  502    0 -0.65699382114E+02 -0.11564582622E+01  0.75711254490E+02  0.10033649716E+03  0.41800000000E+01 0. -1.
         -5    1    3    3    0  502  0.58522586863E+02  0.12182106964E+02  0.71665194761E+02  0.93416644360E+02  0.41800000000E+01 0. -1.
        -11    1    1    2    0    0  0.37094984236E+01  0.35168889422E+02  0.10477895936E+03  0.11058590094E+03  0.00000000000E+00 0. -1.
         11    1    1    2    0    0  0.34672968275E+01 -0.46194538124E+02  0.38593203248E+02  0.60294218933E+02  0.00000000000E+00 0.  1.
</event>
<event>
 7    1  0.2594791E-009  0.1285321E+03  0.7561462E-02  0.1229650E+00
          2   -1    0    0  501    0  0.00000000000E+00  0.00000000000E+00  0.50313590080E+03  0.50313590080E+03  0.00000000000E+00 0. -1.
         -2   -1    0    0    0  501 -0.00000000000E+00 -0.00000000000E+00 -0.40066758852E+02  0.40066758852E+02  0.00000000000E+00 0.  1.
         25    2    1    2    0    0  0.46399253703E+02  0.77268149015E+02  0.21960622016E+03  0.26831949129E+03  0.12508077339E+03 0.  0.
          5    1    3    3  502    0 -0.21613734669E+02  0.75078348426E+02  0.15853276102E+03  0.17678806703E+03  0.41800000000E+01 0.  1.
         -5    1    3    3    0  502  0.68012988372E+02  0.21898005887E+01  0.61073459144E+02  0.91531424253E+02  0.41800000000E+01 0.  1.
        -11    1    1    2    0    0 -0.26813701620E+02  0.39491911519E+01  0.13647283617E+03  0.13913808148E+03  0.00000000000E+00 0. -1.
         11    1    1    2    0    0 -0.19585552083E+02 -0.81217340167E+02  0.10699008561E+03  0.13574508689E+03  0.00000000000E+00 0.  1.
</event>
<event>
 7    1  0.2594791E-009  0.1169200E+03  0.7561462E-02  0.1248266E+00
         -2   -1    0    0    0  501 -0.00000000000E+00  0.00000000000E+00  0.48181859028E+02  0.48181859028E+02  0.00000000000E+00 0.  1.
          2   -1    0    0  501    0  0.00000000000E+00 -0.00000000000E+00 -0.40199078134E+03  0.40199078134E+03  0.00000000000E+00 0. -1.
         25    2    1    2    0    0 -0.51172593737E+02 -0.69250083280E+02 -0.18307730272E+03  0.23786159635E+03  0.12508649753E+03 0.  0.
          5    1    3    3  502    0 -0.19210197969E+02  0.17030305810E+02 -0.12784743828E+03  0.13046648189E+03  0.41800000000E+01 0.  1.
         -5    1    3    3    0  502 -0.31962395768E+02 -0.86280389090E+02 -0.55229864444E+02  0.10739511447E+03  0.41800000000E+01 0.  1.
        -11    1    1    2    0    0  0.15666408022E+02  0.77669478329E+02 -0.15172296451E+03  0.17116612446E+03  0.00000000000E+00 0. -1.
         11    1    1    2    0    0  0.35506185714E+02 -0.84193950491E+01 -0.19008655083E+02  0.41144919553E+02  0.00000000000E+00 0.  1.
</event>
<event>
 7    1  0.2594791E-009  0.9797671E+02  0.7561462E-02  0.1284609E+00
         -2   -1    0    0    0  501 -0.00000000000E+00  0.00000000000E+00  0.45694867886E+02  0.45694867886E+02  0.00000000000E+00 0.  1.
          2   -1    0    0  501    0  0.00000000000E+00 -0.00000000000E+00 -0.32592930867E+03  0.32592930867E+03  0.00000000000E+00 0. -1.
         25    2    1    2    0    0  0.50749764206E+01  0.57775178016E+02 -0.14118991244E+03  0.19734605754E+03  0.12508856251E+03 0.  0.
          5    1    3    3  502    0  0.64295698527E+01 -0.27085274945E+02  0.46744229517E+01  0.28535488734E+02  0.41800000000E+01 0. -1.
         -5    1    3    3    0  502 -0.13545934321E+01  0.84860452961E+02 -0.14586433539E+03  0.16881056880E+03  0.41800000000E+01 0. -1.
        -11    1    1    2    0    0 -0.25144683193E+02 -0.40383667669E+01 -0.10396710480E+03  0.10704075102E+03  0.00000000000E+00 0.  1.
         11    1    1    2    0    0  0.20069706773E+02 -0.53736811249E+02 -0.35077423548E+02  0.67237368002E+02  0.00000000000E+00 0. -1.
</event>
<event>
 7    1  0.2594791E-009  0.1424178E+03  0.7561462E-02  0.1210112E+00
         -1   -1    0    0    0  501 -0.00000000000E+00  0.00000000000E+00  0.58754305619E+02  0.58754305619E+02  0.00000000000E+00 0.  1.
          1   -1    0    0  501    0  0.00000000000E+00 -0.00000000000E+00 -0.42513983922E+03  0.42513983922E+03  0.00000000000E+00 0. -1.
         25    2    1    2    0    0  0.72198735783E+02  0.89891338741E+02 -0.21475740095E+03  0.27397251632E+03  0.12508832164E+03 0.  0.
          5    1    3    3  502    0  0.79236502365E+02  0.70513646277E-01 -0.89291749630E+02  0.11945257315E+03  0.41800000000E+01 0.  1.
         -5    1    3    3    0  502 -0.70377665817E+01  0.89820825094E+02 -0.12546565132E+03  0.15451994318E+03  0.41800000000E+01 0.  1.
        -11    1    1    2    0    0 -0.26643522724E+02 -0.33135462206E+02 -0.12564669541E+03  0.13264587527E+03  0.00000000000E+00 0. -1.
         11    1    1    2    0    0 -0.45555213060E+02 -0.56755876535E+02 -0.25981437241E+02  0.77275753243E+02  0.00000000000E+00 0.  1.
</event>
<event>
 7    1  0.2594791E-009  0.9668587E+02  0.7561462E-02  0.1287424E+00
         -2   -1    0    0    0  501 -0.00000000000E+00  0.00000000000E+00  0.51731532883E+02  0.51731532883E+02  0.00000000000E+00 0.  1.
          2   -1    0    0  501    0  0.00000000000E+00 -0.00000000000E+00 -0.28297342583E+03  0.28297342583E+03  0.00000000000E+00 0. -1.
         25    2    1    2    0    0 -0.38677929218E+02 -0.37555230790E+02 -0.12100504669E+03  0.18219775993E+03  0.12508966716E+03 0.  0.
          5    1    3    3  502    0 -0.16107803345E+02  0.42327027240E+02 -0.15854005634E+02  0.48164929755E+02  0.41800000000E+01 0. -1.
         -5    1    3    3    0  502 -0.22570125873E+02 -0.79882258030E+02 -0.10515104105E+03  0.13403283017E+03  0.41800000000E+01 0. -1.
        -11    1    1    2    0    0  0.14202746937E+02  0.37714804161E+02 -0.11967225912E+03  0.12627578579E+03  0.00000000000E+00 0. -1.
         11    1    1    2    0    0  0.24475182280E+02 -0.15957337051E+00  0.94354128696E+01  0.26231412988E+02  0.00000000000E+00 0.  1.
</event>
<event>
 7    1  0.2594791E-009  0.1001580E+03  0.7561462E-02  0.1279964E+00
          2   -1    0    0  501    0  0.00000000000E+00  0.00000000000E+00  0.86404048510E+03  0.86404048510E+03  0.00000000000E+00 0.  1.
         -2   -1    0    0    0  501 -0.00000000000E+00 -0.00000000000E+00 -0.22630340540E+02  0.22630340540E+02  0.00000000000E+00 0. -1.
         25    2    1    2    0    0  0.43498943408E+02 -0.24076664788E+02  0.68876237152E+03  0.70179250996E+03  0.12508908329E+03 0.  0.
          5    1    3    3  502    0 -0.35878154890E+02 -0.32107662532E+02  0.16363007765E+03  0.17061775612E+03  0.41800000000E+01 0. -1.
         -5    1    3    3    0  502  0.79377098298E+02  0.80309977443E+01  0.52513229387E+03  0.53117475384E+03  0.41800000000E+01 0. -1.
        -11    1    1    2    0    0 -0.55662505685E+02  0.18011504689E+02  0.15933085742E+03  0.16973229206E+03  0.00000000000E+00 0.  1.
         11    1    1    2    0    0  0.12163562277E+02  0.60651600990E+01 -0.66830843871E+01  0.15146023611E+02  0.00000000000E+00 0. -1.
</event>
<event>
 7    1  0.2594791E-009  0.1378523E+03  0.7561462E-02  0.1216248E+00
         -1   -1    0    0    0  501 -0.00000000000E+00  0.00000000000E+00  0.37051653084E+03  0.37051653084E+03  0.00000000000E+00 0.  1.
          1   -1    0    0  501    0  0.00000000000E+00 -0.00000000000E+00 -0.77131159310E+02  0.77131159310E+02  0.00000000000E+00 0. -1.
         25    2    1    2    0    0 -0.77847071516E+02  0.10051076805E+02  0.54307821639E+02  0.15734701220E+03  0.12509017575E+03 0.  0.
          5    1    3    3  502    0  0.16712836025E+02 -0.37589007350E+02  0.10339435814E+02  0.42621927391E+02  0.41800000000E+01 0. -1.
         -5    1    3    3    0  502 -0.94559907541E+02  0.47640084155E+02  0.43968385825E+02  0.11472508481E+03  0.41800000000E+01 0. -1.
        -11    1    1    2    0    0  0.21995706172E+01  0.38461266262E+02  0.17683838268E+03  0.18098596825E+03  0.00000000000E+00 0.  1.
         11    1    1    2    0    0  0.75647500899E+02 -0.48512343067E+02  0.62239167209E+02  0.10931470970E+03  0.00000000000E+00 0. -1.
</event>
<event>
 7    1  0.2594791E-009  0.9622500E+02  0.7561462E-02  0.1288441E+00
         -2   -1    0    0    0  501 -0.00000000000E+00  0.00000000000E+00  0.46213816415E+02  0.46213816415E+02  0.00000000000E+00 0.  1.
          2   -1    0    0  501    0  0.00000000000E+00 -0.00000000000E+00 -0.29941064003E+03  0.29941064003E+03  0.00000000000E+00 0. -1.
         25    2    1    2    0    0  0.20176862576E+02 -0.76250808298E+01 -0.20359832394E+03  0.23992695783E+03  0.12508964761E+03 0.  0.
          5    1    3    3  502    0  0.58225393598E+01  0.58134540160E+02 -0.80335949102E+02  0.99422652561E+02  0.41800000000E+01 0.  1.
         -5    1    3    3    0  502  0.14354323217E+02 -0.65759620990E+02 -0.12326237484E+03  0.14050430527E+03  0.41800000000E+01 0.  1.
        -11    1    1    2    0    0 -0.26352553572E+02  0.31907036933E+02  0.86607288767E+01  0.42279123812E+02  0.00000000000E+00 0.  1.
         11    1    1    2    0    0  0.61756909959E+01 -0.24281956103E+02 -0.58259228544E+02  0.63418374798E+02  0.00000000000E+00 0. -1.
</event>
<event>
 7    1  0.2594791E-009  0.1004586E+03  0.7561462E-02  0.1279335E+00
         -1   -1    0    0    0  501 -0.00000000000E+00  0.00000000000E+00  0.13808430584E+03  0.13808430584E+03  0.00000000000E+00 0.  1.
          1   -1    0    0  501    0  0.00000000000E+00 -0.00000000000E+00 -0.11780418790E+03  0.11780418790E+03  0.00000000000E+00 0. -1.
         25    2    1    2    0    0 -0.49890658251E+02 -0.43609027822E+02 -0.12428970038E+01  0.14155922236E+03  0.12508654426E+03 0.  0.
          5    1    3    3  502    0 -0.27166349732E+02  0.37572142295E+02 -0.26357977426E+02  0.53496652310E+02  0.41800000000E+01 0.  1.
         -5    1    3    3    0  502 -0.22724308519E+02 -0.81181170117E+02  0.25115080422E+02  0.88062570050E+02  0.41800000000E+01 0.  1.
        -11    1    1    2    0    0  0.23744139872E+02  0.65972959783E+01  0.53475945470E+02  0.58881111032E+02  0.00000000000E+00 0.  1.
         11    1    1    2    0    0  0.26146518379E+02  0.37011731844E+02 -0.31952930524E+02  0.55448160352E+02  0.00000000000E+00 0. -1.
</event>
<event>
 7    1  0.2594791E-009  0.1083688E+03  0.7561462E-02  0.1263621E+00
         -2   -1    0    0    0  501 -0.00000000000E+00  0.00000000000E+00  0.15149910096E+03  0.15149910096E+03  0.00000000000E+00 0.  1.
          2   -1    0    0  501    0  0.00000000000E+00 -0.00000000000E+00 -0.12396175845E+03  0.12396175845E+03  0.00000000000E+00 0. -1.
         25    2    1    2    0    0 -0.99398782021E+01 -0.51639184187E+02  0.83948240605E+02  0.15956010832E+03  0.12508682802E+03 0.  0.
          5    1    3    3  502    0 -0.33260172814E+02  0.33439785203E+02  0.30795840135E+02  0.56482869081E+02  0.41800000000E+01 0.  1.
         -5    1    3    3    0  502  0.23320294612E+02 -0.85078969389E+02  0.53152400470E+02  0.10307723924E+03  0.41800000000E+01 0.  1.
        -11    1    1    2    0    0  0.22017565048E+02 -0.54808676874E+01  0.12240696494E+02  0.25780762826E+02  0.00000000000E+00 0.  1.
         11    1    1    2    0    0 -0.12077686846E+02  0.57120051874E+02 -0.68651594592E+02  0.90119988269E+02  0.00000000000E+00 0. -1.
</event>
<event>
 7    1  0.2594791E-009  0.1085835E+03  0.7561462E-02  0.1263216E+00
          1   -1    0    0  501    0  0.00000000000E+00  0.00000000000E+00  0.34471489755E+03  0.34471489755E+03  0.00000000000E+00 0. -1.
         -1   -1    0    0    0  501 -0.00000000000E+00 -0.00000000000E+00 -0.58493840095E+02  0.58493840095E+02  0.00000000000E+00 0.  1.
         25    2    1    2    0    0  0.11633161993E+02  0.88632803096E+02  0.12307695942E+03  0.19694131725E+03  0.12508733053E+03 0.  0.
          5    1    3    3  502    0 -0.24956818108E+02  0.65866088620E+00  0.93832226061E+02  0.97186602223E+02  0.41800000000E+01 0.  1.
         -5    1    3    3    0  502  0.36589980100E+02  0.87974142209E+02  0.29244733355E+02  0.99754715027E+02  0.41800000000E+01 0.  1.
        -11    1    1    2    0    0  0.69979796785E+01 -0.69229551698E+02  0.16523302387E+03  0.17928651574E+03  0.00000000000E+00 0. -1.
         11    1    1    2    0    0 -0.18631141671E+02 -0.19403251398E+02 -0.20889258345E+01  0.26980904653E+02  0.00000000000E+00 0.  1.
</event>
<event>
 7    1  0.2594791E-009  0.1305494E+03  0.7561462E-02  0.1226643E+00
         -1   -1    0    0    0  501 -0.00000000000E+00  0.00000000000E+00  0.62760237760E+02  0.62760237760E+02  0.00000000000E+00 0.  1.
          1   -1    0    0  501    0  0.00000000000E+00 -0.00000000000E+00 -0.37839627541E+03  0.37839627541E+03  0.00000000000E+00 0. -1.
         25    2    1    2    0    0 -0.73610959864E+02 -0.79072348205E+02 -0.19929771614E+03  0.25891612555E+03  0.12508785213E+03 0.  0.
          5    1    3    3  502    0 -0.83086297586E+02 -0.23345281438E+02 -0.51419967517E+02  0.10054760301E+03  0.41800000000E+01 0.  1.
         -5    1    3    3    0  502  0.94753377220E+01 -0.55727066767E+02 -0.14787774862E+03  0.15836852254E+03  0.41800000000E+01 0.  1.
        -11    1    1    2    0    0  0.38951641410E+02  0.73117459907E+02 -0.28478372742E+02  0.87603715822E+02  0.00000000000E+00 0.  1.
         11    1    1    2    0    0  0.34659318454E+02  0.59548882979E+01 -0.87859948773E+02  0.94636671797E+02  0.00000000000E+00 0. -1.
</event>
<event>
 7    1  0.2594791E-009  0.1064328E+03  0.7561462E-02  0.1267322E+00
          2   -1    0    0  501    0  0.00000000000E+00  0.00000000000E+00  0.25184138752E+03  0.25184138752E+03  0.00000000000E+00 0. -1.
         -2   -1    0    0    0  501 -0.00000000000E+00 -0.00000000000E+00 -0.60292988923E+02  0.60292988923E+02  0.00000000000E+00 0.  1.
         25    2    1    2    0    0 -0.26118257498E+02  0.40675455381E+02  0.15011197819E+03  0.20129031522E+03  0.12509008339E+03 0.  0.
          5    1    3    3  502    0  0.32859807423E+02  0.57253312466E+02  0.10863794634E+03  0.12719034757E+03  0.41800000000E+01 0. -1.
         -5    1    3    3    0  502 -0.58978064921E+02 -0.16577857085E+02  0.41474031851E+02  0.74099967647E+02  0.41800000000E+01 0. -1.
        -11    1    1    2    0    0  0.48234992659E+02 -0.13132910143E+02  0.53780078029E+02  0.73426048773E+02  0.00000000000E+00 0. -1.
         11    1    1    2    0    0 -0.22116735161E+02 -0.27542545238E+02 -0.12343657615E+02  0.37418012450E+02  0.00000000000E+00 0.  1.
</event>
<event>
 7    1  0.2594791E-009  0.9017316E+02  0.7561462E-02  0.1302433E+00
          2   -1    0    0  501    0  0.00000000000E+00  0.00000000000E+00  0.84432094391E+02  0.84432094391E+02  0.00000000000E+00 0. -1.
         -2   -1    0    0    0  501 -0.00000000000E+00 -0.00000000000E+00 -0.16267001982E+03  0.16267001982E+03  0.00000000000E+00 0.  1.
         25    2    1    2    0    0 -0.33272604640E+02 -0.10027853759E+02 -0.77731518661E+02  0.15131715651E+03  0.12508824401E+03 0.  0.
          5    1    3    3  502    0  0.26901888296E+01 -0.52126248589E+02  0.39927091322E+01  0.52514731591E+02  0.41800000000E+01 0. -1.
         -5    1    3    3    0  502 -0.35962793470E+02  0.42098394830E+02 -0.81724227793E+02  0.98802424918E+02  0.41800000000E+01 0. -1.
        -11    1    1    2    0    0  0.23084939386E+02  0.37008536489E+02 -0.31230304848E+02  0.53645858558E+02  0.00000000000E+00 0.  1.
         11    1    1    2    0    0  0.10187665254E+02 -0.26980682730E+02  0.30723898076E+02  0.42139099147E+02  0.00000000000E+00 0. -1.
</event>
<event>
 7    1  0.2594791E-009  0.1517695E+03  0.7561462E-02  0.1198315E+00
          4   -1    0    0  501    0  0.00000000000E+00  0.00000000000E+00  0.38102640762E+03  0.38102640762E+03  0.00000000000E+00 0. -1.
         -4   -1    0    0    0  501 -0.00000000000E+00 -0.00000000000E+00 -0.63220195895E+02  0.63220195895E+02  0.00000000000E+00 0.  1.
         25    2    1    2    0    0  0.70445847511E+02  0.82202796891E+02  0.19896201686E+03  0.25875974880E+03  0.12510318221E+03 0.  0.
          5    1    3    3  502    0  0.29477605140E+02 -0.32180875921E+02  0.54899472796E+02  0.70256405353E+02  0.41800000000E+01 0. -1.
         -5    1    3    3    0  502  0.40968242371E+02  0.11438367281E+03  0.14406254406E+03  0.18850334345E+03  0.41800000000E+01 0. -1.
        -11    1    1    2    0    0 -0.25499096878E+02 -0.89079709825E+02  0.99824001239E+02  0.13619922859E+03  0.00000000000E+00 0. -1.
         11    1    1    2    0    0 -0.44946750633E+02  0.68769129337E+01  0.19020193630E+02  0.49287626131E+02  0.00000000000E+00 0.  1.
</event>
<event>
 7    1  0.2594791E-009  0.1410534E+03  0.7561462E-02  0.1211919E+00
          2   -1    0    0  501    0  0.00000000000E+00  0.00000000000E+00  0.57927864183E+03  0.57927864183E+03  0.00000000000E+00 0. -1.
         -2   -1    0    0    0  501 -0.00000000000E+00 -0.00000000000E+00 -0.50879409305E+02  0.50879409305E+02  0.00000000000E+00 0.  1.
         25    2    1    2    0    0  0.65562788493E+02  0.80042363136E+02  0.12741559540E+03  0.20636611521E+03  0.12508789081E+03 0.  0.
          5    1    3    3  502    0  0.22698128843E+02  0.97127937743E+02  0.12499517278E+03  0.15996970639E+03  0.41800000000E+01 0.  1.
         -5    1    3    3    0  502  0.42864659650E+02 -0.17085574607E+02  0.24204226190E+01  0.46396408829E+02  0.41800000000E+01 0.  1.
        -11    1    1    2    0    0 -0.76425681231E+02 -0.92121102445E+02  0.33190061304E+03  0.35282460119E+03  0.00000000000E+00 0.  1.
         11    1    1    2    0    0  0.10862892738E+02  0.12078739309E+02  0.69083024088E+02  0.70967334733E+02  0.00000000000E+00 0. -1.
</event>
<event>
 7    1  0.2594791E-009  0.1169275E+03  0.7561462E-02  0.1248253E+00
         -1   -1    0    0    0  501 -0.00000000000E+00  0.00000000000E+00  0.14432613818E+03  0.14432613818E+03  0.00000000000E+00 0.  1.
          1   -1    0    0  501    0  0.00000000000E+00 -0.00000000000E+00 -0.15274131324E+03  0.15274131324E+03  0.00000000000E+00 0. -1.
         25    2    1    2    0    0  0.82080416522E+02 -0.37125058351E+02 -0.71453584117E+02  0.16990954742E+03  0.12509266520E+03 0.  0.
          5    1    3    3  502    0 -0.62639452567E+01 -0.53037998718E+02  0.23533545627E+01  0.53621609411E+02  0.41800000000E+01 0.  1.
         -5    1    3    3    0  502  0.88344361778E+02  0.15912940367E+02 -0.73806938680E+02  0.11628793801E+03  0.41800000000E+01 0.  1.
        -11    1    1    2    0    0 -0.36634657089E+02  0.12342349726E+02  0.64697892148E+02  0.75367426287E+02  0.00000000000E+00 0.  1.
         11    1    1    2    0    0 -0.45445759433E+02  0.24782708625E+02 -0.16594830852E+01  0.51790477709E+02  0.00000000000E+00 0. -1.
</event>
<event>
 7    1  0.2594791E-009  0.1345737E+03  0.7561462E-02  0.1220823E+00
         -2   -1    0    0    0  501 -0.00000000000E+00  0.00000000000E+00  0.32177734925E+02  0.32177734925E+02  0.00000000000E+00 0.  1.
          2   -1    0    0  501    0  0.00000000000E+00 -0.00000000000E+00 -0.68639558169E+03  0.68639558169E+03  0.00000000000E+00 0. -1.
         25    2    1    2    0    0  0.51484988460E+02  0.72807273255E+02 -0.23953667988E+03  0.28456314650E+03  0.12508701075E+03 0.  0.
          5    1    3    3  502    0 -0.25368065307E+02  0.60976436462E+02 -0.61922497082E+02  0.90628541784E+02  0.41800000000E+01 0.  1.
         -5    1    3    3    0  502  0.76853053767E+02  0.11830836792E+02 -0.17761418280E+03  0.19393460471E+03  0.41800000000E+01 0.  1.
        -11    1    1    2    0    0  0.30580651095E+01 -0.70441078809E+02 -0.27866283182E+03  0.28744437928E+03  0.00000000000E+00 0.  1.
         11    1    1    2    0    0 -0.54543053570E+02 -0.23661944459E+01 -0.13601833506E+03  0.14656579083E+03  0.00000000000E+00 0. -1.
</event>
<event>
 7    1  0.2594791E-009  0.2047735E+03  0.7561462E-02  0.1145773E+00
         -2   -1    0    0    0  501 -0.00000000000E+00  0.00000000000E+00  0.62222449388E+02  0.62222449388E+02  0.00000000000E+00 0.  1.
          2   -1    0    0  501    0  0.00000000000E+00 -0.00000000000E+00 -0.73234585603E+03  0.73234585603E+03  0.00000000000E+00 0. -1.
         25    2    1    2    0    0  0.14435612969E+03 -0.11079233862E+03 -0.30645838163E+03  0.37772939811E+03  0.12509645898E+03 0.  0.
          5    1    3    3  502    0  0.74371637359E+02  0.26577731663E+01 -0.53439342016E+02  0.91713902309E+02  0.41800000000E+01 0. -1.
         -5    1    3    3    0  502  0.69984492329E+02 -0.11345011179E+03 -0.25301903961E+03  0.28601549580E+03  0.41800000000E+01 0. -1.
        -11    1    1    2    0    0 -0.48262817471E+02  0.91770452836E+02 -0.21656042385E+03  0.24010317104E+03  0.00000000000E+00 0.  1.
         11    1    1    2    0    0 -0.96093312216E+02  0.19021885788E+02 -0.14710460116E+03  0.17673573627E+03  0.00000000000E+00 0. -1.
</event>
<event>
 7    1  0.2594791E-009  0.1045561E+03  0.7561462E-02  0.1270997E+00
          1   -1    0    0  501    0  0.00000000000E+00  0.00000000000E+00  0.19805593501E+03  0.19805593501E+03  0.00000000000E+00 0. -1.
         -1   -1    0    0    0  501 -0.00000000000E+00 -0.00000000000E+00 -0.65755090044E+02  0.65755090044E+02  0.00000000000E+00 0.  1.
         25    2    1    2    0    0 -0.98313638136E+01  0.14076574855E+02  0.10770767005E+03  0.16595313525E+03  0.12507875614E+03 0.  0.
          5    1    3    3  502    0 -0.63950961192E+02 -0.86854068707E+00  0.81957742960E+02  0.10404337476E+03  0.41800000000E+01 0.  1.
         -5    1    3    3    0  502  0.54119597378E+02  0.14945115542E+02  0.25749927088E+02  0.61909760490E+02  0.41800000000E+01 0.  1.
        -11    1    1    2    0    0  0.47939145636E+02 -0.16063114738E+02 -0.31844017785E+01  0.50658915840E+02  0.00000000000E+00 0.  1.
         11    1    1    2    0    0 -0.38107781823E+02  0.19865398826E+01  0.27777576697E+02  0.47198973965E+02  0.00000000000E+00 0. -1.
</event>
<event>
 7    1  0.2594791E-009  0.8539507E+02  0.7561462E-02  0.1314403E+00
         -1   -1    0    0    0  501 -0.00000000000E+00  0.00000000000E+00  0.57733141363E+02  0.57733141363E+02  0.00000000000E+00 0.  1.
          1   -1    0    0  501    0  0.00000000000E+00 -0.00000000000E+00 -0.27036903236E+03  0.27036903236E+03  0.00000000000E+00 0. -1.
         25    2    1    2    0    0  0.27711556278E+02  0.47858977113E+02 -0.15024456799E+03  0.20317351937E+03  0.12509051411E+03 0.  0.
          5    1    3    3  502    0  0.84874586444E+01  0.42399692330E+02 -0.16957883184E+03  0.17505491559E+03  0.41800000000E+01 0. -1.
         -5    1    3    3    0  502  0.19224097633E+02  0.54592847832E+01  0.19334263847E+02  0.28118603782E+02  0.41800000000E+01 0. -1.
        -11    1    1    2    0    0  0.28390273017E+02 -0.41762854579E+02 -0.39153109744E+02  0.63899214605E+02  0.00000000000E+00 0. -1.
         11    1    1    2    0    0 -0.56101829295E+02 -0.60961225337E+01 -0.23238213262E+02  0.61029439746E+02  0.00000000000E+00 0.  1.
</event>
<event>
 7    1  0.2594791E-009  0.9984374E+02  0.7561462E-02  0.1280625E+00
         -2   -1    0    0    0  501 -0.00000000000E+00  0.00000000000E+00  0.32549671426E+02  0.32549671426E+02  0.00000000000E+00 0. -1.
          2   -1    0    0  501    0  0.00000000000E+00 -0.00000000000E+00 -0.45157400954E+03  0.45157400954E+03  0.00000000000E+00 0.  1.
         25    2    1    2    0    0 -0.79570054513E+01 -0.26339427179E+02 -0.32186818189E+03  0.34641668862E+03  0.12509323038E+03 0.  0.
          5    1    3    3  502    0  0.45710842495E+02 -0.16185753023E+01 -0.24554495597E+03  0.24980372037E+03  0.41800000000E+01 0.  1.
         -5    1    3    3    0  502 -0.53667847946E+02 -0.24720851876E+02 -0.76323225915E+02  0.96612968253E+02  0.41800000000E+01 0.  1.
        -11    1    1    2    0    0 -0.31102933373E+02 -0.17595156233E+02 -0.20818877151E+02  0.41357074764E+02  0.00000000000E+00 0. -1.
         11    1    1    2    0    0  0.39059938824E+02  0.43934583411E+02 -0.76337279075E+02  0.96349917577E+02  0.00000000000E+00 0.  1.
</event>
<event>
 7    1  0.2594791E-009  0.9774263E+02  0.7561462E-02  0.1285116E+00
         -2   -1    0    0    0  501 -0.00000000000E+00  0.00000000000E+00  0.87574735633E+02  0.87574735633E+02  0.00000000000E+00 0. -1.
          2   -1    0    0  501    0  0.00000000000E+00 -0.00000000000E+00 -0.21147172525E+03  0.21147172525E+03  0.00000000000E+00 0.  1.
         25    2    1    2    0    0  0.39064483274E+02 -0.67398762411E+02 -0.46039322074E+02  0.15437278827E+03  0.12507082615E+03 0.  0.
          5    1    3    3  502    0 -0.96618621826E+01 -0.21527304015E+02  0.39186079396E+02  0.45932533323E+02  0.41800000000E+01 0.  1.
         -5    1    3    3    0  502  0.48726345456E+02 -0.45871458396E+02 -0.85225401471E+02  0.10844025495E+03  0.41800000000E+01 0.  1.
        -11    1    1    2    0    0 -0.56767175478E+02  0.65484167268E+02 -0.88551392633E+02  0.12390333939E+03  0.00000000000E+00 0.  1.
         11    1    1    2    0    0  0.17702692205E+02  0.19145951422E+01  0.10693725092E+02  0.20770333223E+02  0.00000000000E+00 0. -1.
</event>
<event>
 7    1  0.2594791E-009  0.1637414E+03  0.7561462E-02  0.1184536E+00
          2   -1    0    0  501    0  0.00000000000E+00  0.00000000000E+00  0.24107155029E+03  0.24107155029E+03  0.00000000000E+00 0. -1.
         -2   -1    0    0    0  501 -0.00000000000E+00 -0.00000000000E+00 -0.11577331585E+03  0.11577331585E+03  0.00000000000E+00 0.  1.
         25    2    1    2    0    0  0.12387061081E+03  0.15112850457E+02  0.92563464143E+02  0.19946960141E+03  0.12509116884E+03 0.  0.
          5    1    3    3  502    0 -0.11459702109E+02 -0.29331600400E+02  0.30498648957E+02  0.44037569673E+02  0.41800000000E+01 0. -1.
         -5    1    3    3    0  502  0.13533031292E+03  0.44444450857E+02  0.62064815186E+02  0.15543203174E+03  0.41800000000E+01 0. -1.
        -11    1    1    2    0    0 -0.13402987855E+02  0.30795417888E+02  0.95708443280E+00  0.33599313340E+02  0.00000000000E+00 0.  1.
         11    1    1    2    0    0 -0.11046762296E+03 -0.45908268345E+02  0.31777685862E+02  0.12377595139E+03  0.00000000000E+00 0. -1.
</event>
<event>
 7    1  0.2594791E-009  0.6165484E+02  0.7561462E-02  0.1391015E+00
         -1   -1    0    0    0  501 -0.00000000000E+00  0.00000000000E+00  0.37442864759E+03  0.37442864759E+03  0.00000000000E+00 0.  1.
          1   -1    0    0  501    0  0.00000000000E+00 -0.00000000000E+00 -0.34372201997E+02  0.34372201997E+02  0.00000000000E+00 0. -1.
         25    2    1    2    0    0  0.25369163515E+01  0.28182432964E+02  0.20549148186E+03  0.24222875913E+03  0.12508931673E+03 0.  0.
          5    1    3    3  502    0 -0.12587248356E+02 -0.67972050460E+01  0.20328172939E+03  0.20382731594E+03  0.41800000000E+01 0. -1.
         -5    1    3    3    0  502  0.15124164708E+02  0.34979638010E+02  0.22097524717E+01  0.38401443194E+02  0.41800000000E+01 0. -1.
        -11    1    1    2    0    0  0.42084081031E+00  0.20896342888E+02  0.10932375154E+03  0.11130371469E+03  0.00000000000E+00 0.  1.
         11    1    1    2    0    0 -0.29577571618E+01 -0.49078775852E+02  0.25241212185E+02  0.55268375760E+02  0.00000000000E+00 0. -1.
</event>
<event>
 7    1  0.2594791E-009  0.7826419E+02  0.7561462E-02  0.1334051E+00
         -2   -1    0    0    0  501 -0.00000000000E+00  0.00000000000E+00  0.19237447752E+03  0.19237447752E+03  0.00000000000E+00 0.  1.
          2   -1    0    0  501    0  0.00000000000E+00 -0.00000000000E+00 -0.97165173926E+02  0.97165173926E+02  0.00000000000E+00 0. -1.
         25    2    1    2    0    0 -0.10932933498E+02  0.69227607593E+02  0.10274951762E+03  0.17639948767E+03  0.12508926889E+03 0.  0.
          5    1    3    3  502    0  0.79508465673E+01  0.33594156898E+02 -0.24701756801E+02  0.42654806621E+02  0.41800000000E+01 0.  1.
         -5    1    3    3    0  502 -0.18883780065E+02  0.35633450695E+02  0.12745127442E+03  0.13374468105E+03  0.41800000000E+01 0.  1.
        -11    1    1    2    0    0  0.25800174167E+02 -0.31879382832E+02 -0.43083011195E+02  0.59481845049E+02  0.00000000000E+00 0. -1.
         11    1    1    2    0    0 -0.14867240669E+02 -0.37348224762E+02  0.35542797172E+02  0.53658318728E+02  0.00000000000E+00 0.  1.
</event>
<event>
 7    1  0.2594791E-009  0.1247998E+03  0.7561462E-02  0.1235383E+00
         -2   -1    0    0    0  501 -0.00000000000E+00  0.00000000000E+00  0.83621859581E+02  0.83621859581E+02  0.00000000000E+00 0.  1.
          2   -1    0    0  501    0  0.00000000000E+00 -0.00000000000E+00 -0.21381063245E+03  0.21381063245E+03  0.00000000000E+00 0. -1.
         25    2    1    2    0    0 -0.74781644032E+02  0.70152558592E+01 -0.49336008494E+02  0.15402509879E+03  0.12509269054E+03 0.  0.
          5    1    3    3  502    0  0.15379896189E+02 -0.30432099870E+02  0.14516897192E+02  0.37294324144E+02  0.41800000000E+01 0. -1.
         -5    1    3    3    0  502 -0.90161540221E+02  0.37447355729E+02 -0.63852905685E+02  0.11673077465E+03  0.41800000000E+01 0. -1.
        -11    1    1    2    0    0  0.19054837375E+02 -0.45818403785E+02 -0.43017369807E+02  0.65672726895E+02  0.00000000000E+00 0. -1.
         11    1    1    2    0    0  0.55726806657E+02  0.38803147926E+02 -0.37835394571E+02  0.77734666343E+02  0.00000000000E+00 0.  1.
</event>
<event>
 7    1  0.2594791E-009  0.1093383E+03  0.7561462E-02  0.1261800E+00
          1   -1    0    0  501    0  0.00000000000E+00  0.00000000000E+00  0.99022814370E+02  0.99022814370E+02  0.00000000000E+00 0. -1.
         -1   -1    0    0    0  501 -0.00000000000E+00 -0.00000000000E+00 -0.17641261744E+03  0.17641261744E+03  0.00000000000E+00 0.  1.
         25    2    1    2    0    0  0.14607753588E+01  0.71004313835E+02 -0.31373102437E+02  0.14722434511E+03  0.12508792823E+03 0.  0.
          5    1    3    3  502    0  0.32447404653E+02  0.12926229726E+02  0.37805695372E+02  0.51639756837E+02  0.41800000000E+01 0. -1.
         -5    1    3    3    0  502 -0.30986629295E+02  0.58078084109E+02 -0.69178797809E+02  0.95584588272E+02  0.41800000000E+01 0. -1.
        -11    1    1    2    0    0 -0.45628230240E+02 -0.19307541639E+02 -0.76313781746E+01  0.50129377532E+02  0.00000000000E+00 0. -1.
         11    1    1    2    0    0  0.44167454881E+02 -0.51696772196E+02 -0.38385322454E+02  0.78081709165E+02  0.00000000000E+00 0.  1.
</event>
<event>
 7    1  0.2594791E-009  0.1100580E+03  0.7561462E-02  0.1260462E+00
         -2   -1    0    0    0  501 -0.00000000000E+00  0.00000000000E+00  0.33856821654E+02  0.33856821654E+02  0.00000000000E+00 0. -1.
          2   -1    0    0  501    0  0.00000000000E+00 -0.00000000000E+00 -0.62667322716E+03  0.62667322716E+03  0.00000000000E+00 0.  1.
         25    2    1    2    0    0  0.46222553883E+02  0.62690775119E+02 -0.43786124539E+03  0.46199551112E+03  0.12510285489E+03 0.  0.
          5    1    3    3  502    0  0.49752727972E+02  0.71984918988E+02 -0.14836615355E+03  0.17229959496E+03  0.41800000000E+01 0.  1.
         -5    1    3    3    0  502 -0.35301740883E+01 -0.92941438693E+01 -0.28949509184E+03  0.28969591616E+03  0.41800000000E+01 0.  1.
        -11    1    1    2    0    0 -0.72615522134E+02 -0.27300509290E+02 -0.11661495857E+03  0.14006205919E+03  0.00000000000E+00 0.  1.
         11    1    1    2    0    0  0.26392968251E+02 -0.35390265829E+02 -0.38340201542E+02  0.58472478507E+02  0.00000000000E+00 0. -1.
</event>
<event>
 7    1  0.2594791E-009  0.1169901E+03  0.7561462E-02  0.1248147E+00
         -2   -1    0    0    0  501 -0.00000000000E+00  0.00000000000E+00  0.12379806520E+03  0.12379806520E+03  0.00000000000E+00 0.  1.
          2   -1    0    0  501    0  0.00000000000E+00 -0.00000000000E+00 -0.22548415351E+03  0.22548415351E+03  0.00000000000E+00 0. -1.
         25    2    1    2    0    0 -0.26000779250E+02 -0.52259434214E+02 -0.17280402024E+03  0.22116915023E+03  0.12508986617E+03 0.  0.
          5    1    3    3  502    0 -0.68686565605E+02 -0.49957465710E+02 -0.15027817125E+03  0.17266902973E+03  0.41800000000E+01 0. -1.
         -5    1    3    3    0  502  0.42685786355E+02 -0.23019685039E+01 -0.22525848988E+02  0.48500120499E+02  0.41800000000E+01 0. -1.
        -11    1    1    2    0    0  0.56111369084E+02  0.14988661644E+02  0.45507223359E+02  0.73783826793E+02  0.00000000000E+00 0.  1.
         11    1    1    2    0    0 -0.30110589834E+02  0.37270772571E+02  0.25610708569E+02  0.54329241680E+02  0.00000000000E+00 0. -1.
</event>
<event>
 7    1  0.2594791E-009  0.9972690E+02  0.7561462E-02  0.1280871E+00
          2   -1    0    0  501    0  0.00000000000E+00  0.00000000000E+00  0.78756548534E+03  0.78756548534E+03  0.00000000000E+00 0. -1.
         -2   -1    0    0    0  501 -0.00000000000E+00 -0.00000000000E+00 -0.22079450854E+02  0.22079450854E+02  0.00000000000E+00 0.  1.
         25    2    1    2    0    0  0.30899195260E+02 -0.34979308557E+02  0.58312926592E+03  0.59821833416E+03  0.12508845777E+03 0.  0.
          5    1    3    3  502    0  0.37967094494E+02  0.33430276831E+02  0.38749614284E+03  0.39080662326E+03  0.41800000000E+01 0. -1.
         -5    1    3    3    0  502 -0.70678992339E+01 -0.68409585387E+02  0.19563312308E+03  0.20741171090E+03  0.41800000000E+01 0. -1.
        -11    1    1    2    0    0  0.18243613129E+02 -0.19131258985E+01 -0.67378213153E+00  0.18356019532E+02  0.00000000000E+00 0.  1.
         11    1    1    2    0    0 -0.49142808389E+02  0.36892434455E+02  0.18303055070E+03  0.19307058250E+03  0.00000000000E+00 0. -1.
</event>
<event>
 7    1  0.2594791E-009  0.3207892E+03  0.7561462E-02  0.1075287E+00
         -1   -1    0    0    0  501 -0.00000000000E+00  0.00000000000E+00  0.59806024171E+02  0.59806024171E+02  0.00000000000E+00 0.  1.
          1   -1    0    0  501    0  0.00000000000E+00 -0.00000000000E+00 -0.29605468256E+04  0.29605468256E+04  0.00000000000E+00 0. -1.
         25    2    1    2    0    0 -0.74475463178E+02  0.29637297315E+03 -0.24273072544E+04  0.24496630945E+04  0.12508091404E+03 0.  0.
          5    1    3    3  502    0 -0.10094911433E+03  0.24501301396E+03 -0.21567748753E+04  0.21729973391E+04  0.41800000000E+01 0.  1.
         -5    1    3    3    0  502  0.26473651153E+02  0.51359959186E+02 -0.27053237914E+03  0.27666575534E+03  0.41800000000E+01 0.  1.
        -11    1    1    2    0    0  0.17567396043E+02 -0.23213397076E+03 -0.35021897039E+03  0.42053313901E+03  0.00000000000E+00 0.  1.
         11    1    1    2    0    0  0.56908067135E+02 -0.64239002383E+02 -0.12321457658E+03  0.15015661628E+03  0.00000000000E+00 0. -1.
</event>
<event>
 7    1  0.2594791E-009  0.2079438E+03  0.7561462E-02  0.1143205E+00
          3   -1    0    0  501    0  0.00000000000E+00  0.00000000000E+00  0.25092448585E+03  0.25092448585E+03  0.00000000000E+00 0. -1.
         -3   -1    0    0    0  501 -0.00000000000E+00 -0.00000000000E+00 -0.23984176387E+03  0.23984176387E+03  0.00000000000E+00 0.  1.
         25    2    1    2    0    0  0.12060203109E+03  0.15252355084E+03  0.10945701450E+03  0.25581163692E+03  0.12510184690E+03 0.  0.
          5    1    3    3  502    0  0.52834044963E+02  0.12438426788E+03  0.14860712816E+02  0.13601910009E+03  0.41800000000E+01 0. -1.
         -5    1    3    3    0  502  0.67767986124E+02  0.28139282960E+02  0.94596301682E+02  0.11979253683E+03  0.41800000000E+01 0. -1.
        -11    1    1    2    0    0 -0.62072457748E+02 -0.25085546056E+02 -0.64149058090E+01  0.67256417153E+02  0.00000000000E+00 0.  1.
         11    1    1    2    0    0 -0.58529573340E+02 -0.12743800478E+03 -0.91959386710E+02  0.16769819565E+03  0.00000000000E+00 0. -1.
</event>
<event>
 7    1  0.2594791E-009  0.1479015E+03  0.7561462E-02  0.1203076E+00
         -1   -1    0    0    0  501 -0.00000000000E+00  0.00000000000E+00  0.38151497660E+02  0.38151497660E+02  0.00000000000E+00 0.  1.
          1   -1    0    0  501    0  0.00000000000E+00 -0.00000000000E+00 -0.59218893315E+03  0.59218893315E+03  0.00000000000E+00 0. -1.
         25    2    1    2    0    0 -0.98810405365E+02 -0.30069948928E+02 -0.33244411749E+03  0.36991359765E+03  0.12509708405E+03 0.  0.
          5    1    3    3  502    0 -0.11614675232E+03 -0.57006608393E+02 -0.27674250609E+03  0.30552202630E+03  0.41800000000E+01 0. -1.
         -5    1    3    3    0  502  0.17336346959E+02  0.26936659466E+02 -0.55701611402E+02  0.64391571357E+02  0.41800000000E+01 0. -1.
        -11    1    1    2    0    0  0.11433960772E+03  0.21609355601E+02 -0.17104318989E+03  0.20687262494E+03  0.00000000000E+00 0. -1.
         11    1    1    2    0    0 -0.15529202359E+02  0.84605933265E+01 -0.50550128112E+02  0.53554208215E+02  0.00000000000E+00 0.  1.
</event>
<event>
 7    1  0.3340339E-009  0.1807601E+03  0.7561462E-02  0.1167069E+00
          1   -1    0    0  501    0  0.00000000000E+00  0.00000000000E+00  0.71115787305E+03  0.71115787305E+03  0.00000000000E+00 0. -1.
         -1   -1    0    0    0  501 -0.00000000000E+00 -0.00000000000E+00 -0.52864964230E+02  0.52864964230E+02  0.00000000000E+00 0.  1.
         25    2    1    2    0    0 -0.10941484831E+03 -0.11610874344E+03  0.37670966697E+03  0.42779596989E+03  0.12508544812E+03 0.  0.
          5    1    3    3  502    0 -0.27536232111E+02  0.23168158832E+02  0.11134228361E+03  0.11708793355E+03  0.41800000000E+01 0. -1.
         -5    1    3    3    0  502 -0.81878616197E+02 -0.13927690227E+03  0.26536738336E+03  0.31070803634E+03  0.41800000000E+01 0. -1.
        -11    1    1    2    0    0  0.14689557616E+02  0.38536599835E+02  0.16847047258E+02  0.44549698440E+02  0.00000000000E+00 0.  1.
         11    1    1    2    0    0  0.94725290691E+02  0.77572143606E+02  0.26473619459E+03  0.29167716895E+03  0.00000000000E+00 0. -1.
</event>
<event>
 7    1  0.2594791E-009  0.1168176E+03  0.7561462E-02  0.1248441E+00
         -2   -1    0    0    0  501 -0.00000000000E+00  0.00000000000E+00  0.36993769650E+03  0.36993769650E+03  0.00000000000E+00 0.  1.
          2   -1    0    0  501    0  0.00000000000E+00 -0.00000000000E+00 -0.67387987989E+02  0.67387987989E+02  0.00000000000E+00 0. -1.
         25    2    1    2    0    0 -0.76094790352E+02 -0.80932478834E+02  0.12543373670E+03  0.20908796259E+03  0.12507465989E+03 0.  0.
          5    1    3    3  502    0 -0.13892711694E+02 -0.34198659073E+02 -0.21393597764E+02  0.42868568274E+02  0.41800000000E+01 0. -1.
         -5    1    3    3    0  502 -0.62202078658E+02 -0.46733819761E+02  0.14682733447E+03  0.16621939431E+03  0.41800000000E+01 0. -1.
        -11    1    1    2    0    0  0.50920611128E+02  0.78107734870E+02  0.65911151000E+02  0.11418409132E+03  0.00000000000E+00 0. -1.
         11    1    1    2    0    0  0.25174179224E+02  0.28247439634E+01  0.11120482080E+03  0.11405363058E+03  0.00000000000E+00 0.  1.
</event>
<event>
 7    1  0.3863067E-009  0.1146796E+03  0.7561462E-02  0.1252141E+00
          2   -1    0    0  501    0  0.00000000000E+00  0.00000000000E+00  0.46420268912E+03  0.46420268912E+03  0.00000000000E+00 0.  1.
         -2   -1    0    0    0  501 -0.00000000000E+00 -0.00000000000E+00 -0.40238165267E+02  0.40238165267E+02  0.00000000000E+00 0. -1.
         25    2    1    2    0    0 -0.25708517790E+01  0.81812744516E+02  0.25819383864E+03  0.29834911784E+03  0.12509277900E+03 0.  0.
          5    1    3    3  502    0 -0.24559777733E+01  0.95855982276E+02  0.26525399922E+03  0.28208430950E+03  0.41800000000E+01 0.  1.
         -5    1    3    3    0  502 -0.11487400569E+00 -0.14043237759E+02 -0.70601605773E+01  0.16264808335E+02  0.41800000000E+01 0.  1.
        -11    1    1    2    0    0 -0.41427501118E+02 -0.32609911689E+02  0.49104804819E+02  0.72048081484E+02  0.00000000000E+00 0. -1.
         11    1    1    2    0    0  0.43998352897E+02 -0.49202832828E+02  0.11666588040E+03  0.13404365507E+03  0.00000000000E+00 0.  1.
</event>
<event>
 6    1  0.2594791E-009  0.2965350E+03  0.7561462E-02  0.1086986E+00
         -2   -1    0    0    0  501 -0.00000000000E+00  0.00000000000E+00  0.71182665976E+02  0.71182665976E+02  0.00000000000E+00 0.  1.
          2   -1    0    0  501    0  0.00000000000E+00 -0.00000000000E+00 -0.15794713133E+04  0.15794713133E+04  0.00000000000E+00 0. -1.
          5    1    1    2  502    0 -0.48820076605E+02  0.58395979227E+02 -0.48551319374E+03  0.49146111135E+03  0.41800000000E+01 0. -1.
         -5    1    1    2    0  502 -0.30404238824E+02  0.21473905829E+03 -0.61930616790E+03  0.65619728961E+03  0.41800000000E+01 0. -1.
        -11    1    1    2    0    0 -0.14968882416E+02 -0.11413862666E+03 -0.14172609631E+03  0.18258691057E+03  0.00000000000E+00 0.  1.
         11    1    1    2    0    0  0.94193197845E+02 -0.15899641086E+03 -0.26174318939E+03  0.32040866777E+03  0.00000000000E+00 0. -1.
</event>
<event>
 7    1  0.2594791E-009  0.1143810E+03  0.7561462E-02  0.1252665E+00
          1   -1    0    0  501    0  0.00000000000E+00  0.00000000000E+00  0.72975283070E+03  0.72975283070E+03  0.00000000000E+00 0. -1.
         -1   -1    0    0    0  501 -0.00000000000E+00 -0.00000000000E+00 -0.22215091287E+02  0.22215091287E+02  0.00000000000E+00 0.  1.
         25    2    1    2    0    0  0.31360080737E+02 -0.52712346464E+02  0.39738015848E+03  0.42109460652E+03  0.12509049185E+03 0.  0.
          5    1    3    3  502    0  0.43753450063E+02  0.16198990525E+02  0.58057986166E+02  0.74598752296E+02  0.41800000000E+01 0.  1.
         -5    1    3    3    0  502 -0.12393369326E+02 -0.68911336989E+02  0.33932217232E+03  0.34649585422E+03  0.41800000000E+01 0.  1.
        -11    1    1    2    0    0 -0.51663655951E+02 -0.37264809517E+01  0.10427225139E+03  0.11642904456E+03  0.00000000000E+00 0.  1.
         11    1    1    2    0    0  0.20303575214E+02  0.56438827415E+02  0.20588532953E+03  0.21444427090E+03  0.00000000000E+00 0. -1.
</event>
<event>
 7    1  0.2594791E-009  0.1051044E+03  0.7561462E-02  0.1269914E+00
         -1   -1    0    0    0  501 -0.00000000000E+00  0.00000000000E+00  0.10922430187E+03  0.10922430187E+03  0.00000000000E+00 0.  1.
          1   -1    0    0  501    0  0.00000000000E+00 -0.00000000000E+00 -0.14424436460E+03  0.14424436460E+03  0.00000000000E+00 0. -1.
         25    2    1    2    0    0 -0.30891697954E+02  0.55949197072E+02 -0.14156358932E+02  0.14118372045E+03  0.12509128973E+03 0.  0.
          5    1    3    3  502    0 -0.64597789830E+01  0.79295206900E+02  0.30256882670E+02  0.85219774294E+02  0.41800000000E+01 0. -1.
         -5    1    3    3    0  502 -0.24431918971E+02 -0.23346009828E+02 -0.44413241602E+02  0.55963946154E+02  0.41800000000E+01 0. -1.
        -11    1    1    2    0    0 -0.23815406032E+02 -0.19135169274E+02  0.18279609564E+02  0.35601578524E+02  0.00000000000E+00 0.  1.
         11    1    1    2    0    0  0.54707103985E+02 -0.36814027798E+02 -0.39143313369E+02  0.76683367497E+02  0.00000000000E+00 0. -1.
</event>
<event>
 7    1  0.2594791E-009  0.8504072E+02  0.7561462E-02  0.1315326E+00
         -2   -1    0    0    0  501 -0.00000000000E+00  0.00000000000E+00  0.73040200667E+02  0.73040200667E+02  0.00000000000E+00 0.  1.
          2   -1    0    0  501    0  0.00000000000E+00 -0.00000000000E+00 -0.26514996888E+03  0.26514996888E+03  0.00000000000E+00 0. -1.
         25    2    1    2    0    0 -0.60676741192E+02 -0.22245092504E+02 -0.17389314358E+03  0.22374723796E+03  0.12508992785E+03 0.  0.
          5    1    3    3  502    0 -0.57347557596E+02 -0.33512807547E+02 -0.20203063962E+02  0.69552044006E+02  0.41800000000E+01 0. -1.
         -5    1    3    3    0  502 -0.33291835958E+01  0.11267715043E+02 -0.15369007962E+03  0.15419519396E+03  0.41800000000E+01 0. -1.
        -11    1    1    2    0    0 -0.51744642181E+01  0.24625643335E+02  0.25135518113E+02  0.35566721249E+02  0.00000000000E+00 0.  1.
         11    1    1    2    0    0  0.65851205410E+02 -0.23805508312E+01 -0.43352142743E+02  0.78876210334E+02  0.00000000000E+00 0. -1.
</event>
<event>
 7    1  0.2594791E-009  0.1543345E+03  0.7561462E-02  0.1195246E+00
         -2   -1    0    0    0  501 -0.00000000000E+00  0.00000000000E+00  0.51495330088E+02  0.51495330088E+02  0.00000000000E+00 0.  1.
          2   -1    0    0  501    0  0.00000000000E+00 -0.00000000000E+00 -0.70195221464E+03  0.70195221464E+03  0.00000000000E+00 0. -1.
         25    2    1    2    0    0  0.99196528412E+01  0.14038386400E+03 -0.46676341311E+03  0.50331009279E+03  0.12508771680E+03 0.  0.
          5    1    3    3  502    0  0.24916146998E+02  0.70302645799E+02 -0.39427176427E+03  0.40128664678E+03  0.41800000000E+01 0.  1.
         -5    1    3    3    0  502 -0.14996494157E+02  0.70081218206E+02 -0.72491648843E+02  0.10202344600E+03  0.41800000000E+01 0.  1.
        -11    1    1    2    0    0  0.31192666935E+02 -0.99176253145E+02 -0.79846410152E+02  0.13108913331E+03  0.00000000000E+00 0.  1.
         11    1    1    2    0    0 -0.41112319777E+02 -0.41207610859E+02 -0.10384706128E+03  0.11904831863E+03  0.00000000000E+00 0. -1.
</event>
<event>
 7    1  0.2594791E-009  0.1519342E+03  0.7561462E-02  0.1198116E+00
         -1   -1    0    0    0  501 -0.00000000000E+00  0.00000000000E+00  0.30040853843E+03  0.30040853843E+03  0.00000000000E+00 0. -1.
          1   -1    0    0  501    0  0.00000000000E+00 -0.00000000000E+00 -0.11394484520E+03  0.11394484520E+03  0.00000000000E+00 0.  1.
         25    2    1    2    0    0 -0.66652390500E+02 -0.87179698950E+02  0.21159561050E+03  0.26918955729E+03  0.12508986489E+03 0.  0.
          5    1    3    3  502    0 -0.84057088501E+02 -0.10887118593E+03  0.16602104559E+03  0.21563624285E+03  0.41800000000E+01 0.  1.
         -5    1    3    3    0  502  0.17404698002E+02  0.21691486978E+02  0.45574564912E+02  0.53553314433E+02  0.41800000000E+01 0.  1.
        -11    1    1    2    0    0 -0.15012968478E+02  0.42444924900E+02  0.91431109536E+01  0.45940802672E+02  0.00000000000E+00 0. -1.
         11    1    1    2    0    0  0.81665358977E+02  0.44734774051E+02 -0.34275028232E+02  0.99223023672E+02  0.00000000000E+00 0.  1.
</event>
<event>
 7    1  0.3038316E-009  0.9468994E+02  0.7561462E-02  0.1291876E+00
          2   -1    0    0  501    0  0.00000000000E+00  0.00000000000E+00  0.10247264955E+04  0.10247264955E+04  0.00000000000E+00 0.  1.
         -2   -1    0    0    0  501 -0.00000000000E+00 -0.00000000000E+00 -0.19079634281E+02  0.19079634281E+02  0.00000000000E+00 0. -1.
         25    2    1    2    0    0  0.85418751536E+02  0.16781012868E+02  0.60517376764E+03  0.62406849990E+03  0.12509291756E+03 0.  0.
          5    1    3    3  502    0  0.36221455384E+02  0.47655370727E+01  0.54082990374E+03  0.54207855644E+03  0.41800000000E+01 0.  1.
         -5    1    3    3    0  502  0.49197296152E+02  0.12015475795E+02  0.64343863907E+02  0.81989943468E+02  0.41800000000E+01 0.  1.
        -11    1    1    2    0    0 -0.23806489358E+02 -0.30480278077E+02  0.47924669358E+02  0.61583847073E+02  0.00000000000E+00 0. -1.
         11    1    1    2    0    0 -0.61612262178E+02  0.13699265209E+02  0.35254842420E+03  0.35815378279E+03  0.00000000000E+00 0.  1.
</event>
<event>
 7    1  0.2594791E-009  0.1276876E+03  0.7561462E-02  0.1230928E+00
         -1   -1    0    0    0  501 -0.00000000000E+00  0.00000000000E+00  0.21985272917E+02  0.21985272917E+02  0.00000000000E+00 0.  1.
          1   -1    0    0  501    0  0.00000000000E+00 -0.00000000000E+00 -0.99085619150E+03  0.99085619150E+03  0.00000000000E+00 0. -1.
         25    2    1    2    0    0  0.97224688229E+02  0.39757113753E+01 -0.50205202486E+03  0.52647087019E+03  0.12508755018E+03 0.  0.
          5    1    3    3  502    0  0.11474258456E+03  0.35556735129E+02 -0.34751081301E+03  0.36771100022E+03  0.41800000000E+01 0.  1.
         -5    1    3    3    0  502 -0.17517896328E+02 -0.31581023753E+02 -0.15454121186E+03  0.15875986998E+03  0.41800000000E+01 0.  1.
        -11    1    1    2    0    0 -0.13778268705E+02  0.55070088471E+01 -0.31648691316E+01  0.15171823607E+02  0.00000000000E+00 0.  1.
         11    1    1    2    0    0 -0.83446419524E+02 -0.94827202223E+01 -0.46365402458E+03  0.47119877061E+03  0.00000000000E+00 0. -1.
</event>
<event>
 7    1  0.2594791E-009  0.2894710E+03  0.7561462E-02  0.1090626E+00
         -1   -1    0    0    0  501 -0.00000000000E+00  0.00000000000E+00  0.20865030661E+03  0.20865030661E+03  0.00000000000E+00 0.  1.
          1   -1    0    0  501    0  0.00000000000E+00 -0.00000000000E+00 -0.46763625052E+03  0.46763625052E+03  0.00000000000E+00 0. -1.
         25    2    1    2    0    0 -0.24770910299E+03 -0.14367245338E+03 -0.68259698377E+02  0.31985760979E+03  0.12509168860E+03 0.  0.
          5    1    3    3  502    0 -0.51425460933E+02 -0.15959328873E+02  0.34508810060E+02  0.64090627880E+02  0.41800000000E+01 0. -1.
         -5    1    3    3    0  502 -0.19628364205E+03 -0.12771312450E+03 -0.10276850844E+03  0.25576698191E+03  0.41800000000E+01 0. -1.
        -11    1    1    2    0    0  0.13464976264E+02  0.24381988252E+02  0.55072502075E+01  0.28392195085E+02  0.00000000000E+00 0.  1.
         11    1    1    2    0    0  0.23424412672E+03  0.11929046512E+03 -0.19623349574E+03  0.32803675225E+03  0.00000000000E+00 0. -1.
</event>
<event>
 7    1  0.2594791E-009  0.1263379E+03  0.7561462E-02  0.1232993E+00
         -2   -1    0    0    0  501 -0.00000000000E+00  0.00000000000E+00  0.14246073232E+02  0.14246073232E+02  0.00000000000E+00 0.  1.
          2   -1    0    0  501    0  0.00000000000E+00 -0.00000000000E+00 -0.17224968249E+04  0.17224968249E+04  0.00000000000E+00 0. -1.
         25    2    1    2    0    0  0.96091478700E+02 -0.10366168988E+01 -0.12750192346E+04  0.12847391464E+04  0.12508388721E+03 0.  0.
          5    1    3    3  502    0  0.91471552947E+02 -0.31000415417E+02 -0.11975217440E+04  0.12014174422E+04  0.41800000000E+01 0.  1.
         -5    1    3    3    0  502  0.46199257525E+01  0.29963798519E+02 -0.77497490594E+02  0.83321704160E+02  0.41800000000E+01 0.  1.
        -11    1    1    2    0    0 -0.60902363772E+02 -0.38826589924E+02 -0.19594608557E+03  0.20883359512E+03  0.00000000000E+00 0. -1.
         11    1    1    2    0    0 -0.35189114928E+02  0.39863206823E+02 -0.23728543147E+03  0.24317015659E+03  0.00000000000E+00 0.  1.
</event>
<event>
 7    1  0.2594791E-009  0.1904356E+03  0.7561462E-02  0.1158069E+00
         -3   -1    0    0    0  501 -0.00000000000E+00  0.00000000000E+00  0.87971048650E+03  0.87971048650E+03  0.00000000000E+00 0.  1.
          3   -1    0    0  501    0  0.00000000000E+00 -0.00000000000E+00 -0.45759741534E+02  0.45759741534E+02  0.00000000000E+00 0. -1.
         25    2    1    2    0    0 -0.66487679932E+02 -0.15806708329E+03  0.42161571081E+03  0.47203081557E+03  0.12508984308E+03 0.  0.
          5    1    3    3  502    0 -0.31161133074E+02 -0.16916703752E+03  0.31265586531E+03  0.35687485946E+03  0.41800000000E+01 0.  1.
         -5    1    3    3    0  502 -0.35326546858E+02  0.11099954232E+02  0.10895984550E+03  0.11515595611E+03  0.41800000000E+01 0.  1.
        -11    1    1    2    0    0  0.52043236862E+02  0.12839553976E+03  0.38923861259E+03  0.41315930422E+03  0.00000000000E+00 0.  1.
         11    1    1    2    0    0  0.14444443070E+02  0.29671543534E+02  0.23096421577E+02  0.40280108254E+02  0.00000000000E+00 0. -1.
</event>
<event>
 7    1  0.2594791E-009  0.8877103E+02  0.7561462E-02  0.1305855E+00
         -1   -1    0    0    0  501 -0.00000000000E+00  0.00000000000E+00  0.37237560166E+02  0.37237560166E+02  0.00000000000E+00 0. -1.
          1   -1    0    0  501    0  0.00000000000E+00 -0.00000000000E+00 -0.33818215232E+03  0.33818215232E+03  0.00000000000E+00 0.  1.
         25    2    1    2    0    0 -0.21843369826E+02 -0.63625638468E+01 -0.19581261761E+03  0.23347110853E+03  0.12509421362E+03 0.  0.
          5    1    3    3  502    0  0.43747107344E+02 -0.59085250988E+01 -0.26045395159E+02  0.51425237761E+02  0.41800000000E+01 0. -1.
         -5    1    3    3    0  502 -0.65590477170E+02 -0.45403874798E+00 -0.16976722245E+03  0.18204587077E+03  0.41800000000E+01 0. -1.
        -11    1    1    2    0    0 -0.46588580373E+01  0.30965155614E+02 -0.57936784020E+00  0.31319027564E+02  0.00000000000E+00 0. -1.
         11    1    1    2    0    0  0.26502227863E+02 -0.24602591768E+02 -0.10455260670E+03  0.11062957639E+03  0.00000000000E+00 0.  1.
</event>
<event>
 7    1  0.2594791E-009  0.2572976E+03  0.7561462E-02  0.1108778E+00
          2   -1    0    0  501    0  0.00000000000E+00  0.00000000000E+00  0.16273701982E+04  0.16273701982E+04  0.00000000000E+00 0. -1.
         -2   -1    0    0    0  501 -0.00000000000E+00 -0.00000000000E+00 -0.59067417787E+02  0.59067417787E+02  0.00000000000E+00 0.  1.
         25    2    1    2    0    0  0.20278981821E+02 -0.24692469393E+03  0.38864219224E+03  0.47756746746E+03  0.12507953797E+03 0.  0.
          5    1    3    3  502    0  0.26254469011E+02 -0.23979385347E+03  0.28492445863E+03  0.37334944600E+03  0.41800000000E+01 0.  1.
         -5    1    3    3    0  502 -0.59754871899E+01 -0.71308404568E+01  0.10371773361E+03  0.10421802146E+03  0.41800000000E+01 0.  1.
        -11    1    1    2    0    0  0.31802877747E+02  0.14753595774E+03  0.62389135064E+03  0.64188682746E+03  0.00000000000E+00 0.  1.
         11    1    1    2    0    0 -0.52081859568E+02  0.99388736187E+02  0.55576923755E+03  0.56698332108E+03  0.00000000000E+00 0. -1.
</event>
<event>
 7    1  0.2594791E-009  0.2150440E+03  0.7561462E-02  0.1137633E+00
          1   -1    0    0  501    0  0.00000000000E+00  0.00000000000E+00  0.29821994802E+04  0.29821994802E+04  0.00000000000E+00 0. -1.
         -1   -1    0    0    0  501 -0.00000000000E+00 -0.00000000000E+00 -0.20443625550E+02  0.20443625550E+02  0.00000000000E+00 0.  1.
         25    2    1    2    0    0 -0.18510207739E+03 -0.46012381903E+02  0.22163621333E+04  0.22280683146E+04  0.12508952910E+03 0.  0.
          5    1    3    3  502    0 -0.64963909263E+02 -0.78993241541E+02  0.89256751204E+03  0.89841776344E+03  0.41800000000E+01 0.  1.
         -5    1    3    3    0  502 -0.12013816812E+03  0.32980859638E+02  0.13237946213E+04  0.13296505512E+04  0.41800000000E+01 0.  1.
        -11    1    1    2    0    0  0.19781434976E+02  0.31396856925E+02  0.71635151162E+02  0.80676283234E+02  0.00000000000E+00 0.  1.
         11    1    1    2    0    0  0.16532064241E+03  0.14615524978E+02  0.67375857022E+03  0.69389850794E+03  0.00000000000E+00 0. -1.
</event>
<event>
 7    1  0.2594791E-009  0.1159596E+03  0.7561462E-02  0.1249915E+00
          4   -1    0    0  501    0  0.00000000000E+00  0.00000000000E+00  0.27422048493E+02  0.27422048493E+02  0.00000000000E+00 0. -1.
         -4   -1    0    0    0  501 -0.00000000000E+00 -0.00000000000E+00 -0.56411736399E+03  0.56411736399E+03  0.00000000000E+00 0.  1.
         25    2    1    2    0    0  0.17901364309E+02  0.35370763677E+02 -0.19335188153E+03  0.23367445945E+03  0.12508898089E+03 0.  0.
          5    1    3    3  502    0  0.17452228701E+02  0.82127758194E+02 -0.13030639421E+03  0.15507023481E+03  0.41800000000E+01 0.  1.
         -5    1    3    3    0  502  0.44913560775E+00 -0.46756994517E+02 -0.63045487318E+02  0.78604224634E+02  0.41800000000E+01 0.  1.
        -11    1    1    2    0    0  0.33324687515E+02  0.74435269580E+01 -0.11693518690E+03  0.12181863087E+03  0.00000000000E+00 0.  1.
         11    1    1    2    0    0 -0.51226051824E+02 -0.42814290635E+02 -0.22640824707E+03  0.23604632217E+03  0.00000000000E+00 0. -1.
</event>
<event>
 7    1  0.2594791E-009  0.1432165E+03  0.7561462E-02  0.1209065E+00
          2   -1    0    0  501    0  0.00000000000E+00  0.00000000000E+00  0.16881542466E+03  0.16881542466E+03  0.00000000000E+00 0. -1.
         -2   -1    0    0    0  501 -0.00000000000E+00 -0.00000000000E+00 -0.18549992786E+03  0.18549992786E+03  0.00000000000E+00 0.  1.
         25    2    1    2    0    0 -0.78749754703E+02 -0.87788199893E+02 -0.82416735278E+02  0.19065224038E+03  0.12508983413E+03 0.  0.
          5    1    3    3  502    0 -0.85472462886E+02 -0.45372362733E+02 -0.10424413474E+03  0.14229724256E+03  0.41800000000E+01 0.  1.
         -5    1    3    3    0  502  0.67227081823E+01 -0.42415837160E+02  0.21827399462E+02  0.48354997824E+02  0.41800000000E+01 0.  1.
        -11    1    1    2    0    0  0.60675455443E+02  0.41063876431E+01  0.10320466478E+02  0.61683752651E+02  0.00000000000E+00 0.  1.
         11    1    1    2    0    0  0.18074299260E+02  0.83681812250E+02  0.55411765602E+02  0.10197935949E+03  0.00000000000E+00 0. -1.
</event>
<event>
 7    1  0.2594791E-009  0.1070635E+03  0.7561462E-02  0.1266106E+00
          2   -1    0    0  501    0  0.00000000000E+00  0.00000000000E+00  0.14434625866E+03  0.14434625866E+03  0.00000000000E+00 0. -1.
         -2   -1    0    0    0  501 -0.00000000000E+00 -0.00000000000E+00 -0.10661137580E+03  0.10661137580E+03  0.00000000000E+00 0.  1.
         25    2    1    2    0    0 -0.50714419031E+02 -0.16565371946E+02 -0.56273357935E+01  0.13610703147E+03  0.12508834183E+03 0.  0.
          5    1    3    3  502    0  0.36826230769E+02 -0.17955068788E+01 -0.25516063153E+02  0.45032621469E+02  0.41800000000E+01 0.  1.
         -5    1    3    3    0  502 -0.87540649800E+02 -0.14769865067E+02  0.19888727359E+02  0.91074410004E+02  0.41800000000E+01 0.  1.
        -11    1    1    2    0    0  0.42508909121E+02 -0.22590138535E+02 -0.89815095281E+01  0.48969268191E+02  0.00000000000E+00 0.  1.
         11    1    1    2    0    0  0.82055099103E+01  0.39155510481E+02  0.52343728185E+02  0.65881334794E+02  0.00000000000E+00 0. -1.
</event>
<event>
 7    1  0.2594791E-009  0.1037011E+03  0.7561462E-02  0.1272700E+00
          1   -1    0    0  501    0  0.00000000000E+00  0.00000000000E+00  0.25920338437E+03  0.25920338437E+03  0.00000000000E+00 0. -1.
         -1   -1    0    0    0  501 -0.00000000000E+00 -0.00000000000E+00 -0.56707734297E+02  0.56707734297E+02  0.00000000000E+00 0.  1.
         25    2    1    2    0    0  0.24029055601E+02  0.10777376366E+02  0.18259524062E+03  0.22289119175E+03  0.12508362845E+03 0.  0.
          5    1    3    3  502    0 -0.39123577454E+02  0.41454668704E+02  0.73854297072E+02  0.93386687842E+02  0.41800000000E+01 0. -1.
         -5    1    3    3    0  502  0.63152633055E+02 -0.30677292338E+02  0.10874094355E+03  0.12950450390E+03  0.41800000000E+01 0. -1.
        -11    1    1    2    0    0 -0.78533650043E+01 -0.43078848391E+02  0.32746006411E+02  0.54678729470E+02  0.00000000000E+00 0. -1.
         11    1    1    2    0    0 -0.16175690596E+02  0.32301472025E+02 -0.12845596956E+02  0.38341197456E+02  0.00000000000E+00 0.  1.
</event>
<event>
 7    1  0.2594791E-009  0.1118281E+03  0.7561462E-02  0.1257221E+00
         -2   -1    0    0    0  501 -0.00000000000E+00  0.00000000000E+00  0.13658392049E+03  0.13658392049E+03  0.00000000000E+00 0.  1.
          2   -1    0    0  501    0  0.00000000000E+00 -0.00000000000E+00 -0.13118212605E+03  0.13118212605E+03  0.00000000000E+00 0. -1.
         25    2    1    2    0    0  0.19497694695E+02 -0.39625051384E+02  0.68638721136E+02  0.14937327801E+03  0.12510314684E+03 0.  0.
          5    1    3    3  502    0 -0.41255847432E+02  0.20704311930E+02  0.30953394296E+02  0.55734177112E+02  0.41800000000E+01 0.  1.
         -5    1    3    3    0  502  0.60753542127E+02 -0.60329363314E+02  0.37685326840E+02  0.93639100903E+02  0.41800000000E+01 0.  1.
        -11    1    1    2    0    0  0.24823406969E+02 -0.84278834715E+01  0.16740817455E+01  0.26268484978E+02  0.00000000000E+00 0. -1.
         11    1    1    2    0    0 -0.44321101664E+02  0.48052934856E+02 -0.64911008447E+02  0.92124283545E+02  0.00000000000E+00 0.  1.
</event>
<event>
 7    1  0.2594791E-009  0.1343353E+03  0.7561462E-02  0.1221161E+00
          1   -1    0    0  501    0  0.00000000000E+00  0.00000000000E+00  0.55726648604E+03  0.55726648604E+03  0.00000000000E+00 0. -1.
         -1   -1    0    0    0  501 -0.00000000000E+00 -0.00000000000E+00 -0.38574848190E+02  0.38574848190E+02  0.00000000000E+00 0.  1.
         25    2    1    2    0    0  0.83833676149E+02 -0.48867590515E+02  0.27280607162E+03  0.31541536416E+03  0.12509025773E+03 0.  0.
          5    1    3    3  502    0  0.72537865864E+02 -0.89370696304E+02  0.21361973895E+03  0.24269266287E+03  0.41800000000E+01 0.  1.
         -5    1    3    3    0  502  0.11295810285E+02  0.40503105790E+02  0.59186332671E+02  0.72722701295E+02  0.41800000000E+01 0.  1.
        -11    1    1    2    0    0 -0.91478371909E+01  0.33836964138E+02  0.16746159037E+03  0.17109064064E+03  0.00000000000E+00 0. -1.
         11    1    1    2    0    0 -0.74685838958E+02  0.15030626377E+02  0.78423975866E+02  0.10933532943E+03  0.00000000000E+00 0.  1.
</event>
<event>
 7    1  0.2594791E-009  0.7281105E+02  0.7561462E-02  0.1350787E+00
         -3   -1    0    0    0  501 -0.00000000000E+00  0.00000000000E+00  0.19390990749E+02  0.19390990749E+02  0.00000000000E+00 0.  1.
          3   -1    0    0  501    0  0.00000000000E+00 -0.00000000000E+00 -0.75788048563E+03  0.75788048563E+03  0.00000000000E+00 0. -1.
         25    2    1    2    0    0  0.16186956255E+02  0.49565730384E+02 -0.44356742196E+03  0.46380803172E+03  0.12508818202E+03 0.  0.
          5    1    3    3  502    0  0.95280000969E+01  0.17710352806E+01  0.56604952999E+01  0.11976349980E+02  0.41800000000E+01 0.  1.
         -5    1    3    3    0  502  0.66589561585E+01  0.47794695103E+02 -0.44922791726E+03  0.45183168174E+03  0.41800000000E+01 0.  1.
        -11    1    1    2    0    0  0.26527515979E+02 -0.28735188555E+02 -0.22831897634E+03  0.23164406990E+03  0.00000000000E+00 0. -1.
         11    1    1    2    0    0 -0.42714472234E+02 -0.20830541828E+02 -0.66603096581E+02  0.81819374755E+02  0.00000000000E+00 0.  1.
</event>
<event>
 7    1  0.2594791E-009  0.1429263E+03  0.7561462E-02  0.1209445E+00
         -1   -1    0    0    0  501 -0.00000000000E+00  0.00000000000E+00  0.39834260594E+03  0.39834260594E+03  0.00000000000E+00 0.  1.
          1   -1    0    0  501    0  0.00000000000E+00 -0.00000000000E+00 -0.66163207284E+02  0.66163207284E+02  0.00000000000E+00 0. -1.
         25    2    1    2    0    0  0.58088155474E+01 -0.11690610859E+03  0.13838761228E+03  0.22022845077E+03  0.12509459913E+03 0.  0.
          5    1    3    3  502    0 -0.32819896321E+02 -0.27538870608E+02  0.11092459232E+03  0.11898433750E+03  0.41800000000E+01 0. -1.
         -5    1    3    3    0  502  0.38628711869E+02 -0.89367237983E+02  0.27463019954E+02  0.10124411326E+03  0.41800000000E+01 0. -1.
        -11    1    1    2    0    0 -0.45470252847E+02  0.50033918048E+02  0.64692139919E+02  0.93573552975E+02  0.00000000000E+00 0. -1.
         11    1    1    2    0    0  0.39661437299E+02  0.66872190544E+02  0.12909964646E+03  0.15070380949E+03  0.00000000000E+00 0.  1.
</event>
<event>
 6    1  0.2594791E-009  0.1468398E+03  0.7561462E-02  0.1204411E+00
          2   -1    0    0  501    0  0.00000000000E+00  0.00000000000E+00  0.64028684405E+02  0.64028684405E+02  0.00000000000E+00 0. -1.
         -2   -1    0    0    0  501 -0.00000000000E+00 -0.00000000000E+00 -0.45856161604E+03  0.45856161604E+03  0.00000000000E+00 0.  1.
          5    1    1    2  502    0  0.58919746738E+02  0.66183106514E+02 -0.21142880887E+03  0.22928443856E+03  0.41800000000E+01 0.  1.
         -5    1    1    2    0  502  0.48389602867E+02  0.95357024499E+01 -0.22852506040E+00  0.49497554592E+02  0.41800000000E+01 0.  1.
        -11    1    1    2    0    0 -0.77987436022E+02 -0.41113539534E+01 -0.59516520436E+02  0.98189406829E+02  0.00000000000E+00 0.  1.
         11    1    1    2    0    0 -0.29321913583E+02 -0.71607455010E+02 -0.12335907727E+03  0.14561890047E+03  0.00000000000E+00 0. -1.
</event>
<event>
 7    1  0.3284265E-009  0.7385979E+02  0.7561462E-02  0.1347439E+00
         -1   -1    0    0    0  501 -0.00000000000E+00  0.00000000000E+00  0.11862078588E+03  0.11862078588E+03  0.00000000000E+00 0.  1.
          1   -1    0    0  501    0  0.00000000000E+00 -0.00000000000E+00 -0.12506763457E+03  0.12506763457E+03  0.00000000000E+00 0. -1.
         25    2    1    2    0    0  0.13858928000E+02  0.19438671070E+02  0.46746646656E+02  0.13566504746E+03  0.12509925784E+03 0.  0.
          5    1    3    3  502    0  0.42737116780E+02  0.39954229668E+02  0.71327181947E+02  0.92346309637E+02  0.41800000000E+01 0. -1.
         -5    1    3    3    0  502 -0.28878188779E+02 -0.20515558598E+02 -0.24580535290E+02  0.43318737827E+02  0.41800000000E+01 0. -1.
        -11    1    1    2    0    0 -0.25348759141E+02 -0.28950783736E+02  0.12654275528E+02  0.40507260560E+02  0.00000000000E+00 0.  1.
         11    1    1    2    0    0  0.11489831140E+02  0.95121126662E+01 -0.65847770877E+02  0.67516112421E+02  0.00000000000E+00 0. -1.
</event>
<event>
 7    1  0.2594791E-009  0.9679933E+02  0.7561462E-02  0.1287174E+00
          4   -1    0    0  501    0  0.00000000000E+00  0.00000000000E+00  0.10699583303E+03  0.10699583303E+03  0.00000000000E+00 0. -1.
         -4   -1    0    0    0  501 -0.00000000000E+00 -0.00000000000E+00 -0.15215755702E+03  0.15215755702E+03  0.00000000000E+00 0.  1.
         25    2    1    2    0    0  0.58500118739E+01 -0.32941916008E+02  0.34517728925E+02  0.13400594517E+03  0.12508687886E+03 0.  0.
          5    1    3    3  502    0  0.42320108661E+02 -0.50587462825E+02 -0.17090567565E+02  0.68261576981E+02  0.41800000000E+01 0. -1.
         -5    1    3    3    0  502 -0.36470096787E+02  0.17645546818E+02  0.51608296491E+02  0.65744368191E+02  0.41800000000E+01 0. -1.
        -11    1    1    2    0    0  0.34526687447E+02  0.30930056192E+02 -0.69360536346E+02  0.83424483962E+02  0.00000000000E+00 0. -1.
         11    1    1    2    0    0 -0.40376699321E+02  0.20118598153E+01 -0.10318916575E+02  0.41722960912E+02  0.00000000000E+00 0.  1.
</event>
<event>
 7    1  0.2594791E-009  0.2440334E+03  0.7561462E-02  0.1117135E+00
         -2   -1    0    0    0  501 -0.00000000000E+00  0.00000000000E+00  0.11204572888E+04  0.11204572888E+04  0.00000000000E+00 0.  1.
          2   -1    0    0  501    0  0.00000000000E+00 -0.00000000000E+00 -0.75180317156E+02  0.75180317156E+02  0.00000000000E+00 0. -1.
         25    2    1    2    0    0  0.17994319657E+03  0.13493330680E+03  0.23067286391E+03  0.34560579585E+03  0.12508734830E+03 0.  0.
          5    1    3    3  502    0  0.18462945010E+02  0.67664939920E+02  0.22755738038E+02  0.73856079279E+02  0.41800000000E+01 0. -1.
         -5    1    3    3    0  502  0.16148025156E+03  0.67268366876E+02  0.20791712587E+03  0.27174971657E+03  0.41800000000E+01 0. -1.
        -11    1    1    2    0    0 -0.64072967345E+02 -0.10523657524E+03  0.40742968052E+03  0.42565129682E+03  0.00000000000E+00 0.  1.
         11    1    1    2    0    0 -0.11587022922E+03 -0.29696731552E+02  0.40717442724E+03  0.42438051332E+03  0.00000000000E+00 0. -1.
</event>
<event>
 7    1  0.2594791E-009  0.1298719E+03  0.7561462E-02  0.1227646E+00
         -2   -1    0    0    0  501 -0.00000000000E+00  0.00000000000E+00  0.27200509495E+02  0.27200509495E+02  0.00000000000E+00 0.  1.
          2   -1    0    0  501    0  0.00000000000E+00 -0.00000000000E+00 -0.10462785186E+04  0.10462785186E+04  0.00000000000E+00 0. -1.
         25    2    1    2    0    0  0.10701167209E+03 -0.10303253322E+02 -0.76611265763E+03  0.78366534065E+03  0.12508040202E+03 0.  0.
          5    1    3    3  502    0  0.17082941349E+02 -0.24619385969E+02 -0.52539852146E+03  0.52626896147E+03  0.41800000000E+01 0.  1.
         -5    1    3    3    0  502  0.89928730744E+02  0.14316132647E+02 -0.24071413617E+03  0.25739637919E+03  0.41800000000E+01 0.  1.
        -11    1    1    2    0    0 -0.93484927185E+02 -0.28098632204E+02 -0.14867140891E+03  0.17785430152E+03  0.00000000000E+00 0.  1.
         11    1    1    2    0    0 -0.13526744908E+02  0.38401885526E+02 -0.10429394259E+03  0.11195938594E+03  0.00000000000E+00 0. -1.
</event>
<event>
 7    1  0.2594791E-009  0.7388173E+02  0.7561462E-02  0.1347369E+00
         -3   -1    0    0    0  501 -0.00000000000E+00  0.00000000000E+00  0.25185630334E+02  0.25185630334E+02  0.00000000000E+00 0.  1.
          3   -1    0    0  501    0  0.00000000000E+00 -0.00000000000E+00 -0.52934106478E+03  0.52934106478E+03  0.00000000000E+00 0. -1.
         25    2    1    2    0    0 -0.52022099864E+02  0.32055760095E-01 -0.43751975010E+03  0.45801460677E+03  0.12509016103E+03 0.  0.
          5    1    3    3  502    0 -0.30029036709E+02  0.28671501747E+02 -0.36763670431E+02  0.55613289074E+02  0.41800000000E+01 0.  1.
         -5    1    3    3    0  502 -0.21993063155E+02 -0.28639445987E+02 -0.40075607967E+03  0.40240131770E+03  0.41800000000E+01 0.  1.
        -11    1    1    2    0    0  0.85297940007E+01  0.20042749856E+02 -0.23626040813E+02  0.32135012245E+02  0.00000000000E+00 0.  1.
         11    1    1    2    0    0  0.43492305863E+02 -0.20074805616E+02 -0.43009643528E+02  0.64377076093E+02  0.00000000000E+00 0. -1.
</event>
<event>
 7    1  0.2594791E-009  0.1688796E+03  0.7561462E-02  0.1179021E+00
          2   -1    0    0  501    0  0.00000000000E+00  0.00000000000E+00  0.30417787885E+03  0.30417787885E+03  0.00000000000E+00 0. -1.
         -2   -1    0    0    0  501 -0.00000000000E+00 -0.00000000000E+00 -0.11749423171E+03  0.11749423171E+03  0.00000000000E+00 0.  1.
         25    2    1    2    0    0  0.35947925577E+02 -0.13163043377E+03  0.19258411188E+02  0.18609194752E+03  0.12506199296E+03 0.  0.
          5    1    3    3  502    0 -0.35048810317E+02 -0.88350590664E+02 -0.14529017366E+02  0.96243497032E+02  0.41800000000E+01 0.  1.
         -5    1    3    3    0  502  0.70996735895E+02 -0.43279843110E+02  0.33787428554E+02  0.89848450491E+02  0.41800000000E+01 0.  1.
        -11    1    1    2    0    0 -0.62870925388E+02  0.94399802779E+02  0.86953990985E+02  0.14291631318E+03  0.00000000000E+00 0.  1.
         11    1    1    2    0    0  0.26922999811E+02  0.37230630995E+02  0.80471244969E+02  0.92663849855E+02  0.00000000000E+00 0. -1.
</event>
<event>
 7    1  0.2594791E-009  0.2444251E+03  0.7561462E-02  0.1116880E+00
          1   -1    0    0  501    0  0.00000000000E+00  0.00000000000E+00  0.58321238671E+03  0.58321238671E+03  0.00000000000E+00 0. -1.
         -1   -1    0    0    0  501 -0.00000000000E+00 -0.00000000000E+00 -0.11290001283E+03  0.11290001283E+03  0.00000000000E+00 0.  1.
         25    2    1    2    0    0 -0.54015516496E+02  0.21809403445E+03  0.32455322671E+03  0.41408662375E+03  0.12510096369E+03 0.  0.
          5    1    3    3  502    0 -0.57388488886E+02  0.34660229852E+02  0.13189431086E+03  0.14801470139E+03  0.41800000000E+01 0.  1.
         -5    1    3    3    0  502  0.33729723900E+01  0.18343380460E+03  0.19265891584E+03  0.26607192236E+03  0.41800000000E+01 0.  1.
        -11    1    1    2    0    0 -0.51369074768E+01 -0.14050472452E+03  0.62918164231E+02  0.15403460916E+03  0.00000000000E+00 0.  1.
         11    1    1    2    0    0  0.59152423973E+02 -0.77589309937E+02  0.82840982947E+02  0.12799116663E+03  0.00000000000E+00 0. -1.
</event>
<event>
 7    1  0.3254628E-009  0.1727354E+03  0.7561462E-02  0.1175025E+00
         -4   -1    0    0    0  501 -0.00000000000E+00  0.00000000000E+00  0.71782669675E+03  0.71782669675E+03  0.00000000000E+00 0.  1.
          4   -1    0    0  501    0  0.00000000000E+00 -0.00000000000E+00 -0.57100878844E+02  0.57100878844E+02  0.00000000000E+00 0. -1.
         25    2    1    2    0    0  0.14355844073E+03 -0.65000515157E+02  0.22033613258E+03  0.29837767989E+03  0.12508851130E+03 0.  0.
          5    1    3    3  502    0  0.75945687888E+02 -0.60508701632E+02  0.20770716353E+03  0.22932245565E+03  0.41800000000E+01 0. -1.
         -5    1    3    3    0  502  0.67612752846E+02 -0.44918135248E+01  0.12628969055E+02  0.69055224246E+02  0.41800000000E+01 0. -1.
        -11    1    1    2    0    0 -0.89058634845E+02 -0.78530468703E+01  0.18579430095E+03  0.20618591865E+03  0.00000000000E+00 0. -1.
         11    1    1    2    0    0 -0.54499805890E+02  0.72853562028E+02  0.25459538437E+03  0.27036397705E+03  0.00000000000E+00 0.  1.
</event>
<event>
 7    1  0.2594791E-009  0.1226335E+03  0.7561462E-02  0.1238815E+00
         -3   -1    0    0    0  501 -0.00000000000E+00  0.00000000000E+00  0.19716442164E+02  0.19716442164E+02  0.00000000000E+00 0.  1.
          3   -1    0    0  501    0  0.00000000000E+00 -0.00000000000E+00 -0.76577592212E+03  0.76577592212E+03  0.00000000000E+00 0. -1.
         25    2    1    2    0    0 -0.30828893218E+02  0.47981093764E+02 -0.40374571523E+03  0.42650847509E+03  0.12508505401E+03 0.  0.
          5    1    3    3  502    0 -0.76224727866E+02  0.79379764993E+01 -0.22003347504E+03  0.23303524014E+03  0.41800000000E+01 0.  1.
         -5    1    3    3    0  502  0.45395834648E+02  0.40043117265E+02 -0.18371224020E+03  0.19347323495E+03  0.41800000000E+01 0.  1.
        -11    1    1    2    0    0  0.63529944513E+02 -0.27301308253E+02 -0.23172966135E+03  0.24182648993E+03  0.00000000000E+00 0. -1.
         11    1    1    2    0    0 -0.32701051295E+02 -0.20679785511E+02 -0.11058410337E+03  0.11715739927E+03  0.00000000000E+00 0.  1.
</event>
<event>
 7    1  0.2594791E-009  0.1552679E+03  0.7561462E-02  0.1194145E+00
         -1   -1    0    0    0  501 -0.00000000000E+00  0.00000000000E+00  0.91937715511E+02  0.91937715511E+02  0.00000000000E+00 0.  1.
          1   -1    0    0  501    0  0.00000000000E+00 -0.00000000000E+00 -0.15366868387E+04  0.15366868387E+04  0.00000000000E+00 0. -1.
         25    2    1    2    0    0 -0.26901383033E+02  0.12025861526E+03 -0.14633034977E+04  0.14738014435E+04  0.12509096483E+03 0.  0.
          5    1    3    3  502    0 -0.26921758144E+02  0.14280674343E+03 -0.10702052761E+04  0.10800348848E+04  0.41800000000E+01 0.  1.
         -5    1    3    3    0  502  0.20375110224E-01 -0.22548128172E+02 -0.39309822158E+03  0.39376655865E+03  0.41800000000E+01 0.  1.
        -11    1    1    2    0    0 -0.24310984427E+02 -0.32100778613E+02  0.32726456022E+02  0.51889352233E+02  0.00000000000E+00 0.  1.
         11    1    1    2    0    0  0.51212367460E+02 -0.88157836646E+02 -0.14172081510E+02  0.10293375849E+03  0.00000000000E+00 0. -1.
</event>
<event>
 7    1  0.2594791E-009  0.1052184E+03  0.7561462E-02  0.1269690E+00
         -1   -1    0    0    0  501 -0.00000000000E+00  0.00000000000E+00  0.62226332001E+02  0.62226332001E+02  0.00000000000E+00 0.  1.
          1   -1    0    0  501    0  0.00000000000E+00 -0.00000000000E+00 -0.27130517208E+03  0.27130517208E+03  0.00000000000E+00 0. -1.
         25    2    1    2    0    0 -0.28653247330E+01  0.49874811747E+02 -0.18216030317E+03  0.22654434044E+03  0.12507699710E+03 0.  0.
          5    1    3    3  502    0 -0.57676008378E+02  0.30689515206E+02 -0.14034350683E+03  0.15486168214E+03  0.41800000000E+01 0. -1.
         -5    1    3    3    0  502  0.54810683645E+02  0.19185296541E+02 -0.41816796336E+02  0.71682658299E+02  0.41800000000E+01 0. -1.
        -11    1    1    2    0    0 -0.13849438578E+02  0.14611098947E+02  0.17701695173E+02  0.26807483533E+02  0.00000000000E+00 0.  1.
         11    1    1    2    0    0  0.16714763311E+02 -0.64485910694E+02 -0.44620232081E+02  0.80179680104E+02  0.00000000000E+00 0. -1.
</event>
<event>
 7    1  0.2594791E-009  0.1158654E+03  0.7561462E-02  0.1250078E+00
         -2   -1    0    0    0  501 -0.00000000000E+00  0.00000000000E+00  0.33712794268E+03  0.33712794268E+03  0.00000000000E+00 0. -1.
          2   -1    0    0  501    0  0.00000000000E+00 -0.00000000000E+00 -0.46147242947E+02  0.46147242947E+02  0.00000000000E+00 0.  1.
         25    2    1    2    0    0 -0.39044751798E+02 -0.35602796251E+02  0.19621787723E+03  0.23862189037E+03  0.12508756724E+03 0.  0.
          5    1    3    3  502    0 -0.14889204124E+02  0.42271547326E+02  0.31993771761E+02  0.55223599523E+02  0.41800000000E+01 0. -1.
         -5    1    3    3    0  502 -0.24155547674E+02 -0.77874343578E+02  0.16422410546E+03  0.18339829085E+03  0.41800000000E+01 0. -1.
        -11    1    1    2    0    0  0.68708356302E+02  0.29596823747E+02  0.84112038899E+02  0.11256840271E+03  0.00000000000E+00 0. -1.
         11    1    1    2    0    0 -0.29663604505E+02  0.60059725043E+01  0.10650783610E+02  0.32084892542E+02  0.00000000000E+00 0.  1.
</event>
<event>
 7    1  0.2594791E-009  0.1295861E+03  0.7561462E-02  0.1228071E+00
          2   -1    0    0  501    0  0.00000000000E+00  0.00000000000E+00  0.71656652440E+03  0.71656652440E+03  0.00000000000E+00 0. -1.
         -2   -1    0    0    0  501 -0.00000000000E+00 -0.00000000000E+00 -0.36083429532E+02  0.36083429532E+02  0.00000000000E+00 0.  1.
         25    2    1    2    0    0 -0.60205227883E+02  0.57884738051E+02  0.47043558196E+03  0.49389534583E+03  0.12509062112E+03 0.  0.
          5    1    3    3  502    0 -0.87651896125E+02  0.36352113607E+02  0.42982918346E+03  0.44019873968E+03  0.41800000000E+01 0. -1.
         -5    1    3    3    0  502  0.27446668242E+02  0.21532624445E+02  0.40606398495E+02  0.53696606148E+02  0.41800000000E+01 0. -1.
        -11    1    1    2    0    0  0.40964198398E+02 -0.85842250399E+02  0.20287642233E+03  0.22406650853E+03  0.00000000000E+00 0.  1.
         11    1    1    2    0    0  0.19241029485E+02  0.27957512348E+02  0.71710905753E+01  0.34688099578E+02  0.00000000000E+00 0. -1.
</event>
<event>
 7    1  0.2594791E-009  0.1073752E+03  0.7561462E-02  0.1265509E+00
         -2   -1    0    0    0  501 -0.00000000000E+00  0.00000000000E+00  0.92885048073E+02  0.92885048073E+02  0.00000000000E+00 0.  1.
          2   -1    0    0  501    0  0.00000000000E+00 -0.00000000000E+00 -0.71515037265E+03  0.71515037265E+03  0.00000000000E+00 0. -1.
         25    2    1    2    0    0 -0.10185124657E+02  0.60182235244E+02 -0.67238241490E+03  0.68663759630E+03  0.12508972212E+03 0.  0.
          5    1    3    3  502    0 -0.53280975431E+02  0.30175417291E+02 -0.15700415900E+03  0.16857400896E+03  0.41800000000E+01 0.  1.
         -5    1    3    3    0  502  0.43095850774E+02  0.30006817954E+02 -0.51537825590E+03  0.51806358734E+03  0.41800000000E+01 0.  1.
        -11    1    1    2    0    0 -0.85372263356E+01 -0.75821683168E+02  0.13632880442E+02  0.77509143339E+02  0.00000000000E+00 0. -1.
         11    1    1    2    0    0  0.18722350993E+02  0.15639447924E+02  0.36484209873E+02  0.43888681093E+02  0.00000000000E+00 0.  1.
</event>
<event>
 7    1  0.2594791E-009  0.7214770E+02  0.7561462E-02  0.1352938E+00
         -1   -1    0    0    0  501 -0.00000000000E+00  0.00000000000E+00  0.47603120788E+02  0.47603120788E+02  0.00000000000E+00 0.  1.
          1   -1    0    0  501    0  0.00000000000E+00 -0.00000000000E+00 -0.20857101627E+03  0.20857101627E+03  0.00000000000E+00 0. -1.
         25    2    1    2    0    0  0.27865176167E+02 -0.74202668648E+01 -0.10593287201E+03  0.16643223354E+03  0.12508551709E+03 0.  0.
          5    1    3    3  502    0  0.15837314117E+02  0.30322483383E+02 -0.11948586523E+03  0.12435681689E+03  0.41800000000E+01 0. -1.
         -5    1    3    3    0  502  0.12027862050E+02 -0.37742750247E+02  0.13552993215E+02  0.42075416656E+02  0.41800000000E+01 0. -1.
        -11    1    1    2    0    0  0.18191403148E+02  0.14677179161E+02 -0.11921120114E+02  0.26238518277E+02  0.00000000000E+00 0.  1.
         11    1    1    2    0    0 -0.46056579315E+02 -0.72569122957E+01 -0.43113903360E+02  0.63503385242E+02  0.00000000000E+00 0. -1.
</event>
<event>
 7    1  0.2594791E-009  0.9151223E+02  0.7561462E-02  0.1299230E+00
         -2   -1    0    0    0  501 -0.00000000000E+00  0.00000000000E+00  0.12231685283E+03  0.12231685283E+03  0.00000000000E+00 0. -1.
          2   -1    0    0  501    0  0.00000000000E+00 -0.00000000000E+00 -0.11173144418E+03  0.11173144418E+03  0.00000000000E+00 0.  1.
         25    2    1    2    0    0 -0.21805689302E+02  0.33053763064E+02  0.25714130908E+02  0.13370718100E+03  0.12509338266E+03 0.  0.
          5    1    3    3  502    0 -0.50605148969E+02  0.35632622996E+02 -0.31420587550E+02  0.69536254182E+02  0.41800000000E+01 0.  1.
         -5    1    3    3    0  502  0.28799459667E+02 -0.25788599324E+01  0.57134718458E+02  0.64170926820E+02  0.41800000000E+01 0.  1.
        -11    1    1    2    0    0  0.21893442056E+02 -0.60495230568E+02 -0.27837664517E+02  0.70099438602E+02  0.00000000000E+00 0.  1.
         11    1    1    2    0    0 -0.87752754529E-01  0.27441467504E+02  0.12708942260E+02  0.30241677412E+02  0.00000000000E+00 0. -1.
</event>
<event>
 7    1  0.2594791E-009  0.1169840E+03  0.7561462E-02  0.1248157E+00
         -1   -1    0    0    0  501 -0.00000000000E+00  0.00000000000E+00  0.21909398017E+02  0.21909398017E+02  0.00000000000E+00 0.  1.
          1   -1    0    0  501    0  0.00000000000E+00 -0.00000000000E+00 -0.67319643153E+03  0.67319643153E+03  0.00000000000E+00 0. -1.
         25    2    1    2    0    0  0.40012148993E+02  0.38419783598E+02 -0.36971998219E+03  0.39422987156E+03  0.12508906651E+03 0.  0.
          5    1    3    3  502    0  0.70666548690E+02  0.62656074262E+02 -0.22028675774E+03  0.23971498239E+03  0.41800000000E+01 0. -1.
         -5    1    3    3    0  502 -0.30654399697E+02 -0.24236290665E+02 -0.14943322445E+03  0.15451488917E+03  0.41800000000E+01 0. -1.
        -11    1    1    2    0    0  0.26087631994E+02 -0.74130525012E+01 -0.12793162513E+03  0.13077468638E+03  0.00000000000E+00 0. -1.
         11    1    1    2    0    0 -0.66099780988E+02 -0.31006731096E+02 -0.15363542619E+03  0.17010127161E+03  0.00000000000E+00 0.  1.
</event>
<event>
 7    1  0.2594791E-009  0.1248349E+03  0.7561462E-02  0.1235328E+00
         -2   -1    0    0    0  501 -0.00000000000E+00  0.00000000000E+00  0.33649224870E+02  0.33649224870E+02  0.00000000000E+00 0.  1.
          2   -1    0    0  501    0  0.00000000000E+00 -0.00000000000E+00 -0.76940755923E+03  0.76940755923E+03  0.00000000000E+00 0. -1.
         25    2    1    2    0    0  0.10058496818E+03 -0.37693103725E+02 -0.27789920666E+03  0.32313134531E+03  0.12509113226E+03 0.  0.
          5    1    3    3  502    0  0.31852875205E+02  0.30192484108E+02 -0.18079964806E+03  0.18609722430E+03  0.41800000000E+01 0.  1.
         -5    1    3    3    0  502  0.68732092979E+02 -0.67885587834E+02 -0.97099558602E+02  0.13703412101E+03  0.41800000000E+01 0.  1.
        -11    1    1    2    0    0 -0.28336407422E+02  0.19455022005E+02 -0.29990261595E+02  0.45616506413E+02  0.00000000000E+00 0.  1.
         11    1    1    2    0    0 -0.72248560761E+02  0.18238081721E+02 -0.42786886611E+03  0.43430893238E+03  0.00000000000E+00 0. -1.
</event>
<event>
 7    1  0.2594791E-009  0.1157815E+03  0.7561462E-02  0.1250223E+00
          3   -1    0    0  501    0  0.00000000000E+00  0.00000000000E+00  0.10523899752E+03  0.10523899752E+03  0.00000000000E+00 0.  1.
         -3   -1    0    0    0  501 -0.00000000000E+00 -0.00000000000E+00 -0.18380566722E+03  0.18380566722E+03  0.00000000000E+00 0. -1.
         25    2    1    2    0    0  0.40500005371E+01 -0.84625426715E+02 -0.64306176334E+02  0.16419590348E+03  0.12508854885E+03 0.  0.
          5    1    3    3  502    0  0.27059139999E+02 -0.54951018767E+01 -0.75897481610E+02  0.80872079959E+02  0.41800000000E+01 0. -1.
         -5    1    3    3    0  502 -0.23009139462E+02 -0.79130324838E+02  0.11591305276E+02  0.83323823519E+02  0.41800000000E+01 0. -1.
        -11    1    1    2    0    0  0.41272263648E+02  0.38045297916E+02  0.67717641037E+01  0.56539377687E+02  0.00000000000E+00 0. -1.
         11    1    1    2    0    0 -0.45322264185E+02  0.46580128799E+02 -0.21032257471E+02  0.68309383573E+02  0.00000000000E+00 0.  1.
</event>
<event>
 7    1  0.2594791E-009  0.1037170E+03  0.7561462E-02  0.1272668E+00
          2   -1    0    0  501    0  0.00000000000E+00  0.00000000000E+00  0.82782700108E+03  0.82782700108E+03  0.00000000000E+00 0. -1.
         -2   -1    0    0    0  501 -0.00000000000E+00 -0.00000000000E+00 -0.15542631895E+02  0.15542631895E+02  0.00000000000E+00 0.  1.
         25    2    1    2    0    0 -0.20241855470E+02 -0.24693683439E+02  0.48843398919E+03  0.50521172502E+03  0.12510641306E+03 0.  0.
          5    1    3    3  502    0  0.40716622598E+02 -0.29577486845E+02  0.10059596164E+03  0.11255972185E+03  0.41800000000E+01 0.  1.
         -5    1    3    3    0  502 -0.60958478068E+02  0.48838034054E+01  0.38783802755E+03  0.39265200318E+03  0.41800000000E+01 0.  1.
        -11    1    1    2    0    0 -0.35553373453E+02  0.16676893128E+02  0.16480090749E+03  0.16941517122E+03  0.00000000000E+00 0. -1.
         11    1    1    2    0    0  0.55795228923E+02  0.80167903112E+01  0.15904947251E+03  0.16874273674E+03  0.00000000000E+00 0.  1.
</event>
<event>
 7    1  0.2594791E-009  0.8605945E+02  0.7561462E-02  0.1312685E+00
         -1   -1    0    0    0  501 -0.00000000000E+00  0.00000000000E+00  0.17958826860E+02  0.17958826860E+02  0.00000000000E+00 0.  1.
          1   -1    0    0  501    0  0.00000000000E+00 -0.00000000000E+00 -0.99739798697E+03  0.99739798697E+03  0.00000000000E+00 0. -1.
         25    2    1    2    0    0 -0.52209616367E+02 -0.43146550331E+02 -0.69090074243E+03  0.70539290627E+03  0.12509135654E+03 0.  0.
          5    1    3    3  502    0 -0.80970360534E+01 -0.36665941619E+02 -0.48720500209E+02  0.61653165436E+02  0.41800000000E+01 0. -1.
         -5    1    3    3    0  502 -0.44112580313E+02 -0.64806087117E+01 -0.64218024222E+03  0.64373974083E+03  0.41800000000E+01 0. -1.
        -11    1    1    2    0    0  0.42533554193E+02 -0.27770612466E+01 -0.45147858727E+02  0.62089809544E+02  0.00000000000E+00 0.  1.
         11    1    1    2    0    0  0.96760621733E+01  0.45923611578E+02 -0.24339055896E+03  0.24787409802E+03  0.00000000000E+00 0. -1.
</event>
<event>
 7    1  0.2594791E-009  0.8816609E+02  0.7561462E-02  0.1307355E+00
          2   -1    0    0  501    0  0.00000000000E+00  0.00000000000E+00  0.21259622530E+03  0.21259622530E+03  0.00000000000E+00 0. -1.
         -2   -1    0    0    0  501 -0.00000000000E+00 -0.00000000000E+00 -0.72964698034E+02  0.72964698034E+02  0.00000000000E+00 0.  1.
         25    2    1    2    0    0 -0.50267303638E+02  0.28399200614E+02  0.54114617906E+02  0.14801633612E+03  0.12508847859E+03 0.  0.
          5    1    3    3  502    0  0.25524677040E+02  0.15256072335E+02 -0.23898120791E+02  0.38377720860E+02  0.41800000000E+01 0.  1.
         -5    1    3    3    0  502 -0.75791980678E+02  0.13143128280E+02  0.78012738697E+02  0.10963861526E+03  0.41800000000E+01 0.  1.
        -11    1    1    2    0    0  0.40851188220E+02 -0.38018983329E+02  0.10199707980E+03  0.11626550202E+03  0.00000000000E+00 0. -1.
         11    1    1    2    0    0  0.94161154184E+01  0.96197827145E+01 -0.16480170441E+02  0.21279085197E+02  0.00000000000E+00 0.  1.
</event>
<event>
 7    1  0.2594791E-009  0.1000754E+03  0.7561462E-02  0.1280138E+00
          2   -1    0    0  501    0  0.00000000000E+00  0.00000000000E+00  0.83955488542E+03  0.83955488542E+03  0.00000000000E+00 0. -1.
         -2   -1    0    0    0  501 -0.00000000000E+00 -0.00000000000E+00 -0.19950574036E+02  0.19950574036E+02  0.00000000000E+00 0.  1.
         25    2    1    2    0    0 -0.73912990332E+02  0.38156265643E+01  0.43761019331E+03  0.46111708959E+03  0.12509436389E+03 0.  0.
          5    1    3    3  502    0 -0.34085326798E+02  0.25823356501E+02  0.39896335234E+03  0.40127033799E+03  0.41800000000E+01 0. -1.
         -5    1    3    3    0  502 -0.39827663534E+02 -0.22007729937E+02  0.38646840968E+02  0.59846751594E+02  0.41800000000E+01 0. -1.
        -11    1    1    2    0    0 -0.15592972894E+02 -0.14568115057E+02  0.10313597976E+03  0.10532046858E+03  0.00000000000E+00 0.  1.
         11    1    1    2    0    0  0.89505963227E+02  0.10752488493E+02  0.27885813831E+03  0.29306790128E+03  0.00000000000E+00 0. -1.
</event>
<event>
 7    1  0.2594791E-009  0.2185528E+03  0.7561462E-02  0.1134967E+00
          2   -1    0    0  501    0  0.00000000000E+00  0.00000000000E+00  0.10542306862E+04  0.10542306862E+04  0.00000000000E+00 0. -1.
         -2   -1    0    0    0  501 -0.00000000000E+00 -0.00000000000E+00 -0.92077452435E+02  0.92077452435E+02  0.00000000000E+00 0.  1.
         25    2    1    2    0    0  0.20881205717E+03 -0.29685598156E+02  0.86152892193E+03  0.89575153316E+03  0.12512000592E+03 0.  0.
          5    1    3    3  502    0  0.21067332992E+03 -0.21571559694E+02  0.64230182149E+03  0.67632661224E+03  0.41800000000E+01 0.  1.
         -5    1    3    3    0  502 -0.18612727517E+01 -0.81140384621E+01  0.21922710043E+03  0.21942492092E+03  0.41800000000E+01 0.  1.
        -11    1    1    2    0    0 -0.12169045072E+03  0.40342520504E+02  0.10031399541E+03  0.16278508050E+03  0.00000000000E+00 0.  1.
         11    1    1    2    0    0 -0.87121606449E+02 -0.10656922348E+02  0.31031644672E+00  0.87771524998E+02  0.00000000000E+00 0. -1.
</event>
<event>
 7    1  0.2594791E-009  0.1242017E+03  0.7561462E-02  0.1236322E+00
         -1   -1    0    0    0  501 -0.00000000000E+00  0.00000000000E+00  0.17701958657E+02  0.17701958657E+02  0.00000000000E+00 0. -1.
          1   -1    0    0  501    0  0.00000000000E+00 -0.00000000000E+00 -0.95241779802E+03  0.95241779802E+03  0.00000000000E+00 0.  1.
         25    2    1    2    0    0  0.40379912602E+02  0.56456993183E+02 -0.61917419150E+03  0.63548572611E+03  0.12508996462E+03 0.  0.
          5    1    3    3  502    0  0.84816458911E+02  0.41441373775E+02 -0.36817175732E+03  0.38010411001E+03  0.41800000000E+01 0.  1.
         -5    1    3    3    0  502 -0.44436546310E+02  0.15015619408E+02 -0.25100243419E+03  0.25538161610E+03  0.41800000000E+01 0.  1.
        -11    1    1    2    0    0 -0.84226910781E+01 -0.71150614318E+02 -0.25222360862E+03  0.26220240348E+03  0.00000000000E+00 0.  1.
         11    1    1    2    0    0 -0.31957221523E+02  0.14693621135E+02 -0.63318039236E+02  0.72431627085E+02  0.00000000000E+00 0. -1.
</event>
<event>
 7    1  0.2594791E-009  0.1292847E+03  0.7561462E-02  0.1228521E+00
          2   -1    0    0  501    0  0.00000000000E+00  0.00000000000E+00  0.27853871305E+03  0.27853871305E+03  0.00000000000E+00 0. -1.
         -2   -1    0    0    0  501 -0.00000000000E+00 -0.00000000000E+00 -0.10115324717E+03  0.10115324717E+03  0.00000000000E+00 0.  1.
         25    2    1    2    0    0 -0.89928729838E+02 -0.92108809794E+02  0.97418724699E+02  0.20425491009E+03  0.12513373279E+03 0.  0.
          5    1    3    3  502    0 -0.64133563006E+02 -0.56623398142E+02  0.12554048561E+03  0.15197765970E+03  0.41800000000E+01 0. -1.
         -5    1    3    3    0  502 -0.25795166832E+02 -0.35485411652E+02 -0.28121760907E+02  0.52277250392E+02  0.41800000000E+01 0. -1.
        -11    1    1    2    0    0  0.43820272365E+02  0.40978118188E+02  0.87589144505E+02  0.10616628785E+03  0.00000000000E+00 0. -1.
         11    1    1    2    0    0  0.46108457473E+02  0.51130691606E+02 -0.76224033156E+01  0.69270762281E+02  0.00000000000E+00 0.  1.
</event>
<event>
 7    1  0.2594791E-009  0.1489965E+03  0.7561462E-02  0.1201712E+00
          2   -1    0    0  501    0  0.00000000000E+00  0.00000000000E+00  0.11585949758E+04  0.11585949758E+04  0.00000000000E+00 0.  1.
         -2   -1    0    0    0  501 -0.00000000000E+00 -0.00000000000E+00 -0.21464700487E+02  0.21464700487E+02  0.00000000000E+00 0. -1.
         25    2    1    2    0    0 -0.87088546759E+02 -0.72623403832E+02  0.55276062891E+03  0.57797138539E+03  0.12509210885E+03 0.  0.
          5    1    3    3  502    0 -0.50556977210E+01 -0.70709031919E+02  0.13852549309E+03  0.15566666923E+03  0.41800000000E+01 0. -1.
         -5    1    3    3    0  502 -0.82032849038E+02 -0.19143719130E+01  0.41423513582E+03  0.42230471616E+03  0.41800000000E+01 0. -1.
        -11    1    1    2    0    0  0.84296425332E+02  0.13192800646E+02  0.35861043507E+03  0.36862091836E+03  0.00000000000E+00 0.  1.
         11    1    1    2    0    0  0.27921214264E+01  0.59430603186E+02  0.22575921133E+03  0.23346737254E+03  0.00000000000E+00 0. -1.
</event>
<event>
 7    1  0.2594791E-009  0.9812496E+02  0.7561462E-02  0.1284289E+00
         -1   -1    0    0    0  501 -0.00000000000E+00  0.00000000000E+00  0.14039989682E+03  0.14039989682E+03  0.00000000000E+00 0.  1.
          1   -1    0    0  501    0  0.00000000000E+00 -0.00000000000E+00 -0.12109368574E+03  0.12109368574E+03  0.00000000000E+00 0. -1.
         25    2    1    2    0    0 -0.67830613058E+02 -0.12947270483E+02  0.33242457064E+02  0.14672472851E+03  0.12511778900E+03 0.  0.
          5    1    3    3  502    0 -0.48823822148E+02 -0.40675968673E+02  0.71416071245E+02  0.95687134290E+02  0.41800000000E+01 0. -1.
         -5    1    3    3    0  502 -0.19006790910E+02  0.27728698190E+02 -0.38173614181E+02  0.51037594219E+02  0.41800000000E+01 0. -1.
        -11    1    1    2    0    0  0.48328147591E+02  0.41776874918E+02  0.19206715588E+02  0.66706934056E+02  0.00000000000E+00 0.  1.
         11    1    1    2    0    0  0.19502465468E+02 -0.28829604436E+02 -0.33142961577E+02  0.48061919992E+02  0.00000000000E+00 0. -1.
</event>
<event>
 7    1  0.2594791E-009  0.1176598E+03  0.7561462E-02  0.1247008E+00
         -1   -1    0    0    0  501 -0.00000000000E+00  0.00000000000E+00  0.84080977216E+02  0.84080977216E+02  0.00000000000E+00 0.  1.
          1   -1    0    0  501    0  0.00000000000E+00 -0.00000000000E+00 -0.26802654000E+03  0.26802654000E+03  0.00000000000E+00 0. -1.
         25    2    1    2    0    0  0.50875035429E+02 -0.75258874284E+02 -0.16304919087E+03  0.22468714845E+03  0.12508840334E+03 0.  0.
          5    1    3    3  502    0 -0.10662517135E+02  0.18264554345E+02  0.55491541594E+01  0.22260923812E+02  0.41800000000E+01 0. -1.
         -5    1    3    3    0  502  0.61537552564E+02 -0.93523428629E+02 -0.16859834502E+03  0.20242622464E+03  0.41800000000E+01 0. -1.
        -11    1    1    2    0    0  0.18620395786E+01  0.35842266654E+02  0.27908413630E+02  0.45464434690E+02  0.00000000000E+00 0.  1.
         11    1    1    2    0    0 -0.52737075008E+02  0.39416607629E+02 -0.48804785552E+02  0.81955934076E+02  0.00000000000E+00 0. -1.
</event>
<event>
 7    1  0.2594791E-009  0.8839971E+02  0.7561462E-02  0.1306774E+00
         -1   -1    0    0    0  501 -0.00000000000E+00  0.00000000000E+00  0.31227107879E+02  0.31227107879E+02  0.00000000000E+00 0.  1.
          1   -1    0    0  501    0  0.00000000000E+00 -0.00000000000E+00 -0.44133159836E+03  0.44133159836E+03  0.00000000000E+00 0. -1.
         25    2    1    2    0    0 -0.29303093362E+02  0.23919145920E+02 -0.29847724665E+03  0.32583227730E+03  0.12508880582E+03 0.  0.
          5    1    3    3  502    0  0.28322221348E+02  0.27971292387E+01 -0.93703918251E+01  0.30253079133E+02  0.41800000000E+01 0. -1.
         -5    1    3    3    0  502 -0.57625314710E+02  0.21122016681E+02 -0.28910685482E+03  0.29557919817E+03  0.41800000000E+01 0. -1.
        -11    1    1    2    0    0  0.53160117343E+02 -0.60982227023E+00 -0.96341708064E+02  0.11003678781E+03  0.00000000000E+00 0. -1.
         11    1    1    2    0    0 -0.23857023981E+02 -0.23309323650E+02 -0.15285535768E+02  0.36689641126E+02  0.00000000000E+00 0.  1.
</event>
<event>
 7    1  0.2594791E-009  0.1049249E+03  0.7561462E-02  0.1270268E+00
          1   -1    0    0  501    0  0.00000000000E+00  0.00000000000E+00  0.56995501803E+03  0.56995501803E+03  0.00000000000E+00 0. -1.
         -1   -1    0    0    0  501 -0.00000000000E+00 -0.00000000000E+00 -0.29818085699E+02  0.29818085699E+02  0.00000000000E+00 0.  1.
         25    2    1    2    0    0 -0.46334369157E+02  0.18306185847E+02  0.42630587487E+03  0.44706413537E+03  0.12509057510E+03 0.  0.
          5    1    3    3  502    0  0.36679176921E+01  0.51752501499E+02  0.32521363764E+03  0.32935263402E+03  0.41800000000E+01 0. -1.
         -5    1    3    3    0  502 -0.50002286849E+02 -0.33446315651E+02  0.10109223723E+03  0.11771150134E+03  0.41800000000E+01 0. -1.
        -11    1    1    2    0    0 -0.24526852533E+02 -0.97006081552E+00  0.11679900300E+02  0.27183222476E+02  0.00000000000E+00 0. -1.
         11    1    1    2    0    0  0.70861221690E+02 -0.17336125032E+02  0.10215115716E+03  0.12552574589E+03  0.00000000000E+00 0.  1.
</event>
<event>
 7    1  0.2594791E-009  0.1005664E+03  0.7561462E-02  0.1279109E+00
          4   -1    0    0  501    0  0.00000000000E+00  0.00000000000E+00  0.31276143218E+02  0.31276143218E+02  0.00000000000E+00 0. -1.
         -4   -1    0    0    0  501 -0.00000000000E+00 -0.00000000000E+00 -0.55127831698E+03  0.55127831698E+03  0.00000000000E+00 0.  1.
         25    2    1    2    0    0  0.14027963882E+02 -0.68146044760E+02 -0.34167697759E+03  0.37044791051E+03  0.12509128747E+03 0.  0.
          5    1    3    3  502    0  0.33162414970E+02 -0.11927190997E+02 -0.28834287605E+03  0.29051865727E+03  0.41800000000E+01 0.  1.
         -5    1    3    3    0  502 -0.19134451088E+02 -0.56218853763E+02 -0.53334101535E+02  0.79929253239E+02  0.41800000000E+01 0.  1.
        -11    1    1    2    0    0  0.31989001807E+02  0.13635247061E+02 -0.10139013417E+03  0.10718757160E+03  0.00000000000E+00 0.  1.
         11    1    1    2    0    0 -0.46016965689E+02  0.54510797699E+02 -0.76935062002E+02  0.10491897808E+03  0.00000000000E+00 0. -1.
</event>
<event>
 7    1  0.2594791E-009  0.1105857E+03  0.7561462E-02  0.1259489E+00
         -1   -1    0    0    0  501 -0.00000000000E+00  0.00000000000E+00  0.47835450297E+03  0.47835450297E+03  0.00000000000E+00 0.  1.
          1   -1    0    0  501    0  0.00000000000E+00 -0.00000000000E+00 -0.46577160290E+02  0.46577160290E+02  0.00000000000E+00 0. -1.
         25    2    1    2    0    0 -0.57798938250E+02 -0.52459410202E+02  0.11404347144E+03  0.18640404793E+03  0.12509136151E+03 0.  0.
          5    1    3    3  502    0 -0.54520417217E+02  0.39825271623E+01 -0.44923670061E+01  0.55009000876E+02  0.41800000000E+01 0. -1.
         -5    1    3    3    0  502 -0.32785210330E+01 -0.56441937364E+02  0.11853583845E+03  0.13139504705E+03  0.41800000000E+01 0. -1.
        -11    1    1    2    0    0  0.76788046053E+02  0.37360896926E+02  0.28663688610E+03  0.29908685211E+03  0.00000000000E+00 0. -1.
         11    1    1    2    0    0 -0.18989107804E+02  0.15098513276E+02  0.31096985141E+02  0.39440763218E+02  0.00000000000E+00 0.  1.
</event>
<event>
 7    1  0.2594791E-009  0.1579361E+03  0.7561462E-02  0.1191047E+00
         -1   -1    0    0    0  501 -0.00000000000E+00  0.00000000000E+00  0.16580222056E+03  0.16580222056E+03  0.00000000000E+00 0.  1.
          1   -1    0    0  501    0  0.00000000000E+00 -0.00000000000E+00 -0.19011666750E+03  0.19011666750E+03  0.00000000000E+00 0. -1.
         25    2    1    2    0    0  0.68572098235E+01 -0.13329799762E+03  0.26422680942E+02  0.18483094002E+03  0.12509572664E+03 0.  0.
          5    1    3    3  502    0  0.20117282746E+02 -0.15483807777E+03  0.29670863393E+02  0.15898857797E+03  0.41800000000E+01 0.  1.
         -5    1    3    3    0  502 -0.13260072922E+02  0.21540080150E+02 -0.32481824514E+01  0.25842362044E+02  0.41800000000E+01 0.  1.
        -11    1    1    2    0    0  0.25419080117E+01  0.70125651113E+02  0.22710566395E+02  0.73755257889E+02  0.00000000000E+00 0.  1.
         11    1    1    2    0    0 -0.93991178352E+01  0.63172346505E+02 -0.73447694277E+02  0.97332690159E+02  0.00000000000E+00 0. -1.
</event>
<event>
 7    1  0.2594791E-009  0.1966632E+03  0.7561462E-02  0.1152585E+00
          1   -1    0    0  501    0  0.00000000000E+00  0.00000000000E+00  0.14884401840E+03  0.14884401840E+03  0.00000000000E+00 0. -1.
         -1   -1    0    0    0  501 -0.00000000000E+00 -0.00000000000E+00 -0.28802192091E+03  0.28802192091E+03  0.00000000000E+00 0.  1.
         25    2    1    2    0    0 -0.17430317798E+03 -0.10644206581E+01 -0.55265517380E+02  0.22154680179E+03  0.12508388036E+03 0.  0.
          5    1    3    3  502    0 -0.15940273067E+03 -0.40428824469E+02 -0.18565274063E+02  0.16554716003E+03  0.41800000000E+01 0.  1.
         -5    1    3    3    0  502 -0.14900447305E+02  0.39364403811E+02 -0.36700243317E+02  0.55999641756E+02  0.41800000000E+01 0.  1.
        -11    1    1    2    0    0  0.13656011616E+03 -0.27364035463E+02 -0.92636116358E+02  0.16726896250E+03  0.00000000000E+00 0.  1.
         11    1    1    2    0    0  0.37743061815E+02  0.28428456121E+02  0.87237312236E+01  0.48050175016E+02  0.00000000000E+00 0. -1.
</event>
<event>
 7    1  0.2594791E-009  0.6395248E+02  0.7561462E-02  0.1381956E+00
          1   -1    0    0  501    0  0.00000000000E+00  0.00000000000E+00  0.10219426237E+04  0.10219426237E+04  0.00000000000E+00 0. -1.
         -1   -1    0    0    0  501 -0.00000000000E+00 -0.00000000000E+00 -0.13480402294E+02  0.13480402294E+02  0.00000000000E+00 0.  1.
         25    2    1    2    0    0 -0.37317168375E+01  0.23703670493E+02  0.74964134746E+03  0.76038434601E+03  0.12508562720E+03 0.  0.
          5    1    3    3  502    0  0.23724094723E+02  0.18850392722E+02  0.71529521782E+03  0.71594894442E+03  0.41800000000E+01 0. -1.
         -5    1    3    3    0  502 -0.27455811561E+02  0.48532777708E+01  0.34346129638E+02  0.44435401593E+02  0.41800000000E+01 0. -1.
        -11    1    1    2    0    0  0.33762772167E+02 -0.18954171173E+02  0.22969231893E+03  0.23293292332E+03  0.00000000000E+00 0. -1.
         11    1    1    2    0    0 -0.30031055329E+02 -0.47494993195E+01  0.29128555047E+02  0.42105756698E+02  0.00000000000E+00 0.  1.
</event>
<event>
 7    1  0.2594791E-009  0.1041727E+03  0.7561462E-02  0.1271758E+00
          2   -1    0    0  501    0  0.00000000000E+00  0.00000000000E+00  0.38694772232E+03  0.38694772232E+03  0.00000000000E+00 0. -1.
         -2   -1    0    0    0  501 -0.00000000000E+00 -0.00000000000E+00 -0.38388793997E+02  0.38388793997E+02  0.00000000000E+00 0.  1.
         25    2    1    2    0    0 -0.33131836200E+02 -0.58738119086E+01  0.27145532638E+03  0.30077692248E+03  0.12508614089E+03 0.  0.
          5    1    3    3  502    0 -0.65490631120E+02  0.33649072787E+02  0.19731867322E+03  0.21064997998E+03  0.41800000000E+01 0.  1.
         -5    1    3    3    0  502  0.32358794919E+02 -0.39522884696E+02  0.74136653159E+02  0.90126942503E+02  0.41800000000E+01 0.  1.
        -11    1    1    2    0    0  0.54578879432E+02 -0.11462328064E+02  0.16792901782E+02  0.58242944594E+02  0.00000000000E+00 0.  1.
         11    1    1    2    0    0 -0.21447043232E+02  0.17336139973E+02  0.60310700162E+02  0.66316649242E+02  0.00000000000E+00 0. -1.
</event>
<event>
 7    1  0.2594791E-009  0.1357022E+03  0.7561462E-02  0.1219232E+00
         -1   -1    0    0    0  501 -0.00000000000E+00  0.00000000000E+00  0.65287483414E+02  0.65287483414E+02  0.00000000000E+00 0. -1.
          1   -1    0    0  501    0  0.00000000000E+00 -0.00000000000E+00 -0.35770847760E+03  0.35770847760E+03  0.00000000000E+00 0.  1.
         25    2    1    2    0    0 -0.74132070825E+02  0.66791953811E+02 -0.21511704636E+03  0.26810542506E+03  0.12509375001E+03 0.  0.
          5    1    3    3  502    0 -0.98197662015E+02  0.23231492389E+02 -0.18211603494E+03  0.20824554172E+03  0.41800000000E+01 0. -1.
         -5    1    3    3    0  502  0.24065591191E+02  0.43560461422E+02 -0.33001011424E+02  0.59859883341E+02  0.41800000000E+01 0. -1.
        -11    1    1    2    0    0  0.73300884215E+01  0.13899022257E+02  0.99145333217E+01  0.18579854331E+02  0.00000000000E+00 0. -1.
         11    1    1    2    0    0  0.66801982403E+02 -0.80690976068E+02 -0.87218481152E+02  0.13631068163E+03  0.00000000000E+00 0.  1.
</event>
<event>
 7    1  0.2594791E-009  0.1582928E+03  0.7561462E-02  0.1190638E+00
          1   -1    0    0  501    0  0.00000000000E+00  0.00000000000E+00  0.11832774109E+03  0.11832774109E+03  0.00000000000E+00 0. -1.
         -1   -1    0    0    0  501 -0.00000000000E+00 -0.00000000000E+00 -0.98482472989E+03  0.98482472989E+03  0.00000000000E+00 0.  1.
         25    2    1    2    0    0 -0.10842770308E+03  0.80920604491E+02 -0.91458256435E+03  0.93296001110E+03  0.12509358207E+03 0.  0.
          5    1    3    3  502    0 -0.38435857519E+02  0.75565861776E+02 -0.73838951979E+03  0.74325235953E+03  0.41800000000E+01 0.  1.
         -5    1    3    3    0  502 -0.69991845556E+02  0.53547427151E+01 -0.17619304456E+03  0.18970765157E+03  0.41800000000E+01 0.  1.
        -11    1    1    2    0    0  0.72764064356E+02  0.20461014089E+00  0.34536076641E+02  0.80544345032E+02  0.00000000000E+00 0. -1.
         11    1    1    2    0    0  0.35663638719E+02 -0.81125214632E+02  0.13549498909E+02  0.89648114852E+02  0.00000000000E+00 0.  1.
</event>
<event>
 7    1  0.2594791E-009  0.1024189E+03  0.7561462E-02  0.1275290E+00
         -2   -1    0    0    0  501 -0.00000000000E+00  0.00000000000E+00  0.75269242205E+02  0.75269242205E+02  0.00000000000E+00 0.  1.
          2   -1    0    0  501    0  0.00000000000E+00 -0.00000000000E+00 -0.19625718815E+03  0.19625718815E+03  0.00000000000E+00 0. -1.
         25    2    1    2    0    0  0.19375063661E+02  0.22418086380E+02 -0.17316623396E+02  0.12970717019E+03  0.12508445492E+03 0.  0.
          5    1    3    3  502    0  0.66732858806E+02  0.30781331422E+02 -0.30484531461E+02  0.79671474613E+02  0.41800000000E+01 0. -1.
         -5    1    3    3    0  502 -0.47357795146E+02 -0.83632450425E+01  0.13167908066E+02  0.50035695574E+02  0.41800000000E+01 0. -1.
        -11    1    1    2    0    0 -0.45351162024E+02 -0.31744726551E+02 -0.29602752283E+02  0.62775620295E+02  0.00000000000E+00 0.  1.
         11    1    1    2    0    0  0.25976098363E+02  0.93266401708E+01 -0.74068570263E+02  0.79043639870E+02  0.00000000000E+00 0. -1.
</event>
<event>
 7    1  0.2594791E-009  0.1089532E+03  0.7561462E-02  0.1262521E+00
         -1   -1    0    0    0  501 -0.00000000000E+00  0.00000000000E+00  0.48266360421E+02  0.48266360421E+02  0.00000000000E+00 0.  1.
          1   -1    0    0  501    0  0.00000000000E+00 -0.00000000000E+00 -0.28330411692E+03  0.28330411692E+03  0.00000000000E+00 0. -1.
         25    2    1    2    0    0  0.79976654700E+01 -0.31631270910E+02 -0.88178244483E+02  0.15648483863E+03  0.12509037521E+03 0.  0.
          5    1    3    3  502    0  0.65282273902E+02 -0.96064339447E+01 -0.33212988778E+02  0.73990768900E+02  0.41800000000E+01 0.  1.
         -5    1    3    3    0  502 -0.57284608432E+02 -0.22024836965E+02 -0.54965255706E+02  0.82494069734E+02  0.41800000000E+01 0.  1.
        -11    1    1    2    0    0 -0.29861960079E+02  0.52275416912E+02 -0.12209283249E+03  0.13612904032E+03  0.00000000000E+00 0. -1.
         11    1    1    2    0    0  0.21864294609E+02 -0.20644146002E+02 -0.24766679520E+02  0.38956598380E+02  0.00000000000E+00 0.  1.
</event>
<event>
 7    1  0.2594791E-009  0.9787995E+02  0.7561462E-02  0.1284818E+00
          1   -1    0    0  501    0  0.00000000000E+00  0.00000000000E+00  0.44790485082E+03  0.44790485082E+03  0.00000000000E+00 0. -1.
         -1   -1    0    0    0  501 -0.00000000000E+00 -0.00000000000E+00 -0.28038483989E+02  0.28038483989E+02  0.00000000000E+00 0.  1.
         25    2    1    2    0    0  0.24706361755E+02 -0.13086015120E+02  0.21892249390E+03  0.25368464113E+03  0.12508873132E+03 0.  0.
          5    1    3    3  502    0  0.74341264920E+02  0.43020480820E+01  0.14221200272E+03  0.16058286772E+03  0.41800000000E+01 0. -1.
         -5    1    3    3    0  502 -0.49634903164E+02 -0.17388063203E+02  0.76710491179E+02  0.93101773404E+02  0.41800000000E+01 0. -1.
        -11    1    1    2    0    0 -0.26784348082E+02 -0.21144835123E+02  0.23265880309E+02  0.41301410886E+02  0.00000000000E+00 0.  1.
         11    1    1    2    0    0  0.20779863270E+01  0.34230850244E+02  0.17767799262E+03  0.18095728280E+03  0.00000000000E+00 0. -1.
</event>
<event>
 7    1  0.2594791E-009  0.2888244E+03  0.7561462E-02  0.1090965E+00
         -1   -1    0    0    0  501 -0.00000000000E+00  0.00000000000E+00  0.66716288030E+02  0.66716288030E+02  0.00000000000E+00 0.  1.
          1   -1    0    0  501    0  0.00000000000E+00 -0.00000000000E+00 -0.14313115579E+04  0.14313115579E+04  0.00000000000E+00 0. -1.
         25    2    1    2    0    0  0.28009598756E+03  0.42207393550E+02 -0.83539675309E+03  0.89093825113E+03  0.12509198990E+03 0.  0.
          5    1    3    3  502    0  0.90215693816E+02  0.43419196468E+02 -0.15533900704E+03  0.18485609955E+03  0.41800000000E+01 0.  1.
         -5    1    3    3    0  502  0.18988029374E+03 -0.12118029184E+01 -0.68005774605E+03  0.70608215158E+03  0.41800000000E+01 0.  1.
        -11    1    1    2    0    0 -0.18474714238E+03 -0.39957252390E+01 -0.41011490507E+03  0.44982408539E+03  0.00000000000E+00 0. -1.
         11    1    1    2    0    0 -0.95348845175E+02 -0.38211668311E+02 -0.11908361170E+03  0.15726550940E+03  0.00000000000E+00 0.  1.
</event>
<event>
 7    1  0.2594791E-009  0.1037691E+03  0.7561462E-02  0.1272564E+00
         -2   -1    0    0    0  501 -0.00000000000E+00  0.00000000000E+00  0.29208905103E+02  0.29208905103E+02  0.00000000000E+00 0.  1.
          2   -1    0    0  501    0  0.00000000000E+00 -0.00000000000E+00 -0.43471800835E+03  0.43471800835E+03  0.00000000000E+00 0. -1.
         25    2    1    2    0    0  0.23288712346E+02  0.15421295536E+02 -0.23940902115E+03  0.27155663898E+03  0.12508456454E+03 0.  0.
          5    1    3    3  502    0  0.53972515292E+02  0.45745927684E+02 -0.20278157810E+03  0.21481052843E+03  0.41800000000E+01 0.  1.
         -5    1    3    3    0  502 -0.30683802946E+02 -0.30324632148E+02 -0.36627443052E+02  0.56746110551E+02  0.41800000000E+01 0.  1.
        -11    1    1    2    0    0  0.29509985077E+02  0.14235110181E+02 -0.34903640651E+02  0.47872139203E+02  0.00000000000E+00 0.  1.
         11    1    1    2    0    0 -0.52798697423E+02 -0.29656405717E+02 -0.13119644145E+03  0.14449813528E+03  0.00000000000E+00 0. -1.
</event>
<event>
 7    1  0.2594791E-009  0.1094078E+03  0.7561462E-02  0.1261670E+00
          3   -1    0    0  501    0  0.00000000000E+00  0.00000000000E+00  0.32070783816E+03  0.32070783816E+03  0.00000000000E+00 0. -1.
         -3   -1    0    0    0  501 -0.00000000000E+00 -0.00000000000E+00 -0.49749280647E+02  0.49749280647E+02  0.00000000000E+00 0.  1.
         25    2    1    2    0    0 -0.60717553698E+02  0.11090979441E+02  0.15638001306E+03  0.20955101536E+03  0.12508912184E+03 0.  0.
          5    1    3    3  502    0  0.12686450046E+02  0.28839548528E+02  0.12271205845E+03  0.12676114256E+03  0.41800000000E+01 0.  1.
         -5    1    3    3    0  502 -0.73404003744E+02 -0.17748569087E+02  0.33667954604E+02  0.82789872796E+02  0.41800000000E+01 0.  1.
        -11    1    1    2    0    0  0.21344506883E+02  0.40927438746E+02  0.34560247869E+02  0.57663280770E+02  0.00000000000E+00 0.  1.
         11    1    1    2    0    0  0.39373046815E+02 -0.52018418187E+02  0.80018296588E+02  0.10324282268E+03  0.00000000000E+00 0. -1.
</event>
<event>
 7    1  0.2594791E-009  0.2316132E+02  0.7561462E-02  0.1688908E+00
          1   -1    0    0  501    0  0.00000000000E+00  0.00000000000E+00  0.16825016348E+03  0.16825016348E+03  0.00000000000E+00 0. -1.
         -1   -1    0    0    0  501 -0.00000000000E+00 -0.00000000000E+00 -0.78959449920E+02  0.78959449920E+02  0.00000000000E+00 0.  1.
         25    2    1    2    0    0 -0.11725051289E+02  0.13927474592E+00  0.12982983448E+02  0.12630566215E+03  0.12508823369E+03 0.  0.
          5    1    3    3  502    0 -0.18128470812E+01 -0.17887222923E+01  0.69029859574E+02  0.69203178069E+02  0.41800000000E+01 0.  1.
         -5    1    3    3    0  502 -0.99122042073E+01  0.19279970382E+01 -0.56046876126E+02  0.57102484082E+02  0.41800000000E+01 0.  1.
        -11    1    1    2    0    0 -0.45260545979E+01 -0.10356906667E+02 -0.19853498644E+02  0.22845395474E+02  0.00000000000E+00 0.  1.
         11    1    1    2    0    0  0.16251105886E+02  0.10217631921E+02  0.96161228755E+02  0.98058555773E+02  0.00000000000E+00 0. -1.
</event>
<event>
 7    1  0.2594791E-009  0.8491530E+02  0.7561462E-02  0.1315654E+00
          2   -1    0    0  501    0  0.00000000000E+00  0.00000000000E+00  0.77659208900E+03  0.77659208900E+03  0.00000000000E+00 0. -1.
         -2   -1    0    0    0  501 -0.00000000000E+00 -0.00000000000E+00 -0.18575511186E+02  0.18575511186E+02  0.00000000000E+00 0.  1.
         25    2    1    2    0    0  0.39499362774E+01  0.49045396169E+02  0.37718044743E+03  0.40041371922E+03  0.12507998936E+03 0.  0.
          5    1    3    3  502    0 -0.10776209872E+02  0.50098909079E+02  0.46335917113E+02  0.69213560844E+02  0.41800000000E+01 0. -1.
         -5    1    3    3    0  502  0.14726146150E+02 -0.10535129096E+01  0.33084453032E+03  0.33120015838E+03  0.41800000000E+01 0. -1.
        -11    1    1    2    0    0 -0.18328239717E+02  0.23111019935E+02  0.87795717518E+02  0.92618203546E+02  0.00000000000E+00 0. -1.
         11    1    1    2    0    0  0.14378303440E+02 -0.72156416104E+02  0.29304041286E+03  0.30213567741E+03  0.00000000000E+00 0.  1.
</event>
<event>
 7    1  0.3091338E-009  0.1258919E+03  0.7561462E-02  0.1233682E+00
          1   -1    0    0  501    0  0.00000000000E+00  0.00000000000E+00  0.87773428678E+02  0.87773428678E+02  0.00000000000E+00 0. -1.
         -1   -1    0    0    0  501 -0.00000000000E+00 -0.00000000000E+00 -0.31249575378E+03  0.31249575378E+03  0.00000000000E+00 0.  1.
         25    2    1    2    0    0  0.91591993851E+02 -0.69484436484E+02 -0.62106209053E+02  0.18089072045E+03  0.12508833395E+03 0.  0.
          5    1    3    3  502    0  0.73483004396E+02 -0.97905441383E+01 -0.86306467200E+02  0.11385027611E+03  0.41800000000E+01 0.  1.
         -5    1    3    3    0  502  0.18108989455E+02 -0.59693892346E+02  0.24200258147E+02  0.67040444337E+02  0.41800000000E+01 0.  1.
        -11    1    1    2    0    0 -0.62931785760E+02  0.45798734019E+02 -0.16467329917E+03  0.18214068507E+03  0.00000000000E+00 0.  1.
         11    1    1    2    0    0 -0.28660208091E+02  0.23685702465E+02  0.20571831267E+01  0.37237776941E+02  0.00000000000E+00 0. -1.
</event>
<event>
 7    1  0.2594791E-009  0.1147883E+03  0.7561462E-02  0.1251951E+00
         -2   -1    0    0    0  501 -0.00000000000E+00  0.00000000000E+00  0.57494323545E+03  0.57494323545E+03  0.00000000000E+00 0. -1.
          2   -1    0    0  501    0  0.00000000000E+00 -0.00000000000E+00 -0.29447830764E+02  0.29447830764E+02  0.00000000000E+00 0.  1.
         25    2    1    2    0    0  0.56193743726E+02 -0.40481097975E+02  0.34135770831E+03  0.37009287768E+03  0.12508875632E+03 0.  0.
          5    1    3    3  502    0  0.83063499244E+02 -0.74177008493E+01  0.29672090962E+03  0.30824558033E+03  0.41800000000E+01 0. -1.
         -5    1    3    3    0  502 -0.26869755518E+02 -0.33063397125E+02  0.44636798695E+02  0.61847297344E+02  0.41800000000E+01 0. -1.
        -11    1    1    2    0    0 -0.74132194645E+02  0.21578261340E+02  0.96683441123E+02  0.12372910503E+03  0.00000000000E+00 0.  1.
         11    1    1    2    0    0  0.17938450919E+02  0.18902836635E+02  0.10745425526E+03  0.11056908350E+03  0.00000000000E+00 0. -1.
</event>
<event>
 7    1  0.2594791E-009  0.1703555E+03  0.7561462E-02  0.1177478E+00
         -1   -1    0    0    0  501 -0.00000000000E+00  0.00000000000E+00  0.28839272316E+03  0.28839272316E+03  0.00000000000E+00 0.  1.
          1   -1    0    0  501    0  0.00000000000E+00 -0.00000000000E+00 -0.11098740069E+03  0.11098740069E+03  0.00000000000E+00 0. -1.
         25    2    1    2    0    0 -0.34206475438E+02 -0.13680806747E+03  0.10809183865E+03  0.21729680274E+03  0.12509006600E+03 0.  0.
          5    1    3    3  502    0 -0.42122325440E+02 -0.15277375852E+03  0.66607661339E+02  0.17195396053E+03  0.41800000000E+01 0.  1.
         -5    1    3    3    0  502  0.79158500019E+01  0.15965691056E+02  0.41484177314E+02  0.45342842209E+02  0.41800000000E+01 0.  1.
        -11    1    1    2    0    0 -0.27895159174E+02  0.47847512944E+02  0.43851137084E+02  0.70643093249E+02  0.00000000000E+00 0.  1.
         11    1    1    2    0    0  0.62101634612E+02  0.88960554524E+02  0.25462346737E+02  0.11144022785E+03  0.00000000000E+00 0. -1.
</event>
<event>
 7    1  0.2594791E-009  0.1412848E+03  0.7561462E-02  0.1211611E+00
         -1   -1    0    0    0  501 -0.00000000000E+00  0.00000000000E+00  0.41855017111E+03  0.41855017111E+03  0.00000000000E+00 0.  1.
          1   -1    0    0  501    0  0.00000000000E+00 -0.00000000000E+00 -0.99036017903E+02  0.99036017903E+02  0.00000000000E+00 0. -1.
         25    2    1    2    0    0  0.53329111463E+02  0.97724084470E+02  0.33357736014E+03  0.37325129905E+03  0.12509470906E+03 0.  0.
          5    1    3    3  502    0  0.56431804317E+02 -0.42325762991E+01  0.67037105982E+02  0.87828863246E+02  0.41800000000E+01 0. -1.
         -5    1    3    3    0  502 -0.31026928543E+01  0.10195666077E+03  0.26654025415E+03  0.28542243581E+03  0.41800000000E+01 0. -1.
        -11    1    1    2    0    0 -0.41685298561E+02 -0.10287783388E+03  0.15563150278E+02  0.11208802106E+03  0.00000000000E+00 0.  1.
         11    1    1    2    0    0 -0.11643812902E+02  0.51537494082E+01 -0.29626357210E+02  0.32246868892E+02  0.00000000000E+00 0. -1.
</event>
<event>
 7    1  0.2594791E-009  0.1646168E+03  0.7561462E-02  0.1183581E+00
          3   -1    0    0  501    0  0.00000000000E+00  0.00000000000E+00  0.60279843157E+02  0.60279843157E+02  0.00000000000E+00 0. -1.
         -3   -1    0    0    0  501 -0.00000000000E+00 -0.00000000000E+00 -0.49383952258E+03  0.49383952258E+03  0.00000000000E+00 0.  1.
         25    2    1    2    0    0  0.11153649413E+03 -0.71606689488E+02 -0.19692581708E+03  0.26831873180E+03  0.12508899592E+03 0.  0.
          5    1    3    3  502    0  0.44298309012E+02 -0.99762010517E+02 -0.11833767764E+03  0.16104681702E+03  0.41800000000E+01 0.  1.
         -5    1    3    3    0  502  0.67238185115E+02  0.28155321029E+02 -0.78588139442E+02  0.10727191478E+03  0.41800000000E+01 0.  1.
        -11    1    1    2    0    0 -0.95569113921E+02  0.26560447218E+02 -0.99157276962E+02  0.14025362194E+03  0.00000000000E+00 0.  1.
         11    1    1    2    0    0 -0.15967380206E+02  0.45046242270E+02 -0.13747658538E+03  0.14554701200E+03  0.00000000000E+00 0. -1.
</event>
<event>
 7    1  0.2594791E-009  0.8047732E+02  0.7561462E-02  0.1327702E+00
          2   -1    0    0  501    0  0.00000000000E+00  0.00000000000E+00  0.27957775967E+03  0.27957775967E+03  0.00000000000E+00 0. -1.
         -2   -1    0    0    0  501 -0.00000000000E+00 -0.00000000000E+00 -0.63619305162E+02  0.63619305162E+02  0.00000000000E+00 0.  1.
         25    2    1    2    0    0  0.36495362512E+02 -0.42462417532E+02  0.51123468842E+02  0.14627923675E+03  0.12509611365E+03 0.  0.
          5    1    3    3  502    0  0.34163989525E+02 -0.21224812807E+02  0.91706418041E+02  0.10022579692E+03  0.41800000000E+01 0.  1.
         -5    1    3    3    0  502  0.23313729868E+01 -0.21237604725E+02 -0.40582949199E+02  0.46053439830E+02  0.41800000000E+01 0.  1.
        -11    1    1    2    0    0  0.23444090448E+02 -0.28378857725E+01  0.11721917950E+02  0.26364414141E+02  0.00000000000E+00 0.  1.
         11    1    1    2    0    0 -0.59939452960E+02  0.45300303304E+02  0.15311306771E+03  0.17055341393E+03  0.00000000000E+00 0. -1.
</event>
<event>
 7    1  0.2594791E-009  0.1362877E+03  0.7561462E-02  0.1218413E+00
          2   -1    0    0  501    0  0.00000000000E+00  0.00000000000E+00  0.69950195128E+03  0.69950195128E+03  0.00000000000E+00 0. -1.
         -2   -1    0    0    0  501 -0.00000000000E+00 -0.00000000000E+00 -0.31937523129E+02  0.31937523129E+02  0.00000000000E+00 0.  1.
         25    2    1    2    0    0 -0.36849138704E+02 -0.86803634879E+02  0.44937448801E+03  0.47589709519E+03  0.12509150524E+03 0.  0.
          5    1    3    3  502    0  0.34457137879E+02  0.10042923665E+02  0.94367637568E+02  0.10104888959E+03  0.41800000000E+01 0.  1.
         -5    1    3    3    0  502 -0.71306276583E+02 -0.96846558544E+02  0.35500685044E+03  0.37484820560E+03  0.41800000000E+01 0.  1.
        -11    1    1    2    0    0 -0.13961785150E+02  0.53640606953E+02  0.16765016406E+03  0.17657526347E+03  0.00000000000E+00 0. -1.
         11    1    1    2    0    0  0.50810923854E+02  0.33163027927E+02  0.50539776081E+02  0.78967115754E+02  0.00000000000E+00 0.  1.
</event>
<event>
 7    1  0.2594791E-009  0.1381379E+03  0.7561462E-02  0.1215857E+00
         -1   -1    0    0    0  501 -0.00000000000E+00  0.00000000000E+00  0.27979275352E+03  0.27979275352E+03  0.00000000000E+00 0.  1.
          1   -1    0    0  501    0  0.00000000000E+00 -0.00000000000E+00 -0.76221692824E+02  0.76221692824E+02  0.00000000000E+00 0. -1.
         25    2    1    2    0    0  0.90874568419E+02 -0.15154816706E+02  0.14841847774E+03  0.21485646884E+03  0.12508957596E+03 0.  0.
          5    1    3    3  502    0  0.90970879613E+02  0.35755273118E+02  0.12480559790E+03  0.15858136764E+03  0.41800000000E+01 0.  1.
         -5    1    3    3    0  502 -0.96311193941E-01 -0.50910089824E+02  0.23612879836E+02  0.56275101207E+02  0.41800000000E+01 0.  1.
        -11    1    1    2    0    0  0.17424940565E+02 -0.25892446466E+01  0.18277158700E+02  0.25384784255E+02  0.00000000000E+00 0.  1.
         11    1    1    2    0    0 -0.10829950898E+03  0.17744061353E+02  0.36875424253E+02  0.11577319324E+03  0.00000000000E+00 0. -1.
</event>
<event>
 7    1  0.2594791E-009  0.1029842E+03  0.7561462E-02  0.1274143E+00
         -2   -1    0    0    0  501 -0.00000000000E+00  0.00000000000E+00  0.16343172346E+02  0.16343172346E+02  0.00000000000E+00 0.  1.
          2   -1    0    0  501    0  0.00000000000E+00 -0.00000000000E+00 -0.11957966524E+04  0.11957966524E+04  0.00000000000E+00 0. -1.
         25    2    1    2    0    0  0.25033940351E+01  0.76871396392E+02 -0.79146118735E+03  0.80496777984E+03  0.12508731724E+03 0.  0.
          5    1    3    3  502    0 -0.13111061696E+02  0.40492481985E+02 -0.67466819114E+02  0.79879816709E+02  0.41800000000E+01 0.  1.
         -5    1    3    3    0  502  0.15614455731E+02  0.36378914407E+02 -0.72399436823E+03  0.72508796313E+03  0.41800000000E+01 0.  1.
        -11    1    1    2    0    0 -0.64198241359E+01 -0.99863552107E+02 -0.30797002638E+03  0.32382013577E+03  0.00000000000E+00 0. -1.
         11    1    1    2    0    0  0.39164301008E+01  0.22992155715E+02 -0.80022266350E+02  0.83351909162E+02  0.00000000000E+00 0.  1.
</event>
<event>
 7    1  0.2594791E-009  0.9353474E+02  0.7561462E-02  0.1294511E+00
          1   -1    0    0  501    0  0.00000000000E+00  0.00000000000E+00  0.16503897038E+03  0.16503897038E+03  0.00000000000E+00 0. -1.
         -1   -1    0    0    0  501 -0.00000000000E+00 -0.00000000000E+00 -0.91955332776E+02  0.91955332776E+02  0.00000000000E+00 0.  1.
         25    2    1    2    0    0  0.51196895791E+02 -0.30408861334E+02  0.36934851527E+02  0.14337921327E+03  0.12509034557E+03 0.  0.
          5    1    3    3  502    0 -0.32695061040E+02  0.62545950425E+00 -0.18755023108E+02  0.37928637041E+02  0.41800000000E+01 0. -1.
         -5    1    3    3    0  502  0.83891956831E+02 -0.31034320838E+02  0.55689874635E+02  0.10545057623E+03  0.41800000000E+01 0. -1.
        -11    1    1    2    0    0 -0.42738862349E+01  0.14332112881E+02 -0.28467213261E+02  0.32156769023E+02  0.00000000000E+00 0.  1.
         11    1    1    2    0    0 -0.46923009556E+02  0.16076748453E+02  0.64615999335E+02  0.81458320856E+02  0.00000000000E+00 0. -1.
</event>
<event>
 7    1  0.2594791E-009  0.1100251E+03  0.7561462E-02  0.1260523E+00
         -2   -1    0    0    0  501 -0.00000000000E+00  0.00000000000E+00  0.23393633289E+03  0.23393633289E+03  0.00000000000E+00 0.  1.
          2   -1    0    0  501    0  0.00000000000E+00 -0.00000000000E+00 -0.83192030900E+02  0.83192030900E+02  0.00000000000E+00 0. -1.
         25    2    1    2    0    0  0.22092323157E+02 -0.56795355791E+02  0.11205679272E+02  0.13960545991E+03  0.12510129498E+03 0.  0.
          5    1    3    3  502    0  0.36293285751E+02 -0.92944638887E+02  0.44757160663E+01  0.99967059188E+02  0.41800000000E+01 0. -1.
         -5    1    3    3    0  502 -0.14200962594E+02  0.36149283097E+02  0.67299632055E+01  0.39638400721E+02  0.41800000000E+01 0. -1.
        -11    1    1    2    0    0 -0.37649898968E+02  0.23532505222E+02  0.13301140520E+03  0.14022598763E+03  0.00000000000E+00 0.  1.
         11    1    1    2    0    0  0.15557575811E+02  0.33262850568E+02  0.65272175195E+01  0.37296916248E+02  0.00000000000E+00 0. -1.
</event>
<event>
 7    1  0.2594791E-009  0.1259632E+03  0.7561462E-02  0.1233572E+00
         -2   -1    0    0    0  501 -0.00000000000E+00  0.00000000000E+00  0.58567415697E+02  0.58567415697E+02  0.00000000000E+00 0.  1.
          2   -1    0    0  501    0  0.00000000000E+00 -0.00000000000E+00 -0.34819055701E+03  0.34819055701E+03  0.00000000000E+00 0. -1.
         25    2    1    2    0    0 -0.60985903644E+02 -0.46025193963E+02 -0.24045454169E+03  0.28161347107E+03  0.12510060569E+03 0.  0.
          5    1    3    3  502    0  0.30523342324E+02 -0.39883183779E+02 -0.12004753531E+03  0.13019687365E+03  0.41800000000E+01 0. -1.
         -5    1    3    3    0  502 -0.91509245968E+02 -0.61420101833E+01 -0.12040700638E+03  0.15141659741E+03  0.41800000000E+01 0. -1.
        -11    1    1    2    0    0  0.70704506867E+02  0.88041343964E+01 -0.49355205452E+02  0.86675119723E+02  0.00000000000E+00 0. -1.
         11    1    1    2    0    0 -0.97186032223E+01  0.37221059566E+02  0.18660582375E+00  0.38469381923E+02  0.00000000000E+00 0.  1.
</event>
<event>
 7    1  0.2594791E-009  0.1264568E+03  0.7561462E-02  0.1232810E+00
          1   -1    0    0  501    0  0.00000000000E+00  0.00000000000E+00  0.66176572390E+03  0.66176572390E+03  0.00000000000E+00 0. -1.
         -1   -1    0    0    0  501 -0.00000000000E+00 -0.00000000000E+00 -0.34096945219E+02  0.34096945219E+02  0.00000000000E+00 0.  1.
         25    2    1    2    0    0 -0.69477688002E+02 -0.55472859509E+02  0.45807522456E+03  0.48310031478E+03  0.12509442640E+03 0.  0.
          5    1    3    3  502    0 -0.81266429903E+02  0.17796706864E+01  0.35793705558E+03  0.36707466272E+03  0.41800000000E+01 0. -1.
         -5    1    3    3    0  502  0.11788741901E+02 -0.57252530195E+02  0.10013816898E+03  0.11602565206E+03  0.41800000000E+01 0. -1.
        -11    1    1    2    0    0  0.19552396371E+01 -0.15111281904E+02 -0.19461752766E+01  0.15361035155E+02  0.00000000000E+00 0.  1.
         11    1    1    2    0    0  0.67522448365E+02  0.70584141412E+02  0.17153972940E+03  0.19740131919E+03  0.00000000000E+00 0. -1.
</event>
<event>
 7    1  0.2594791E-009  0.1021822E+03  0.7561462E-02  0.1275773E+00
          2   -1    0    0  501    0  0.00000000000E+00  0.00000000000E+00  0.76872940467E+03  0.76872940467E+03  0.00000000000E+00 0. -1.
         -2   -1    0    0    0  501 -0.00000000000E+00 -0.00000000000E+00 -0.14437327239E+02  0.14437327239E+02  0.00000000000E+00 0.  1.
         25    2    1    2    0    0  0.19830567123E+01  0.31187915702E+02  0.48210701720E+03  0.49905066729E+03  0.12509106240E+03 0.  0.
          5    1    3    3  502    0 -0.58240943540E+02  0.27839528744E+02  0.30871453711E+03  0.31541906203E+03  0.41800000000E+01 0.  1.
         -5    1    3    3    0  502  0.60224000252E+02  0.33483869581E+01  0.17339248009E+03  0.18363160527E+03  0.41800000000E+01 0.  1.
        -11    1    1    2    0    0 -0.21788955723E+02  0.16660953895E+02  0.12819926280E+03  0.13110071303E+03  0.00000000000E+00 0. -1.
         11    1    1    2    0    0  0.19805899011E+02 -0.47848869597E+02  0.14398579743E+03  0.15301535158E+03  0.00000000000E+00 0.  1.
</event>
<event>
 7    1  0.2594791E-009  0.2528096E+03  0.7561462E-02  0.1111542E+00
          1   -1    0    0  501    0  0.00000000000E+00  0.00000000000E+00  0.25411289366E+03  0.25411289366E+03  0.00000000000E+00 0. -1.
         -1   -1    0    0    0  501 -0.00000000000E+00 -0.00000000000E+00 -0.27964368075E+03  0.27964368075E+03  0.00000000000E+00 0.  1.
         25    2    1    2    0    0 -0.14519182975E+03 -0.18559556212E+03  0.49399204657E+02  0.27131878060E+03  0.12508884515E+03 0.  0.
          5    1    3    3  502    0 -0.15617961954E+03 -0.19581853669E+03  0.41752190957E+02  0.25396395555E+03  0.41800000000E+01 0. -1.
         -5    1    3    3    0  502  0.10987789791E+02  0.10222974578E+02  0.76470137006E+01  0.17354825042E+02  0.41800000000E+01 0. -1.
        -11    1    1    2    0    0  0.11342099553E+03  0.11213385005E+03 -0.86706007261E+02  0.18153857509E+03  0.00000000000E+00 0.  1.
         11    1    1    2    0    0  0.31770834220E+02  0.73461712069E+02  0.11776015517E+02  0.80899218714E+02  0.00000000000E+00 0. -1.
</event>
<event>
 7    1  0.2594791E-009  0.1145153E+03  0.7561462E-02  0.1252430E+00
         -1   -1    0    0    0  501 -0.00000000000E+00  0.00000000000E+00  0.41854082002E+02  0.41854082002E+02  0.00000000000E+00 0.  1.
          1   -1    0    0  501    0  0.00000000000E+00 -0.00000000000E+00 -0.48911342225E+03  0.48911342225E+03  0.00000000000E+00 0. -1.
         25    2    1    2    0    0 -0.86356796288E+02 -0.20633879037E+02 -0.29723686664E+03  0.33449920009E+03  0.12512676269E+03 0.  0.
          5    1    3    3  502    0  0.85075354533E+01 -0.24872926840E+02 -0.48574557391E+01  0.27057492961E+02  0.41800000000E+01 0. -1.
         -5    1    3    3    0  502 -0.94864331741E+02  0.42390478035E+01 -0.29237941090E+03  0.30744170712E+03  0.41800000000E+01 0. -1.
        -11    1    1    2    0    0  0.66108680941E+02  0.41684608406E+02 -0.51228019003E+02  0.93446638274E+02  0.00000000000E+00 0. -1.
         11    1    1    2    0    0  0.20248115346E+02 -0.21050729369E+02 -0.98794454610E+02  0.10302166589E+03  0.00000000000E+00 0.  1.
</event>
<event>
 7    1  0.2594791E-009  0.1321623E+03  0.7561462E-02  0.1224282E+00
          2   -1    0    0  501    0  0.00000000000E+00  0.00000000000E+00  0.13921253103E+03  0.13921253103E+03  0.00000000000E+00 0. -1.
         -2   -1    0    0    0  501 -0.00000000000E+00 -0.00000000000E+00 -0.17465392479E+03  0.17465392479E+03  0.00000000000E+00 0.  1.
         25    2    1    2    0    0  0.88329929910E+02  0.41707697855E+02  0.37993790605E+01  0.15875683729E+03  0.12509032547E+03 0.  0.
          5    1    3    3  502    0  0.10246281054E+03  0.46491641641E+02  0.39912740462E+02  0.11945961467E+03  0.41800000000E+01 0.  1.
         -5    1    3    3    0  502 -0.14132880634E+02 -0.47839437867E+01 -0.36113361402E+02  0.39297222610E+02  0.41800000000E+01 0.  1.
        -11    1    1    2    0    0  0.10754733570E+02  0.17695736201E+02  0.16839448070E+02  0.26690267611E+02  0.00000000000E+00 0. -1.
         11    1    1    2    0    0 -0.99084663480E+02 -0.59403434056E+02 -0.56080220894E+02  0.12841935092E+03  0.00000000000E+00 0.  1.
</event>
<event>
 7    1  0.2594791E-009  0.1325710E+03  0.7561462E-02  0.1223690E+00
         -1   -1    0    0    0  501 -0.00000000000E+00  0.00000000000E+00  0.22616655177E+03  0.22616655177E+03  0.00000000000E+00 0. -1.
          1   -1    0    0  501    0  0.00000000000E+00 -0.00000000000E+00 -0.95473547660E+02  0.95473547660E+02  0.00000000000E+00 0.  1.
         25    2    1    2    0    0  0.88528532542E+02 -0.22193538093E+02  0.35440627922E+02  0.15885237550E+03  0.12509270517E+03 0.  0.
          5    1    3    3  502    0 -0.90223116209E+00  0.39540386368E+02 -0.99718482012E+01  0.41002028386E+02  0.41800000000E+01 0. -1.
         -5    1    3    3    0  502  0.89430763704E+02 -0.61733924462E+02  0.45412476124E+02  0.11785034711E+03  0.41800000000E+01 0. -1.
        -11    1    1    2    0    0 -0.74771915567E+02 -0.15617801673E+02  0.22466668052E+02  0.79621016446E+02  0.00000000000E+00 0.  1.
         11    1    1    2    0    0 -0.13756616976E+02  0.37811339766E+02  0.72785708132E+02  0.83166707485E+02  0.00000000000E+00 0. -1.
</event>
<event>
 7    1  0.2594791E-009  0.1808428E+03  0.7561462E-02  0.1166990E+00
          1   -1    0    0  501    0  0.00000000000E+00  0.00000000000E+00  0.10653319049E+04  0.10653319049E+04  0.00000000000E+00 0. -1.
         -1   -1    0    0    0  501 -0.00000000000E+00 -0.00000000000E+00 -0.38153390110E+02  0.38153390110E+02  0.00000000000E+00 0.  1.
         25    2    1    2    0    0 -0.14782850215E+03 -0.40950385707E+02  0.73057113069E+03  0.75690922554E+03  0.12508876277E+03 0.  0.
          5    1    3    3  502    0 -0.11497600199E+03 -0.84826895405E+02  0.52299212582E+03  0.54217462066E+03  0.41800000000E+01 0.  1.
         -5    1    3    3    0  502 -0.32852500158E+02  0.43876509697E+02  0.20757900487E+03  0.21473460488E+03  0.41800000000E+01 0.  1.
        -11    1    1    2    0    0  0.11315916192E+03  0.55663789910E+02  0.15382994125E+03  0.19891481659E+03  0.00000000000E+00 0.  1.
         11    1    1    2    0    0  0.34669340229E+02 -0.14713404203E+02  0.14277744280E+03  0.14766125283E+03  0.00000000000E+00 0. -1.
</event>
<event>
 6    1  0.2594791E-009  0.1146237E+03  0.7561462E-02  0.1252239E+00
         -2   -1    0    0    0  501 -0.00000000000E+00  0.00000000000E+00  0.65850258273E+02  0.65850258273E+02  0.00000000000E+00 0. -1.
          2   -1    0    0  501    0  0.00000000000E+00 -0.00000000000E+00 -0.22545015098E+03  0.22545015098E+03  0.00000000000E+00 0.  1.
          5    1    1    2  502    0  0.53831794855E+02 -0.50364322215E+02 -0.14369260901E+02  0.75222171920E+02  0.41800000000E+01 0. -1.
         -5    1    1    2    0  502  0.65271482149E+00  0.56475683572E+02 -0.50681094776E+02  0.75999833153E+02  0.41800000000E+01 0. -1.
        -11    1    1    2    0    0 -0.57909238706E+02  0.28119041645E+02 -0.80107656186E+02  0.10276865772E+03  0.00000000000E+00 0.  1.
         11    1    1    2    0    0  0.34247290295E+01 -0.34230403001E+02 -0.14441880845E+02  0.37309746460E+02  0.00000000000E+00 0. -1.
</event>
<event>
 7    1  0.2594791E-009  0.1103449E+03  0.7561462E-02  0.1259933E+00
          4   -1    0    0  501    0  0.00000000000E+00  0.00000000000E+00  0.28724415211E+03  0.28724415211E+03  0.00000000000E+00 0.  1.
         -4   -1    0    0    0  501 -0.00000000000E+00 -0.00000000000E+00 -0.73134158090E+02  0.73134158090E+02  0.00000000000E+00 0. -1.
         25    2    1    2    0    0  0.64291528402E+02 -0.38229291674E+02  0.32561091016E+02  0.14934254551E+03  0.12509233344E+03 0.  0.
          5    1    3    3  502    0  0.86605284110E+02 -0.31914671983E+02 -0.17478997724E+02  0.94031958849E+02  0.41800000000E+01 0.  1.
         -5    1    3    3    0  502 -0.22313755708E+02 -0.63146196913E+01  0.50040088740E+02  0.55310586661E+02  0.41800000000E+01 0.  1.
        -11    1    1    2    0    0 -0.10907627563E+02  0.49062922106E+02  0.63169713532E+02  0.80725209026E+02  0.00000000000E+00 0. -1.
         11    1    1    2    0    0 -0.53383900839E+02 -0.10833630432E+02  0.11837918947E+03  0.13031055566E+03  0.00000000000E+00 0.  1.
</event>
<event>
 7    1  0.2594791E-009  0.8371468E+02  0.7561462E-02  0.1318828E+00
         -2   -1    0    0    0  501 -0.00000000000E+00  0.00000000000E+00  0.13993786572E+02  0.13993786572E+02  0.00000000000E+00 0. -1.
          2   -1    0    0  501    0  0.00000000000E+00 -0.00000000000E+00 -0.83580804025E+03  0.83580804025E+03  0.00000000000E+00 0.  1.
         25    2    1    2    0    0  0.81468704990E+01  0.88655552138E+01 -0.57555681010E+03  0.58911601477E+03  0.12508823942E+03 0.  0.
          5    1    3    3  502    0 -0.41237068182E+01  0.50284586692E+02 -0.10505938973E+03  0.11662114897E+03  0.41800000000E+01 0.  1.
         -5    1    3    3    0  502  0.12270577317E+02 -0.41419031478E+02 -0.47049742036E+03  0.47249486580E+03  0.41800000000E+01 0.  1.
        -11    1    1    2    0    0 -0.29671366870E+02 -0.30733211175E+02 -0.20422571774E+03  0.20864578612E+03  0.00000000000E+00 0.  1.
         11    1    1    2    0    0  0.21524496371E+02  0.21867655961E+02 -0.42031725836E+02  0.52040025922E+02  0.00000000000E+00 0. -1.
</event>
<event>
 7    1  0.2594791E-009  0.9928824E+02  0.7561462E-02  0.1281800E+00
          2   -1    0    0  501    0  0.00000000000E+00  0.00000000000E+00  0.75298861407E+03  0.75298861407E+03  0.00000000000E+00 0. -1.
         -2   -1    0    0    0  501 -0.00000000000E+00 -0.00000000000E+00 -0.25584178761E+02  0.25584178761E+02  0.00000000000E+00 0.  1.
         25    2    1    2    0    0 -0.38968831434E+02 -0.63132590727E+02  0.27957125078E+03  0.31513747555E+03  0.12508896993E+03 0.  0.
          5    1    3    3  502    0 -0.33198046877E+02 -0.65570572768E+02  0.58740060891E+02  0.94177903369E+02  0.41800000000E+01 0. -1.
         -5    1    3    3    0  502 -0.57707845563E+01  0.24379820407E+01  0.22083118989E+03  0.22095957218E+03  0.41800000000E+01 0. -1.
        -11    1    1    2    0    0 -0.24023137661E+02  0.46406983085E+02  0.23997843101E+03  0.24560204920E+03  0.00000000000E+00 0. -1.
         11    1    1    2    0    0  0.62991969095E+02  0.16725607642E+02  0.20785475352E+03  0.21783326808E+03  0.00000000000E+00 0.  1.
</event>
<event>
 7    1  0.2594791E-009  0.9128350E+02  0.7561462E-02  0.1299773E+00
          2   -1    0    0  501    0  0.00000000000E+00  0.00000000000E+00  0.33331921539E+03  0.33331921539E+03  0.00000000000E+00 0. -1.
         -2   -1    0    0    0  501 -0.00000000000E+00 -0.00000000000E+00 -0.44615046932E+02  0.44615046932E+02  0.00000000000E+00 0.  1.
         25    2    1    2    0    0 -0.43257313194E+02 -0.30031388483E+02  0.13359012491E+03  0.19043729948E+03  0.12508782563E+03 0.  0.
          5    1    3    3  502    0  0.19602730880E+02 -0.47892659972E+01  0.11931884893E+03  0.12108535930E+03  0.41800000000E+01 0. -1.
         -5    1    3    3    0  502 -0.62860044074E+02 -0.25242122486E+02  0.14271275977E+02  0.69351940179E+02  0.41800000000E+01 0. -1.
        -11    1    1    2    0    0  0.60464973773E+02  0.11539141964E+01  0.13596921543E+03  0.14881186820E+03  0.00000000000E+00 0. -1.
         11    1    1    2    0    0 -0.17207660579E+02  0.28877474287E+02  0.19144828114E+02  0.38685094640E+02  0.00000000000E+00 0.  1.
</event>
<event>
 7    1  0.2594791E-009  0.1183928E+03  0.7561462E-02  0.1245772E+00
          2   -1    0    0  501    0  0.00000000000E+00  0.00000000000E+00  0.10908364024E+04  0.10908364024E+04  0.00000000000E+00 0. -1.
         -2   -1    0    0    0  501 -0.00000000000E+00 -0.00000000000E+00 -0.14363587198E+02  0.14363587198E+02  0.00000000000E+00 0.  1.
         25    2    1    2    0    0  0.53239697294E+02 -0.53359175037E+00  0.75218612817E+03  0.76437318695E+03  0.12509055692E+03 0.  0.
          5    1    3    3  502    0  0.89824962650E+02 -0.18949123690E+02  0.44082838570E+03  0.45030515347E+03  0.41800000000E+01 0.  1.
         -5    1    3    3    0  502 -0.36585265356E+02  0.18415531940E+02  0.31135774247E+03  0.31406803348E+03  0.41800000000E+01 0.  1.
        -11    1    1    2    0    0 -0.33073076911E+02 -0.43875017734E+02  0.19690215591E+03  0.20442432488E+03  0.00000000000E+00 0.  1.
         11    1    1    2    0    0 -0.20166620383E+02  0.44408609485E+02  0.12738453113E+03  0.13640247778E+03  0.00000000000E+00 0. -1.
</event>
<event>
 7    1  0.2594791E-009  0.1478009E+03  0.7561462E-02  0.1203202E+00
          2   -1    0    0  501    0  0.00000000000E+00  0.00000000000E+00  0.22101680612E+03  0.22101680612E+03  0.00000000000E+00 0. -1.
         -2   -1    0    0    0  501 -0.00000000000E+00 -0.00000000000E+00 -0.22757949927E+03  0.22757949927E+03  0.00000000000E+00 0.  1.
         25    2    1    2    0    0  0.11895512012E+03  0.78462466796E+02  0.12974391262E+03  0.22975664226E+03  0.12509177632E+03 0.  0.
          5    1    3    3  502    0  0.38695260807E+02  0.17334282311E+02  0.12114297668E+03  0.12841687487E+03  0.41800000000E+01 0.  1.
         -5    1    3    3    0  502  0.80259859315E+02  0.61128184485E+02  0.86009359395E+01  0.10133976739E+03  0.41800000000E+01 0.  1.
        -11    1    1    2    0    0 -0.10941282396E+03 -0.86555223934E+02 -0.79292720298E+02  0.16046902607E+03  0.00000000000E+00 0. -1.
         11    1    1    2    0    0 -0.95422961641E+01  0.80927571382E+01 -0.57013885475E+02  0.58370637063E+02  0.00000000000E+00 0.  1.
</event>
<event>
 7    1  0.2594791E-009  0.1046638E+03  0.7561462E-02  0.1270783E+00
         -2   -1    0    0    0  501 -0.00000000000E+00  0.00000000000E+00  0.36684995592E+02  0.36684995592E+02  0.00000000000E+00 0.  1.
          2   -1    0    0  501    0  0.00000000000E+00 -0.00000000000E+00 -0.44873730108E+03  0.44873730108E+03  0.00000000000E+00 0. -1.
         25    2    1    2    0    0  0.39344432331E+02  0.12297765501E+02 -0.12833419711E+03  0.18389049665E+03  0.12508728640E+03 0.  0.
          5    1    3    3  502    0 -0.16531197025E+02  0.49541566100E+02 -0.95721541040E+02  0.10912255984E+03  0.41800000000E+01 0.  1.
         -5    1    3    3    0  502  0.55875629355E+02 -0.37243800600E+02 -0.32612656073E+02  0.74767936812E+02  0.41800000000E+01 0.  1.
        -11    1    1    2    0    0  0.18200832280E+02  0.17152739804E+02 -0.27014614326E+02  0.36814075646E+02  0.00000000000E+00 0.  1.
         11    1    1    2    0    0 -0.57545264611E+02 -0.29450505304E+02 -0.25670349405E+03  0.26471772437E+03  0.00000000000E+00 0. -1.
</event>
<event>
 7    1  0.2594791E-009  0.8946448E+02  0.7561462E-02  0.1304154E+00
          2   -1    0    0  501    0  0.00000000000E+00  0.00000000000E+00  0.14073847649E+04  0.14073847649E+04  0.00000000000E+00 0. -1.
         -2   -1    0    0    0  501 -0.00000000000E+00 -0.00000000000E+00 -0.17083326560E+02  0.17083326560E+02  0.00000000000E+00 0.  1.
         25    2    1    2    0    0 -0.47741730784E+02 -0.54531136423E+02  0.11390444524E+04  0.11481813391E+04  0.12508079499E+03 0.  0.
          5    1    3    3  502    0 -0.46123453298E+02 -0.48175683869E+02  0.11384194963E+04  0.11403791875E+04  0.41800000000E+01 0. -1.
         -5    1    3    3    0  502 -0.16182774861E+01 -0.63554525543E+01  0.62495611635E+00  0.78021515840E+01  0.41800000000E+01 0. -1.
        -11    1    1    2    0    0  0.63693628621E+02  0.59959120553E+02  0.15004819031E+03  0.17368486946E+03  0.00000000000E+00 0.  1.
         11    1    1    2    0    0 -0.15951897837E+02 -0.54279841296E+01  0.10120879565E+03  0.10260188290E+03  0.00000000000E+00 0. -1.
</event>
<event>
 7    1  0.2594791E-009  0.2039853E+03  0.7561462E-02  0.1146420E+00
          3   -1    0    0  501    0  0.00000000000E+00  0.00000000000E+00  0.19986812258E+04  0.19986812258E+04  0.00000000000E+00 0. -1.
         -3   -1    0    0    0  501 -0.00000000000E+00 -0.00000000000E+00 -0.26376169296E+02  0.26376169296E+02  0.00000000000E+00 0.  1.
         25    2    1    2    0    0 -0.30308204808E+02  0.19754565013E+03  0.95393926650E+03  0.98264470272E+03  0.12509043305E+03 0.  0.
          5    1    3    3  502    0 -0.27244426109E+02  0.19181562037E+03  0.64199116121E+03  0.67060093531E+03  0.41800000000E+01 0.  1.
         -5    1    3    3    0  502 -0.30637786988E+01  0.57300297659E+01  0.31194810529E+03  0.31204376740E+03  0.41800000000E+01 0.  1.
        -11    1    1    2    0    0  0.29228358696E+01 -0.15979087152E+03  0.91711373638E+03  0.93093462232E+03  0.00000000000E+00 0. -1.
         11    1    1    2    0    0  0.27385368939E+02 -0.37754778610E+02  0.10125205365E+03  0.11147807008E+03  0.00000000000E+00 0.  1.
</event>
<event>
 7    1  0.2594791E-009  0.1193156E+03  0.7561462E-02  0.1244230E+00
          2   -1    0    0  501    0  0.00000000000E+00  0.00000000000E+00  0.76051397254E+03  0.76051397254E+03  0.00000000000E+00 0.  1.
         -2   -1    0    0    0  501 -0.00000000000E+00 -0.00000000000E+00 -0.27072450024E+02  0.27072450024E+02  0.00000000000E+00 0. -1.
         25    2    1    2    0    0  0.30527256252E+02  0.87696022187E+02  0.39299775646E+03  0.42274963231E+03  0.12509000499E+03 0.  0.
          5    1    3    3  502    0 -0.25646919966E+02  0.79639663973E+02  0.31656256936E+03  0.32745926968E+03  0.41800000000E+01 0.  1.
         -5    1    3    3    0  502  0.56174176218E+02  0.80563582148E+01  0.76435187106E+02  0.95290362626E+02  0.41800000000E+01 0.  1.
        -11    1    1    2    0    0 -0.34322887892E+02 -0.53584284608E+02  0.31687520539E+03  0.32320153462E+03  0.00000000000E+00 0.  1.
         11    1    1    2    0    0  0.37956316404E+01 -0.34111737579E+02  0.23568560662E+02  0.41635255636E+02  0.00000000000E+00 0. -1.
</event>
<event>
 7    1  0.2594791E-009  0.9356706E+02  0.7561462E-02  0.1294436E+00
         -2   -1    0    0    0  501 -0.00000000000E+00  0.00000000000E+00  0.31777955867E+02  0.31777955867E+02  0.00000000000E+00 0. -1.
          2   -1    0    0  501    0  0.00000000000E+00 -0.00000000000E+00 -0.40931194670E+03  0.40931194670E+03  0.00000000000E+00 0.  1.
         25    2    1    2    0    0 -0.36467463170E+02  0.13676562475E+02 -0.20975754124E+03  0.24731066054E+03  0.12508961778E+03 0.  0.
          5    1    3    3  502    0 -0.61552128377E+02  0.41143311595E+02 -0.19211455356E+03  0.20592938276E+03  0.41800000000E+01 0. -1.
         -5    1    3    3    0  502  0.25084665207E+02 -0.27466749120E+02 -0.17642987686E+02  0.41381277774E+02  0.41800000000E+01 0. -1.
        -11    1    1    2    0    0  0.26164840509E+02 -0.39707040171E+02 -0.37586817944E+02  0.60613668435E+02  0.00000000000E+00 0. -1.
         11    1    1    2    0    0  0.10302622661E+02  0.26030477696E+02 -0.13018963165E+03  0.13316557360E+03  0.00000000000E+00 0.  1.
</event>
<event>
 7    1  0.2594791E-009  0.3312330E+03  0.7561462E-02  0.1070593E+00
          2   -1    0    0  501    0  0.00000000000E+00  0.00000000000E+00  0.10167743897E+04  0.10167743897E+04  0.00000000000E+00 0. -1.
         -2   -1    0    0    0  501 -0.00000000000E+00 -0.00000000000E+00 -0.11916492172E+03  0.11916492172E+03  0.00000000000E+00 0.  1.
         25    2    1    2    0    0  0.29734103600E+03 -0.13967337193E+03  0.51605871608E+03  0.62440734722E+03  0.12509034458E+03 0.  0.
          5    1    3    3  502    0  0.14513317145E+03 -0.37742349416E+02  0.33381144937E+03  0.36597223737E+03  0.41800000000E+01 0. -1.
         -5    1    3    3    0  502  0.15220786455E+03 -0.10193102251E+03  0.18224726671E+03  0.25843510985E+03  0.41800000000E+01 0. -1.
        -11    1    1    2    0    0 -0.11898869275E+03  0.44346109088E+02  0.21432038975E+03  0.24911466407E+03  0.00000000000E+00 0.  1.
         11    1    1    2    0    0 -0.17835234325E+03  0.95327262842E+02  0.16723036217E+03  0.26241730014E+03  0.00000000000E+00 0. -1.
</event>
<event>
 7    1  0.2594791E-009  0.1646515E+03  0.7561462E-02  0.1183543E+00
         -2   -1    0    0    0  501 -0.00000000000E+00  0.00000000000E+00  0.30785592737E+02  0.30785592737E+02  0.00000000000E+00 0.  1.
          2   -1    0    0  501    0  0.00000000000E+00 -0.00000000000E+00 -0.10036663866E+04  0.10036663866E+04  0.00000000000E+00 0. -1.
         25    2    1    2    0    0 -0.65281662481E+02  0.11468036807E+03 -0.63760206632E+03  0.66302193794E+03  0.12509361671E+03 0.  0.
          5    1    3    3  502    0  0.86218857347E+00  0.10925150995E+03 -0.47348610047E+03  0.48594567138E+03  0.41800000000E+01 0. -1.
         -5    1    3    3    0  502 -0.66143851054E+02  0.54288581237E+01 -0.16411596585E+03  0.17707626656E+03  0.41800000000E+01 0. -1.
        -11    1    1    2    0    0 -0.82412485930E+01 -0.63154485039E+02 -0.90161902253E+02  0.11038829547E+03  0.00000000000E+00 0.  1.
         11    1    1    2    0    0  0.73522911074E+02 -0.51525883031E+02 -0.24511682530E+03  0.26104174593E+03  0.00000000000E+00 0. -1.
</event>
<event>
 7    1  0.2594791E-009  0.1040181E+03  0.7561462E-02  0.1272066E+00
          1   -1    0    0  501    0  0.00000000000E+00  0.00000000000E+00  0.31031596698E+03  0.31031596698E+03  0.00000000000E+00 0. -1.
         -1   -1    0    0    0  501 -0.00000000000E+00 -0.00000000000E+00 -0.45257410783E+02  0.45257410783E+02  0.00000000000E+00 0.  1.
         25    2    1    2    0    0  0.12830384957E+01  0.26588626049E+02  0.20772501742E+03  0.24393752996E+03  0.12508890613E+03 0.  0.
          5    1    3    3  502    0  0.25460675809E+02  0.65240077061E+02  0.17234741769E+03  0.18607960246E+03  0.41800000000E+01 0.  1.
         -5    1    3    3    0  502 -0.24177637314E+02 -0.38651451012E+02  0.35377599731E+02  0.57857927496E+02  0.41800000000E+01 0.  1.
        -11    1    1    2    0    0 -0.31095842074E+02  0.19865607769E+02  0.38464262573E+02  0.53301906735E+02  0.00000000000E+00 0.  1.
         11    1    1    2    0    0  0.29812803578E+02 -0.46454233818E+02  0.18869276208E+02  0.58333941075E+02  0.00000000000E+00 0. -1.
</event>
<event>
 7    1  0.2594791E-009  0.2174464E+03  0.7561462E-02  0.1135801E+00
         -1   -1    0    0    0  501 -0.00000000000E+00  0.00000000000E+00  0.48554979378E+02  0.48554979378E+02  0.00000000000E+00 0. -1.
          1   -1    0    0  501    0  0.00000000000E+00 -0.00000000000E+00 -0.13215298234E+04  0.13215298234E+04  0.00000000000E+00 0.  1.
         25    2    1    2    0    0  0.15925196275E+03 -0.13673234848E+03 -0.41062978288E+03  0.47782991095E+03  0.12509069688E+03 0.  0.
          5    1    3    3  502    0  0.11606492256E+03 -0.12834856207E+03 -0.39446991548E+03  0.43077651544E+03  0.41800000000E+01 0.  1.
         -5    1    3    3    0  502  0.43187040185E+02 -0.83837864157E+01 -0.16159867403E+02  0.47053395510E+02  0.41800000000E+01 0.  1.
        -11    1    1    2    0    0 -0.11784349485E+03  0.64483895976E+02 -0.65839671437E+03  0.67196093310E+03  0.00000000000E+00 0.  1.
         11    1    1    2    0    0 -0.41408467897E+02  0.72248452508E+02 -0.20394834680E+03  0.22029395876E+03  0.00000000000E+00 0. -1.
</event>
<event>
 7    1  0.2594791E-009  0.1237481E+03  0.7561462E-02  0.1237039E+00
          1   -1    0    0  501    0  0.00000000000E+00  0.00000000000E+00  0.36152889596E+03  0.36152889596E+03  0.00000000000E+00 0.  1.
         -1   -1    0    0    0  501 -0.00000000000E+00 -0.00000000000E+00 -0.50925694070E+02  0.50925694070E+02  0.00000000000E+00 0. -1.
         25    2    1    2    0    0  0.10788527702E+02 -0.78859301945E+02  0.19799447354E+03  0.24735543685E+03  0.12509084201E+03 0.  0.
          5    1    3    3  502    0  0.52867448001E+02 -0.64586210255E+02  0.18142856903E+03  0.19975020319E+03  0.41800000000E+01 0. -1.
         -5    1    3    3    0  502 -0.42078920299E+02 -0.14273091691E+02  0.16565904509E+02  0.47605233663E+02  0.41800000000E+01 0. -1.
        -11    1    1    2    0    0  0.38289943574E+02  0.47681944058E+02  0.44990882185E+02  0.75920135984E+02  0.00000000000E+00 0. -1.
         11    1    1    2    0    0 -0.49078471276E+02  0.31177357888E+02  0.67617846160E+02  0.89179017190E+02  0.00000000000E+00 0.  1.
</event>
<event>
 7    1  0.2594791E-009  0.9401918E+02  0.7561462E-02  0.1293401E+00
          2   -1    0    0  501    0  0.00000000000E+00  0.00000000000E+00  0.30225915392E+03  0.30225915392E+03  0.00000000000E+00 0.  1.
         -2   -1    0    0    0  501 -0.00000000000E+00 -0.00000000000E+00 -0.72168331054E+02  0.72168331054E+02  0.00000000000E+00 0. -1.
         25    2    1    2    0    0 -0.43978579103E+02  0.70968385258E+02  0.19850657503E+03  0.24904377260E+03  0.12508922102E+03 0.  0.
          5    1    3    3  502    0 -0.33582222159E+02  0.78514774627E+02  0.21282617686E+03  0.22935734005E+03  0.41800000000E+01 0. -1.
         -5    1    3    3    0  502 -0.10396356944E+02 -0.75463893691E+01 -0.14319601825E+02  0.19686432553E+02  0.41800000000E+01 0. -1.
        -11    1    1    2    0    0  0.31581656985E+02 -0.21926427738E+02  0.57014646213E+02  0.68766555636E+02  0.00000000000E+00 0.  1.
         11    1    1    2    0    0  0.12396922119E+02 -0.49041957520E+02 -0.25430398375E+02  0.56617156736E+02  0.00000000000E+00 0. -1.
</event>
<event>
 7    1  0.2594791E-009  0.2218673E+03  0.7561462E-02  0.1132499E+00
          2   -1    0    0  501    0  0.00000000000E+00  0.00000000000E+00  0.18899711479E+03  0.18899711479E+03  0.00000000000E+00 0. -1.
         -2   -1    0    0    0  501 -0.00000000000E+00 -0.00000000000E+00 -0.32793024680E+03  0.32793024680E+03  0.00000000000E+00 0.  1.
         25    2    1    2    0    0 -0.18928381654E+03 -0.11472950909E+03 -0.10453572329E+03  0.27489290251E+03  0.12508863636E+03 0.  0.
          5    1    3    3  502    0 -0.58758449581E+02 -0.29842689446E+02 -0.99044426382E+02  0.11903954094E+03  0.41800000000E+01 0.  1.
         -5    1    3    3    0  502 -0.13052536696E+03 -0.84886819648E+02 -0.54912969041E+01  0.15585336156E+03  0.41800000000E+01 0.  1.
        -11    1    1    2    0    0  0.12022860270E+03  0.81958291913E+02 -0.65427381565E+02  0.15953940197E+03  0.00000000000E+00 0.  1.
         11    1    1    2    0    0  0.69055213834E+02  0.32771217181E+02  0.31029972839E+02  0.82495057110E+02  0.00000000000E+00 0. -1.
</event>
<event>
 7    1  0.2594791E-009  0.1202662E+03  0.7561462E-02  0.1242659E+00
          2   -1    0    0  501    0  0.00000000000E+00  0.00000000000E+00  0.18945258521E+03  0.18945258521E+03  0.00000000000E+00 0.  1.
         -2   -1    0    0    0  501 -0.00000000000E+00 -0.00000000000E+00 -0.10702108622E+03  0.10702108622E+03  0.00000000000E+00 0. -1.
         25    2    1    2    0    0 -0.66340206678E+02 -0.61137337623E+02  0.23282850132E+02  0.15598386238E+03  0.12510026834E+03 0.  0.
          5    1    3    3  502    0 -0.78048258300E+02 -0.18884115333E+02 -0.30914108526E+02  0.86146938086E+02  0.41800000000E+01 0.  1.
         -5    1    3    3    0  502  0.11708051622E+02 -0.42253222290E+02  0.54196958658E+02  0.69836924291E+02  0.41800000000E+01 0.  1.
        -11    1    1    2    0    0  0.52064499757E+02  0.78128473287E+02  0.20770256854E+02  0.96157028048E+02  0.00000000000E+00 0. -1.
         11    1    1    2    0    0  0.14275706921E+02 -0.16991135664E+02  0.38378392001E+02  0.44332781007E+02  0.00000000000E+00 0.  1.
</event>
<event>
 7    1  0.2594791E-009  0.1166022E+03  0.7561462E-02  0.1248810E+00
         -1   -1    0    0    0  501 -0.00000000000E+00  0.00000000000E+00  0.33667796643E+02  0.33667796643E+02  0.00000000000E+00 0.  1.
          1   -1    0    0  501    0  0.00000000000E+00 -0.00000000000E+00 -0.46982509350E+03  0.46982509350E+03  0.00000000000E+00 0. -1.
         25    2    1    2    0    0  0.97786436137E+01  0.47331934586E+02 -0.29099630985E+03  0.32041230745E+03  0.12509700442E+03 0.  0.
          5    1    3    3  502    0  0.60925457379E+02  0.30739480938E+02 -0.94433675769E+02  0.11658481275E+03  0.41800000000E+01 0. -1.
         -5    1    3    3    0  502 -0.51146813766E+02  0.16592453648E+02 -0.19656263408E+03  0.20382749469E+03  0.41800000000E+01 0. -1.
        -11    1    1    2    0    0  0.41598735981E+02 -0.42221433305E+02 -0.87461663044E+02  0.10565342762E+03  0.00000000000E+00 0. -1.
         11    1    1    2    0    0 -0.51377379595E+02 -0.51105012812E+01 -0.57699323957E+02  0.77427155072E+02  0.00000000000E+00 0.  1.
</event>
<event>
 6    1  0.2594791E-009  0.1189099E+03  0.7561462E-02  0.1244906E+00
         -2   -1    0    0    0  501 -0.00000000000E+00  0.00000000000E+00  0.22607537337E+02  0.22607537337E+02  0.00000000000E+00 0.  1.
          2   -1    0    0  501    0  0.00000000000E+00 -0.00000000000E+00 -0.86330785049E+03  0.86330785049E+03  0.00000000000E+00 0. -1.
          5    1    1    2  502    0  0.18404980972E+02 -0.18903034387E+02 -0.20350110160E+02  0.33580759628E+02  0.41800000000E+01 0.  1.
         -5    1    1    2    0  502  0.32703450400E+02  0.92505688111E+02 -0.47668444775E+03  0.48669533913E+03  0.41800000000E+01 0.  1.
        -11    1    1    2    0    0  0.11687129417E+02  0.46420794630E+01 -0.71058646462E+01  0.14444071729E+02  0.00000000000E+00 0.  1.
         11    1    1    2    0    0 -0.62795560789E+02 -0.78244733186E+02 -0.33655989059E+03  0.35119521734E+03  0.00000000000E+00 0. -1.
</event>
<event>
 7    1  0.2594791E-009  0.8196670E+02  0.7561462E-02  0.1323561E+00
          3   -1    0    0  501    0  0.00000000000E+00  0.00000000000E+00  0.37178946776E+03  0.37178946776E+03  0.00000000000E+00 0. -1.
         -3   -1    0    0    0  501 -0.00000000000E+00 -0.00000000000E+00 -0.54399915763E+02  0.54399915763E+02  0.00000000000E+00 0.  1.
         25    2    1    2    0    0  0.35268755489E+01  0.20044082940E+01  0.30896130100E+03  0.33334049931E+03  0.12506936660E+03 0.  0.
          5    1    3    3  502    0  0.79521962195E+01  0.37853302978E+02  0.28949151352E+03  0.29209402385E+03  0.41800000000E+01 0.  1.
         -5    1    3    3    0  502 -0.44253206706E+01 -0.35848894684E+02  0.19469787476E+02  0.41246475455E+02  0.41800000000E+01 0.  1.
        -11    1    1    2    0    0 -0.41910850073E+02  0.17729785118E+02 -0.88494866364E+01  0.46359228293E+02  0.00000000000E+00 0.  1.
         11    1    1    2    0    0  0.38383974524E+02 -0.19734193412E+02  0.17277737639E+02  0.46489655923E+02  0.00000000000E+00 0. -1.
</event>
<event>
 7    1  0.2594791E-009  0.1094406E+03  0.7561462E-02  0.1261609E+00
         -1   -1    0    0    0  501 -0.00000000000E+00  0.00000000000E+00  0.22618456979E+03  0.22618456979E+03  0.00000000000E+00 0.  1.
          1   -1    0    0  501    0  0.00000000000E+00 -0.00000000000E+00 -0.64738928979E+02  0.64738928979E+02  0.00000000000E+00 0. -1.
         25    2    1    2    0    0 -0.21781210136E+02  0.46647387633E+02  0.10992490280E+03  0.17430022916E+03  0.12508671289E+03 0.  0.
          5    1    3    3  502    0 -0.36172499514E+02  0.82619997200E+02  0.98654845909E+02  0.13373393242E+03  0.41800000000E+01 0. -1.
         -5    1    3    3    0  502  0.14391289378E+02 -0.35972609567E+02  0.11270056886E+02  0.40566296741E+02  0.41800000000E+01 0. -1.
        -11    1    1    2    0    0  0.47599105435E+02 -0.41814659752E+02  0.54504029376E+01  0.63591253333E+02  0.00000000000E+00 0. -1.
         11    1    1    2    0    0 -0.25817895299E+02 -0.48327278810E+01  0.46070335078E+02  0.53032016279E+02  0.00000000000E+00 0.  1.
</event>
<event>
 7    1  0.3689221E-009  0.8642643E+02  0.7561462E-02  0.1311744E+00
          2   -1    0    0  501    0  0.00000000000E+00  0.00000000000E+00  0.54821854913E+03  0.54821854913E+03  0.00000000000E+00 0.  1.
         -2   -1    0    0    0  501 -0.00000000000E+00 -0.00000000000E+00 -0.34540845274E+02  0.34540845274E+02  0.00000000000E+00 0. -1.
         25    2    1    2    0    0  0.19041632934E+02  0.82266823272E+02  0.26493291540E+03  0.30489765650E+03  0.12507084903E+03 0.  0.
          5    1    3    3  502    0  0.17484274489E+02  0.77880870394E+02  0.27861499392E+03  0.28985326816E+03  0.41800000000E+01 0.  1.
         -5    1    3    3    0  502  0.15573584449E+01  0.43859528777E+01 -0.13682078514E+02  0.15044388337E+02  0.41800000000E+01 0.  1.
        -11    1    1    2    0    0 -0.22166141817E+02 -0.56174871589E+02  0.24374154356E+03  0.25111131814E+03  0.00000000000E+00 0.  1.
         11    1    1    2    0    0  0.31245088830E+01 -0.26091951683E+02  0.50032448961E+01  0.26750419770E+02  0.00000000000E+00 0. -1.
</event>
<event>
 7    1  0.2594791E-009  0.1912876E+03  0.7561462E-02  0.1157305E+00
          1   -1    0    0  501    0  0.00000000000E+00  0.00000000000E+00  0.51225034304E+03  0.51225034304E+03  0.00000000000E+00 0. -1.
         -1   -1    0    0    0  501 -0.00000000000E+00 -0.00000000000E+00 -0.92286324741E+02  0.92286324741E+02  0.00000000000E+00 0.  1.
         25    2    1    2    0    0 -0.50678418697E+02  0.15685719877E+03  0.34498118378E+03  0.40228264524E+03  0.12508727581E+03 0.  0.
          5    1    3    3  502    0 -0.50997281414E+01  0.15111746354E+03  0.20409371206E+03  0.25403584533E+03  0.41800000000E+01 0. -1.
         -5    1    3    3    0  502 -0.45578690556E+02  0.57397352350E+01  0.14088747172E+03  0.14824679991E+03  0.41800000000E+01 0. -1.
        -11    1    1    2    0    0 -0.22867998813E+02 -0.22878228571E+02  0.26781879601E+02  0.41995568662E+02  0.00000000000E+00 0. -1.
         11    1    1    2    0    0  0.73546417510E+02 -0.13397897020E+03  0.48200954913E+02  0.16025845388E+03  0.00000000000E+00 0.  1.
</event>
<event>
 7    1  0.2594791E-009  0.3902635E+03  0.7561462E-02  0.1047204E+00
         -1   -1    0    0    0  501 -0.00000000000E+00  0.00000000000E+00  0.12814506650E+03  0.12814506650E+03  0.00000000000E+00 0.  1.
          1   -1    0    0  501    0  0.00000000000E+00 -0.00000000000E+00 -0.12948913908E+04  0.12948913908E+04  0.00000000000E+00 0. -1.
         25    2    1    2    0    0  0.31045734130E+03 -0.22374448289E+03 -0.74238853126E+03  0.84453171699E+03  0.12509090797E+03 0.  0.
          5    1    3    3  502    0  0.63350205777E+02 -0.10407639133E+03 -0.16477733561E+03  0.20497362400E+03  0.41800000000E+01 0.  1.
         -5    1    3    3    0  502  0.24710713553E+03 -0.11966809156E+03 -0.57761119565E+03  0.63955809299E+03  0.41800000000E+01 0.  1.
        -11    1    1    2    0    0 -0.88478278781E+02  0.82114813418E+02 -0.19483878505E+03  0.22920165915E+03  0.00000000000E+00 0. -1.
         11    1    1    2    0    0 -0.22197906252E+03  0.14162966947E+03 -0.22951900795E+03  0.34930308112E+03  0.00000000000E+00 0.  1.
</event>
<event>
 7    1  0.2594791E-009  0.1502627E+03  0.7561462E-02  0.1200151E+00
          2   -1    0    0  501    0  0.00000000000E+00  0.00000000000E+00  0.13142502082E+04  0.13142502082E+04  0.00000000000E+00 0. -1.
         -2   -1    0    0    0  501 -0.00000000000E+00 -0.00000000000E+00 -0.18611814397E+02  0.18611814397E+02  0.00000000000E+00 0.  1.
         25    2    1    2    0    0 -0.76471756046E+02  0.69578816514E+02  0.87119560904E+03  0.88618263096E+03  0.12509486407E+03 0.  0.
          5    1    3    3  502    0 -0.41148836102E+02  0.10446059711E+03  0.58761208210E+03  0.59825636184E+03  0.41800000000E+01 0.  1.
         -5    1    3    3    0  502 -0.35322919944E+02 -0.34881780594E+02  0.28358352694E+03  0.28792626911E+03  0.41800000000E+01 0.  1.
        -11    1    1    2    0    0  0.91778156177E+02 -0.31034232856E+02  0.27396092784E+03  0.29058723912E+03  0.00000000000E+00 0.  1.
         11    1    1    2    0    0 -0.15306400131E+02 -0.38544583657E+02  0.15048185697E+03  0.15609215256E+03  0.00000000000E+00 0. -1.
</event>
<event>
 7    1  0.2594791E-009  0.1027298E+03  0.7561462E-02  0.1274658E+00
          2   -1    0    0  501    0  0.00000000000E+00  0.00000000000E+00  0.20922460420E+03  0.20922460420E+03  0.00000000000E+00 0. -1.
         -2   -1    0    0    0  501 -0.00000000000E+00 -0.00000000000E+00 -0.79508466930E+02  0.79508466930E+02  0.00000000000E+00 0.  1.
         25    2    1    2    0    0  0.22742313087E+02 -0.70632264533E+02  0.67613898566E+02  0.16038840344E+03  0.12508665429E+03 0.  0.
          5    1    3    3  502    0  0.41291004751E+02 -0.20586890449E+02 -0.25573759491E+02  0.52917451811E+02  0.41800000000E+01 0. -1.
         -5    1    3    3    0  502 -0.18548691663E+02 -0.50045374084E+02  0.93187658057E+02  0.10747095163E+03  0.41800000000E+01 0. -1.
        -11    1    1    2    0    0  0.26669830110E+02  0.12962120363E+02 -0.90512099621E+00  0.29666743104E+02  0.00000000000E+00 0.  1.
         11    1    1    2    0    0 -0.49412143198E+02  0.57670144170E+02  0.63007359698E+02  0.98677924583E+02  0.00000000000E+00 0. -1.
</event>
<event>
 7    1  0.2594791E-009  0.1018081E+03  0.7561462E-02  0.1276539E+00
         -4   -1    0    0    0  501 -0.00000000000E+00  0.00000000000E+00  0.37890916145E+03  0.37890916145E+03  0.00000000000E+00 0. -1.
          4   -1    0    0  501    0  0.00000000000E+00 -0.00000000000E+00 -0.48539317402E+02  0.48539317402E+02  0.00000000000E+00 0.  1.
         25    2    1    2    0    0 -0.32948944519E+02 -0.13476513079E+01  0.63677198929E+02  0.14418093717E+03  0.12508360352E+03 0.  0.
          5    1    3    3  502    0  0.39312309229E+02 -0.31614455199E+02  0.20356843899E+02  0.54560103812E+02  0.41800000000E+01 0.  1.
         -5    1    3    3    0  502 -0.72261253749E+02  0.30266803891E+02  0.43320355030E+02  0.89620833354E+02  0.41800000000E+01 0.  1.
        -11    1    1    2    0    0  0.20004336186E+02 -0.32577884718E+02  0.22392215214E+03  0.22716210568E+03  0.00000000000E+00 0. -1.
         11    1    1    2    0    0  0.12944608333E+02  0.33925536026E+02  0.42770492978E+02  0.56105436004E+02  0.00000000000E+00 0.  1.
</event>
<event>
 7    1  0.2594791E-009  0.1460408E+03  0.7561462E-02  0.1205424E+00
         -1   -1    0    0    0  501 -0.00000000000E+00  0.00000000000E+00  0.94710332910E+02  0.94710332910E+02  0.00000000000E+00 0.  1.
          1   -1    0    0  501    0  0.00000000000E+00 -0.00000000000E+00 -0.24663715023E+03  0.24663715023E+03  0.00000000000E+00 0. -1.
         25    2    1    2    0    0 -0.10294467196E+02  0.99560218410E+02 -0.53985938281E+02  0.16905529848E+03  0.12508796611E+03 0.  0.
          5    1    3    3  502    0  0.27260316542E+02  0.10908550026E+03 -0.63144045878E+02  0.12902485867E+03  0.41800000000E+01 0.  1.
         -5    1    3    3    0  502 -0.37554783738E+02 -0.95252818551E+01  0.91581075964E+01  0.40030439802E+02  0.41800000000E+01 0.  1.
        -11    1    1    2    0    0  0.31795917191E+02  0.64353202944E+01 -0.13759909186E+02  0.35238172458E+02  0.00000000000E+00 0.  1.
         11    1    1    2    0    0 -0.21501449995E+02 -0.10599553870E+03 -0.84180969856E+02  0.13705401221E+03  0.00000000000E+00 0. -1.
</event>
<event>
 7    1  0.2594791E-009  0.2149594E+03  0.7561462E-02  0.1137698E+00
         -2   -1    0    0    0  501 -0.00000000000E+00  0.00000000000E+00  0.94155058521E+02  0.94155058521E+02  0.00000000000E+00 0. -1.
          2   -1    0    0  501    0  0.00000000000E+00 -0.00000000000E+00 -0.57486022620E+03  0.57486022620E+03  0.00000000000E+00 0.  1.
         25    2    1    2    0    0 -0.18106382982E+03 -0.10717466106E+03 -0.24661575601E+03  0.34747190631E+03  0.12508747387E+03 0.  0.
          5    1    3    3  502    0 -0.12403595942E+03 -0.80834024749E+02 -0.24278915025E+03  0.28439954758E+03  0.41800000000E+01 0. -1.
         -5    1    3    3    0  502 -0.57027870399E+02 -0.26340636314E+02 -0.38266057600E+01  0.63072358727E+02  0.41800000000E+01 0. -1.
        -11    1    1    2    0    0  0.78203036534E+02  0.81259337642E+02 -0.10134940351E+03  0.15162617343E+03  0.00000000000E+00 0. -1.
         11    1    1    2    0    0  0.10286079328E+03  0.25915323421E+02 -0.13274000816E+03  0.16991720498E+03  0.00000000000E+00 0.  1.
</event>
<event>
 7    1  0.2594791E-009  0.1587878E+03  0.7561462E-02  0.1190072E+00
          2   -1    0    0  501    0  0.00000000000E+00  0.00000000000E+00  0.75864132910E+03  0.75864132910E+03  0.00000000000E+00 0. -1.
         -2   -1    0    0    0  501 -0.00000000000E+00 -0.00000000000E+00 -0.43142326174E+02  0.43142326174E+02  0.00000000000E+00 0.  1.
         25    2    1    2    0    0  0.11208973276E+03  0.90092284340E+02  0.35504426915E+03  0.40296999535E+03  0.12509059201E+03 0.  0.
          5    1    3    3  502    0  0.49280702624E+02 -0.11904195969E+02  0.36463794704E+02  0.62588962741E+02  0.41800000000E+01 0. -1.
         -5    1    3    3    0  502  0.62809030136E+02  0.10199648031E+03  0.31858047445E+03  0.34038103261E+03  0.41800000000E+01 0. -1.
        -11    1    1    2    0    0 -0.11047962693E+03 -0.79440191020E+02  0.36306607240E+03  0.38772859689E+03  0.00000000000E+00 0. -1.
         11    1    1    2    0    0 -0.16101058262E+01 -0.10652093321E+02 -0.26113386314E+01  0.11085063028E+02  0.00000000000E+00 0.  1.
</event>
<event>
 7    1  0.2594791E-009  0.1144988E+03  0.7561462E-02  0.1252458E+00
          2   -1    0    0  501    0  0.00000000000E+00  0.00000000000E+00  0.55831920250E+02  0.55831920250E+02  0.00000000000E+00 0.  1.
         -2   -1    0    0    0  501 -0.00000000000E+00 -0.00000000000E+00 -0.35080320001E+03  0.35080320001E+03  0.00000000000E+00 0. -1.
         25    2    1    2    0    0 -0.54268200264E+02  0.69244532558E+02 -0.16477617600E+03  0.22480879400E+03  0.12509181761E+03 0.  0.
          5    1    3    3  502    0 -0.82231561601E+02  0.47627346823E+02 -0.16354645119E+03  0.18919647984E+03  0.41800000000E+01 0. -1.
         -5    1    3    3    0  502  0.27963361337E+02  0.21617185734E+02 -0.12297248073E+01  0.35612314154E+02  0.41800000000E+01 0. -1.
        -11    1    1    2    0    0  0.37071887932E+02 -0.71891904876E+02 -0.14012333368E+03  0.16179406511E+03  0.00000000000E+00 0. -1.
         11    1    1    2    0    0  0.17196312332E+02  0.26473723182E+01  0.99282299128E+01  0.20032261161E+02  0.00000000000E+00 0.  1.
</event>
<event>
 7    1  0.2594791E-009  0.9939723E+02  0.7561462E-02  0.1281569E+00
         -1   -1    0    0    0  501 -0.00000000000E+00  0.00000000000E+00  0.14251577100E+02  0.14251577100E+02  0.00000000000E+00 0.  1.
          1   -1    0    0  501    0  0.00000000000E+00 -0.00000000000E+00 -0.81949906776E+03  0.81949906776E+03  0.00000000000E+00 0. -1.
         25    2    1    2    0    0 -0.87314894066E+01 -0.18087805550E+01 -0.51632499382E+03  0.53134005571E+03  0.12510493582E+03 0.  0.
          5    1    3    3  502    0 -0.16574074282E+02  0.54914898738E+02 -0.15197179373E+03  0.16249075214E+03  0.41800000000E+01 0.  1.
         -5    1    3    3    0  502  0.78425848755E+01 -0.56723679293E+02 -0.36435320009E+03  0.36884930357E+03  0.41800000000E+01 0.  1.
        -11    1    1    2    0    0 -0.30536503179E+02  0.23929166471E+02 -0.83079115648E+02  0.91690907353E+02  0.00000000000E+00 0.  1.
         11    1    1    2    0    0  0.39267992586E+02 -0.22120385916E+02 -0.20584338119E+03  0.21071968179E+03  0.00000000000E+00 0. -1.
</event>
<event>
 7    1  0.2594791E-009  0.9999617E+02  0.7561462E-02  0.1280304E+00
         -4   -1    0    0    0  501 -0.00000000000E+00  0.00000000000E+00  0.58981738591E+03  0.58981738591E+03  0.00000000000E+00 0.  1.
          4   -1    0    0  501    0  0.00000000000E+00 -0.00000000000E+00 -0.64592845106E+02  0.64592845106E+02  0.00000000000E+00 0. -1.
         25    2    1    2    0    0 -0.20091983866E+01 -0.64638312864E+02  0.52864690422E+03  0.54708197324E+03  0.12509591414E+03 0.  0.
          5    1    3    3  502    0 -0.19754534867E+01 -0.91204481967E+02  0.23366010269E+03  0.25087183169E+03  0.41800000000E+01 0.  1.
         -5    1    3    3    0  502 -0.33744899882E-01  0.26566169103E+02  0.29498680153E+03  0.29621014155E+03  0.41800000000E+01 0.  1.
        -11    1    1    2    0    0  0.24576655026E+02  0.47353778692E+02  0.31766112164E+02  0.62092497217E+02  0.00000000000E+00 0.  1.
         11    1    1    2    0    0 -0.22567456640E+02  0.17284534172E+02 -0.35188475573E+02  0.45235760565E+02  0.00000000000E+00 0. -1.
</event>
<event>
 7    1  0.2594791E-009  0.9795899E+02  0.7561462E-02  0.1284647E+00
          2   -1    0    0  501    0  0.00000000000E+00  0.00000000000E+00  0.39834787069E+03  0.39834787069E+03  0.00000000000E+00 0. -1.
         -2   -1    0    0    0  501 -0.00000000000E+00 -0.00000000000E+00 -0.40797304753E+02  0.40797304753E+02  0.00000000000E+00 0.  1.
         25    2    1    2    0    0 -0.21347560789E+02  0.41242936533E+02  0.15086543410E+03  0.20140635736E+03  0.12508974145E+03 0.  0.
          5    1    3    3  502    0 -0.69033624776E+02  0.36887126580E+02  0.60363449574E+02  0.98931895269E+02  0.41800000000E+01 0.  1.
         -5    1    3    3    0  502  0.47686063987E+02  0.43558099531E+01  0.90501984523E+02  0.10247446209E+03  0.41800000000E+01 0.  1.
        -11    1    1    2    0    0 -0.41814049970E+01  0.10756652239E+02 -0.88572421986E+01  0.14547867696E+02  0.00000000000E+00 0.  1.
         11    1    1    2    0    0  0.25528965786E+02 -0.51999588772E+02  0.21554237403E+03  0.22319095038E+03  0.00000000000E+00 0. -1.
</event>
<event>
 7    1  0.2594791E-009  0.2611304E+03  0.7561462E-02  0.1106466E+00
         -1   -1    0    0    0  501 -0.00000000000E+00  0.00000000000E+00  0.60072633165E+02  0.60072633165E+02  0.00000000000E+00 0.  1.
          1   -1    0    0  501    0  0.00000000000E+00 -0.00000000000E+00 -0.11698630974E+04  0.11698630974E+04  0.00000000000E+00 0. -1.
         25    2    1    2    0    0 -0.16455801874E+03  0.17649891826E+03 -0.57397841725E+03  0.63508189953E+03  0.12508631405E+03 0.  0.
          5    1    3    3  502    0  0.11784378110E+02 -0.34210051706E+01 -0.72167807615E+01  0.14836750600E+02  0.41800000000E+01 0. -1.
         -5    1    3    3    0  502 -0.17634239685E+03  0.17991992343E+03 -0.56676163649E+03  0.62024514893E+03  0.41800000000E+01 0. -1.
        -11    1    1    2    0    0 -0.98024251663E+01 -0.23125052182E+02 -0.69952994137E+02  0.74325479927E+02  0.00000000000E+00 0.  1.
         11    1    1    2    0    0  0.17436044390E+03 -0.15337386608E+03 -0.46585905288E+03  0.52052835114E+03  0.00000000000E+00 0. -1.
</event>
<event>
 7    1  0.2594791E-009  0.9885708E+02  0.7561462E-02  0.1282718E+00
         -1   -1    0    0    0  501 -0.00000000000E+00  0.00000000000E+00  0.29657621156E+03  0.29657621156E+03  0.00000000000E+00 0.  1.
          1   -1    0    0  501    0  0.00000000000E+00 -0.00000000000E+00 -0.70849140572E+02  0.70849140572E+02  0.00000000000E+00 0. -1.
         25    2    1    2    0    0  0.24395743628E+01 -0.17776124972E+02  0.36927631728E+01  0.12642272614E+03  0.12508847686E+03 0.  0.
          5    1    3    3  502    0  0.58212670912E+02  0.15169135560E+02  0.10303120795E+02  0.61175521465E+02  0.41800000000E+01 0. -1.
         -5    1    3    3    0  502 -0.55773096549E+02 -0.32945260533E+02 -0.66103576226E+01  0.65247204677E+02  0.41800000000E+01 0. -1.
        -11    1    1    2    0    0  0.29351064344E+02  0.26490405580E+02  0.19321094353E+03  0.19721484545E+03  0.00000000000E+00 0.  1.
         11    1    1    2    0    0 -0.31790638707E+02 -0.87142806078E+01  0.28823364284E+02  0.43787780540E+02  0.00000000000E+00 0. -1.
</event>
<event>
 7    1  0.2594791E-009  0.8897541E+02  0.7561462E-02  0.1305352E+00
         -2   -1    0    0    0  501 -0.00000000000E+00  0.00000000000E+00  0.37648480265E+02  0.37648480265E+02  0.00000000000E+00 0.  1.
          2   -1    0    0  501    0  0.00000000000E+00 -0.00000000000E+00 -0.43019575005E+03  0.43019575005E+03  0.00000000000E+00 0. -1.
         25    2    1    2    0    0  0.21029819924E+02  0.15355210337E+00 -0.33161355608E+03  0.35504585732E+03  0.12509090023E+03 0.  0.
          5    1    3    3  502    0 -0.89970190575E+00 -0.61307363783E+02 -0.16108945677E+03  0.17241429117E+03  0.41800000000E+01 0.  1.
         -5    1    3    3    0  502  0.21929521830E+02  0.61460915886E+02 -0.17052409931E+03  0.18263156615E+03  0.41800000000E+01 0.  1.
        -11    1    1    2    0    0 -0.14259835857E+02 -0.23118561519E+02 -0.78523861606E+02  0.83089154809E+02  0.00000000000E+00 0. -1.
         11    1    1    2    0    0 -0.67699840668E+01  0.22965009416E+02  0.17590147903E+02  0.29709218182E+02  0.00000000000E+00 0.  1.
</event>
<event>
 7    1  0.2594791E-009  0.1374363E+03  0.7561462E-02  0.1216821E+00
          2   -1    0    0  501    0  0.00000000000E+00  0.00000000000E+00  0.61197240758E+03  0.61197240758E+03  0.00000000000E+00 0. -1.
         -2   -1    0    0    0  501 -0.00000000000E+00 -0.00000000000E+00 -0.36296258481E+02  0.36296258481E+02  0.00000000000E+00 0.  1.
         25    2    1    2    0    0 -0.36424180886E+02  0.92622516001E+02  0.36326461425E+03  0.39688057070E+03  0.12508939208E+03 0.  0.
          5    1    3    3  502    0  0.11400202527E+02 -0.27694621148E+02  0.73539136022E+02  0.79513732054E+02  0.41800000000E+01 0. -1.
         -5    1    3    3    0  502 -0.47824383413E+02  0.12031713715E+03  0.28972547823E+03  0.31736683865E+03  0.41800000000E+01 0. -1.
        -11    1    1    2    0    0 -0.76498744324E+01 -0.59422120448E+02  0.17434456912E+03  0.18435166871E+03  0.00000000000E+00 0. -1.
         11    1    1    2    0    0  0.44074055318E+02 -0.33200395552E+02  0.38066965733E+02  0.67036426643E+02  0.00000000000E+00 0.  1.
</event>
<event>
 7    1  0.3042934E-009  0.9079720E+02  0.7561462E-02  0.1300933E+00
          1   -1    0    0  501    0  0.00000000000E+00  0.00000000000E+00  0.38856965550E+03  0.38856965550E+03  0.00000000000E+00 0. -1.
         -1   -1    0    0    0  501 -0.00000000000E+00 -0.00000000000E+00 -0.47825070652E+02  0.47825070652E+02  0.00000000000E+00 0.  1.
         25    2    1    2    0    0 -0.81692636256E+02 -0.83695832920E+01  0.18632784910E+03  0.23897690332E+03  0.12509259061E+03 0.  0.
          5    1    3    3  502    0 -0.66956790004E+02 -0.28837409135E+02  0.27380793280E+02  0.77987102356E+02  0.41800000000E+01 0.  1.
         -5    1    3    3    0  502 -0.14735846252E+02  0.20467825843E+02  0.15894705582E+03  0.16098980096E+03  0.41800000000E+01 0.  1.
        -11    1    1    2    0    0  0.36122678274E+02 -0.23312542541E+01  0.14528430229E+03  0.14972578644E+03  0.00000000000E+00 0.  1.
         11    1    1    2    0    0  0.45569957982E+02  0.10700837546E+02  0.91324334534E+01  0.47692036394E+02  0.00000000000E+00 0. -1.
</event>
<event>
 7    1  0.2594791E-009  0.1194649E+03  0.7561462E-02  0.1243982E+00
         -1   -1    0    0    0  501 -0.00000000000E+00  0.00000000000E+00  0.18839612262E+03  0.18839612262E+03  0.00000000000E+00 0.  1.
          1   -1    0    0  501    0  0.00000000000E+00 -0.00000000000E+00 -0.90002326822E+02  0.90002326822E+02  0.00000000000E+00 0. -1.
         25    2    1    2    0    0 -0.60843519952E+01 -0.58225438215E+02  0.38697961399E+02  0.14342804785E+03  0.12508737626E+03 0.  0.
          5    1    3    3  502    0  0.10504348348E+00 -0.89692298484E+02  0.56915680917E+02  0.10630892049E+03  0.41800000000E+01 0. -1.
         -5    1    3    3    0  502 -0.61893954787E+01  0.31466860270E+02 -0.18217719518E+02  0.37119127361E+02  0.41800000000E+01 0. -1.
        -11    1    1    2    0    0  0.51120844435E+02  0.49031052967E+02  0.53115995191E+02  0.88536398368E+02  0.00000000000E+00 0.  1.
         11    1    1    2    0    0 -0.45036492440E+02  0.91943852483E+01  0.65798392096E+01  0.46434003224E+02  0.00000000000E+00 0. -1.
</event>
<event>
 7    1  0.2594791E-009  0.7503471E+02  0.7561462E-02  0.1343764E+00
         -2   -1    0    0    0  501 -0.00000000000E+00  0.00000000000E+00  0.30724386104E+02  0.30724386104E+02  0.00000000000E+00 0. -1.
          2   -1    0    0  501    0  0.00000000000E+00 -0.00000000000E+00 -0.58184151637E+03  0.58184151637E+03  0.00000000000E+00 0.  1.
         25    2    1    2    0    0 -0.27103120612E+02 -0.69020715364E+02 -0.43105618466E+03  0.45492238609E+03  0.12508598938E+03 0.  0.
          5    1    3    3  502    0 -0.53161076832E+01 -0.11633773728E+02 -0.36272184733E+03  0.36297137163E+03  0.41800000000E+01 0. -1.
         -5    1    3    3    0  502 -0.21787012928E+02 -0.57386941635E+02 -0.68334337327E+02  0.91951014462E+02  0.41800000000E+01 0. -1.
        -11    1    1    2    0    0  0.23449941665E+02  0.44545211393E+02 -0.12282698540E+03  0.13274277368E+03  0.00000000000E+00 0.  1.
         11    1    1    2    0    0  0.36531789467E+01  0.24475503970E+02  0.27660397896E+01  0.24900742703E+02  0.00000000000E+00 0. -1.
</event>
<event>
 7    1  0.2594791E-009  0.1304371E+03  0.7561462E-02  0.1226809E+00
         -2   -1    0    0    0  501 -0.00000000000E+00  0.00000000000E+00  0.84128006287E+03  0.84128006287E+03  0.00000000000E+00 0.  1.
          2   -1    0    0  501    0  0.00000000000E+00 -0.00000000000E+00 -0.22522086908E+02  0.22522086908E+02  0.00000000000E+00 0. -1.
         25    2    1    2    0    0 -0.65872602077E+02 -0.34764101762E+02  0.44436905790E+03  0.46760882018E+03  0.12508559716E+03 0.  0.
          5    1    3    3  502    0  0.23492230832E+02 -0.34307604300E+02  0.25215804195E+03  0.25559743180E+03  0.41800000000E+01 0.  1.
         -5    1    3    3    0  502 -0.89364832909E+02 -0.45649746254E+00  0.19221101595E+03  0.21201138838E+03  0.41800000000E+01 0.  1.
        -11    1    1    2    0    0  0.47404929942E+02 -0.34053541670E+02  0.16750759166E+03  0.17738563738E+03  0.00000000000E+00 0. -1.
         11    1    1    2    0    0  0.18467672134E+02  0.68817643433E+02  0.20688132640E+03  0.21880769222E+03  0.00000000000E+00 0.  1.
</event>
<event>
 7    1  0.2594791E-009  0.1056417E+03  0.7561462E-02  0.1268861E+00
          1   -1    0    0  501    0  0.00000000000E+00  0.00000000000E+00  0.29109892780E+03  0.29109892780E+03  0.00000000000E+00 0. -1.
         -1   -1    0    0    0  501 -0.00000000000E+00 -0.00000000000E+00 -0.60470323421E+02  0.60470323421E+02  0.00000000000E+00 0.  1.
         25    2    1    2    0    0 -0.19814165719E+02 -0.75039357594E+02  0.11457451435E+03  0.18654206389E+03  0.12508843237E+03 0.  0.
          5    1    3    3  502    0 -0.41200655967E+02 -0.49696529746E+02  0.13334555207E+03  0.14820846055E+03  0.41800000000E+01 0.  1.
         -5    1    3    3    0  502  0.21386490249E+02 -0.25342827847E+02 -0.18771037719E+02  0.38333603346E+02  0.41800000000E+01 0.  1.
        -11    1    1    2    0    0  0.13816997878E+02  0.93110678579E+02  0.77125608418E+02  0.12169168981E+03  0.00000000000E+00 0.  1.
         11    1    1    2    0    0  0.59971678407E+01 -0.18071320985E+02  0.38928481614E+02  0.43335497516E+02  0.00000000000E+00 0. -1.
</event>
<event>
 6    1  0.2594791E-009  0.1510984E+03  0.7561462E-02  0.1199130E+00
          2   -1    0    0  501    0  0.00000000000E+00  0.00000000000E+00  0.23457660811E+03  0.23457660811E+03  0.00000000000E+00 0. -1.
         -2   -1    0    0    0  501 -0.00000000000E+00 -0.00000000000E+00 -0.11750868753E+03  0.11750868753E+03  0.00000000000E+00 0.  1.
          5    1    1    2  502    0  0.10577809147E+02  0.25160444326E+02  0.65512892930E+02  0.71093948723E+02  0.41800000000E+01 0. -1.
         -5    1    1    2    0  502 -0.12365391381E+03  0.10363543016E+02  0.38492797985E+02  0.12998792760E+03  0.41800000000E+01 0. -1.
        -11    1    1    2    0    0  0.21676836049E+02 -0.53099372059E+02  0.58312298559E+01  0.57649213141E+02  0.00000000000E+00 0. -1.
         11    1    1    2    0    0  0.91399268617E+02  0.17575384716E+02  0.72309998095E+01  0.93354206172E+02  0.00000000000E+00 0.  1.
</event>
<event>
 7    1  0.2594791E-009  0.1047451E+03  0.7561462E-02  0.1270623E+00
          2   -1    0    0  501    0  0.00000000000E+00  0.00000000000E+00  0.90001100495E+03  0.90001100495E+03  0.00000000000E+00 0. -1.
         -2   -1    0    0    0  501 -0.00000000000E+00 -0.00000000000E+00 -0.24019141672E+02  0.24019141672E+02  0.00000000000E+00 0.  1.
         25    2    1    2    0    0 -0.26523345565E+02 -0.37221537421E+02  0.76389834529E+03  0.77542160861E+03  0.12509619679E+03 0.  0.
          5    1    3    3  502    0  0.17646785082E+02  0.38660317160E+02  0.18339107380E+03  0.18829707246E+03  0.41800000000E+01 0. -1.
         -5    1    3    3    0  502 -0.44170130647E+02 -0.75881854581E+02  0.58050727149E+03  0.58712453615E+03  0.41800000000E+01 0. -1.
        -11    1    1    2    0    0  0.43949485741E+02  0.42027794796E+02  0.36587001924E+02  0.70968313649E+02  0.00000000000E+00 0.  1.
         11    1    1    2    0    0 -0.17426140176E+02 -0.48062573750E+01  0.75506516063E+02  0.77640224365E+02  0.00000000000E+00 0. -1.
</event>
<event>
 7    1  0.2594791E-009  0.9307709E+02  0.7561462E-02  0.1295567E+00
         -1   -1    0    0    0  501 -0.00000000000E+00  0.00000000000E+00  0.32485153681E+02  0.32485153681E+02  0.00000000000E+00 0.  1.
          1   -1    0    0  501    0  0.00000000000E+00 -0.00000000000E+00 -0.61960487223E+03  0.61960487223E+03  0.00000000000E+00 0. -1.
         25    2    1    2    0    0 -0.22136933392E+01  0.52332974389E+02 -0.49659344458E+03  0.51477852400E+03  0.12509292116E+03 0.  0.
          5    1    3    3  502    0  0.30952354894E+02 -0.15199542364E+02 -0.44517207495E+02  0.56465286014E+02  0.41800000000E+01 0.  1.
         -5    1    3    3    0  502 -0.33166048233E+02  0.67532516753E+02 -0.45207623708E+03  0.45831323798E+03  0.41800000000E+01 0.  1.
        -11    1    1    2    0    0 -0.24249662620E+02 -0.40213115716E+02 -0.53061072981E+01  0.47257756902E+02  0.00000000000E+00 0.  1.
         11    1    1    2    0    0  0.26463355959E+02 -0.12119858673E+02 -0.85220166674E+02  0.90053745012E+02  0.00000000000E+00 0. -1.
</event>
<event>
 7    1  0.2594791E-009  0.2000805E+03  0.7561462E-02  0.1149671E+00
         -2   -1    0    0    0  501 -0.00000000000E+00  0.00000000000E+00  0.17115331774E+03  0.17115331774E+03  0.00000000000E+00 0.  1.
          2   -1    0    0  501    0  0.00000000000E+00 -0.00000000000E+00 -0.28387925011E+03  0.28387925011E+03  0.00000000000E+00 0. -1.
         25    2    1    2    0    0 -0.17254098002E+03  0.68893919673E+02 -0.86479995827E+01  0.22413023183E+03  0.12507122359E+03 0.  0.
          5    1    3    3  502    0 -0.93048678404E+02  0.90171658416E+02 -0.40458250465E+02  0.13580621107E+03  0.41800000000E+01 0.  1.
         -5    1    3    3    0  502 -0.79492301617E+02 -0.21277738743E+02  0.31810250882E+02  0.88324020762E+02  0.41800000000E+01 0.  1.
        -11    1    1    2    0    0  0.59099169946E+02 -0.88062448954E+01  0.82562633219E+01  0.60319380978E+02  0.00000000000E+00 0.  1.
         11    1    1    2    0    0  0.11344181007E+03 -0.60087674778E+02 -0.11233419611E+03  0.17058295504E+03  0.00000000000E+00 0. -1.
</event>
<event>
 6    1  0.2594791E-009  0.1020251E+03  0.7561462E-02  0.1276094E+00
         -2   -1    0    0    0  501 -0.00000000000E+00  0.00000000000E+00  0.40547045410E+03  0.40547045410E+03  0.00000000000E+00 0.  1.
          2   -1    0    0  501    0  0.00000000000E+00 -0.00000000000E+00 -0.45504230081E+02  0.45504230081E+02  0.00000000000E+00 0. -1.
          5    1    1    2  502    0 -0.49209958624E+02  0.41150796456E+01  0.21979222409E+03  0.22531011535E+03  0.41800000000E+01 0.  1.
         -5    1    1    2    0  502  0.18477275425E+02  0.58590602235E+02  0.46502012054E+02  0.77163319670E+02  0.41800000000E+01 0.  1.
        -11    1    1    2    0    0  0.45632141567E+02 -0.24253825407E+02  0.65219434494E+01  0.52087197441E+02  0.00000000000E+00 0. -1.
         11    1    1    2    0    0 -0.14899458367E+02 -0.38451856473E+02  0.87150044428E+02  0.96414051723E+02  0.00000000000E+00 0.  1.
</event>
<event>
 7    1  0.2594791E-009  0.9898812E+02  0.7561462E-02  0.1282438E+00
         -1   -1    0    0    0  501 -0.00000000000E+00  0.00000000000E+00  0.29731444380E+02  0.29731444380E+02  0.00000000000E+00 0.  1.
          1   -1    0    0  501    0  0.00000000000E+00 -0.00000000000E+00 -0.41141309454E+03  0.41141309454E+03  0.00000000000E+00 0. -1.
         25    2    1    2    0    0 -0.14953566488E+02 -0.12565281752E+02 -0.24576947603E+03  0.27645908045E+03  0.12508194258E+03 0.  0.
          5    1    3    3  502    0 -0.28822918797E+02  0.52439172554E+02 -0.11436123044E+03  0.12913787552E+03  0.41800000000E+01 0.  1.
         -5    1    3    3    0  502  0.13869352309E+02 -0.65004454305E+02 -0.13140824558E+03  0.14732120493E+03  0.41800000000E+01 0.  1.
        -11    1    1    2    0    0  0.88400950267E+01  0.41187434409E+02 -0.22905248423E+02  0.47949999360E+02  0.00000000000E+00 0.  1.
         11    1    1    2    0    0  0.61134714611E+01 -0.28622152657E+02 -0.11300692571E+03  0.11673545911E+03  0.00000000000E+00 0. -1.
</event>
<event>
 7    1  0.2594791E-009  0.9749657E+02  0.7561462E-02  0.1285650E+00
          2   -1    0    0  501    0  0.00000000000E+00  0.00000000000E+00  0.46530267438E+03  0.46530267438E+03  0.00000000000E+00 0.  1.
         -2   -1    0    0    0  501 -0.00000000000E+00 -0.00000000000E+00 -0.50833719022E+02  0.50833719022E+02  0.00000000000E+00 0. -1.
         25    2    1    2    0    0 -0.57285531615E+02  0.78556501622E+02  0.30576151761E+03  0.34436922628E+03  0.12508917731E+03 0.  0.
          5    1    3    3  502    0 -0.44242354103E+02  0.61317405861E+02  0.57373791804E+02  0.95007549932E+02  0.41800000000E+01 0.  1.
         -5    1    3    3    0  502 -0.13043177512E+02  0.17239095761E+02  0.24838772580E+03  0.24936167635E+03  0.41800000000E+01 0.  1.
        -11    1    1    2    0    0  0.49396461388E+02 -0.68920620270E+02  0.12513161249E+03  0.15115549193E+03  0.00000000000E+00 0.  1.
         11    1    1    2    0    0  0.78890702272E+01 -0.96358813520E+01 -0.16424174737E+02  0.20611675193E+02  0.00000000000E+00 0. -1.
</event>
<event>
 7    1  0.2594791E-009  0.7236901E+02  0.7561462E-02  0.1352218E+00
         -2   -1    0    0    0  501 -0.00000000000E+00  0.00000000000E+00  0.60575381612E+02  0.60575381612E+02  0.00000000000E+00 0. -1.
          2   -1    0    0  501    0  0.00000000000E+00 -0.00000000000E+00 -0.30963347003E+03  0.30963347003E+03  0.00000000000E+00 0.  1.
         25    2    1    2    0    0 -0.29359602957E+02 -0.48629120562E+02 -0.22026093599E+03  0.25959441532E+03  0.12509037888E+03 0.  0.
          5    1    3    3  502    0  0.16411049204E+02 -0.16508164878E+02 -0.19776993837E+03  0.19917897220E+03  0.41800000000E+01 0.  1.
         -5    1    3    3    0  502 -0.45770652162E+02 -0.32120955685E+02 -0.22490997627E+02  0.60415443122E+02  0.41800000000E+01 0.  1.
        -11    1    1    2    0    0  0.29861806162E+01  0.35370957600E+02 -0.58698847646E+02  0.68597205710E+02  0.00000000000E+00 0.  1.
         11    1    1    2    0    0  0.26373422341E+02  0.13258162962E+02  0.29901695223E+02  0.42017230612E+02  0.00000000000E+00 0. -1.
</event>
<event>
 7    1  0.2594791E-009  0.1084441E+03  0.7561462E-02  0.1263479E+00
         -3   -1    0    0    0  501 -0.00000000000E+00  0.00000000000E+00  0.33615494933E+02  0.33615494933E+02  0.00000000000E+00 0.  1.
          3   -1    0    0  501    0  0.00000000000E+00 -0.00000000000E+00 -0.52994230557E+03  0.52994230557E+03  0.00000000000E+00 0. -1.
         25    2    1    2    0    0  0.45814422897E+02 -0.21445722643E+02 -0.39049738881E+03  0.41315244275E+03  0.12509136627E+03 0.  0.
          5    1    3    3  502    0 -0.38055201405E+02 -0.31026068708E+02 -0.11886117288E+03  0.12867115494E+03  0.41800000000E+01 0.  1.
         -5    1    3    3    0  502  0.83869624303E+02  0.95803460652E+01 -0.27163621593E+03  0.28448128781E+03  0.41800000000E+01 0.  1.
        -11    1    1    2    0    0  0.10435451317E+02 -0.13354032503E+02 -0.75963211949E+02  0.77830831923E+02  0.00000000000E+00 0. -1.
         11    1    1    2    0    0 -0.56249874214E+02  0.34799755147E+02 -0.29866209878E+02  0.72574525833E+02  0.00000000000E+00 0.  1.
</event>
<event>
 7    1  0.4058302E-009  0.8428483E+02  0.7561462E-02  0.1317313E+00
          3   -1    0    0  501    0  0.00000000000E+00  0.00000000000E+00  0.50288449349E+03  0.50288449349E+03  0.00000000000E+00 0. -1.
         -3   -1    0    0    0  501 -0.00000000000E+00 -0.00000000000E+00 -0.30021712766E+02  0.30021712766E+02  0.00000000000E+00 0.  1.
         25    2    1    2    0    0 -0.27301988777E+02  0.23610038780E+02  0.36308725159E+03  0.38572583232E+03  0.12509689417E+03 0.  0.
          5    1    3    3  502    0 -0.61990086241E+02  0.53783191763E+02  0.19982459671E+03  0.21606189937E+03  0.41800000000E+01 0.  1.
         -5    1    3    3    0  502  0.34688097464E+02 -0.30173152983E+02  0.16326265488E+03  0.16966393295E+03  0.41800000000E+01 0.  1.
        -11    1    1    2    0    0  0.18699064598E+02 -0.44422563099E+01 -0.12621466932E+02  0.22993261741E+02  0.00000000000E+00 0.  1.
         11    1    1    2    0    0  0.86029241784E+01 -0.19167782470E+02  0.12239699606E+03  0.12418711219E+03  0.00000000000E+00 0. -1.
</event>
<event>
 7    1  0.2594791E-009  0.1391792E+03  0.7561462E-02  0.1214438E+00
          1   -1    0    0  501    0  0.00000000000E+00  0.00000000000E+00  0.78629745303E+03  0.78629745303E+03  0.00000000000E+00 0. -1.
         -1   -1    0    0    0  501 -0.00000000000E+00 -0.00000000000E+00 -0.36050275458E+02  0.36050275458E+02  0.00000000000E+00 0.  1.
         25    2    1    2    0    0 -0.39538132768E+01  0.10850717979E+03  0.34421803788E+03  0.38199399822E+03  0.12507564258E+03 0.  0.
          5    1    3    3  502    0 -0.13544506012E+02 -0.12126170606E+02  0.16288217769E+03  0.16394686293E+03  0.41800000000E+01 0. -1.
         -5    1    3    3    0  502  0.95906927356E+01  0.12063335040E+03  0.18133586020E+03  0.21804713529E+03  0.41800000000E+01 0. -1.
        -11    1    1    2    0    0 -0.39873045395E+02 -0.68591807301E+02  0.34967355146E+03  0.35856141506E+03  0.00000000000E+00 0. -1.
         11    1    1    2    0    0  0.43826858672E+02 -0.39915372492E+02  0.56355588222E+02  0.81792315202E+02  0.00000000000E+00 0.  1.
</event>
<event>
 7    1  0.2594791E-009  0.1072944E+03  0.7561462E-02  0.1265664E+00
         -3   -1    0    0    0  501 -0.00000000000E+00  0.00000000000E+00  0.72761282679E+03  0.72761282679E+03  0.00000000000E+00 0.  1.
          3   -1    0    0  501    0  0.00000000000E+00 -0.00000000000E+00 -0.25060337733E+02  0.25060337733E+02  0.00000000000E+00 0. -1.
         25    2    1    2    0    0  0.26127802334E+02  0.56966871532E+02  0.25191061000E+03  0.28815520656E+03  0.12508629475E+03 0.  0.
          5    1    3    3  502    0 -0.20397586790E+02  0.57872573775E+02  0.22704669006E+03  0.23522960742E+03  0.41800000000E+01 0.  1.
         -5    1    3    3    0  502  0.46525389124E+02 -0.90570224295E+00  0.24863919938E+02  0.52925599141E+02  0.41800000000E+01 0.  1.
        -11    1    1    2    0    0  0.85631665803E+01  0.20100014192E+02  0.43286754572E+02  0.48487952254E+02  0.00000000000E+00 0. -1.
         11    1    1    2    0    0 -0.34690968914E+02 -0.77066885724E+02  0.40735512449E+03  0.41603000570E+03  0.00000000000E+00 0.  1.
</event>
<event>
 7    1  0.2594791E-009  0.1148123E+03  0.7561462E-02  0.1251909E+00
         -1   -1    0    0    0  501 -0.00000000000E+00  0.00000000000E+00  0.14439809485E+03  0.14439809485E+03  0.00000000000E+00 0.  1.
          1   -1    0    0  501    0  0.00000000000E+00 -0.00000000000E+00 -0.14719648534E+03  0.14719648534E+03  0.00000000000E+00 0. -1.
         25    2    1    2    0    0 -0.51313985003E+02  0.66742588893E+02 -0.52283371034E+02  0.15958958373E+03  0.12509031186E+03 0.  0.
          5    1    3    3  502    0  0.17982494256E+02  0.69376876495E+02 -0.54417011330E+02  0.90084430474E+02  0.41800000000E+01 0. -1.
         -5    1    3    3    0  502 -0.69296479259E+02 -0.26342876017E+01  0.21336402957E+01  0.69505153260E+02  0.41800000000E+01 0. -1.
        -11    1    1    2    0    0 -0.14680371548E+00 -0.16299858534E+02  0.57252059962E+02  0.59527349256E+02  0.00000000000E+00 0.  1.
         11    1    1    2    0    0  0.51460788718E+02 -0.50442730359E+02 -0.77670794212E+01  0.72477647205E+02  0.00000000000E+00 0. -1.
</event>
<event>
 7    1  0.2594791E-009  0.7084013E+02  0.7561462E-02  0.1357259E+00
         -4   -1    0    0    0  501 -0.00000000000E+00  0.00000000000E+00  0.67097052341E+02  0.67097052341E+02  0.00000000000E+00 0.  1.
          4   -1    0    0  501    0  0.00000000000E+00 -0.00000000000E+00 -0.24247592634E+03  0.24247592634E+03  0.00000000000E+00 0. -1.
         25    2    1    2    0    0  0.40721705713E+02  0.14947247962E+02 -0.37750853347E+02  0.13769136745E+03  0.12510838582E+03 0.  0.
          5    1    3    3  502    0 -0.31792551034E+01 -0.70862515215E+01 -0.75242065489E+02  0.75757266600E+02  0.41800000000E+01 0.  1.
         -5    1    3    3    0  502  0.43900960817E+02  0.22033499483E+02  0.37491212142E+02  0.61934100849E+02  0.41800000000E+01 0.  1.
        -11    1    1    2    0    0  0.51263478103E+01 -0.33656113357E+02 -0.10779100922E+02  0.35709976545E+02  0.00000000000E+00 0.  1.
         11    1    1    2    0    0 -0.45848053523E+02  0.18708865396E+02 -0.12684891973E+03  0.13617163469E+03  0.00000000000E+00 0. -1.
</event>
<event>
 7    1  0.2594791E-009  0.1125648E+03  0.7561462E-02  0.1255893E+00
          1   -1    0    0  501    0  0.00000000000E+00  0.00000000000E+00  0.10476646974E+03  0.10476646974E+03  0.00000000000E+00 0. -1.
         -1   -1    0    0    0  501 -0.00000000000E+00 -0.00000000000E+00 -0.19014823642E+03  0.19014823642E+03  0.00000000000E+00 0.  1.
         25    2    1    2    0    0  0.81174704761E+02  0.82231467861E+01 -0.53954947296E+01  0.14944102258E+03  0.12508619041E+03 0.  0.
          5    1    3    3  502    0 -0.21277662194E+02 -0.20580330266E+02  0.24683237893E+02  0.38768847483E+02  0.41800000000E+01 0. -1.
         -5    1    3    3    0  502  0.10245236695E+03  0.28803477052E+02 -0.30078732622E+02  0.11067217510E+03  0.41800000000E+01 0. -1.
        -11    1    1    2    0    0 -0.27221667885E+02 -0.19655828070E+02 -0.83714337548E+02  0.90196790911E+02  0.00000000000E+00 0.  1.
         11    1    1    2    0    0 -0.53953036876E+02  0.11432681284E+02  0.37280655959E+01  0.55276892664E+02  0.00000000000E+00 0. -1.
</event>
<event>
 7    1  0.2594791E-009  0.1079472E+03  0.7561462E-02  0.1264419E+00
         -2   -1    0    0    0  501 -0.00000000000E+00  0.00000000000E+00  0.79213352991E+02  0.79213352991E+02  0.00000000000E+00 0.  1.
          2   -1    0    0  501    0  0.00000000000E+00 -0.00000000000E+00 -0.20992699020E+03  0.20992699020E+03  0.00000000000E+00 0. -1.
         25    2    1    2    0    0 -0.44551583727E+02 -0.21782077910E+02 -0.15495097622E+02  0.13544314802E+03  0.12508175633E+03 0.  0.
          5    1    3    3  502    0  0.27191965063E+02  0.19834691299E+02  0.25879169658E+02  0.42661713106E+02  0.41800000000E+01 0.  1.
         -5    1    3    3    0  502 -0.71743548791E+02 -0.41616769210E+02 -0.41374267279E+02  0.92781434918E+02  0.41800000000E+01 0.  1.
        -11    1    1    2    0    0  0.68565178460E+02  0.28103618446E+02 -0.69109484225E+02  0.10132678756E+03  0.00000000000E+00 0.  1.
         11    1    1    2    0    0 -0.24013594732E+02 -0.63215405356E+01 -0.46109055361E+02  0.52370407608E+02  0.00000000000E+00 0. -1.
</event>
<event>
 7    1  0.2594791E-009  0.1192242E+03  0.7561462E-02  0.1244382E+00
         -3   -1    0    0    0  501 -0.00000000000E+00  0.00000000000E+00  0.43986576620E+03  0.43986576620E+03  0.00000000000E+00 0.  1.
          3   -1    0    0  501    0  0.00000000000E+00 -0.00000000000E+00 -0.36499138956E+02  0.36499138956E+02  0.00000000000E+00 0. -1.
         25    2    1    2    0    0 -0.31211158593E+02 -0.55836713604E+02  0.23840108894E+03  0.27672072193E+03  0.12508958282E+03 0.  0.
          5    1    3    3  502    0  0.22970136002E+02  0.28957832404E+02  0.42736124563E+02  0.56657143841E+02  0.41800000000E+01 0. -1.
         -5    1    3    3    0  502 -0.54181294595E+02 -0.84794546009E+02  0.19566496438E+03  0.22006357809E+03  0.41800000000E+01 0. -1.
        -11    1    1    2    0    0  0.16797438005E+02  0.74831201462E+02  0.77680857632E+02  0.10916124898E+03  0.00000000000E+00 0. -1.
         11    1    1    2    0    0  0.14413720588E+02 -0.18994487858E+02  0.87284680672E+02  0.90482934249E+02  0.00000000000E+00 0.  1.
</event>
<event>
 7    1  0.2594791E-009  0.7725560E+02  0.7561462E-02  0.1337025E+00
         -2   -1    0    0    0  501 -0.00000000000E+00  0.00000000000E+00  0.89830014536E+03  0.89830014536E+03  0.00000000000E+00 0.  1.
          2   -1    0    0  501    0  0.00000000000E+00 -0.00000000000E+00 -0.55138705453E+02  0.55138705453E+02  0.00000000000E+00 0. -1.
         25    2    1    2    0    0 -0.38668357260E+02  0.42998405655E+02  0.83121936207E+03  0.84256421694E+03  0.12507888328E+03 0.  0.
          5    1    3    3  502    0 -0.70750529266E+01  0.34979578743E+02  0.78516950220E+03  0.78599125115E+03  0.41800000000E+01 0. -1.
         -5    1    3    3    0  502 -0.31593304334E+02  0.80188269122E+01  0.46049859869E+02  0.56572965785E+02  0.41800000000E+01 0. -1.
        -11    1    1    2    0    0  0.48152485136E+02 -0.53221926854E+02 -0.21266792956E+02  0.74856608295E+02  0.00000000000E+00 0. -1.
         11    1    1    2    0    0 -0.94841278755E+01  0.10223521199E+02  0.33208870797E+02  0.36018025583E+02  0.00000000000E+00 0.  1.
</event>
<event>
 6    1  0.2594791E-009  0.1023674E+03  0.7561462E-02  0.1275395E+00
         -1   -1    0    0    0  501 -0.00000000000E+00  0.00000000000E+00  0.84454459840E+02  0.84454459840E+02  0.00000000000E+00 0.  1.
          1   -1    0    0  501    0  0.00000000000E+00 -0.00000000000E+00 -0.19689740677E+03  0.19689740677E+03  0.00000000000E+00 0. -1.
          5    1    1    2  502    0  0.13711003622E+02 -0.35697423922E+02 -0.51681388626E+02  0.64426206045E+02  0.41800000000E+01 0.  1.
         -5    1    1    2    0  502  0.42924881197E+02  0.76723289276E+02 -0.62903059659E+00  0.88016342929E+02  0.41800000000E+01 0.  1.
        -11    1    1    2    0    0 -0.20320460116E+00 -0.16864225249E+02  0.21149379669E+02  0.27050686604E+02  0.00000000000E+00 0.  1.
         11    1    1    2    0    0 -0.56432680217E+02 -0.24161640104E+02 -0.81281907377E+02  0.10185863103E+03  0.00000000000E+00 0. -1.
</event>
<event>
 7    1  0.2594791E-009  0.8561270E+02  0.7561462E-02  0.1313838E+00
         -1   -1    0    0    0  501 -0.00000000000E+00  0.00000000000E+00  0.17956348551E+03  0.17956348551E+03  0.00000000000E+00 0.  1.
          1   -1    0    0  501    0  0.00000000000E+00 -0.00000000000E+00 -0.89996041267E+02  0.89996041267E+02  0.00000000000E+00 0. -1.
         25    2    1    2    0    0  0.43328052719E+02  0.49241874110E+02  0.47736970692E+02  0.14909359512E+03  0.12509196384E+03 0.  0.
          5    1    3    3  502    0  0.22265769658E+02  0.39100413291E+02 -0.38673893863E+02  0.59478981871E+02  0.41800000000E+01 0.  1.
         -5    1    3    3    0  502  0.21062283061E+02  0.10141460819E+02  0.86410864554E+02  0.89614613252E+02  0.41800000000E+01 0.  1.
        -11    1    1    2    0    0 -0.43963335125E+02  0.83027279847E+01 -0.66332435890E+01  0.45229526283E+02  0.00000000000E+00 0. -1.
         11    1    1    2    0    0  0.63528240561E+00 -0.57544602095E+02  0.48463717141E+02  0.75236405371E+02  0.00000000000E+00 0.  1.
</event>
<event>
 7    1  0.2594791E-009  0.1047302E+03  0.7561462E-02  0.1270652E+00
         -1   -1    0    0    0  501 -0.00000000000E+00  0.00000000000E+00  0.12847223108E+03  0.12847223108E+03  0.00000000000E+00 0.  1.
          1   -1    0    0  501    0  0.00000000000E+00 -0.00000000000E+00 -0.98310961816E+02  0.98310961816E+02  0.00000000000E+00 0. -1.
         25    2    1    2    0    0 -0.40188218124E+01 -0.28718727648E+02  0.10903461706E+02  0.12882725494E+03  0.12504663087E+03 0.  0.
          5    1    3    3  502    0  0.35878461309E+02  0.35890317251E+02 -0.48912655282E+01  0.51154430275E+02  0.41800000000E+01 0. -1.
         -5    1    3    3    0  502 -0.39897283121E+02 -0.64609044899E+02  0.15794727234E+02  0.77672824666E+02  0.41800000000E+01 0. -1.
        -11    1    1    2    0    0  0.36337305856E+01  0.55543826632E+02  0.36040004818E+02  0.66311406426E+02  0.00000000000E+00 0.  1.
         11    1    1    2    0    0  0.38509122675E+00 -0.26825098984E+02 -0.16782197261E+02  0.31644531529E+02  0.00000000000E+00 0. -1.
</event>
<event>
 7    1  0.2594791E-009  0.1310202E+03  0.7561462E-02  0.1225950E+00
          2   -1    0    0  501    0  0.00000000000E+00  0.00000000000E+00  0.31729099875E+03  0.31729099875E+03  0.00000000000E+00 0. -1.
         -2   -1    0    0    0  501 -0.00000000000E+00 -0.00000000000E+00 -0.90607698149E+02  0.90607698149E+02  0.00000000000E+00 0.  1.
         25    2    1    2    0    0 -0.10423807986E+03  0.23201915453E+02  0.17863421722E+03  0.24281048670E+03  0.12507135050E+03 0.  0.
          5    1    3    3  502    0 -0.72290706698E+02  0.57783551514E+01  0.19084285968E+03  0.20420040439E+03  0.41800000000E+01 0.  1.
         -5    1    3    3    0  502 -0.31947373161E+02  0.17423560301E+02 -0.12208642457E+02  0.38610082311E+02  0.41800000000E+01 0.  1.
        -11    1    1    2    0    0  0.16334724007E+01  0.34845116905E+02  0.29635817363E+02  0.45772612717E+02  0.00000000000E+00 0. -1.
         11    1    1    2    0    0  0.10260460746E+03 -0.58047032358E+02  0.18413266022E+02  0.11931559748E+03  0.00000000000E+00 0.  1.
</event>
<event>
 7    1  0.2594791E-009  0.7779779E+02  0.7561462E-02  0.1335420E+00
         -2   -1    0    0    0  501 -0.00000000000E+00  0.00000000000E+00  0.28046976479E+03  0.28046976479E+03  0.00000000000E+00 0.  1.
          2   -1    0    0  501    0  0.00000000000E+00 -0.00000000000E+00 -0.55801034415E+02  0.55801034415E+02  0.00000000000E+00 0. -1.
         25    2    1    2    0    0  0.54445784554E+01  0.12110381834E+02  0.20822517438E+03  0.24327575126E+03  0.12509621546E+03 0.  0.
          5    1    3    3  502    0 -0.44649715030E+02 -0.21148697494E+02  0.15543571665E+03  0.16315207283E+03  0.41800000000E+01 0.  1.
         -5    1    3    3    0  502  0.50094293486E+02  0.33259079328E+02  0.52789457724E+02  0.80123678425E+02  0.41800000000E+01 0.  1.
        -11    1    1    2    0    0 -0.12280347307E+02 -0.26831450376E+02  0.48667392768E+02  0.56914398689E+02  0.00000000000E+00 0.  1.
         11    1    1    2    0    0  0.68357688511E+01  0.14721068542E+02 -0.32223836770E+02  0.36080649259E+02  0.00000000000E+00 0. -1.
</event>
<event>
 7    1  0.2594791E-009  0.2820280E+03  0.7561462E-02  0.1094586E+00
         -2   -1    0    0    0  501 -0.00000000000E+00  0.00000000000E+00  0.91783119328E+02  0.91783119328E+02  0.00000000000E+00 0.  1.
          2   -1    0    0  501    0  0.00000000000E+00 -0.00000000000E+00 -0.91675779553E+03  0.91675779553E+03  0.00000000000E+00 0. -1.
         25    2    1    2    0    0 -0.58753030544E+02  0.26093861385E+03 -0.46960442157E+03  0.55472120379E+03  0.12508566018E+03 0.  0.
          5    1    3    3  502    0 -0.43611472328E+02  0.12019182590E+02 -0.83652875475E+02  0.95192947449E+02  0.41800000000E+01 0.  1.
         -5    1    3    3    0  502 -0.15141558216E+02  0.24891943126E+03 -0.38595154609E+03  0.45952825634E+03  0.41800000000E+01 0.  1.
        -11    1    1    2    0    0  0.29786182194E+02 -0.69793294522E+02 -0.45179873023E+02  0.88315013085E+02  0.00000000000E+00 0. -1.
         11    1    1    2    0    0  0.28966848350E+02 -0.19114531933E+03 -0.31019038162E+03  0.36550469799E+03  0.00000000000E+00 0.  1.
</event>
<event>
 7    1  0.2594791E-009  0.2614913E+03  0.7561462E-02  0.1106251E+00
         -1   -1    0    0    0  501 -0.00000000000E+00  0.00000000000E+00  0.11690789224E+04  0.11690789224E+04  0.00000000000E+00 0.  1.
          1   -1    0    0  501    0  0.00000000000E+00 -0.00000000000E+00 -0.75100015850E+02  0.75100015850E+02  0.00000000000E+00 0. -1.
         25    2    1    2    0    0 -0.14210557286E+03  0.21586204238E+03  0.35792982436E+03  0.45885991729E+03  0.12509296284E+03 0.  0.
          5    1    3    3  502    0 -0.63944452058E+02  0.59078349574E+02  0.21744668891E+03  0.23426412285E+03  0.41800000000E+01 0.  1.
         -5    1    3    3    0  502 -0.78161120803E+02  0.15678369280E+03  0.14048313545E+03  0.22459579444E+03  0.41800000000E+01 0.  1.
        -11    1    1    2    0    0  0.20556661008E+02 -0.13716027340E+02  0.21200075227E+02  0.32559927940E+02  0.00000000000E+00 0. -1.
         11    1    1    2    0    0  0.12154891185E+03 -0.20214601504E+03  0.71484900700E+03  0.75275909305E+03  0.00000000000E+00 0.  1.
</event>
<event>
 7    1  0.2594791E-009  0.1095135E+03  0.7561462E-02  0.1261474E+00
         -1   -1    0    0    0  501 -0.00000000000E+00  0.00000000000E+00  0.34604221419E+02  0.34604221419E+02  0.00000000000E+00 0.  1.
          1   -1    0    0  501    0  0.00000000000E+00 -0.00000000000E+00 -0.85348873248E+03  0.85348873248E+03  0.00000000000E+00 0. -1.
         25    2    1    2    0    0  0.52776360947E+02 -0.50075402231E+02 -0.71640394934E+03  0.73087389060E+03  0.12509650332E+03 0.  0.
          5    1    3    3  502    0  0.23819477061E+02  0.32239724307E+02 -0.41819028996E+03  0.42012778809E+03  0.41800000000E+01 0. -1.
         -5    1    3    3    0  502  0.28956883886E+02 -0.82315126538E+02 -0.29821365938E+03  0.31074610251E+03  0.41800000000E+01 0. -1.
        -11    1    1    2    0    0 -0.54462274577E+02  0.15329730935E+02 -0.87624499358E+01  0.57253126828E+02  0.00000000000E+00 0.  1.
         11    1    1    2    0    0  0.16859136303E+01  0.34745671295E+02 -0.93718111785E+02  0.99965936474E+02  0.00000000000E+00 0. -1.
</event>
<event>
 7    1  0.2594791E-009  0.1106989E+03  0.7561462E-02  0.1259281E+00
          2   -1    0    0  501    0  0.00000000000E+00  0.00000000000E+00  0.30864431977E+02  0.30864431977E+02  0.00000000000E+00 0. -1.
         -2   -1    0    0    0  501 -0.00000000000E+00 -0.00000000000E+00 -0.96655409148E+03  0.96655409148E+03  0.00000000000E+00 0.  1.
         25    2    1    2    0    0  0.64212227820E+02 -0.43604687945E+02 -0.78686965716E+03  0.80052228496E+03  0.12508993705E+03 0.  0.
          5    1    3    3  502    0  0.78758820094E+02 -0.20318288923E+02 -0.74976103923E+03  0.75417164688E+03  0.41800000000E+01 0. -1.
         -5    1    3    3    0  502 -0.14546592274E+02 -0.23286399022E+02 -0.37108617931E+02  0.46350638086E+02  0.41800000000E+01 0. -1.
        -11    1    1    2    0    0 -0.83002941132E+02  0.42761603519E+02 -0.15143455069E+03  0.17790577875E+03  0.00000000000E+00 0.  1.
         11    1    1    2    0    0  0.18790713312E+02  0.84308442573E+00  0.26145483434E+01  0.18990459741E+02  0.00000000000E+00 0. -1.
</event>
<event>
 7    1  0.2594791E-009  0.1190909E+03  0.7561462E-02  0.1244604E+00
          2   -1    0    0  501    0  0.00000000000E+00  0.00000000000E+00  0.77422996272E+03  0.77422996272E+03  0.00000000000E+00 0. -1.
         -2   -1    0    0    0  501 -0.00000000000E+00 -0.00000000000E+00 -0.23423005936E+02  0.23423005936E+02  0.00000000000E+00 0.  1.
         25    2    1    2    0    0 -0.42978713332E+02  0.66099830026E+02  0.37427394398E+03  0.40242343086E+03  0.12508906922E+03 0.  0.
          5    1    3    3  502    0 -0.81377644499E+02  0.13973815055E+02  0.19664893065E+03  0.21332103238E+03  0.41800000000E+01 0. -1.
         -5    1    3    3    0  502  0.38398931167E+02  0.52126014971E+02  0.17762501333E+03  0.18910239848E+03  0.41800000000E+01 0. -1.
        -11    1    1    2    0    0  0.31878698051E+02 -0.99527369610E+01  0.32959747489E+02  0.46921778706E+02  0.00000000000E+00 0.  1.
         11    1    1    2    0    0  0.11100015281E+02 -0.56147093065E+02  0.34357326532E+03  0.34830775909E+03  0.00000000000E+00 0. -1.
</event>
<event>
 7    1  0.2594791E-009  0.8433906E+02  0.7561462E-02  0.1317170E+00
          3   -1    0    0  501    0  0.00000000000E+00  0.00000000000E+00  0.13261779531E+03  0.13261779531E+03  0.00000000000E+00 0. -1.
         -3   -1    0    0    0  501 -0.00000000000E+00 -0.00000000000E+00 -0.93648466495E+02  0.93648466495E+02  0.00000000000E+00 0.  1.
         25    2    1    2    0    0  0.47866627431E+01 -0.87669516579E+01  0.28563111254E+01  0.12552210097E+03  0.12509143750E+03 0.  0.
          5    1    3    3  502    0  0.16105341387E+02  0.44795699965E+02 -0.34652577547E+02  0.59028046615E+02  0.41800000000E+01 0.  1.
         -5    1    3    3    0  502 -0.11318678644E+02 -0.53562651623E+02  0.37508888672E+02  0.66494054355E+02  0.41800000000E+01 0.  1.
        -11    1    1    2    0    0 -0.23010705023E+01 -0.28522407650E+02 -0.18859637170E+02  0.34271104123E+02  0.00000000000E+00 0.  1.
         11    1    1    2    0    0 -0.24855922408E+01  0.37289359308E+02  0.54972654865E+02  0.66473056717E+02  0.00000000000E+00 0. -1.
</event>
<event>
 7    1  0.2594791E-009  0.1248359E+03  0.7561462E-02  0.1235326E+00
         -4   -1    0    0    0  501 -0.00000000000E+00  0.00000000000E+00  0.32976320375E+03  0.32976320375E+03  0.00000000000E+00 0.  1.
          4   -1    0    0  501    0  0.00000000000E+00 -0.00000000000E+00 -0.86844489860E+02  0.86844489860E+02  0.00000000000E+00 0. -1.
         25    2    1    2    0    0  0.95372511790E+02 -0.52663006810E+02  0.21602979494E+03  0.27237201670E+03  0.12509330472E+03 0.  0.
          5    1    3    3  502    0  0.16246672398E+02 -0.60433279131E+01  0.16744181859E+03  0.16838857203E+03  0.41800000000E+01 0. -1.
         -5    1    3    3    0  502  0.79125839392E+02 -0.46619678897E+02  0.48587976353E+02  0.10398344467E+03  0.41800000000E+01 0. -1.
        -11    1    1    2    0    0 -0.13429791594E+02 -0.24123345110E+02  0.14698221087E+02  0.31278311730E+02  0.00000000000E+00 0.  1.
         11    1    1    2    0    0 -0.81942720196E+02  0.76786351920E+02  0.12190697860E+02  0.11295736518E+03  0.00000000000E+00 0. -1.
</event>
<event>
 7    1  0.2594791E-009  0.1562540E+03  0.7561462E-02  0.1192992E+00
          4   -1    0    0  501    0  0.00000000000E+00  0.00000000000E+00  0.23427576088E+03  0.23427576088E+03  0.00000000000E+00 0. -1.
         -4   -1    0    0    0  501 -0.00000000000E+00 -0.00000000000E+00 -0.15025085208E+03  0.15025085208E+03  0.00000000000E+00 0.  1.
         25    2    1    2    0    0 -0.13645061933E+03 -0.64829017190E+02  0.61486189367E+02  0.20554513049E+03  0.12508667475E+03 0.  0.
          5    1    3    3  502    0 -0.23314309716E+02 -0.12023836305E+02  0.75312393060E+02  0.79859618240E+02  0.41800000000E+01 0. -1.
         -5    1    3    3    0  502 -0.11313630961E+03 -0.52805180885E+02 -0.13826203693E+02  0.12568551225E+03  0.41800000000E+01 0. -1.
        -11    1    1    2    0    0  0.10848367948E+03  0.23305808678E+02  0.50198173185E+02  0.12178557395E+03  0.00000000000E+00 0. -1.
         11    1    1    2    0    0  0.27966939846E+02  0.41523208512E+02 -0.27659453749E+02  0.57195908518E+02  0.00000000000E+00 0.  1.
</event>
<event>
 7    1  0.2594791E-009  0.2477727E+03  0.7561462E-02  0.1114721E+00
          2   -1    0    0  501    0  0.00000000000E+00  0.00000000000E+00  0.53609089001E+03  0.53609089001E+03  0.00000000000E+00 0. -1.
         -2   -1    0    0    0  501 -0.00000000000E+00 -0.00000000000E+00 -0.13436720810E+03  0.13436720810E+03  0.00000000000E+00 0.  1.
         25    2    1    2    0    0 -0.23326371675E+03 -0.28040397906E+02  0.28628340988E+03  0.39089996175E+03  0.12508542625E+03 0.  0.
          5    1    3    3  502    0 -0.20388981640E+03 -0.63843744681E+02  0.19899736949E+03  0.29200086718E+03  0.41800000000E+01 0.  1.
         -5    1    3    3    0  502 -0.29373900351E+02  0.35803346775E+02  0.87286040383E+02  0.98899094576E+02  0.41800000000E+01 0.  1.
        -11    1    1    2    0    0  0.13430562566E+03  0.92215902142E+01  0.11767347329E+03  0.17880180404E+03  0.00000000000E+00 0.  1.
         11    1    1    2    0    0  0.98958091092E+02  0.18818807692E+02 -0.22332012551E+01  0.10075633232E+03  0.00000000000E+00 0. -1.
</event>
<event>
 7    1  0.2594791E-009  0.1437451E+03  0.7561462E-02  0.1208377E+00
          2   -1    0    0  501    0  0.00000000000E+00  0.00000000000E+00  0.50679102936E+03  0.50679102936E+03  0.00000000000E+00 0. -1.
         -2   -1    0    0    0  501 -0.00000000000E+00 -0.00000000000E+00 -0.57489775918E+02  0.57489775918E+02  0.00000000000E+00 0.  1.
         25    2    1    2    0    0  0.68778401987E+02 -0.85916942174E+02  0.11902344169E+03  0.20475929390E+03  0.12509036428E+03 0.  0.
          5    1    3    3  502    0  0.93005010455E+02 -0.83051781275E+02  0.12770330275E+03  0.17853049116E+03  0.41800000000E+01 0.  1.
         -5    1    3    3    0  502 -0.24226608468E+02 -0.28651608991E+01 -0.86798610614E+01  0.26228802735E+02  0.41800000000E+01 0.  1.
        -11    1    1    2    0    0 -0.90349494377E+01 -0.16843730372E+02  0.82802280339E+02  0.84979757552E+02  0.00000000000E+00 0. -1.
         11    1    1    2    0    0 -0.59743452549E+02  0.10276067255E+03  0.24747553141E+03  0.27454175383E+03  0.00000000000E+00 0.  1.
</event>
<event>
 7    1  0.2594791E-009  0.3481817E+03  0.7561462E-02  0.1063364E+00
          4   -1    0    0  501    0  0.00000000000E+00  0.00000000000E+00  0.15904072868E+03  0.15904072868E+03  0.00000000000E+00 0. -1.
         -4   -1    0    0    0  501 -0.00000000000E+00 -0.00000000000E+00 -0.83281305202E+03  0.83281305202E+03  0.00000000000E+00 0.  1.
         25    2    1    2    0    0  0.31802704400E+03 -0.12617058870E+03 -0.41924892869E+03  0.55540513433E+03  0.12507989789E+03 0.  0.
          5    1    3    3  502    0  0.82560215470E+02  0.35056903604E+01 -0.43777676986E+02  0.93607886664E+02  0.41800000000E+01 0. -1.
         -5    1    3    3    0  502  0.23546682853E+03 -0.12967627906E+03 -0.37547125171E+03  0.46179724766E+03  0.41800000000E+01 0. -1.
        -11    1    1    2    0    0 -0.16610427110E+03  0.88692194270E+02 -0.87693590939E+02  0.20771880053E+03  0.00000000000E+00 0. -1.
         11    1    1    2    0    0 -0.15192277290E+03  0.37478394430E+02 -0.16682980370E+03  0.22872984584E+03  0.00000000000E+00 0.  1.
</event>
<event>
 7    1  0.2594791E-009  0.2285371E+03  0.7561462E-02  0.1127674E+00
          1   -1    0    0  501    0  0.00000000000E+00  0.00000000000E+00  0.17303420695E+04  0.17303420695E+04  0.00000000000E+00 0. -1.
         -1   -1    0    0    0  501 -0.00000000000E+00 -0.00000000000E+00 -0.34772759200E+02  0.34772759200E+02  0.00000000000E+00 0.  1.
         25    2    1    2    0    0  0.15099735385E+03  0.14915812168E+03  0.66929589063E+03  0.71319863394E+03  0.12508779362E+03 0.  0.
          5    1    3    3  502    0 -0.43540505684E+01  0.36622300887E+02  0.36909638898E+02  0.52344479386E+02  0.41800000000E+01 0.  1.
         -5    1    3    3    0  502  0.15535140442E+03  0.11253582080E+03  0.63238625173E+03  0.66085415456E+03  0.41800000000E+01 0.  1.
        -11    1    1    2    0    0 -0.16177338681E+03 -0.14007782364E+03  0.99274794844E+03  0.10155495628E+04  0.00000000000E+00 0.  1.
         11    1    1    2    0    0  0.10776032967E+02 -0.90802980412E+01  0.33525471208E+02  0.36366631941E+02  0.00000000000E+00 0. -1.
</event>
<event>
 7    1  0.2594791E-009  0.1580578E+03  0.7561462E-02  0.1190907E+00
          1   -1    0    0  501    0  0.00000000000E+00  0.00000000000E+00  0.14392995238E+03  0.14392995238E+03  0.00000000000E+00 0. -1.
         -1   -1    0    0    0  501 -0.00000000000E+00 -0.00000000000E+00 -0.27705219263E+03  0.27705219263E+03  0.00000000000E+00 0.  1.
         25    2    1    2    0    0 -0.48144058348E+02 -0.12937839267E+03 -0.16772344907E+03  0.25067456805E+03  0.12509981955E+03 0.  0.
          5    1    3    3  502    0  0.18100378007E+02 -0.75474798061E+02 -0.20440766278E+02  0.80370181986E+02  0.41800000000E+01 0.  1.
         -5    1    3    3    0  502 -0.66244436355E+02 -0.53903594614E+02 -0.14728268279E+03  0.17030438606E+03  0.41800000000E+01 0.  1.
        -11    1    1    2    0    0 -0.14353965664E+02  0.49032349801E+02  0.44873972251E+02  0.67999125310E+02  0.00000000000E+00 0. -1.
         11    1    1    2    0    0  0.62498024012E+02  0.80346042874E+02 -0.10272763428E+02  0.10230845165E+03  0.00000000000E+00 0.  1.
</event>
<event>
 7    1  0.2594791E-009  0.1303616E+03  0.7561462E-02  0.1226920E+00
          2   -1    0    0  501    0  0.00000000000E+00  0.00000000000E+00  0.83085065474E+03  0.83085065474E+03  0.00000000000E+00 0. -1.
         -2   -1    0    0    0  501 -0.00000000000E+00 -0.00000000000E+00 -0.28991716376E+02  0.28991716376E+02  0.00000000000E+00 0.  1.
         25    2    1    2    0    0 -0.74318917183E+02  0.11949403142E+02  0.65486568358E+03  0.67094156058E+03  0.12508966582E+03 0.  0.
          5    1    3    3  502    0 -0.10877056705E+03  0.18755050085E+02  0.50958349382E+03  0.52141691355E+03  0.41800000000E+01 0.  1.
         -5    1    3    3    0  502  0.34451649863E+02 -0.68056469426E+01  0.14528218976E+03  0.14952464703E+03  0.41800000000E+01 0.  1.
        -11    1    1    2    0    0  0.70776570280E+02  0.27030424852E+02  0.73084491830E+02  0.10526779999E+03  0.00000000000E+00 0.  1.
         11    1    1    2    0    0  0.35423469029E+01 -0.38979827994E+02  0.73908762947E+02  0.83633010542E+02  0.00000000000E+00 0. -1.
</event>
<event>
 7    1  0.2594791E-009  0.1888149E+03  0.7561462E-02  0.1159535E+00
         -2   -1    0    0    0  501 -0.00000000000E+00  0.00000000000E+00  0.42282977820E+02  0.42282977820E+02  0.00000000000E+00 0.  1.
          2   -1    0    0  501    0  0.00000000000E+00 -0.00000000000E+00 -0.10733943402E+04  0.10733943402E+04  0.00000000000E+00 0. -1.
         25    2    1    2    0    0  0.78176390910E+02  0.13713390019E+03 -0.77829567442E+03  0.80393197066E+03  0.12508078169E+03 0.  0.
          5    1    3    3  502    0  0.59519440722E+02  0.28948721703E+01 -0.15625558581E+03  0.16728486066E+03  0.41800000000E+01 0. -1.
         -5    1    3    3    0  502  0.18656950188E+02  0.13423902802E+03 -0.62204008861E+03  0.63664711000E+03  0.41800000000E+01 0. -1.
        -11    1    1    2    0    0 -0.95463205737E+02 -0.86598883421E+02 -0.17400972838E+03  0.21654555140E+03  0.00000000000E+00 0. -1.
         11    1    1    2    0    0  0.17286814827E+02 -0.50535016768E+02 -0.78805959585E+02  0.95199795970E+02  0.00000000000E+00 0.  1.
</event>
<event>
 7    1  0.2594791E-009  0.1045815E+03  0.7561462E-02  0.1270946E+00
          1   -1    0    0  501    0  0.00000000000E+00  0.00000000000E+00  0.21029128113E+03  0.21029128113E+03  0.00000000000E+00 0. -1.
         -1   -1    0    0    0  501 -0.00000000000E+00 -0.00000000000E+00 -0.19132788920E+03  0.19132788920E+03  0.00000000000E+00 0.  1.
         25    2    1    2    0    0 -0.57924595288E+02 -0.53674915052E+02 -0.13862523787E+03  0.20272749153E+03  0.12508086985E+03 0.  0.
          5    1    3    3  502    0 -0.20546730843E+02 -0.48570230734E+02 -0.15319438984E+03  0.16207167840E+03  0.41800000000E+01 0. -1.
         -5    1    3    3    0  502 -0.37377864445E+02 -0.51046843184E+01  0.14569151964E+02  0.40655813131E+02  0.41800000000E+01 0. -1.
        -11    1    1    2    0    0 -0.84834429940E+01  0.51149717303E+02  0.47597599739E+02  0.70383193208E+02  0.00000000000E+00 0.  1.
         11    1    1    2    0    0  0.66408038282E+02  0.25251977492E+01  0.10999103007E+03  0.12850848559E+03  0.00000000000E+00 0. -1.
</event>
<event>
 7    1  0.2594791E-009  0.2360260E+03  0.7561462E-02  0.1122469E+00
          2   -1    0    0  501    0  0.00000000000E+00  0.00000000000E+00  0.20458706685E+03  0.20458706685E+03  0.00000000000E+00 0.  1.
         -2   -1    0    0    0  501 -0.00000000000E+00 -0.00000000000E+00 -0.40110642432E+03  0.40110642432E+03  0.00000000000E+00 0. -1.
         25    2    1    2    0    0 -0.22308785268E+03 -0.42552298121E+02  0.43595227813E+02  0.26292519945E+03  0.12510087341E+03 0.  0.
          5    1    3    3  502    0 -0.10184375408E+03 -0.41223446061E+02 -0.38433315557E+02  0.11647366610E+03  0.41800000000E+01 0.  1.
         -5    1    3    3    0  502 -0.12124409860E+03 -0.13288520596E+01  0.82028543370E+02  0.14645153335E+03  0.41800000000E+01 0.  1.
        -11    1    1    2    0    0  0.11896391748E+03 -0.18015192423E+02 -0.89767590122E+02  0.15011722438E+03  0.00000000000E+00 0. -1.
         11    1    1    2    0    0  0.10412393521E+03  0.60567490543E+02 -0.15034699516E+03  0.19265106734E+03  0.00000000000E+00 0.  1.
</event>
<event>
 7    1  0.2594791E-009  0.1930901E+03  0.7561462E-02  0.1155703E+00
          1   -1    0    0  501    0  0.00000000000E+00  0.00000000000E+00  0.71406838137E+02  0.71406838137E+02  0.00000000000E+00 0. -1.
         -1   -1    0    0    0  501 -0.00000000000E+00 -0.00000000000E+00 -0.55556103312E+03  0.55556103312E+03  0.00000000000E+00 0.  1.
         25    2    1    2    0    0 -0.32358313960E+02 -0.15752238539E+03 -0.18804893539E+03  0.27725458611E+03  0.12508933223E+03 0.  0.
          5    1    3    3  502    0  0.40259643786E+02 -0.99708327713E+02 -0.12513990021E+03  0.16504561963E+03  0.41800000000E+01 0.  1.
         -5    1    3    3    0  502 -0.72617957745E+02 -0.57814057676E+02 -0.62909035173E+02  0.11220896648E+03  0.41800000000E+01 0.  1.
        -11    1    1    2    0    0 -0.24706474838E+02  0.10576924043E+03 -0.18460368200E+03  0.21418697796E+03  0.00000000000E+00 0.  1.
         11    1    1    2    0    0  0.57064788798E+02  0.51753144956E+02 -0.11150157760E+03  0.13552630719E+03  0.00000000000E+00 0. -1.
</event>
<event>
 7    1  0.2594791E-009  0.1043162E+03  0.7561462E-02  0.1271473E+00
          1   -1    0    0  501    0  0.00000000000E+00  0.00000000000E+00  0.94147346934E+02  0.94147346934E+02  0.00000000000E+00 0. -1.
         -1   -1    0    0    0  501 -0.00000000000E+00 -0.00000000000E+00 -0.12349095577E+03  0.12349095577E+03  0.00000000000E+00 0.  1.
         25    2    1    2    0    0 -0.64582736404E+01 -0.17364515078E+02 -0.18474359847E+02  0.12779159259E+03  0.12508458531E+03 0.  0.
          5    1    3    3  502    0  0.34995372584E+02  0.41387069694E+02 -0.59390888710E+01  0.54683734481E+02  0.41800000000E+01 0.  1.
         -5    1    3    3    0  502 -0.41453646225E+02 -0.58751584772E+02 -0.12535270976E+02  0.73107858107E+02  0.41800000000E+01 0.  1.
        -11    1    1    2    0    0 -0.12202586903E+02  0.46264051931E+02 -0.23365372344E+02  0.53246654852E+02  0.00000000000E+00 0.  1.
         11    1    1    2    0    0  0.18660860544E+02 -0.28899536853E+02  0.12496123353E+02  0.36600055265E+02  0.00000000000E+00 0. -1.
</event>
<event>
 6    1  0.2594791E-009  0.2641261E+03  0.7561462E-02  0.1104689E+00
          2   -1    0    0  501    0  0.00000000000E+00  0.00000000000E+00  0.85495511393E+02  0.85495511393E+02  0.00000000000E+00 0. -1.
         -2   -1    0    0    0  501 -0.00000000000E+00 -0.00000000000E+00 -0.10427215957E+04  0.10427215957E+04  0.00000000000E+00 0.  1.
          5    1    1    2  502    0  0.71414703203E+02  0.18533586383E+03 -0.26609298780E+03  0.33207287274E+03  0.41800000000E+01 0. -1.
         -5    1    1    2    0  502 -0.17895903562E+02  0.64756471490E+02 -0.17164779766E+02  0.69467733722E+02  0.41800000000E+01 0. -1.
        -11    1    1    2    0    0  0.54288542956E+01 -0.11195589892E+03 -0.38533808265E+03  0.40130914978E+03  0.00000000000E+00 0.  1.
         11    1    1    2    0    0 -0.58947653937E+02 -0.13813643640E+03 -0.28863023415E+03  0.32536735090E+03  0.00000000000E+00 0. -1.
</event>
<event>
 7    1  0.2594791E-009  0.1175145E+03  0.7561462E-02  0.1247255E+00
         -2   -1    0    0    0  501 -0.00000000000E+00  0.00000000000E+00  0.13888258400E+03  0.13888258400E+03  0.00000000000E+00 0.  1.
          2   -1    0    0  501    0  0.00000000000E+00 -0.00000000000E+00 -0.11724538401E+03  0.11724538401E+03  0.00000000000E+00 0. -1.
         25    2    1    2    0    0 -0.27733557604E+02  0.60224874296E+02  0.97533916936E+01  0.14186989245E+03  0.12504300074E+03 0.  0.
          5    1    3    3  502    0  0.44319453950E+02  0.48873595455E+02 -0.82553274485E+01  0.66621806958E+02  0.41800000000E+01 0. -1.
         -5    1    3    3    0  502 -0.72053011554E+02  0.11351278841E+02  0.18008719142E+02  0.75248085494E+02  0.41800000000E+01 0. -1.
        -11    1    1    2    0    0  0.50557995884E+02 -0.49067420558E+02 -0.20238931455E+02  0.73303049421E+02  0.00000000000E+00 0. -1.
         11    1    1    2    0    0 -0.22824438279E+02 -0.11157453738E+02  0.32122739748E+02  0.40955026133E+02  0.00000000000E+00 0.  1.
</event>
<event>
 7    1  0.2594791E-009  0.1134250E+03  0.7561462E-02  0.1254356E+00
         -2   -1    0    0    0  501 -0.00000000000E+00  0.00000000000E+00  0.20120223644E+03  0.20120223644E+03  0.00000000000E+00 0.  1.
          2   -1    0    0  501    0  0.00000000000E+00 -0.00000000000E+00 -0.74979258467E+02  0.74979258467E+02  0.00000000000E+00 0. -1.
         25    2    1    2    0    0  0.60761219086E+02 -0.11497440095E+02  0.83709656354E+02  0.16272393006E+03  0.12509058307E+03 0.  0.
          5    1    3    3  502    0  0.40345997640E+02  0.46067041025E+02  0.80753122155E+02  0.10143229728E+03  0.41800000000E+01 0.  1.
         -5    1    3    3    0  502  0.20415221446E+02 -0.57564481121E+02  0.29565341988E+01  0.61291632772E+02  0.41800000000E+01 0.  1.
        -11    1    1    2    0    0 -0.19958451065E+02  0.46429086188E+02  0.13051866629E+02  0.52195316224E+02  0.00000000000E+00 0.  1.
         11    1    1    2    0    0 -0.40802768021E+02 -0.34931646093E+02  0.29461454991E+02  0.61262248629E+02  0.00000000000E+00 0. -1.
</event>
<event>
 7    1  0.2594791E-009  0.1083095E+03  0.7561462E-02  0.1263733E+00
          2   -1    0    0  501    0  0.00000000000E+00  0.00000000000E+00  0.12543935086E+04  0.12543935086E+04  0.00000000000E+00 0. -1.
         -2   -1    0    0    0  501 -0.00000000000E+00 -0.00000000000E+00 -0.25681939911E+02  0.25681939911E+02  0.00000000000E+00 0.  1.
         25    2    1    2    0    0  0.27616395861E+00 -0.25836873022E+00  0.11555545081E+04  0.11623046758E+04  0.12508315296E+03 0.  0.
          5    1    3    3  502    0  0.62425986207E+02  0.31956055757E+01  0.59549257660E+03  0.59877883800E+03  0.41800000000E+01 0.  1.
         -5    1    3    3    0  502 -0.62149822248E+02 -0.34539743059E+01  0.56006193148E+03  0.56352583777E+03  0.41800000000E+01 0.  1.
        -11    1    1    2    0    0  0.98899430949E+01  0.44810252049E+02  0.29377700694E+02  0.54486869622E+02  0.00000000000E+00 0.  1.
         11    1    1    2    0    0 -0.10166107054E+02 -0.44551883319E+02  0.43779359933E+02  0.63283903135E+02  0.00000000000E+00 0. -1.
</event>
<event>
 7    1  0.2594791E-009  0.1707164E+03  0.7561462E-02  0.1177103E+00
         -1   -1    0    0    0  501 -0.00000000000E+00  0.00000000000E+00  0.83028197057E+02  0.83028197057E+02  0.00000000000E+00 0.  1.
          1   -1    0    0  501    0  0.00000000000E+00 -0.00000000000E+00 -0.42535672208E+03  0.42535672208E+03  0.00000000000E+00 0. -1.
         25    2    1    2    0    0  0.13485331606E+03  0.61155008381E+02 -0.22791042260E+03  0.29919256450E+03  0.12509067918E+03 0.  0.
          5    1    3    3  502    0  0.15846501869E+03  0.46319774587E+02 -0.18672718970E+03  0.24928136601E+03  0.41800000000E+01 0. -1.
         -5    1    3    3    0  502 -0.23611702627E+02  0.14835233793E+02 -0.41183232899E+02  0.49911198490E+02  0.41800000000E+01 0. -1.
        -11    1    1    2    0    0 -0.68765570396E+02 -0.32337265965E+02 -0.24612506160E+01  0.76029337736E+02  0.00000000000E+00 0.  1.
         11    1    1    2    0    0 -0.66087745664E+02 -0.28817742415E+02 -0.11195685181E+03  0.13316301691E+03  0.00000000000E+00 0. -1.
</event>
<event>
 7    1  0.2594791E-009  0.1116987E+03  0.7561462E-02  0.1257456E+00
         -1   -1    0    0    0  501 -0.00000000000E+00  0.00000000000E+00  0.53143267314E+03  0.53143267314E+03  0.00000000000E+00 0.  1.
          1   -1    0    0  501    0  0.00000000000E+00 -0.00000000000E+00 -0.66307927498E+02  0.66307927498E+02  0.00000000000E+00 0. -1.
         25    2    1    2    0    0 -0.24137785921E+02 -0.16719816763E+01  0.52530155813E+01  0.12751214562E+03  0.12508527042E+03 0.  0.
          5    1    3    3  502    0 -0.41670172529E+02 -0.55831858287E+02 -0.28963385062E+01  0.69853137762E+02  0.41800000000E+01 0.  1.
         -5    1    3    3    0  502  0.17532386608E+02  0.54159876611E+02  0.81493540875E+01  0.57659007854E+02  0.41800000000E+01 0.  1.
        -11    1    1    2    0    0 -0.37623247265E+01  0.44909258334E+02  0.17272484554E+03  0.17850733553E+03  0.00000000000E+00 0.  1.
         11    1    1    2    0    0  0.27900110648E+02 -0.43237276658E+02  0.28714688452E+03  0.29172111949E+03  0.00000000000E+00 0. -1.
</event>
<event>
 7    1  0.2594791E-009  0.1103418E+03  0.7561462E-02  0.1259938E+00
         -2   -1    0    0    0  501 -0.00000000000E+00  0.00000000000E+00  0.48063698139E+02  0.48063698139E+02  0.00000000000E+00 0.  1.
          2   -1    0    0  501    0  0.00000000000E+00 -0.00000000000E+00 -0.34417034602E+03  0.34417034602E+03  0.00000000000E+00 0. -1.
         25    2    1    2    0    0  0.11593857813E+02 -0.59482627043E+00 -0.64460566377E+02  0.14119601920E+03  0.12508549021E+03 0.  0.
          5    1    3    3  502    0 -0.61022345531E+01 -0.61323562912E+02 -0.37867409973E+02  0.72451568463E+02  0.41800000000E+01 0.  1.
         -5    1    3    3    0  502  0.17696092366E+02  0.60728736642E+02 -0.26593156404E+02  0.68744450734E+02  0.41800000000E+01 0.  1.
        -11    1    1    2    0    0  0.13456230482E+02 -0.43102907344E+02 -0.12954106420E+03  0.13718534206E+03  0.00000000000E+00 0. -1.
         11    1    1    2    0    0 -0.25050088295E+02  0.43697733614E+02 -0.10210501730E+03  0.11385268290E+03  0.00000000000E+00 0.  1.
</event>
<event>
 6    1  0.2594791E-009  0.2112347E+03  0.7561462E-02  0.1140592E+00
         -2   -1    0    0    0  501 -0.00000000000E+00  0.00000000000E+00  0.33299806116E+02  0.33299806116E+02  0.00000000000E+00 0.  1.
          2   -1    0    0  501    0  0.00000000000E+00 -0.00000000000E+00 -0.15732978303E+04  0.15732978303E+04  0.00000000000E+00 0. -1.
          5    1    1    2  502    0 -0.20967992127E+03  0.17247254654E+02 -0.91767697394E+03  0.94149436434E+03  0.41800000000E+01 0.  1.
         -5    1    1    2    0  502  0.18379437632E+02  0.63315160003E+00 -0.85621305305E+02  0.87673741398E+02  0.41800000000E+01 0.  1.
        -11    1    1    2    0    0  0.52816359869E+02  0.40465042684E+01 -0.27969314282E+03  0.28466505969E+03  0.00000000000E+00 0. -1.
         11    1    1    2    0    0  0.13848412377E+03 -0.21926910522E+02 -0.25700660210E+03  0.29276447098E+03  0.00000000000E+00 0.  1.
</event>
<event>
 7    1  0.2594791E-009  0.1335294E+03  0.7561462E-02  0.1222311E+00
          1   -1    0    0  501    0  0.00000000000E+00  0.00000000000E+00  0.65902428296E+03  0.65902428296E+03  0.00000000000E+00 0. -1.
         -1   -1    0    0    0  501 -0.00000000000E+00 -0.00000000000E+00 -0.30965143827E+02  0.30965143827E+02  0.00000000000E+00 0.  1.
         25    2    1    2    0    0  0.30707859979E+02  0.74772984918E+02  0.46330101607E+03  0.48665229510E+03  0.12509457580E+03 0.  0.
          5    1    3    3  502    0  0.47911138969E+02 -0.19556139452E+02  0.19109137277E+03  0.19801844605E+03  0.41800000000E+01 0. -1.
         -5    1    3    3    0  502 -0.17203278991E+02  0.94329124370E+02  0.27220964330E+03  0.28863384905E+03  0.41800000000E+01 0. -1.
        -11    1    1    2    0    0 -0.94355935552E+01 -0.91573942890E+02  0.12767353200E+03  0.15740186853E+03  0.00000000000E+00 0. -1.
         11    1    1    2    0    0 -0.21272266423E+02  0.16800957972E+02  0.37084591057E+02  0.45935263158E+02  0.00000000000E+00 0.  1.
</event>
<event>
 7    1  0.2594791E-009  0.2686724E+03  0.7561462E-02  0.1102042E+00
         -1   -1    0    0    0  501 -0.00000000000E+00  0.00000000000E+00  0.50175236505E+02  0.50175236505E+02  0.00000000000E+00 0.  1.
          1   -1    0    0  501    0  0.00000000000E+00 -0.00000000000E+00 -0.14976839826E+04  0.14976839826E+04  0.00000000000E+00 0. -1.
         25    2    1    2    0    0 -0.91911264091E+02 -0.23217707967E+03 -0.67172157330E+03  0.72747436264E+03  0.12512073962E+03 0.  0.
          5    1    3    3  502    0  0.31309319792E+02 -0.41610872969E+02 -0.13290532810E+03  0.14280419073E+03  0.41800000000E+01 0. -1.
         -5    1    3    3    0  502 -0.12322058388E+03 -0.19056620670E+03 -0.53881624520E+03  0.58467017191E+03  0.41800000000E+01 0. -1.
        -11    1    1    2    0    0  0.19310664666E+02  0.13736167546E+03 -0.31155383329E+03  0.34103800769E+03  0.00000000000E+00 0.  1.
         11    1    1    2    0    0  0.72600599425E+02  0.94815404208E+02 -0.46423333951E+03  0.47934684877E+03  0.00000000000E+00 0. -1.
</event>
<event>
 7    1  0.2594791E-009  0.1432557E+03  0.7561462E-02  0.1209014E+00
         -1   -1    0    0    0  501 -0.00000000000E+00  0.00000000000E+00  0.20574002332E+03  0.20574002332E+03  0.00000000000E+00 0.  1.
          1   -1    0    0  501    0  0.00000000000E+00 -0.00000000000E+00 -0.10413239791E+03  0.10413239791E+03  0.00000000000E+00 0. -1.
         25    2    1    2    0    0 -0.72351617243E+02  0.61551478589E+02  0.78655327557E+02  0.17566370357E+03  0.12509090760E+03 0.  0.
          5    1    3    3  502    0  0.34457036656E+02  0.12881743243E+02  0.58579556092E+01  0.37483526088E+02  0.41800000000E+01 0.  1.
         -5    1    3    3    0  502 -0.10680865390E+03  0.48669735346E+02  0.72797371948E+02  0.13818017748E+03  0.41800000000E+01 0.  1.
        -11    1    1    2    0    0  0.18360277591E+02  0.24400498210E+02  0.22746200222E+01  0.30621201844E+02  0.00000000000E+00 0. -1.
         11    1    1    2    0    0  0.53991339651E+02 -0.85951976799E+02  0.20677677831E+02  0.10358751582E+03  0.00000000000E+00 0.  1.
</event>
<event>
 7    1  0.2594791E-009  0.1228729E+03  0.7561462E-02  0.1238431E+00
          1   -1    0    0  501    0  0.00000000000E+00  0.00000000000E+00  0.55196541219E+03  0.55196541219E+03  0.00000000000E+00 0. -1.
         -1   -1    0    0    0  501 -0.00000000000E+00 -0.00000000000E+00 -0.41861256838E+02  0.41861256838E+02  0.00000000000E+00 0.  1.
         25    2    1    2    0    0 -0.78146894194E+02  0.94329853130E+01  0.42016587164E+03  0.44540295118E+03  0.12509400844E+03 0.  0.
          5    1    3    3  502    0 -0.74155289731E+02  0.60678299535E+02  0.25898678878E+03  0.27617474937E+03  0.41800000000E+01 0.  1.
         -5    1    3    3    0  502 -0.39916044628E+01 -0.51245314222E+02  0.16117908286E+03  0.16922820181E+03  0.41800000000E+01 0.  1.
        -11    1    1    2    0    0  0.22254662082E+02 -0.31168349287E+02 -0.23415228030E+01  0.38369502351E+02  0.00000000000E+00 0.  1.
         11    1    1    2    0    0  0.55892232112E+02  0.21735363974E+02  0.92279806521E+02  0.11005421550E+03  0.00000000000E+00 0. -1.
</event>
<event>
 7    1  0.2594791E-009  0.2409961E+03  0.7561462E-02  0.1119131E+00
          1   -1    0    0  501    0  0.00000000000E+00  0.00000000000E+00  0.87703271019E+03  0.87703271019E+03  0.00000000000E+00 0. -1.
         -1   -1    0    0    0  501 -0.00000000000E+00 -0.00000000000E+00 -0.77778902186E+02  0.77778902186E+02  0.00000000000E+00 0.  1.
         25    2    1    2    0    0  0.71146247638E+02 -0.20775693949E+03  0.57044178357E+03  0.62391975357E+03  0.12508915217E+03 0.  0.
          5    1    3    3  502    0  0.98845079826E+02 -0.17406764729E+03  0.39192879193E+03  0.44010856159E+03  0.41800000000E+01 0.  1.
         -5    1    3    3    0  502 -0.27698832188E+02 -0.33689292207E+02  0.17851299164E+03  0.18381119198E+03  0.41800000000E+01 0.  1.
        -11    1    1    2    0    0 -0.22965936531E+02  0.18177596884E+03  0.16245147745E+03  0.24486816783E+03  0.00000000000E+00 0.  1.
         11    1    1    2    0    0 -0.48180311107E+02  0.25980970659E+02  0.66360546976E+02  0.86023690979E+02  0.00000000000E+00 0. -1.
</event>
<event>
 7    1  0.2594791E-009  0.8577929E+02  0.7561462E-02  0.1313407E+00
          2   -1    0    0  501    0  0.00000000000E+00  0.00000000000E+00  0.46983458991E+02  0.46983458991E+02  0.00000000000E+00 0. -1.
         -2   -1    0    0    0  501 -0.00000000000E+00 -0.00000000000E+00 -0.29250906875E+03  0.29250906875E+03  0.00000000000E+00 0.  1.
         25    2    1    2    0    0  0.42443243323E+00  0.45662239444E+02 -0.14506788872E+03  0.19691365658E+03  0.12508027645E+03 0.  0.
          5    1    3    3  502    0 -0.48517117584E+02  0.52018180386E+02 -0.42381253555E+02  0.82906241274E+02  0.41800000000E+01 0. -1.
         -5    1    3    3    0  502  0.48941550017E+02 -0.63559409423E+01 -0.10268663516E+03  0.11400741530E+03  0.41800000000E+01 0. -1.
        -11    1    1    2    0    0  0.10297130999E+02 -0.14237318227E+02  0.14588131529E+02  0.22837375475E+02  0.00000000000E+00 0. -1.
         11    1    1    2    0    0 -0.10721563432E+02 -0.31424921217E+02 -0.11504585257E+03  0.11974149569E+03  0.00000000000E+00 0.  1.
</event>
<event>
 7    1  0.2594791E-009  0.1322607E+03  0.7561462E-02  0.1224139E+00
         -2   -1    0    0    0  501 -0.00000000000E+00  0.00000000000E+00  0.24155083997E+02  0.24155083997E+02  0.00000000000E+00 0.  1.
          2   -1    0    0  501    0  0.00000000000E+00 -0.00000000000E+00 -0.81224476777E+03  0.81224476777E+03  0.00000000000E+00 0. -1.
         25    2    1    2    0    0 -0.64936430969E+02  0.52569549142E+02 -0.49964989924E+03  0.52180269333E+03  0.12509089251E+03 0.  0.
          5    1    3    3  502    0 -0.97133785170E+02  0.36850750456E+02 -0.26982708952E+03  0.28916618175E+03  0.41800000000E+01 0.  1.
         -5    1    3    3    0  502  0.32197354201E+02  0.15718798686E+02 -0.22982280972E+03  0.23263651157E+03  0.41800000000E+01 0.  1.
        -11    1    1    2    0    0  0.86741573061E+02 -0.26946795652E+02 -0.22794820718E+03  0.24537851464E+03  0.00000000000E+00 0. -1.
         11    1    1    2    0    0 -0.21805142092E+02 -0.25622753491E+02 -0.60491577357E+02  0.69218643798E+02  0.00000000000E+00 0.  1.
</event>
<event>
 7    1  0.2594791E-009  0.9998934E+02  0.7561462E-02  0.1280318E+00
         -2   -1    0    0    0  501 -0.00000000000E+00  0.00000000000E+00  0.44426252663E+03  0.44426252663E+03  0.00000000000E+00 0.  1.
          2   -1    0    0  501    0  0.00000000000E+00 -0.00000000000E+00 -0.26590013635E+02  0.26590013635E+02  0.00000000000E+00 0. -1.
         25    2    1    2    0    0 -0.27972843546E+01 -0.13877112332E+02  0.22216773033E+03  0.25535457162E+03  0.12508820010E+03 0.  0.
          5    1    3    3  502    0  0.54283962868E+02 -0.11083042309E+02  0.53157864104E+02  0.76894820161E+02  0.41800000000E+01 0. -1.
         -5    1    3    3    0  502 -0.57081247223E+02 -0.27940700231E+01  0.16900986622E+03  0.17845975146E+03  0.41800000000E+01 0. -1.
        -11    1    1    2    0    0 -0.39007946002E+02 -0.81673584243E+01  0.11976816280E+03  0.12622495163E+03  0.00000000000E+00 0.  1.
         11    1    1    2    0    0  0.41805230357E+02  0.22044470756E+02  0.75736619872E+02  0.89273017008E+02  0.00000000000E+00 0. -1.
</event>
<event>
 7    1  0.2594791E-009  0.9770382E+02  0.7561462E-02  0.1285200E+00
         -1   -1    0    0    0  501 -0.00000000000E+00  0.00000000000E+00  0.56214650880E+03  0.56214650880E+03  0.00000000000E+00 0.  1.
          1   -1    0    0  501    0  0.00000000000E+00 -0.00000000000E+00 -0.22286072570E+02  0.22286072570E+02  0.00000000000E+00 0. -1.
         25    2    1    2    0    0 -0.20639652705E+02 -0.22173703275E+02  0.29179933008E+03  0.31892360943E+03  0.12509097183E+03 0.  0.
          5    1    3    3  502    0  0.33187364685E+02 -0.44383524242E+02  0.21719535889E+03  0.22419320847E+03  0.41800000000E+01 0. -1.
         -5    1    3    3    0  502 -0.53827017390E+02  0.22209820966E+02  0.74603971188E+02  0.94730400957E+02  0.41800000000E+01 0. -1.
        -11    1    1    2    0    0  0.24443412700E+02  0.48787215763E+02  0.90558934435E+02  0.10572886764E+03  0.00000000000E+00 0.  1.
         11    1    1    2    0    0 -0.38037599957E+01 -0.26613512488E+02  0.15750217171E+03  0.15978010430E+03  0.00000000000E+00 0. -1.
</event>
<event>
 7    1  0.2594791E-009  0.9078635E+02  0.7561462E-02  0.1300959E+00
          1   -1    0    0  501    0  0.00000000000E+00  0.00000000000E+00  0.20049111415E+03  0.20049111415E+03  0.00000000000E+00 0. -1.
         -1   -1    0    0    0  501 -0.00000000000E+00 -0.00000000000E+00 -0.66605542471E+02  0.66605542471E+02  0.00000000000E+00 0.  1.
         25    2    1    2    0    0 -0.60500254742E+01 -0.27495907169E+02  0.50950224261E+02  0.13797123645E+03  0.12509000367E+03 0.  0.
          5    1    3    3  502    0  0.45646601787E+02  0.10007623244E+02 -0.11757083195E+02  0.48368028520E+02  0.41800000000E+01 0.  1.
         -5    1    3    3    0  502 -0.51696627261E+02 -0.37503530413E+02  0.62707307456E+02  0.89603207933E+02  0.41800000000E+01 0.  1.
        -11    1    1    2    0    0 -0.29361008660E+02  0.15900609346E+02 -0.48678533424E+01  0.33743061557E+02  0.00000000000E+00 0.  1.
         11    1    1    2    0    0  0.35411034134E+02  0.11595297823E+02  0.87803200759E+02  0.95382358608E+02  0.00000000000E+00 0. -1.
</event>
<event>
 7    1  0.2594791E-009  0.2317090E+03  0.7561462E-02  0.1125443E+00
          3   -1    0    0  501    0  0.00000000000E+00  0.00000000000E+00  0.33159562913E+03  0.33159562913E+03  0.00000000000E+00 0. -1.
         -3   -1    0    0    0  501 -0.00000000000E+00 -0.00000000000E+00 -0.17684895389E+03  0.17684895389E+03  0.00000000000E+00 0.  1.
         25    2    1    2    0    0 -0.20510812518E+03  0.60593005898E+02  0.46812775205E+02  0.25214878670E+03  0.12508684716E+03 0.  0.
          5    1    3    3  502    0 -0.16355482365E+02  0.45332419907E+02 -0.18499194597E+02  0.51790179559E+02  0.41800000000E+01 0.  1.
         -5    1    3    3    0  502 -0.18875264282E+03  0.15260585991E+02  0.65311969802E+02  0.20035860714E+03  0.41800000000E+01 0.  1.
        -11    1    1    2    0    0  0.10940705697E+03 -0.69340081922E+02  0.92016008926E+02  0.15888642791E+03  0.00000000000E+00 0. -1.
         11    1    1    2    0    0  0.95701068217E+02  0.87470760237E+01  0.15917891118E+02  0.97409368412E+02  0.00000000000E+00 0.  1.
</event>
<event>
 6    1  0.2594791E-009  0.1975781E+03  0.7561462E-02  0.1151799E+00
         -1   -1    0    0    0  501 -0.00000000000E+00  0.00000000000E+00  0.26649339513E+03  0.26649339513E+03  0.00000000000E+00 0.  1.
          1   -1    0    0  501    0  0.00000000000E+00 -0.00000000000E+00 -0.16251758160E+03  0.16251758160E+03  0.00000000000E+00 0. -1.
          5    1    1    2  502    0 -0.83983743034E+02 -0.60940679138E+00 -0.82704429262E+01  0.84495639514E+02  0.41800000000E+01 0. -1.
         -5    1    1    2    0  502 -0.56445426448E+02  0.10927361113E+03  0.68264800520E+02  0.14072797748E+03  0.41800000000E+01 0. -1.
        -11    1    1    2    0    0  0.92265242758E+02 -0.10488586930E+03  0.18801057913E+01  0.13970488681E+03  0.00000000000E+00 0. -1.
         11    1    1    2    0    0  0.48163926723E+02 -0.37783350376E+01  0.42101350137E+02  0.64082472927E+02  0.00000000000E+00 0.  1.
</event>
<event>
 7    1  0.2594791E-009  0.7353314E+02  0.7561462E-02  0.1348475E+00
          1   -1    0    0  501    0  0.00000000000E+00  0.00000000000E+00  0.33972847893E+03  0.33972847893E+03  0.00000000000E+00 0. -1.
         -1   -1    0    0    0  501 -0.00000000000E+00 -0.00000000000E+00 -0.48928354608E+02  0.48928354608E+02  0.00000000000E+00 0.  1.
         25    2    1    2    0    0  0.25766787745E+02 -0.63725456771E+02  0.16560297614E+03  0.21862369244E+03  0.12508841672E+03 0.  0.
          5    1    3    3  502    0  0.12439903043E+02 -0.54219152792E+02  0.37708918442E+01  0.55912071528E+02  0.41800000000E+01 0. -1.
         -5    1    3    3    0  502  0.13326884702E+02 -0.95063039787E+01  0.16183208430E+03  0.16271162091E+03  0.41800000000E+01 0. -1.
        -11    1    1    2    0    0  0.10405916347E+01  0.35295211071E+02  0.12609636537E+03  0.13094704317E+03  0.00000000000E+00 0. -1.
         11    1    1    2    0    0 -0.26807379380E+02  0.28430245700E+02 -0.89921719052E+00  0.39086097929E+02  0.00000000000E+00 0.  1.
</event>
<event>
 7    1  0.2594791E-009  0.9519124E+02  0.7561462E-02  0.1290746E+00
         -1   -1    0    0    0  501 -0.00000000000E+00  0.00000000000E+00  0.78016311092E+02  0.78016311092E+02  0.00000000000E+00 0.  1.
          1   -1    0    0  501    0  0.00000000000E+00 -0.00000000000E+00 -0.20204583876E+03  0.20204583876E+03  0.00000000000E+00 0. -1.
         25    2    1    2    0    0  0.40165188623E+02 -0.34931470793E+02 -0.40914305099E+02  0.14196850673E+03  0.12509047331E+03 0.  0.
          5    1    3    3  502    0 -0.45967408147E+01  0.42326131759E+02 -0.29253080821E+02  0.51825154059E+02  0.41800000000E+01 0. -1.
         -5    1    3    3    0  502  0.44761929437E+02 -0.77257602552E+02 -0.11661224278E+02  0.90143352671E+02  0.41800000000E+01 0. -1.
        -11    1    1    2    0    0 -0.22523092724E+02  0.43912095196E+01  0.19168429414E+02  0.29899851390E+02  0.00000000000E+00 0.  1.
         11    1    1    2    0    0 -0.17642095898E+02  0.30540261274E+02 -0.10228365199E+03  0.10819379174E+03  0.00000000000E+00 0. -1.
</event>
<event>
 7    1  0.2594791E-009  0.8128508E+02  0.7561462E-02  0.1325444E+00
         -3   -1    0    0    0  501 -0.00000000000E+00  0.00000000000E+00  0.80244739287E+02  0.80244739287E+02  0.00000000000E+00 0.  1.
          3   -1    0    0  501    0  0.00000000000E+00 -0.00000000000E+00 -0.15809437033E+03  0.15809437033E+03  0.00000000000E+00 0. -1.
         25    2    1    2    0    0  0.28741534292E+02  0.70962342970E+01 -0.27314577869E+02  0.13142180204E+03  0.12509664885E+03 0.  0.
          5    1    3    3  502    0  0.33241732582E+02  0.31272710046E+02 -0.69005332634E+02  0.82838418083E+02  0.41800000000E+01 0.  1.
         -5    1    3    3    0  502 -0.45001982898E+01 -0.24176475749E+02  0.41690754764E+02  0.48583383961E+02  0.41800000000E+01 0.  1.
        -11    1    1    2    0    0  0.16712423368E+02  0.29188450079E+02 -0.72227939897E+01  0.34401155008E+02  0.00000000000E+00 0. -1.
         11    1    1    2    0    0 -0.45453957660E+02 -0.36284684376E+02 -0.43312259185E+02  0.72516152566E+02  0.00000000000E+00 0.  1.
</event>
<event>
 7    1  0.2594791E-009  0.1464056E+03  0.7561462E-02  0.1204961E+00
         -2   -1    0    0    0  501 -0.00000000000E+00  0.00000000000E+00  0.75468418127E+02  0.75468418127E+02  0.00000000000E+00 0.  1.
          2   -1    0    0  501    0  0.00000000000E+00 -0.00000000000E+00 -0.35766703881E+03  0.35766703881E+03  0.00000000000E+00 0. -1.
         25    2    1    2    0    0 -0.12227717860E+03  0.13638858095E+02 -0.15987531002E+03  0.23737308331E+03  0.12509252203E+03 0.  0.
          5    1    3    3  502    0 -0.12702217124E+03  0.24250429300E+02 -0.70884437071E+02  0.14752895013E+03  0.41800000000E+01 0. -1.
         -5    1    3    3    0  502  0.47449926356E+01 -0.10611571205E+02 -0.88990872948E+02  0.89844133178E+02  0.41800000000E+01 0. -1.
        -11    1    1    2    0    0  0.89281983040E+02 -0.49710717625E+02 -0.68343586452E+02  0.12293605554E+03  0.00000000000E+00 0.  1.
         11    1    1    2    0    0  0.32995195564E+02  0.36071859531E+02 -0.53979724211E+02  0.72826318088E+02  0.00000000000E+00 0. -1.
</event>
<event>
 7    1  0.2594791E-009  0.1710405E+03  0.7561462E-02  0.1176767E+00
          1   -1    0    0  501    0  0.00000000000E+00  0.00000000000E+00  0.87950580032E+02  0.87950580032E+02  0.00000000000E+00 0. -1.
         -1   -1    0    0    0  501 -0.00000000000E+00 -0.00000000000E+00 -0.43423726059E+03  0.43423726059E+03  0.00000000000E+00 0.  1.
         25    2    1    2    0    0  0.14954606428E+03  0.29881620267E+02 -0.10546433572E+03  0.22366753520E+03  0.12508998210E+03 0.  0.
          5    1    3    3  502    0  0.74310077173E+02  0.50875534412E+02  0.26858405455E+01  0.90194199983E+02  0.41800000000E+01 0.  1.
         -5    1    3    3    0  502  0.75235987105E+02 -0.20993914145E+02 -0.10815017627E+03  0.13347333522E+03  0.41800000000E+01 0.  1.
        -11    1    1    2    0    0 -0.13856431378E+03  0.34536572495E+01 -0.21105163420E+03  0.25249710711E+03  0.00000000000E+00 0. -1.
         11    1    1    2    0    0 -0.10981750494E+02 -0.33335277516E+02 -0.29770710642E+02  0.46023198315E+02  0.00000000000E+00 0.  1.
</event>
<event>
 7    1  0.2594791E-009  0.5053811E+03  0.7561462E-02  0.1012384E+00
         -1   -1    0    0    0  501 -0.00000000000E+00  0.00000000000E+00  0.44626799216E+03  0.44626799216E+03  0.00000000000E+00 0.  1.
          1   -1    0    0  501    0  0.00000000000E+00 -0.00000000000E+00 -0.58643526174E+03  0.58643526174E+03  0.00000000000E+00 0. -1.
         25    2    1    2    0    0 -0.38019897192E+03  0.31918638321E+03 -0.45232637721E+02  0.51392787608E+03  0.12507863454E+03 0.  0.
          5    1    3    3  502    0 -0.13313579037E+03  0.17970199260E+03  0.13768994409E+02  0.22410935372E+03  0.41800000000E+01 0. -1.
         -5    1    3    3    0  502 -0.24706318156E+03  0.13948439061E+03 -0.59001632131E+02  0.28981852236E+03  0.41800000000E+01 0. -1.
        -11    1    1    2    0    0  0.15434749848E+03 -0.78119655743E+02 -0.72841474171E+02  0.18770112216E+03  0.00000000000E+00 0.  1.
         11    1    1    2    0    0  0.22585147345E+03 -0.24106672746E+03 -0.22093157683E+02  0.33107425567E+03  0.00000000000E+00 0. -1.
</event>
<event>
 7    1  0.2594791E-009  0.1061393E+03  0.7561462E-02  0.1267891E+00
         -1   -1    0    0    0  501 -0.00000000000E+00  0.00000000000E+00  0.45620865612E+02  0.45620865612E+02  0.00000000000E+00 0.  1.
          1   -1    0    0  501    0  0.00000000000E+00 -0.00000000000E+00 -0.44077990827E+03  0.44077990827E+03  0.00000000000E+00 0. -1.
         25    2    1    2    0    0  0.78031512836E+02 -0.29063902592E+02 -0.27895548292E+03  0.31685470540E+03  0.12508843055E+03 0.  0.
          5    1    3    3  502    0  0.48103781551E+01  0.31605133747E+02 -0.13685606183E+02  0.35025596836E+02  0.41800000000E+01 0.  1.
         -5    1    3    3    0  502  0.73221134681E+02 -0.60669036338E+02 -0.26526987673E+03  0.28182910857E+03  0.41800000000E+01 0.  1.
        -11    1    1    2    0    0 -0.42423118800E+02  0.24410054807E+02 -0.12354957387E+03  0.13289119229E+03  0.00000000000E+00 0. -1.
         11    1    1    2    0    0 -0.35608394036E+02  0.46538477843E+01  0.73460141261E+01  0.36654876191E+02  0.00000000000E+00 0.  1.
</event>
<event>
 7    1  0.2594791E-009  0.9976868E+02  0.7561462E-02  0.1280783E+00
         -2   -1    0    0    0  501 -0.00000000000E+00  0.00000000000E+00  0.15523123901E+02  0.15523123901E+02  0.00000000000E+00 0.  1.
          2   -1    0    0  501    0  0.00000000000E+00 -0.00000000000E+00 -0.84806944122E+03  0.84806944122E+03  0.00000000000E+00 0. -1.
         25    2    1    2    0    0 -0.76510402859E+01  0.11059559321E+02 -0.61038683681E+03  0.62321827647E+03  0.12509227517E+03 0.  0.
          5    1    3    3  502    0  0.51773448103E+02  0.92330389306E+01 -0.43038171739E+03  0.43360308348E+03  0.41800000000E+01 0. -1.
         -5    1    3    3    0  502 -0.59424488389E+02  0.18265203900E+01 -0.18000511941E+03  0.18961519299E+03  0.41800000000E+01 0. -1.
        -11    1    1    2    0    0 -0.37668212665E+02 -0.17271118850E+02 -0.68580413769E+02  0.80127766376E+02  0.00000000000E+00 0.  1.
         11    1    1    2    0    0  0.45319252951E+02  0.62115595294E+01 -0.15357906674E+03  0.16024652227E+03  0.00000000000E+00 0. -1.
</event>
<event>
 7    1  0.2594791E-009  0.1041440E+03  0.7561462E-02  0.1271815E+00
          2   -1    0    0  501    0  0.00000000000E+00  0.00000000000E+00  0.18868785023E+03  0.18868785023E+03  0.00000000000E+00 0. -1.
         -2   -1    0    0    0  501 -0.00000000000E+00 -0.00000000000E+00 -0.11396896867E+03  0.11396896867E+03  0.00000000000E+00 0.  1.
         25    2    1    2    0    0 -0.64554235284E+02 -0.54609303303E+02 -0.11534968491E+02  0.15142858246E+03  0.12509250492E+03 0.  0.
          5    1    3    3  502    0 -0.58424701549E+02 -0.48492035624E+02  0.48785737069E+02  0.90346244036E+02  0.41800000000E+01 0.  1.
         -5    1    3    3    0  502 -0.61295337347E+01 -0.61172676785E+01 -0.60320705560E+02  0.61082338421E+02  0.41800000000E+01 0.  1.
        -11    1    1    2    0    0  0.42771968742E+02 -0.18310415714E+02  0.44696775146E+02  0.64517550652E+02  0.00000000000E+00 0. -1.
         11    1    1    2    0    0  0.21782266541E+02  0.72919719017E+02  0.41557074904E+02  0.86710685800E+02  0.00000000000E+00 0.  1.
</event>
<event>
 7    1  0.2594791E-009  0.1307504E+03  0.7561462E-02  0.1226346E+00
         -2   -1    0    0    0  501 -0.00000000000E+00  0.00000000000E+00  0.10710127837E+03  0.10710127837E+03  0.00000000000E+00 0. -1.
          2   -1    0    0  501    0  0.00000000000E+00 -0.00000000000E+00 -0.20372402029E+03  0.20372402029E+03  0.00000000000E+00 0.  1.
         25    2    1    2    0    0  0.12160548466E+02 -0.97471084052E+02 -0.73350108302E+02  0.17514764273E+03  0.12509183507E+03 0.  0.
          5    1    3    3  502    0  0.51524756559E+02 -0.10150991399E+03 -0.33278775184E+02  0.11867608206E+03  0.41800000000E+01 0. -1.
         -5    1    3    3    0  502 -0.39364208093E+02  0.40388299372E+01 -0.40071333118E+02  0.56471560664E+02  0.41800000000E+01 0. -1.
        -11    1    1    2    0    0 -0.22155072156E+02  0.94932316183E+02 -0.48165682432E+02  0.10873327385E+03  0.00000000000E+00 0.  1.
         11    1    1    2    0    0  0.99945236897E+01  0.25387678691E+01  0.24893048822E+02  0.26944382082E+02  0.00000000000E+00 0. -1.
</event>
<event>
 7    1  0.2594791E-009  0.1050669E+03  0.7561462E-02  0.1269988E+00
          2   -1    0    0  501    0  0.00000000000E+00  0.00000000000E+00  0.62798368830E+03  0.62798368830E+03  0.00000000000E+00 0. -1.
         -2   -1    0    0    0  501 -0.00000000000E+00 -0.00000000000E+00 -0.21700386328E+02  0.21700386328E+02  0.00000000000E+00 0.  1.
         25    2    1    2    0    0  0.11055546412E+02 -0.35436077617E+02  0.41008866675E+03  0.43034674138E+03  0.12509061723E+03 0.  0.
          5    1    3    3  502    0  0.62857549569E+02  0.49428113485E+01  0.23326819738E+03  0.24167545848E+03  0.41800000000E+01 0. -1.
         -5    1    3    3    0  502 -0.51802003157E+02 -0.40378888966E+02  0.17682046937E+03  0.18867128290E+03  0.41800000000E+01 0. -1.
        -11    1    1    2    0    0 -0.28598358258E+02  0.50481651425E+02  0.69419326487E+02  0.90472681598E+02  0.00000000000E+00 0.  1.
         11    1    1    2    0    0  0.17542811846E+02 -0.15045573808E+02  0.12677530874E+03  0.12886465165E+03  0.00000000000E+00 0. -1.
</event>
<event>
 7    1  0.2594791E-009  0.1016523E+03  0.7561462E-02  0.1276859E+00
         -2   -1    0    0    0  501 -0.00000000000E+00  0.00000000000E+00  0.27547859064E+02  0.27547859064E+02  0.00000000000E+00 0. -1.
          2   -1    0    0  501    0  0.00000000000E+00 -0.00000000000E+00 -0.44056229962E+03  0.44056229962E+03  0.00000000000E+00 0.  1.
         25    2    1    2    0    0  0.40711584081E+01 -0.11741494042E+02 -0.27746124541E+03  0.30460965561E+03  0.12509141688E+03 0.  0.
          5    1    3    3  502    0  0.27337991560E+02 -0.62467848769E+02 -0.12943345115E+03  0.14635603366E+03  0.41800000000E+01 0. -1.
         -5    1    3    3    0  502 -0.23266833152E+02  0.50726354727E+02 -0.14802779426E+03  0.15825362195E+03  0.41800000000E+01 0. -1.
        -11    1    1    2    0    0 -0.31977764347E+02 -0.19246384429E+02 -0.23914061047E+02  0.44327001274E+02  0.00000000000E+00 0. -1.
         11    1    1    2    0    0  0.27906605939E+02  0.30987878470E+02 -0.11163913410E+03  0.11917350179E+03  0.00000000000E+00 0.  1.
</event>
<event>
 7    1  0.2594791E-009  0.9082714E+02  0.7561462E-02  0.1300861E+00
          2   -1    0    0  501    0  0.00000000000E+00  0.00000000000E+00  0.10491400543E+03  0.10491400543E+03  0.00000000000E+00 0. -1.
         -2   -1    0    0    0  501 -0.00000000000E+00 -0.00000000000E+00 -0.13804522189E+03  0.13804522189E+03  0.00000000000E+00 0.  1.
         25    2    1    2    0    0 -0.63893364234E+01 -0.47026184118E+02 -0.44526602109E+02  0.14100517273E+03  0.12509018678E+03 0.  0.
          5    1    3    3  502    0 -0.58525719230E+02  0.62364455733E+01 -0.16515016433E+02  0.61272924139E+02  0.41800000000E+01 0. -1.
         -5    1    3    3    0  502  0.52136382806E+02 -0.53262629691E+02 -0.28011585676E+02  0.79732248594E+02  0.41800000000E+01 0. -1.
        -11    1    1    2    0    0  0.68755965514E+01  0.23935951497E+02  0.50631809841E+02  0.56425027867E+02  0.00000000000E+00 0. -1.
         11    1    1    2    0    0 -0.48626012793E+00  0.23090232620E+02 -0.39236424188E+02  0.45529026724E+02  0.00000000000E+00 0.  1.
</event>
<event>
 7    1  0.2594791E-009  0.9852224E+02  0.7561462E-02  0.1283435E+00
          2   -1    0    0  501    0  0.00000000000E+00  0.00000000000E+00  0.17644136823E+04  0.17644136823E+04  0.00000000000E+00 0.  1.
         -2   -1    0    0    0  501 -0.00000000000E+00 -0.00000000000E+00 -0.22615759382E+02  0.22615759382E+02  0.00000000000E+00 0. -1.
         25    2    1    2    0    0 -0.34230784744E+02  0.57076846339E+02  0.15973536411E+04  0.16036260563E+04  0.12509340801E+03 0.  0.
          5    1    3    3  502    0 -0.31631606217E+02 -0.29449157527E+02  0.27218636589E+03  0.27562783163E+03  0.41800000000E+01 0.  1.
         -5    1    3    3    0  502 -0.25991785272E+01  0.86526003866E+02  0.13251672752E+04  0.13279982247E+04  0.41800000000E+01 0.  1.
        -11    1    1    2    0    0  0.14670286574E+02 -0.17685356937E+02  0.13685754704E+03  0.13877311461E+03  0.00000000000E+00 0.  1.
         11    1    1    2    0    0  0.19560498170E+02 -0.39391489402E+02  0.75867348143E+01  0.44630270794E+02  0.00000000000E+00 0. -1.
</event>
<event>
 7    1  0.2594791E-009  0.8500483E+02  0.7561462E-02  0.1315420E+00
          1   -1    0    0  501    0  0.00000000000E+00  0.00000000000E+00  0.16909422184E+02  0.16909422184E+02  0.00000000000E+00 0. -1.
         -1   -1    0    0    0  501 -0.00000000000E+00 -0.00000000000E+00 -0.87839791211E+03  0.87839791211E+03  0.00000000000E+00 0.  1.
         25    2    1    2    0    0 -0.23095070794E+02  0.20764603637E+02 -0.67429463499E+03  0.68650289602E+03  0.12509364656E+03 0.  0.
          5    1    3    3  502    0 -0.48504546862E+02 -0.17213890873E+02 -0.12432479274E+03  0.13462219577E+03  0.41800000000E+01 0.  1.
         -5    1    3    3    0  502  0.25409476069E+02  0.37978494510E+02 -0.54996984225E+03  0.55188070025E+03  0.41800000000E+01 0.  1.
        -11    1    1    2    0    0  0.80667014654E+01 -0.44044368859E+02 -0.17088053516E+03  0.17664975346E+03  0.00000000000E+00 0.  1.
         11    1    1    2    0    0  0.15028369328E+02  0.23279765221E+02 -0.16313319775E+02  0.32154684814E+02  0.00000000000E+00 0. -1.
</event>
<event>
 7    1  0.2594791E-009  0.1203575E+03  0.7561462E-02  0.1242508E+00
          2   -1    0    0  501    0  0.00000000000E+00  0.00000000000E+00  0.18800678123E+04  0.18800678123E+04  0.00000000000E+00 0. -1.
         -2   -1    0    0    0  501 -0.00000000000E+00 -0.00000000000E+00 -0.10841889856E+02  0.10841889856E+02  0.00000000000E+00 0.  1.
         25    2    1    2    0    0 -0.66099705270E+02  0.36628631194E+01  0.14235776492E+04  0.14305955256E+04  0.12509055508E+03 0.  0.
          5    1    3    3  502    0  0.28232248654E+02  0.11356786381E+02  0.13109645268E+03  0.13464690403E+03  0.41800000000E+01 0.  1.
         -5    1    3    3    0  502 -0.94331953923E+02 -0.76939232619E+01  0.12924811965E+04  0.12959486216E+04  0.41800000000E+01 0.  1.
        -11    1    1    2    0    0  0.12846411329E+02  0.42738881871E+02  0.17003738450E+03  0.17579634363E+03  0.00000000000E+00 0. -1.
         11    1    1    2    0    0  0.53253293941E+02 -0.46401744991E+02  0.27561088872E+03  0.28451783290E+03  0.00000000000E+00 0.  1.
</event>
<event>
 7    1  0.2594791E-009  0.1531519E+03  0.7561462E-02  0.1196653E+00
          2   -1    0    0  501    0  0.00000000000E+00  0.00000000000E+00  0.89953853979E+03  0.89953853979E+03  0.00000000000E+00 0. -1.
         -2   -1    0    0    0  501 -0.00000000000E+00 -0.00000000000E+00 -0.34349681635E+02  0.34349681635E+02  0.00000000000E+00 0.  1.
         25    2    1    2    0    0  0.11468936022E+03  0.76845118849E+02  0.41618854777E+03  0.45598236978E+03  0.12509273607E+03 0.  0.
          5    1    3    3  502    0  0.11601437020E+03  0.75139153110E+02  0.42448656632E+03  0.44644321454E+03  0.41800000000E+01 0. -1.
         -5    1    3    3    0  502 -0.13250099866E+01  0.17059657384E+01 -0.82980185575E+01  0.95391552323E+01  0.41800000000E+01 0. -1.
        -11    1    1    2    0    0 -0.24650993799E+02 -0.68604879928E+02  0.18454620434E+03  0.19842278746E+03  0.00000000000E+00 0. -1.
         11    1    1    2    0    0 -0.90038366417E+02 -0.82402389211E+01  0.26445410604E+03  0.27948306419E+03  0.00000000000E+00 0.  1.
</event>
<event>
 7    1  0.2594791E-009  0.1078110E+03  0.7561462E-02  0.1264678E+00
          4   -1    0    0  501    0  0.00000000000E+00  0.00000000000E+00  0.14454803550E+03  0.14454803550E+03  0.00000000000E+00 0. -1.
         -4   -1    0    0    0  501 -0.00000000000E+00 -0.00000000000E+00 -0.10653343404E+03  0.10653343404E+03  0.00000000000E+00 0.  1.
         25    2    1    2    0    0 -0.52276544180E+02 -0.95674388918E+01  0.29931944381E+02  0.13916915697E+03  0.12509100686E+03 0.  0.
          5    1    3    3  502    0  0.10075812259E+02  0.38343650840E+02 -0.21326053376E+02  0.45210955586E+02  0.41800000000E+01 0.  1.
         -5    1    3    3    0  502 -0.62352356439E+02 -0.47911089732E+02  0.51257997757E+02  0.93958201382E+02  0.41800000000E+01 0.  1.
        -11    1    1    2    0    0  0.71792420099E+02 -0.60070308772E+01 -0.19571046200E+02  0.74654282215E+02  0.00000000000E+00 0.  1.
         11    1    1    2    0    0 -0.19515875919E+02  0.15574469769E+02  0.27653703273E+02  0.37258030358E+02  0.00000000000E+00 0. -1.
</event>
<event>
 7    1  0.2594791E-009  0.1428214E+03  0.7561462E-02  0.1209582E+00
         -2   -1    0    0    0  501 -0.00000000000E+00  0.00000000000E+00  0.30610883842E+02  0.30610883842E+02  0.00000000000E+00 0.  1.
          2   -1    0    0  501    0  0.00000000000E+00 -0.00000000000E+00 -0.79460579586E+03  0.79460579586E+03  0.00000000000E+00 0. -1.
         25    2    1    2    0    0  0.45126078408E+02  0.10160722175E+03 -0.43534579238E+03  0.46640567611E+03  0.12509158762E+03 0.  0.
          5    1    3    3  502    0 -0.33148963539E+02  0.25083918278E+02 -0.22904468728E+03  0.23282396335E+03  0.41800000000E+01 0. -1.
         -5    1    3    3    0  502  0.78275041946E+02  0.76523303476E+02 -0.20630110510E+03  0.23358171275E+03  0.41800000000E+01 0. -1.
        -11    1    1    2    0    0 -0.63755278335E+02 -0.95280191451E+02 -0.31402342491E+03  0.33429591949E+03  0.00000000000E+00 0. -1.
         11    1    1    2    0    0  0.18629199928E+02 -0.63270303027E+01 -0.14625694732E+02  0.24515084108E+02  0.00000000000E+00 0.  1.
</event>
<event>
 7    1  0.2594791E-009  0.9042027E+02  0.7561462E-02  0.1301837E+00
          3   -1    0    0  501    0  0.00000000000E+00  0.00000000000E+00  0.30790867901E+02  0.30790867901E+02  0.00000000000E+00 0. -1.
         -3   -1    0    0    0  501 -0.00000000000E+00 -0.00000000000E+00 -0.45931515113E+03  0.45931515113E+03  0.00000000000E+00 0.  1.
         25    2    1    2    0    0  0.36419031000E+02  0.21333225293E+02 -0.18967938771E+03  0.23110069893E+03  0.12509120915E+03 0.  0.
          5    1    3    3  502    0  0.25093866561E+02 -0.44163533236E+02 -0.32639791712E+02  0.60522295147E+02  0.41800000000E+01 0.  1.
         -5    1    3    3    0  502  0.11325164439E+02  0.65496758529E+02 -0.15703959600E+03  0.17057840379E+03  0.41800000000E+01 0.  1.
        -11    1    1    2    0    0 -0.47276892707E+02 -0.11569806723E+02 -0.23949321784E+03  0.24438896539E+03  0.00000000000E+00 0.  1.
         11    1    1    2    0    0  0.10857861707E+02 -0.97634185707E+01  0.64832232504E+00  0.14616354706E+02  0.00000000000E+00 0. -1.
</event>
<event>
 7    1  0.2594791E-009  0.1436951E+03  0.7561462E-02  0.1208442E+00
         -1   -1    0    0    0  501 -0.00000000000E+00  0.00000000000E+00  0.38188561665E+02  0.38188561665E+02  0.00000000000E+00 0.  1.
          1   -1    0    0  501    0  0.00000000000E+00 -0.00000000000E+00 -0.75145164795E+03  0.75145164795E+03  0.00000000000E+00 0. -1.
         25    2    1    2    0    0 -0.11263979327E+03  0.27555437985E+02 -0.52232520712E+03  0.54947464118E+03  0.12510689074E+03 0.  0.
          5    1    3    3  502    0  0.21121894655E+02  0.23025155601E+02 -0.16277786735E+03  0.16580228805E+03  0.41800000000E+01 0.  1.
         -5    1    3    3    0  502 -0.13376168792E+03  0.45302823845E+01 -0.35954733978E+03  0.38367235313E+03  0.41800000000E+01 0.  1.
        -11    1    1    2    0    0  0.93106509220E+02 -0.66379741864E+01 -0.72144733466E+02  0.11797350265E+03  0.00000000000E+00 0.  1.
         11    1    1    2    0    0  0.19533284048E+02 -0.20917463799E+02 -0.11879314570E+03  0.12219206579E+03  0.00000000000E+00 0. -1.
</event>
<event>
 7    1  0.2594791E-009  0.9734635E+02  0.7561462E-02  0.1285977E+00
         -1   -1    0    0    0  501 -0.00000000000E+00  0.00000000000E+00  0.53657737892E+02  0.53657737892E+02  0.00000000000E+00 0.  1.
          1   -1    0    0  501    0  0.00000000000E+00 -0.00000000000E+00 -0.32238874491E+03  0.32238874491E+03  0.00000000000E+00 0. -1.
         25    2    1    2    0    0  0.27166589955E+01 -0.75749165665E+02 -0.13937863080E+03  0.20203403281E+03  0.12508409713E+03 0.  0.
          5    1    3    3  502    0 -0.16172422715E+02 -0.13743145446E+02 -0.13522854832E+03  0.13694763227E+03  0.41800000000E+01 0.  1.
         -5    1    3    3    0  502  0.18889081710E+02 -0.62006020219E+02 -0.41500824795E+01  0.65086400544E+02  0.41800000000E+01 0.  1.
        -11    1    1    2    0    0  0.18089015898E+02 -0.94475161430E+01 -0.36366099299E+01  0.20729037344E+02  0.00000000000E+00 0.  1.
         11    1    1    2    0    0 -0.20805674893E+02  0.85196681808E+02 -0.12571576629E+03  0.15328341265E+03  0.00000000000E+00 0. -1.
</event>
<event>
 7    1  0.2594791E-009  0.8290760E+02  0.7561462E-02  0.1320997E+00
         -1   -1    0    0    0  501 -0.00000000000E+00  0.00000000000E+00  0.23243295428E+02  0.23243295428E+02  0.00000000000E+00 0.  1.
          1   -1    0    0  501    0  0.00000000000E+00 -0.00000000000E+00 -0.88469881867E+03  0.88469881867E+03  0.00000000000E+00 0. -1.
         25    2    1    2    0    0  0.21315684051E+01  0.12406456502E+02 -0.75917439209E+03  0.76951439570E+03  0.12509270097E+03 0.  0.
          5    1    3    3  502    0  0.34672802252E+02 -0.41001236346E+02 -0.49891026498E+03  0.50180895718E+03  0.41800000000E+01 0.  1.
         -5    1    3    3    0  502 -0.32541233847E+02  0.53407692848E+02 -0.26026412711E+03  0.26770543853E+03  0.41800000000E+01 0.  1.
        -11    1    1    2    0    0 -0.20759751688E+02 -0.20308505265E+02  0.48140351130E+01  0.29437690302E+02  0.00000000000E+00 0.  1.
         11    1    1    2    0    0  0.18628183283E+02  0.79020487630E+01 -0.10709516626E+03  0.10899002809E+03  0.00000000000E+00 0. -1.
</event>
<event>
 7    1  0.2594791E-009  0.1471631E+03  0.7561462E-02  0.1204003E+00
          2   -1    0    0  501    0  0.00000000000E+00  0.00000000000E+00  0.82629862450E+02  0.82629862450E+02  0.00000000000E+00 0. -1.
         -2   -1    0    0    0  501 -0.00000000000E+00 -0.00000000000E+00 -0.45669901468E+03  0.45669901468E+03  0.00000000000E+00 0.  1.
         25    2    1    2    0    0 -0.58888585750E+01 -0.14040203377E+03 -0.30505192865E+03  0.35840214492E+03  0.12509200040E+03 0.  0.
          5    1    3    3  502    0  0.49749497037E+01 -0.27081145875E+01 -0.15213793503E+03  0.15230071466E+03  0.41800000000E+01 0.  1.
         -5    1    3    3    0  502 -0.10863808279E+02 -0.13769391918E+03 -0.15291399362E+03  0.20610143026E+03  0.41800000000E+01 0.  1.
        -11    1    1    2    0    0  0.26184059604E+02  0.49908848987E+02 -0.67814692872E+02  0.88177835956E+02  0.00000000000E+00 0.  1.
         11    1    1    2    0    0 -0.20295201029E+02  0.90493184781E+02 -0.12025307034E+01  0.92748896256E+02  0.00000000000E+00 0. -1.
</event>
<event>
 7    1  0.2594791E-009  0.1080237E+03  0.7561462E-02  0.1264274E+00
         -1   -1    0    0    0  501 -0.00000000000E+00  0.00000000000E+00  0.67426686088E+02  0.67426686088E+02  0.00000000000E+00 0.  1.
          1   -1    0    0  501    0  0.00000000000E+00 -0.00000000000E+00 -0.18637905597E+03  0.18637905597E+03  0.00000000000E+00 0. -1.
         25    2    1    2    0    0  0.75694660867E+01  0.17556692343E+01 -0.84883684731E+02  0.15136609544E+03  0.12508427449E+03 0.  0.
          5    1    3    3  502    0  0.62923321231E+02  0.80590790093E+01 -0.67800445470E+02  0.92944423798E+02  0.41800000000E+01 0. -1.
         -5    1    3    3    0  502 -0.55353855145E+02 -0.63034097750E+01 -0.17083239261E+02  0.58421671645E+02  0.41800000000E+01 0. -1.
        -11    1    1    2    0    0 -0.42367134989E+02 -0.29895217666E+02 -0.17810576234E+02  0.54826223582E+02  0.00000000000E+00 0.  1.
         11    1    1    2    0    0  0.34797668903E+02  0.28139548432E+02 -0.16258108912E+02  0.47613423027E+02  0.00000000000E+00 0. -1.
</event>
<event>
 7    1  0.2594791E-009  0.1278121E+03  0.7561462E-02  0.1230739E+00
          3   -1    0    0  501    0  0.00000000000E+00  0.00000000000E+00  0.61524219169E+03  0.61524219169E+03  0.00000000000E+00 0. -1.
         -3   -1    0    0    0  501 -0.00000000000E+00 -0.00000000000E+00 -0.60856840798E+02  0.60856840798E+02  0.00000000000E+00 0.  1.
         25    2    1    2    0    0 -0.67440234134E+02  0.34758108258E+02  0.53749709572E+03  0.55705187828E+03  0.12508939172E+03 0.  0.
          5    1    3    3  502    0 -0.18713798823E+02 -0.43962658850E+02  0.26285771167E+03  0.26719762466E+03  0.41800000000E+01 0.  1.
         -5    1    3    3    0  502 -0.48726435310E+02  0.78720767108E+02  0.27463938404E+03  0.28985425362E+03  0.41800000000E+01 0.  1.
        -11    1    1    2    0    0  0.88331336256E+02 -0.24239368620E+02  0.25903043257E+01  0.91633408931E+02  0.00000000000E+00 0.  1.
         11    1    1    2    0    0 -0.20891102122E+02 -0.10518739638E+02  0.14297950844E+02  0.27413745271E+02  0.00000000000E+00 0. -1.
</event>
<event>
 7    1  0.2594791E-009  0.1529152E+03  0.7561462E-02  0.1196936E+00
          2   -1    0    0  501    0  0.00000000000E+00  0.00000000000E+00  0.38032670812E+03  0.38032670812E+03  0.00000000000E+00 0. -1.
         -2   -1    0    0    0  501 -0.00000000000E+00 -0.00000000000E+00 -0.10874729016E+03  0.10874729016E+03  0.00000000000E+00 0.  1.
         25    2    1    2    0    0  0.11294199946E+03  0.52297494238E+02  0.28495462026E+03  0.33516479626E+03  0.12508150101E+03 0.  0.
          5    1    3    3  502    0  0.88196879044E+02 -0.15543387412E+02  0.89180435397E+02  0.12645516527E+03  0.41800000000E+01 0.  1.
         -5    1    3    3    0  502  0.24745120420E+02  0.67840881651E+02  0.19577418487E+03  0.20870963099E+03  0.41800000000E+01 0.  1.
        -11    1    1    2    0    0 -0.55450884771E+02 -0.64512569442E+02 -0.34013500766E+02  0.91616540385E+02  0.00000000000E+00 0.  1.
         11    1    1    2    0    0 -0.57491114693E+02  0.12215075203E+02  0.20638298468E+02  0.62292661642E+02  0.00000000000E+00 0. -1.
</event>
<event>
 7    1  0.2594791E-009  0.1591158E+03  0.7561462E-02  0.1189699E+00
          1   -1    0    0  501    0  0.00000000000E+00  0.00000000000E+00  0.35707924391E+03  0.35707924391E+03  0.00000000000E+00 0. -1.
         -1   -1    0    0    0  501 -0.00000000000E+00 -0.00000000000E+00 -0.79573337660E+02  0.79573337660E+02  0.00000000000E+00 0.  1.
         25    2    1    2    0    0  0.45826715775E+02 -0.12510802646E+03  0.14057261371E+03  0.23056651531E+03  0.12509257409E+03 0.  0.
          5    1    3    3  502    0  0.72899028502E+02 -0.34306193151E+02  0.33029051163E+02  0.87175534790E+02  0.41800000000E+01 0. -1.
         -5    1    3    3    0  502 -0.27072312728E+02 -0.90801833308E+02  0.10754356255E+03  0.14339098052E+03  0.41800000000E+01 0. -1.
        -11    1    1    2    0    0 -0.49799130340E+02  0.62205355804E+02  0.11384792832E+03  0.13896334213E+03  0.00000000000E+00 0. -1.
         11    1    1    2    0    0  0.39724145656E+01  0.62902670655E+02  0.23085364210E+02  0.67122724123E+02  0.00000000000E+00 0.  1.
</event>
<event>
 7    1  0.2594791E-009  0.1647246E+03  0.7561462E-02  0.1183464E+00
         -1   -1    0    0    0  501 -0.00000000000E+00  0.00000000000E+00  0.26572429741E+02  0.26572429741E+02  0.00000000000E+00 0.  1.
          1   -1    0    0  501    0  0.00000000000E+00 -0.00000000000E+00 -0.12714562585E+04  0.12714562585E+04  0.00000000000E+00 0. -1.
         25    2    1    2    0    0 -0.95168275415E+02 -0.10676840622E+03 -0.80846009039E+03  0.83048943283E+03  0.12509391302E+03 0.  0.
          5    1    3    3  502    0 -0.10854830167E+03 -0.12015988619E+03 -0.61195698869E+03  0.63303235340E+03  0.41800000000E+01 0.  1.
         -5    1    3    3    0  502  0.13380026254E+02  0.13391479976E+02 -0.19650310169E+03  0.19745707942E+03  0.41800000000E+01 0.  1.
        -11    1    1    2    0    0  0.63196992518E+02  0.42089325111E+02 -0.11283131307E+03  0.13600101603E+03  0.00000000000E+00 0.  1.
         11    1    1    2    0    0  0.31971282897E+02  0.64679081105E+02 -0.32359242526E+03  0.33153823935E+03  0.00000000000E+00 0. -1.
</event>
<event>
 7    1  0.2594791E-009  0.1178768E+03  0.7561462E-02  0.1246641E+00
         -2   -1    0    0    0  501 -0.00000000000E+00  0.00000000000E+00  0.56236899884E+02  0.56236899884E+02  0.00000000000E+00 0.  1.
          2   -1    0    0  501    0  0.00000000000E+00 -0.00000000000E+00 -0.42759704624E+03  0.42759704624E+03  0.00000000000E+00 0. -1.
         25    2    1    2    0    0  0.50267880011E+02 -0.49657191045E+02 -0.33385998929E+03  0.36346478771E+03  0.12510580753E+03 0.  0.
          5    1    3    3  502    0  0.40944669661E+02  0.35182816142E+02 -0.89613325195E+02  0.10470108394E+03  0.41800000000E+01 0.  1.
         -5    1    3    3    0  502  0.93232103503E+01 -0.84840007187E+02 -0.24424666409E+03  0.25876370378E+03  0.41800000000E+01 0.  1.
        -11    1    1    2    0    0  0.55838162089E+01  0.38872315104E+02  0.15881132728E+02  0.42360904874E+02  0.00000000000E+00 0.  1.
         11    1    1    2    0    0 -0.55851696220E+02  0.10784875941E+02 -0.53381289799E+02  0.78008253540E+02  0.00000000000E+00 0. -1.
</event>
<event>
 7    1  0.2594791E-009  0.1217842E+03  0.7561462E-02  0.1240182E+00
          2   -1    0    0  501    0  0.00000000000E+00  0.00000000000E+00  0.12989613843E+04  0.12989613843E+04  0.00000000000E+00 0. -1.
         -2   -1    0    0    0  501 -0.00000000000E+00 -0.00000000000E+00 -0.15269321625E+02  0.15269321625E+02  0.00000000000E+00 0.  1.
         25    2    1    2    0    0  0.65555972976E+02  0.33213993404E+02  0.92585775465E+03  0.93715578009E+03  0.12509044468E+03 0.  0.
          5    1    3    3  502    0 -0.88597216294E+01 -0.31435216096E+02  0.44856800689E+03  0.44977482886E+03  0.41800000000E+01 0. -1.
         -5    1    3    3    0  502  0.74415694605E+02  0.64649209500E+02  0.47728974777E+03  0.48738095122E+03  0.41800000000E+01 0. -1.
        -11    1    1    2    0    0 -0.84147114445E+02 -0.14112122454E+02  0.31722445840E+03  0.32849847165E+03  0.00000000000E+00 0. -1.
         11    1    1    2    0    0  0.18591141470E+02 -0.19101870950E+02  0.40609849621E+02  0.48576454185E+02  0.00000000000E+00 0.  1.
</event>
<event>
 7    1  0.2594791E-009  0.8450210E+02  0.7561462E-02  0.1316740E+00
         -1   -1    0    0    0  501 -0.00000000000E+00  0.00000000000E+00  0.51719734183E+02  0.51719734183E+02  0.00000000000E+00 0.  1.
          1   -1    0    0  501    0  0.00000000000E+00 -0.00000000000E+00 -0.25763847400E+03  0.25763847400E+03  0.00000000000E+00 0. -1.
         25    2    1    2    0    0  0.24387815065E+02  0.20761674989E+02 -0.13728964124E+03  0.18847447241E+03  0.12509343903E+03 0.  0.
          5    1    3    3  502    0  0.22355542398E+02 -0.28422558253E+02 -0.13411710586E+03  0.13896935841E+03  0.41800000000E+01 0.  1.
         -5    1    3    3    0  502  0.20322726673E+01  0.49184233241E+02 -0.31725353836E+01  0.49505114003E+02  0.41800000000E+01 0.  1.
        -11    1    1    2    0    0 -0.11037077856E+02 -0.49922183517E+02 -0.72612446859E+01  0.51640751051E+02  0.00000000000E+00 0.  1.
         11    1    1    2    0    0 -0.13350737209E+02  0.29160508528E+02 -0.61367853889E+02  0.69242984718E+02  0.00000000000E+00 0. -1.
</event>
<event>
 7    1  0.2594791E-009  0.7124122E+02  0.7561462E-02  0.1355922E+00
         -2   -1    0    0    0  501 -0.00000000000E+00  0.00000000000E+00  0.18044132415E+02  0.18044132415E+02  0.00000000000E+00 0.  1.
          2   -1    0    0  501    0  0.00000000000E+00 -0.00000000000E+00 -0.73813920810E+03  0.73813920810E+03  0.00000000000E+00 0. -1.
         25    2    1    2    0    0  0.30354826163E+02 -0.18453982836E+02 -0.35346442699E+03  0.37662565118E+03  0.12509122680E+03 0.  0.
          5    1    3    3  502    0  0.14153190577E+01  0.73400901401E+01  0.87936736026E+01  0.12275224916E+02  0.41800000000E+01 0. -1.
         -5    1    3    3    0  502  0.28939507106E+02 -0.25794072976E+02 -0.36225810059E+03  0.36435042626E+03  0.41800000000E+01 0. -1.
        -11    1    1    2    0    0 -0.35238375819E+02  0.51014659403E+02 -0.28227701049E+03  0.28900614052E+03  0.00000000000E+00 0.  1.
         11    1    1    2    0    0  0.48835496556E+01 -0.32560676567E+02 -0.84353638201E+02  0.90551548818E+02  0.00000000000E+00 0. -1.
</event>
<event>
 7    1  0.2594791E-009  0.1572817E+03  0.7561462E-02  0.1191800E+00
         -2   -1    0    0    0  501 -0.00000000000E+00  0.00000000000E+00  0.66475459064E+02  0.66475459064E+02  0.00000000000E+00 0.  1.
          2   -1    0    0  501    0  0.00000000000E+00 -0.00000000000E+00 -0.59642031377E+03  0.59642031377E+03  0.00000000000E+00 0. -1.
         25    2    1    2    0    0  0.25818820016E+02  0.12193591121E+03 -0.92533406092E+02  0.19936581534E+03  0.12509723887E+03 0.  0.
          5    1    3    3  502    0  0.29360427202E+02  0.14182215835E+03 -0.10146846813E+03  0.17688663519E+03  0.41800000000E+01 0. -1.
         -5    1    3    3    0  502 -0.35416071859E+01 -0.19886247138E+02  0.89350620348E+01  0.22479180151E+02  0.41800000000E+01 0. -1.
        -11    1    1    2    0    0 -0.35745157566E+02 -0.10620754967E+02 -0.67623049517E+02  0.77223011800E+02  0.00000000000E+00 0.  1.
         11    1    1    2    0    0  0.99263375504E+01 -0.11131515624E+03 -0.36978839909E+03  0.38630694569E+03  0.00000000000E+00 0. -1.
</event>
<event>
 7    1  0.2594791E-009  0.8854005E+02  0.7561462E-02  0.1306426E+00
         -2   -1    0    0    0  501 -0.00000000000E+00  0.00000000000E+00  0.64732002078E+02  0.64732002078E+02  0.00000000000E+00 0. -1.
          2   -1    0    0  501    0  0.00000000000E+00 -0.00000000000E+00 -0.63741330287E+03  0.63741330287E+03  0.00000000000E+00 0.  1.
         25    2    1    2    0    0 -0.42887750916E+02  0.44654656701E+02 -0.57290435356E+03  0.58966106735E+03  0.12508948189E+03 0.  0.
          5    1    3    3  502    0  0.11791577705E+02  0.26367181316E+02 -0.24179840583E+02  0.37899955751E+02  0.41800000000E+01 0.  1.
         -5    1    3    3    0  502 -0.54679328622E+02  0.18287475385E+02 -0.54872451298E+03  0.55176111160E+03  0.41800000000E+01 0.  1.
        -11    1    1    2    0    0  0.68058489001E+01  0.17189314223E+02 -0.29618025538E+02  0.34914460321E+02  0.00000000000E+00 0.  1.
         11    1    1    2    0    0  0.36081902016E+02 -0.61843970924E+02  0.29841078302E+02  0.77569777278E+02  0.00000000000E+00 0. -1.
</event>
<event>
 7    1  0.2594791E-009  0.1132283E+03  0.7561462E-02  0.1254706E+00
         -2   -1    0    0    0  501 -0.00000000000E+00  0.00000000000E+00  0.37346198504E+03  0.37346198504E+03  0.00000000000E+00 0.  1.
          2   -1    0    0  501    0  0.00000000000E+00 -0.00000000000E+00 -0.57447774927E+02  0.57447774927E+02  0.00000000000E+00 0. -1.
         25    2    1    2    0    0  0.29767089934E+02  0.89590637630E+02  0.23804517933E+03  0.28500038005E+03  0.12508855755E+03 0.  0.
          5    1    3    3  502    0  0.44665330818E+00 -0.18099126957E+02 -0.34776466662E+01  0.18903553161E+02  0.41800000000E+01 0. -1.
         -5    1    3    3    0  502  0.29320436626E+02  0.10768976459E+03  0.24152282600E+03  0.26609682689E+03  0.41800000000E+01 0. -1.
        -11    1    1    2    0    0  0.19181475550E+01 -0.15331112695E+02  0.61628240589E+02  0.63535520338E+02  0.00000000000E+00 0.  1.
         11    1    1    2    0    0 -0.31685237489E+02 -0.74259524935E+02  0.16340790191E+02  0.82373859582E+02  0.00000000000E+00 0. -1.
</event>
<event>
 7    1  0.2594791E-009  0.1346280E+03  0.7561462E-02  0.1220746E+00
         -2   -1    0    0    0  501 -0.00000000000E+00  0.00000000000E+00  0.28050813818E+03  0.28050813818E+03  0.00000000000E+00 0.  1.
          2   -1    0    0  501    0  0.00000000000E+00 -0.00000000000E+00 -0.99497615851E+02  0.99497615851E+02  0.00000000000E+00 0. -1.
         25    2    1    2    0    0  0.72838402174E+01 -0.10572949199E+03  0.17338233834E+03  0.23862498409E+03  0.12509463611E+03 0.  0.
          5    1    3    3  502    0  0.21310319240E+02  0.24068053525E+02  0.24974142119E+02  0.40921645632E+02  0.41800000000E+01 0. -1.
         -5    1    3    3    0  502 -0.14026479023E+02 -0.12979754551E+03  0.14840819622E+03  0.19770333846E+03  0.41800000000E+01 0. -1.
        -11    1    1    2    0    0 -0.83068441048E+01  0.72631682515E+02 -0.40030490964E+02  0.83347496488E+02  0.00000000000E+00 0. -1.
         11    1    1    2    0    0  0.10230038875E+01  0.33097809470E+02  0.47658674960E+02  0.58033273452E+02  0.00000000000E+00 0.  1.
</event>
<event>
 7    1  0.2871369E-009  0.2130495E+03  0.7561462E-02  0.1139174E+00
         -2   -1    0    0    0  501 -0.00000000000E+00  0.00000000000E+00  0.11609557291E+03  0.11609557291E+03  0.00000000000E+00 0. -1.
          2   -1    0    0  501    0  0.00000000000E+00 -0.00000000000E+00 -0.39398984838E+03  0.39398984838E+03  0.00000000000E+00 0.  1.
         25    2    1    2    0    0  0.94315647165E+02 -0.15700766607E+03 -0.12763029851E+03  0.25589820659E+03  0.12509016962E+03 0.  0.
          5    1    3    3  502    0  0.84780918248E+02 -0.23786712613E+02 -0.52293890350E+02  0.10249748857E+03  0.41800000000E+01 0.  1.
         -5    1    3    3    0  502  0.95347289171E+01 -0.13322095345E+03 -0.75336408159E+02  0.15340071802E+03  0.41800000000E+01 0.  1.
        -11    1    1    2    0    0 -0.10798317450E+03  0.10526731402E+03 -0.11989085296E+03  0.19265354916E+03  0.00000000000E+00 0. -1.
         11    1    1    2    0    0  0.13667527338E+02  0.51740352043E+02 -0.30373123997E+02  0.61533665537E+02  0.00000000000E+00 0.  1.
</event>
<event>
 7    1  0.2594791E-009  0.1673111E+03  0.7561462E-02  0.1180681E+00
          2   -1    0    0  501    0  0.00000000000E+00  0.00000000000E+00  0.18004728256E+03  0.18004728256E+03  0.00000000000E+00 0. -1.
         -2   -1    0    0    0  501 -0.00000000000E+00 -0.00000000000E+00 -0.22928069293E+03  0.22928069293E+03  0.00000000000E+00 0.  1.
         25    2    1    2    0    0 -0.66370715869E+02  0.14609993206E+03  0.34851555909E+02  0.20642897573E+03  0.12509208208E+03 0.  0.
          5    1    3    3  502    0  0.67617366567E+01  0.49547168793E+01  0.46069752931E+02  0.47012390251E+02  0.41800000000E+01 0.  1.
         -5    1    3    3    0  502 -0.73132452526E+02  0.14114521518E+03 -0.11218197023E+02  0.15941658548E+03  0.41800000000E+01 0.  1.
        -11    1    1    2    0    0  0.17725414456E+02 -0.73242340447E+01 -0.47698027162E+02  0.51409498316E+02  0.00000000000E+00 0.  1.
         11    1    1    2    0    0  0.48645301413E+02 -0.13877569802E+03 -0.36386939121E+02  0.15148950145E+03  0.00000000000E+00 0. -1.
</event>
<event>
 7    1  0.2594791E-009  0.8435292E+02  0.7561462E-02  0.1317133E+00
         -1   -1    0    0    0  501 -0.00000000000E+00  0.00000000000E+00  0.22884845480E+03  0.22884845480E+03  0.00000000000E+00 0.  1.
          1   -1    0    0  501    0  0.00000000000E+00 -0.00000000000E+00 -0.68454979113E+02  0.68454979113E+02  0.00000000000E+00 0. -1.
         25    2    1    2    0    0  0.16911011307E+02  0.52359767211E+02  0.10658893592E+03  0.17330835589E+03  0.12508819863E+03 0.  0.
          5    1    3    3  502    0  0.32648496082E+02 -0.13511846917E+01 -0.17365538908E+02  0.37239553408E+02  0.41800000000E+01 0. -1.
         -5    1    3    3    0  502 -0.15737484775E+02  0.53710951903E+02  0.12395447482E+03  0.13606880249E+03  0.41800000000E+01 0. -1.
        -11    1    1    2    0    0  0.20560676833E+02 -0.28761913676E+02 -0.17969302675E+02  0.39659613573E+02  0.00000000000E+00 0. -1.
         11    1    1    2    0    0 -0.37471688140E+02 -0.23597853536E+02  0.71773842446E+02  0.84335464445E+02  0.00000000000E+00 0.  1.
</event>
<event>
 7    1  0.2594791E-009  0.1965307E+03  0.7561462E-02  0.1152699E+00
          2   -1    0    0  501    0  0.00000000000E+00  0.00000000000E+00  0.84823995740E+03  0.84823995740E+03  0.00000000000E+00 0. -1.
         -2   -1    0    0    0  501 -0.00000000000E+00 -0.00000000000E+00 -0.50895440452E+02  0.50895440452E+02  0.00000000000E+00 0.  1.
         25    2    1    2    0    0  0.15556809949E+03 -0.58339451887E+02  0.54614044359E+03  0.58439769611E+03  0.12508540230E+03 0.  0.
          5    1    3    3  502    0  0.13762316355E+03 -0.94516004984E+02  0.45250192111E+03  0.48233688574E+03  0.41800000000E+01 0. -1.
         -5    1    3    3    0  502  0.17944935944E+02  0.36176553098E+02  0.93638522486E+02  0.10206081037E+03  0.41800000000E+01 0. -1.
        -11    1    1    2    0    0 -0.18785535372E+02 -0.20317702795E+02  0.17450205926E+02  0.32714141788E+02  0.00000000000E+00 0. -1.
         11    1    1    2    0    0 -0.13678256412E+03  0.78657154681E+02  0.23375386743E+03  0.28202355995E+03  0.00000000000E+00 0.  1.
</event>
<event>
 7    1  0.2654673E-009  0.1311465E+03  0.7561462E-02  0.1225764E+00
          2   -1    0    0  501    0  0.00000000000E+00  0.00000000000E+00  0.79430484417E+03  0.79430484417E+03  0.00000000000E+00 0. -1.
         -2   -1    0    0    0  501 -0.00000000000E+00 -0.00000000000E+00 -0.32472458657E+02  0.32472458657E+02  0.00000000000E+00 0.  1.
         25    2    1    2    0    0  0.36373906496E+02 -0.10649836045E+03  0.49896327502E+03  0.52657065533E+03  0.12508934160E+03 0.  0.
          5    1    3    3  502    0  0.45169218533E+02 -0.54856887803E+02  0.92472171058E+02  0.11669666346E+03  0.41800000000E+01 0.  1.
         -5    1    3    3    0  502 -0.87953120375E+01 -0.51641472647E+02  0.40649110396E+03  0.40987399187E+03  0.41800000000E+01 0.  1.
        -11    1    1    2    0    0  0.24606879942E+02  0.15719867336E+02  0.25142527512E+02  0.38532576597E+02  0.00000000000E+00 0.  1.
         11    1    1    2    0    0 -0.60980786438E+02  0.90778493114E+02  0.23772658298E+03  0.26167407090E+03  0.00000000000E+00 0. -1.
</event>
<event>
 7    1  0.2594791E-009  0.2281278E+03  0.7561462E-02  0.1127964E+00
         -2   -1    0    0    0  501 -0.00000000000E+00  0.00000000000E+00  0.22619827712E+03  0.22619827712E+03  0.00000000000E+00 0.  1.
          2   -1    0    0  501    0  0.00000000000E+00 -0.00000000000E+00 -0.27180042511E+03  0.27180042511E+03  0.00000000000E+00 0. -1.
         25    2    1    2    0    0  0.37413258768E+02 -0.22325717288E+03 -0.24149555624E+02  0.25975816192E+03  0.12509030528E+03 0.  0.
          5    1    3    3  502    0  0.33835198010E+02 -0.13477604668E+03  0.46293689182E+02  0.14652638479E+03  0.41800000000E+01 0.  1.
         -5    1    3    3    0  502  0.35780607577E+01 -0.88481126200E+02 -0.70443244806E+02  0.11323177713E+03  0.41800000000E+01 0.  1.
        -11    1    1    2    0    0 -0.25801056695E+02  0.65499175560E+02  0.22773381905E+02  0.73989617171E+02  0.00000000000E+00 0.  1.
         11    1    1    2    0    0 -0.11612202072E+02  0.15775799732E+03 -0.44225974270E+02  0.16425092315E+03  0.00000000000E+00 0. -1.
</event>
<event>
 7    1  0.2594791E-009  0.1076044E+03  0.7561462E-02  0.1265072E+00
          1   -1    0    0  501    0  0.00000000000E+00  0.00000000000E+00  0.51856750331E+02  0.51856750331E+02  0.00000000000E+00 0. -1.
         -1   -1    0    0    0  501 -0.00000000000E+00 -0.00000000000E+00 -0.32275077946E+03  0.32275077946E+03  0.00000000000E+00 0.  1.
         25    2    1    2    0    0 -0.58245213411E+02  0.22474683537E+02 -0.19422792062E+03  0.23931090253E+03  0.12509039386E+03 0.  0.
          5    1    3    3  502    0 -0.78309530093E+02 -0.53558108482E+00 -0.19316588645E+03  0.20847829968E+03  0.41800000000E+01 0. -1.
         -5    1    3    3    0  502  0.20064316682E+02  0.23010264621E+02 -0.10620341716E+01  0.30832602849E+02  0.41800000000E+01 0. -1.
        -11    1    1    2    0    0  0.79905514172E+02 -0.25994038903E+02 -0.76067790812E+02  0.11334412227E+03  0.00000000000E+00 0.  1.
         11    1    1    2    0    0 -0.21660300762E+02  0.35193553668E+01 -0.59831769337E+00  0.21952504990E+02  0.00000000000E+00 0. -1.
</event>
<event>
 7    1  0.2594791E-009  0.1151578E+03  0.7561462E-02  0.1251306E+00
         -1   -1    0    0    0  501 -0.00000000000E+00  0.00000000000E+00  0.43228605875E+03  0.43228605875E+03  0.00000000000E+00 0.  1.
          1   -1    0    0  501    0  0.00000000000E+00 -0.00000000000E+00 -0.69951251865E+02  0.69951251865E+02  0.00000000000E+00 0. -1.
         25    2    1    2    0    0 -0.94525584489E+02  0.24608533787E+02  0.55296377178E+02  0.16806451874E+03  0.12508927640E+03 0.  0.
          5    1    3    3  502    0 -0.56635735611E+02  0.29581211207E+02 -0.32801154672E+02  0.71944720115E+02  0.41800000000E+01 0.  1.
         -5    1    3    3    0  502 -0.37889848878E+02 -0.49726774201E+01  0.88097531850E+02  0.96119798620E+02  0.41800000000E+01 0.  1.
        -11    1    1    2    0    0  0.68430286537E+02 -0.54992535374E+02  0.16900067480E+03  0.19044188391E+03  0.00000000000E+00 0. -1.
         11    1    1    2    0    0  0.26095297952E+02  0.30384001587E+02  0.13803775490E+03  0.14373090797E+03  0.00000000000E+00 0.  1.
</event>
<event>
 7    1  0.2594791E-009  0.1017184E+03  0.7561462E-02  0.1276723E+00
         -1   -1    0    0    0  501 -0.00000000000E+00  0.00000000000E+00  0.10510337471E+03  0.10510337471E+03  0.00000000000E+00 0.  1.
          1   -1    0    0  501    0  0.00000000000E+00 -0.00000000000E+00 -0.12076150365E+03  0.12076150365E+03  0.00000000000E+00 0. -1.
         25    2    1    2    0    0 -0.15652332089E+02  0.17700614819E+02 -0.27200290136E+01  0.12733103107E+03  0.12508991027E+03 0.  0.
          5    1    3    3  502    0 -0.43821970997E+00  0.71281555210E+02  0.76050538013E-01  0.71405394288E+02  0.41800000000E+01 0. -1.
         -5    1    3    3    0  502 -0.15214112379E+02 -0.53580940392E+02 -0.27960795516E+01  0.55925636783E+02  0.41800000000E+01 0. -1.
        -11    1    1    2    0    0 -0.21517507507E+02  0.15354349161E+02  0.24683758790E+02  0.36166934007E+02  0.00000000000E+00 0.  1.
         11    1    1    2    0    0  0.37169839595E+02 -0.33054963980E+02 -0.37621858711E+02  0.62366913280E+02  0.00000000000E+00 0. -1.
</event>
<event>
 7    1  0.2784680E-009  0.1802926E+03  0.7561462E-02  0.1167520E+00
          1   -1    0    0  501    0  0.00000000000E+00  0.00000000000E+00  0.12865386586E+04  0.12865386586E+04  0.00000000000E+00 0. -1.
         -1   -1    0    0    0  501 -0.00000000000E+00 -0.00000000000E+00 -0.30918324328E+02  0.30918324328E+02  0.00000000000E+00 0.  1.
         25    2    1    2    0    0 -0.50323466608E+02  0.15797182049E+03  0.59115055008E+03  0.62657181805E+03  0.12508286435E+03 0.  0.
          5    1    3    3  502    0 -0.47505751545E+02  0.23192869132E+02  0.31283639745E+03  0.31729921144E+03  0.41800000000E+01 0.  1.
         -5    1    3    3    0  502 -0.28177150629E+01  0.13477895136E+03  0.27831415263E+03  0.30927260661E+03  0.41800000000E+01 0.  1.
        -11    1    1    2    0    0 -0.71377211642E+01 -0.48726895465E+02  0.83443495360E+02  0.96892075646E+02  0.00000000000E+00 0.  1.
         11    1    1    2    0    0  0.57461187772E+02 -0.10924492502E+03  0.58102628887E+03  0.59399308927E+03  0.00000000000E+00 0. -1.
</event>
<event>
 7    1  0.2594791E-009  0.7504633E+02  0.7561462E-02  0.1343728E+00
          1   -1    0    0  501    0  0.00000000000E+00  0.00000000000E+00  0.10726706953E+03  0.10726706953E+03  0.00000000000E+00 0. -1.
         -1   -1    0    0    0  501 -0.00000000000E+00 -0.00000000000E+00 -0.17545814189E+03  0.17545814189E+03  0.00000000000E+00 0.  1.
         25    2    1    2    0    0 -0.17979535432E+02  0.42548488375E+01 -0.12210098047E+03  0.17577871511E+03  0.12509252504E+03 0.  0.
          5    1    3    3  502    0 -0.25474491947E+02 -0.30989055609E+02  0.76506227822E+01  0.41052110012E+02  0.41800000000E+01 0. -1.
         -5    1    3    3    0  502  0.74949565148E+01  0.35243904447E+02 -0.12975160325E+03  0.13472660509E+03  0.41800000000E+01 0. -1.
        -11    1    1    2    0    0  0.45627756149E+02 -0.43806023200E+01  0.62938657148E+02  0.77861135179E+02  0.00000000000E+00 0. -1.
         11    1    1    2    0    0 -0.27648220717E+02  0.12575348248E+00 -0.90287490416E+01  0.29085361129E+02  0.00000000000E+00 0.  1.
</event>
<event>
 7    1  0.2594791E-009  0.1112513E+03  0.7561462E-02  0.1258270E+00
         -2   -1    0    0    0  501 -0.00000000000E+00  0.00000000000E+00  0.34267345705E+02  0.34267345705E+02  0.00000000000E+00 0. -1.
          2   -1    0    0  501    0  0.00000000000E+00 -0.00000000000E+00 -0.47324965845E+03  0.47324965845E+03  0.00000000000E+00 0.  1.
         25    2    1    2    0    0  0.52241056002E+02 -0.39330954274E+02 -0.27025064098E+03  0.30489586343E+03  0.12510006671E+03 0.  0.
          5    1    3    3  502    0  0.33641666099E+02 -0.74196438110E+02 -0.95094828353E+02  0.12528915318E+03  0.41800000000E+01 0.  1.
         -5    1    3    3    0  502  0.18599389903E+02  0.34865483836E+02 -0.17515581263E+03  0.17960671025E+03  0.41800000000E+01 0.  1.
        -11    1    1    2    0    0 -0.69095203527E+02  0.13582490875E+02 -0.15217052754E+03  0.16767379241E+03  0.00000000000E+00 0.  1.
         11    1    1    2    0    0  0.16854147525E+02  0.25748463399E+02 -0.16561144220E+02  0.34947348313E+02  0.00000000000E+00 0. -1.
</event>
<event>
 7    1  0.2594791E-009  0.8815877E+02  0.7561462E-02  0.1307373E+00
         -1   -1    0    0    0  501 -0.00000000000E+00  0.00000000000E+00  0.44701023918E+02  0.44701023918E+02  0.00000000000E+00 0. -1.
          1   -1    0    0  501    0  0.00000000000E+00 -0.00000000000E+00 -0.34915860356E+03  0.34915860356E+03  0.00000000000E+00 0.  1.
         25    2    1    2    0    0  0.17378602519E+02  0.19614428737E+02 -0.81722404658E+02  0.15169714016E+03  0.12508688689E+03 0.  0.
          5    1    3    3  502    0  0.63463775142E+02  0.20058966878E+02 -0.11614366305E+02  0.67693270066E+02  0.41800000000E+01 0.  1.
         -5    1    3    3    0  502 -0.46085172623E+02 -0.44453814080E+00 -0.70108038353E+02  0.84003870099E+02  0.41800000000E+01 0.  1.
        -11    1    1    2    0    0  0.20934346351E+02 -0.12504167900E+02 -0.10790207778E+02  0.26665139338E+02  0.00000000000E+00 0. -1.
         11    1    1    2    0    0 -0.38312948870E+02 -0.71102608370E+01 -0.21194496721E+03  0.21549734798E+03  0.00000000000E+00 0.  1.
</event>
<event>
 7    1  0.2594791E-009  0.1279449E+03  0.7561462E-02  0.1230537E+00
         -4   -1    0    0    0  501 -0.00000000000E+00  0.00000000000E+00  0.35016110247E+03  0.35016110247E+03  0.00000000000E+00 0.  1.
          4   -1    0    0  501    0  0.00000000000E+00 -0.00000000000E+00 -0.72665612964E+02  0.72665612964E+02  0.00000000000E+00 0. -1.
         25    2    1    2    0    0  0.87830473411E+02  0.72896280169E+02  0.11943763493E+03  0.20721823138E+03  0.12508392006E+03 0.  0.
          5    1    3    3  502    0 -0.19344824759E+01 -0.10678906743E+02 -0.18963429001E+02  0.22245568348E+02  0.41800000000E+01 0.  1.
         -5    1    3    3    0  502  0.89764955887E+02  0.83575186912E+02  0.13840106393E+03  0.18497266303E+03  0.41800000000E+01 0.  1.
        -11    1    1    2    0    0 -0.67926242443E+02 -0.30009292009E+02  0.15036954665E+03  0.16770668615E+03  0.00000000000E+00 0.  1.
         11    1    1    2    0    0 -0.19904230968E+02 -0.42886988160E+02  0.76883079315E+01  0.47901797907E+02  0.00000000000E+00 0. -1.
</event>
<event>
 7    1  0.2594791E-009  0.1124964E+03  0.7561462E-02  0.1256015E+00
          2   -1    0    0  501    0  0.00000000000E+00  0.00000000000E+00  0.11880998787E+04  0.11880998787E+04  0.00000000000E+00 0. -1.
         -2   -1    0    0    0  501 -0.00000000000E+00 -0.00000000000E+00 -0.11504705989E+02  0.11504705989E+02  0.00000000000E+00 0.  1.
         25    2    1    2    0    0  0.26742038193E+02  0.24970726708E+02  0.79785564738E+03  0.80843136302E+03  0.12509580674E+03 0.  0.
          5    1    3    3  502    0 -0.45042171197E+02 -0.11626447212E+02  0.21476298978E+03  0.21978304221E+03  0.41800000000E+01 0. -1.
         -5    1    3    3    0  502  0.71784209389E+02  0.36597173920E+02  0.58309265759E+03  0.58864832081E+03  0.41800000000E+01 0. -1.
        -11    1    1    2    0    0 -0.53417910338E+02  0.92511856375E+01  0.22379758349E+03  0.23027031063E+03  0.00000000000E+00 0. -1.
         11    1    1    2    0    0  0.26675872145E+02 -0.34221912346E+02  0.15494194182E+03  0.16090291102E+03  0.00000000000E+00 0.  1.
</event>
<event>
 7    1  0.2594791E-009  0.8576036E+02  0.7561462E-02  0.1313456E+00
         -4   -1    0    0    0  501 -0.00000000000E+00  0.00000000000E+00  0.27297457981E+03  0.27297457981E+03  0.00000000000E+00 0.  1.
          4   -1    0    0  501    0  0.00000000000E+00 -0.00000000000E+00 -0.61103987297E+02  0.61103987297E+02  0.00000000000E+00 0. -1.
         25    2    1    2    0    0  0.49314351175E+02  0.25296634446E+02  0.18507804202E+03  0.23015880429E+03  0.12508944242E+03 0.  0.
          5    1    3    3  502    0  0.26102034009E+02  0.38436094440E+02  0.37143704435E+01  0.46796564863E+02  0.41800000000E+01 0. -1.
         -5    1    3    3    0  502  0.23212317166E+02 -0.13139459994E+02  0.18136367158E+03  0.18336223942E+03  0.41800000000E+01 0. -1.
        -11    1    1    2    0    0 -0.28907649206E+02 -0.54825061271E+02  0.27989042969E+02  0.68006073643E+02  0.00000000000E+00 0.  1.
         11    1    1    2    0    0 -0.20406701969E+02  0.29528426825E+02 -0.11964924814E+01  0.35913689176E+02  0.00000000000E+00 0. -1.
</event>
<event>
 6    1  0.2594791E-009  0.1023997E+03  0.7561462E-02  0.1275329E+00
         -4   -1    0    0    0  501 -0.00000000000E+00  0.00000000000E+00  0.11604083012E+03  0.11604083012E+03  0.00000000000E+00 0.  1.
          4   -1    0    0  501    0  0.00000000000E+00 -0.00000000000E+00 -0.12657285066E+03  0.12657285066E+03  0.00000000000E+00 0. -1.
          5    1    1    2  502    0  0.38251211498E+02 -0.69911105339E+02  0.11244029380E+02  0.80589195476E+02  0.41800000000E+01 0.  1.
         -5    1    1    2    0  502 -0.83803038482E+01  0.34130480017E+02 -0.44556912694E+02  0.56902636385E+02  0.41800000000E+01 0.  1.
        -11    1    1    2    0    0 -0.24225156043E+01  0.55661767813E+02 -0.11529079896E+02  0.56894821040E+02  0.00000000000E+00 0. -1.
         11    1    1    2    0    0 -0.27448392046E+02 -0.19881142491E+02  0.34309942669E+02  0.48227027885E+02  0.00000000000E+00 0.  1.
</event>
<event>
 6    1  0.2594791E-009  0.1265423E+03  0.7561462E-02  0.1232678E+00
         -1   -1    0    0    0  501 -0.00000000000E+00  0.00000000000E+00  0.38077590154E+02  0.38077590154E+02  0.00000000000E+00 0.  1.
          1   -1    0    0  501    0  0.00000000000E+00 -0.00000000000E+00 -0.55732243781E+03  0.55732243781E+03  0.00000000000E+00 0. -1.
          5    1    1    2  502    0 -0.16811560531E+02 -0.16711536530E+02 -0.27785888726E+01  0.24230084127E+02  0.41800000000E+01 0.  1.
         -5    1    1    2    0  502 -0.41687089057E+02  0.95683595504E+02 -0.30316195701E+03  0.32065216110E+03  0.41800000000E+01 0.  1.
        -11    1    1    2    0    0 -0.94484064761E+01 -0.49676109592E+02 -0.49430566519E+02  0.70713288395E+02  0.00000000000E+00 0.  1.
         11    1    1    2    0    0  0.67947056064E+02 -0.29295949382E+02 -0.16387373526E+03  0.17980449434E+03  0.00000000000E+00 0. -1.
</event>
<event>
 7    1  0.2594791E-009  0.8915648E+02  0.7561462E-02  0.1304907E+00
          2   -1    0    0  501    0  0.00000000000E+00  0.00000000000E+00  0.47115582130E+02  0.47115582130E+02  0.00000000000E+00 0. -1.
         -2   -1    0    0    0  501 -0.00000000000E+00 -0.00000000000E+00 -0.31353237529E+03  0.31353237529E+03  0.00000000000E+00 0.  1.
         25    2    1    2    0    0  0.15417960100E+02  0.57344334032E+02 -0.18560760919E+03  0.23156664294E+03  0.12508732707E+03 0.  0.
          5    1    3    3  502    0 -0.30534768308E+02 -0.12169083663E+02 -0.12264266452E+03  0.12703997101E+03  0.41800000000E+01 0. -1.
         -5    1    3    3    0  502  0.45952728408E+02  0.69513417695E+02 -0.62964944671E+02  0.10452667193E+03  0.41800000000E+01 0. -1.
        -11    1    1    2    0    0 -0.13281684423E+02 -0.18145897266E+02  0.13984172469E+02  0.26480819632E+02  0.00000000000E+00 0. -1.
         11    1    1    2    0    0 -0.21362756762E+01 -0.39198436766E+02 -0.94793356440E+02  0.10260049485E+03  0.00000000000E+00 0.  1.
</event>
<event>
 7    1  0.2594791E-009  0.8901918E+02  0.7561462E-02  0.1305244E+00
          1   -1    0    0  501    0  0.00000000000E+00  0.00000000000E+00  0.10307320294E+03  0.10307320294E+03  0.00000000000E+00 0. -1.
         -1   -1    0    0    0  501 -0.00000000000E+00 -0.00000000000E+00 -0.11920200013E+03  0.11920200013E+03  0.00000000000E+00 0.  1.
         25    2    1    2    0    0 -0.16238962689E+02  0.17074885311E+02  0.13828773985E+01  0.12729767110E+03  0.12509008394E+03 0.  0.
          5    1    3    3  502    0 -0.65266869853E+02  0.29201241660E+02  0.18204238816E+02  0.73900903417E+02  0.41800000000E+01 0.  1.
         -5    1    3    3    0  502  0.49027907164E+02 -0.12126356350E+02 -0.16821361417E+02  0.53396767684E+02  0.41800000000E+01 0.  1.
        -11    1    1    2    0    0 -0.61287376017E+01 -0.29513482792E+02 -0.47060061069E+02  0.55886102377E+02  0.00000000000E+00 0.  1.
         11    1    1    2    0    0  0.22367700291E+02  0.12438597481E+02  0.29548386479E+02  0.39091429587E+02  0.00000000000E+00 0. -1.
</event>
<event>
 7    1  0.2594791E-009  0.1678934E+03  0.7561462E-02  0.1180063E+00
          2   -1    0    0  501    0  0.00000000000E+00  0.00000000000E+00  0.16784151592E+04  0.16784151592E+04  0.00000000000E+00 0. -1.
         -2   -1    0    0    0  501 -0.00000000000E+00 -0.00000000000E+00 -0.24591004919E+02  0.24591004919E+02  0.00000000000E+00 0.  1.
         25    2    1    2    0    0  0.62783125083E+02  0.12781032785E+03  0.12641100915E+04  0.12782408689E+04  0.12509274449E+03 0.  0.
          5    1    3    3  502    0  0.78601612853E+02  0.25796536208E+02  0.68460267819E+03  0.68959551492E+03  0.41800000000E+01 0.  1.
         -5    1    3    3    0  502 -0.15818487770E+02  0.10201379164E+03  0.57950741333E+03  0.58864535396E+03  0.41800000000E+01 0.  1.
        -11    1    1    2    0    0 -0.13853696314E+02 -0.80127413962E+02  0.10978936188E+03  0.13662368518E+03  0.00000000000E+00 0.  1.
         11    1    1    2    0    0 -0.48929428769E+02 -0.47682913887E+02  0.27992470088E+03  0.28814161005E+03  0.00000000000E+00 0. -1.
</event>
<event>
 7    1  0.2594791E-009  0.5089151E+02  0.7561462E-02  0.1440591E+00
         -3   -1    0    0    0  501 -0.00000000000E+00  0.00000000000E+00  0.13417346215E+03  0.13417346215E+03  0.00000000000E+00 0.  1.
          3   -1    0    0  501    0  0.00000000000E+00 -0.00000000000E+00 -0.89206527954E+02  0.89206527954E+02  0.00000000000E+00 0. -1.
         25    2    1    2    0    0 -0.66433576063E+01  0.92093607444E+01  0.34646813062E+02  0.13029352672E+03  0.12508818859E+03 0.  0.
          5    1    3    3  502    0  0.10819035214E+02 -0.19584140526E+02 -0.41274264099E+02  0.47134142190E+02  0.41800000000E+01 0. -1.
         -5    1    3    3    0  502 -0.17462392821E+02  0.28793501270E+02  0.75921077161E+02  0.83159384532E+02  0.41800000000E+01 0. -1.
        -11    1    1    2    0    0 -0.77200756632E+01 -0.23555266010E+02  0.45875328414E+02  0.52143991812E+02  0.00000000000E+00 0.  1.
         11    1    1    2    0    0  0.14363433270E+02  0.14345905265E+02 -0.35555207283E+02  0.40942471568E+02  0.00000000000E+00 0. -1.
</event>
<event>
 7    1  0.2594791E-009  0.1032647E+03  0.7561462E-02  0.1273577E+00
          2   -1    0    0  501    0  0.00000000000E+00  0.00000000000E+00  0.49323926642E+03  0.49323926642E+03  0.00000000000E+00 0. -1.
         -2   -1    0    0    0  501 -0.00000000000E+00 -0.00000000000E+00 -0.31367779139E+02  0.31367779139E+02  0.00000000000E+00 0.  1.
         25    2    1    2    0    0  0.54259986909E+02 -0.13217086721E+02  0.32885758202E+03  0.35624941311E+03  0.12508995774E+03 0.  0.
          5    1    3    3  502    0  0.83662925207E+02 -0.32885579464E+02  0.15903126620E+03  0.18272756339E+03  0.41800000000E+01 0. -1.
         -5    1    3    3    0  502 -0.29402938298E+02  0.19668492744E+02  0.16982631582E+03  0.17352184972E+03  0.41800000000E+01 0. -1.
        -11    1    1    2    0    0 -0.33206269093E+02  0.36622807305E+02  0.12703283501E+03  0.13631297624E+03  0.00000000000E+00 0. -1.
         11    1    1    2    0    0 -0.21053717815E+02 -0.23405720584E+02  0.59810702515E+01  0.32044656205E+02  0.00000000000E+00 0.  1.
</event>
<event>
 7    1  0.2594791E-009  0.6797119E+02  0.7561462E-02  0.1367131E+00
         -1   -1    0    0    0  501 -0.00000000000E+00  0.00000000000E+00  0.16186315009E+02  0.16186315009E+02  0.00000000000E+00 0.  1.
          1   -1    0    0  501    0  0.00000000000E+00 -0.00000000000E+00 -0.82312565915E+03  0.82312565915E+03  0.00000000000E+00 0. -1.
         25    2    1    2    0    0 -0.32065333499E+02  0.12422078170E+02 -0.54077111617E+03  0.55611489051E+03  0.12509147743E+03 0.  0.
          5    1    3    3  502    0  0.53421108559E+00 -0.13457890644E+02 -0.38033054300E+00  0.14107347497E+02  0.41800000000E+01 0. -1.
         -5    1    3    3    0  502 -0.32599544585E+02  0.25879968814E+02 -0.54039078563E+03  0.54200754301E+03  0.41800000000E+01 0. -1.
        -11    1    1    2    0    0  0.23130376228E+02 -0.42632713795E+02 -0.23076017436E+03  0.23580250351E+03  0.00000000000E+00 0. -1.
         11    1    1    2    0    0  0.89349572716E+01  0.30210635625E+02 -0.35408053618E+02  0.47394580148E+02  0.00000000000E+00 0.  1.
</event>
<event>
 7    1  0.2594791E-009  0.1431664E+03  0.7561462E-02  0.1209131E+00
          2   -1    0    0  501    0  0.00000000000E+00  0.00000000000E+00  0.82216594036E+02  0.82216594036E+02  0.00000000000E+00 0. -1.
         -2   -1    0    0    0  501 -0.00000000000E+00 -0.00000000000E+00 -0.52067975140E+03  0.52067975140E+03  0.00000000000E+00 0.  1.
         25    2    1    2    0    0  0.25600228671E+02 -0.10273774838E+03 -0.43626842872E+03  0.46603383654E+03  0.12508788213E+03 0.  0.
          5    1    3    3  502    0  0.37238522746E+02 -0.12636391538E+03 -0.30789468673E+03  0.33491962798E+03  0.41800000000E+01 0. -1.
         -5    1    3    3    0  502 -0.11638294075E+02  0.23626167000E+02 -0.12837374198E+03  0.13111420856E+03  0.41800000000E+01 0. -1.
        -11    1    1    2    0    0 -0.50859006161E+02  0.68709525393E+02 -0.24562279823E+02  0.88943481928E+02  0.00000000000E+00 0.  1.
         11    1    1    2    0    0  0.25258777490E+02  0.34028222984E+02  0.22367551178E+02  0.47919026967E+02  0.00000000000E+00 0. -1.
</event>
<event>
 7    1  0.2594791E-009  0.2656854E+03  0.7561462E-02  0.1103775E+00
         -1   -1    0    0    0  501 -0.00000000000E+00  0.00000000000E+00  0.79153451140E+02  0.79153451140E+02  0.00000000000E+00 0.  1.
          1   -1    0    0  501    0  0.00000000000E+00 -0.00000000000E+00 -0.10366053353E+04  0.10366053353E+04  0.00000000000E+00 0. -1.
         25    2    1    2    0    0  0.11591874999E+03 -0.22168152765E+03 -0.31968275076E+03  0.42476725285E+03  0.12510116568E+03 0.  0.
          5    1    3    3  502    0  0.13569260475E+03 -0.16002333842E+03 -0.27526929887E+03  0.34613669427E+03  0.41800000000E+01 0. -1.
         -5    1    3    3    0  502 -0.19773854767E+02 -0.61658189237E+02 -0.44413451894E+02  0.78630558573E+02  0.41800000000E+01 0. -1.
        -11    1    1    2    0    0 -0.11190599314E+03  0.16243404255E+03 -0.40098283672E+03  0.44687247043E+03  0.00000000000E+00 0.  1.
         11    1    1    2    0    0 -0.40127568490E+01  0.59247485102E+02 -0.23678629666E+03  0.24411906316E+03  0.00000000000E+00 0. -1.
</event>
<event>
 7    1  0.2594791E-009  0.2069043E+03  0.7561462E-02  0.1144041E+00
          4   -1    0    0  501    0  0.00000000000E+00  0.00000000000E+00  0.33251242988E+03  0.33251242988E+03  0.00000000000E+00 0. -1.
         -4   -1    0    0    0  501 -0.00000000000E+00 -0.00000000000E+00 -0.19479949375E+03  0.19479949375E+03  0.00000000000E+00 0.  1.
         25    2    1    2    0    0  0.93356830506E+02  0.15017401965E+03  0.22322433770E+03  0.31103705340E+03  0.12508880714E+03 0.  0.
          5    1    3    3  502    0 -0.29879365300E+02  0.17194019612E+02  0.44176242319E+02  0.56190956270E+02  0.41800000000E+01 0. -1.
         -5    1    3    3    0  502  0.12323619581E+03  0.13298000004E+03  0.17904809538E+03  0.25484609713E+03  0.41800000000E+01 0. -1.
        -11    1    1    2    0    0 -0.88606386856E+02 -0.59041875629E+02 -0.56384415388E+02  0.12048334809E+03  0.00000000000E+00 0.  1.
         11    1    1    2    0    0 -0.47504436492E+01 -0.91132144019E+02 -0.29126986175E+02  0.95791522130E+02  0.00000000000E+00 0. -1.
</event>
<event>
 7    1  0.2594791E-009  0.9605162E+02  0.7561462E-02  0.1288825E+00
         -1   -1    0    0    0  501 -0.00000000000E+00  0.00000000000E+00  0.66201046228E+02  0.66201046228E+02  0.00000000000E+00 0.  1.
          1   -1    0    0  501    0  0.00000000000E+00 -0.00000000000E+00 -0.17859515725E+03  0.17859515725E+03  0.00000000000E+00 0. -1.
         25    2    1    2    0    0  0.13485830265E+02 -0.11442937028E+02 -0.50983557080E+02  0.13623311873E+03  0.12508929259E+03 0.  0.
          5    1    3    3  502    0 -0.39909652891E+02  0.36541365020E+02 -0.18642566143E+02  0.57385271837E+02  0.41800000000E+01 0.  1.
         -5    1    3    3    0  502  0.53395483156E+02 -0.47984302048E+02 -0.32340990937E+02  0.78847846891E+02  0.41800000000E+01 0.  1.
        -11    1    1    2    0    0  0.81549348787E+01  0.33820964118E+02  0.50673027537E+01  0.35157334000E+02  0.00000000000E+00 0.  1.
         11    1    1    2    0    0 -0.21640765144E+02 -0.22378027090E+02 -0.66477856694E+02  0.73405750749E+02  0.00000000000E+00 0. -1.
</event>
<event>
 7    1  0.2594791E-009  0.1054051E+03  0.7561462E-02  0.1269324E+00
          2   -1    0    0  501    0  0.00000000000E+00  0.00000000000E+00  0.58749385027E+02  0.58749385027E+02  0.00000000000E+00 0. -1.
         -2   -1    0    0    0  501 -0.00000000000E+00 -0.00000000000E+00 -0.37486857857E+03  0.37486857857E+03  0.00000000000E+00 0.  1.
         25    2    1    2    0    0 -0.96246020804E+01  0.22709135955E+02 -0.28577830929E+02  0.13066101778E+03  0.12508905358E+03 0.  0.
          5    1    3    3  502    0 -0.36497297981E+02 -0.42685219257E+02 -0.78140443799E+01  0.56856067333E+02  0.41800000000E+01 0.  1.
         -5    1    3    3    0  502  0.26872695901E+02  0.65394355212E+02 -0.20763786549E+02  0.73804950447E+02  0.41800000000E+01 0.  1.
        -11    1    1    2    0    0 -0.32537579663E+02 -0.25610749863E+02 -0.69849373182E+02  0.81200612884E+02  0.00000000000E+00 0.  1.
         11    1    1    2    0    0  0.42162181744E+02  0.29016139073E+01 -0.21769198943E+03  0.22175633293E+03  0.00000000000E+00 0. -1.
</event>
<event>
 7    1  0.2594791E-009  0.1089368E+03  0.7561462E-02  0.1262551E+00
         -3   -1    0    0    0  501 -0.00000000000E+00  0.00000000000E+00  0.65597513536E+02  0.65597513536E+02  0.00000000000E+00 0.  1.
          3   -1    0    0  501    0  0.00000000000E+00 -0.00000000000E+00 -0.19175065190E+03  0.19175065190E+03  0.00000000000E+00 0. -1.
         25    2    1    2    0    0 -0.18233402504E+02 -0.23358926175E+02 -0.68219327439E+02  0.14549807729E+03  0.12505085949E+03 0.  0.
          5    1    3    3  502    0 -0.96321070328E+01 -0.72587667788E+02 -0.59832129491E+02  0.94652538900E+02  0.41800000000E+01 0. -1.
         -5    1    3    3    0  502 -0.86012954713E+01  0.49228741613E+02 -0.83871979487E+01  0.50845538388E+02  0.41800000000E+01 0. -1.
        -11    1    1    2    0    0  0.25454054531E+02 -0.30678794440E+02 -0.15525992563E+02  0.42780296463E+02  0.00000000000E+00 0. -1.
         11    1    1    2    0    0 -0.72206520271E+01  0.54037720615E+02 -0.42407818359E+02  0.69069791682E+02  0.00000000000E+00 0.  1.
</event>
<event>
 6    1  0.2594791E-009  0.2059639E+03  0.7561462E-02  0.1144803E+00
          1   -1    0    0  501    0  0.00000000000E+00  0.00000000000E+00  0.13707130938E+04  0.13707130938E+04  0.00000000000E+00 0. -1.
         -1   -1    0    0    0  501 -0.00000000000E+00 -0.00000000000E+00 -0.35679647409E+02  0.35679647409E+02  0.00000000000E+00 0.  1.
          5    1    1    2  502    0 -0.61749949125E+02 -0.88681541494E+02  0.23550968125E+03  0.25915199089E+03  0.41800000000E+01 0. -1.
         -5    1    1    2    0  502 -0.10491954534E+03 -0.10290231379E+01  0.48697266451E+03  0.49816565344E+03  0.41800000000E+01 0. -1.
        -11    1    1    2    0    0  0.10663733636E+03  0.23108392148E+02  0.45398643885E+03  0.46691455958E+03  0.00000000000E+00 0. -1.
         11    1    1    2    0    0  0.60032158103E+02  0.66602172484E+02  0.15856466181E+03  0.18216053734E+03  0.00000000000E+00 0.  1.
</event>
<event>
 7    1  0.2594791E-009  0.9273253E+02  0.7561462E-02  0.1296366E+00
         -1   -1    0    0    0  501 -0.00000000000E+00  0.00000000000E+00  0.69637726815E+02  0.69637726815E+02  0.00000000000E+00 0.  1.
          1   -1    0    0  501    0  0.00000000000E+00 -0.00000000000E+00 -0.23973374479E+03  0.23973374479E+03  0.00000000000E+00 0. -1.
         25    2    1    2    0    0 -0.58037596433E+01  0.64123964192E+02 -0.12870703108E+03  0.19067906585E+03  0.12508972737E+03 0.  0.
          5    1    3    3  502    0  0.14934499624E+02  0.71768130349E+02 -0.15221584385E+02  0.74985817619E+02  0.41800000000E+01 0. -1.
         -5    1    3    3    0  502 -0.20738259268E+02 -0.76441661573E+01 -0.11348544670E+03  0.11569324823E+03  0.41800000000E+01 0. -1.
        -11    1    1    2    0    0  0.14926088874E+02  0.79405388565E+01  0.18124807274E+02  0.24786063123E+02  0.00000000000E+00 0.  1.
         11    1    1    2    0    0 -0.91223292306E+01 -0.72064503048E+02 -0.59513794162E+02  0.93906342628E+02  0.00000000000E+00 0. -1.
</event>
<event>
 7    1  0.2594791E-009  0.1268554E+03  0.7561462E-02  0.1232198E+00
          2   -1    0    0  501    0  0.00000000000E+00  0.00000000000E+00  0.31913035319E+03  0.31913035319E+03  0.00000000000E+00 0. -1.
         -2   -1    0    0    0  501 -0.00000000000E+00 -0.00000000000E+00 -0.56446219817E+02  0.56446219817E+02  0.00000000000E+00 0.  1.
         25    2    1    2    0    0  0.68271811935E+02  0.38097976288E+01  0.90702005638E+02  0.16895752917E+03  0.12507692822E+03 0.  0.
          5    1    3    3  502    0  0.31942536347E+01  0.57482751568E+02  0.30929276034E+02  0.65487117055E+02  0.41800000000E+01 0. -1.
         -5    1    3    3    0  502  0.65077558301E+02 -0.53672953940E+02  0.59772729605E+02  0.10347041212E+03  0.41800000000E+01 0. -1.
        -11    1    1    2    0    0 -0.53599873578E+02  0.38991878185E+02  0.78336318105E+02  0.10261526079E+03  0.00000000000E+00 0.  1.
         11    1    1    2    0    0 -0.14671938357E+02 -0.42801675814E+02  0.93645809631E+02  0.10400378305E+03  0.00000000000E+00 0. -1.
</event>
<event>
 7    1  0.2594791E-009  0.1064162E+03  0.7561462E-02  0.1267354E+00
         -2   -1    0    0    0  501 -0.00000000000E+00  0.00000000000E+00  0.22199707440E+03  0.22199707440E+03  0.00000000000E+00 0. -1.
          2   -1    0    0  501    0  0.00000000000E+00 -0.00000000000E+00 -0.16689963780E+03  0.16689963780E+03  0.00000000000E+00 0.  1.
         25    2    1    2    0    0  0.88770537740E+02 -0.79305017540E+01  0.16192383293E+03  0.22318179940E+03  0.12509071382E+03 0.  0.
          5    1    3    3  502    0  0.38156219309E+02 -0.30111738089E+01 -0.13257438155E+02  0.40720956596E+02  0.41800000000E+01 0. -1.
         -5    1    3    3    0  502  0.50614318431E+02 -0.49193279450E+01  0.17518127108E+03  0.18246084280E+03  0.41800000000E+01 0. -1.
        -11    1    1    2    0    0 -0.80768091042E+02 -0.28772872278E+02 -0.90768674597E+02  0.12486118291E+03  0.00000000000E+00 0.  1.
         11    1    1    2    0    0 -0.80024466973E+01  0.36703374032E+02 -0.16057721737E+02  0.40853729889E+02  0.00000000000E+00 0. -1.
</event>
<event>
 7    1  0.2594791E-009  0.3897039E+02  0.7561462E-02  0.1515928E+00
          1   -1    0    0  501    0  0.00000000000E+00  0.00000000000E+00  0.33673655843E+03  0.33673655843E+03  0.00000000000E+00 0. -1.
         -1   -1    0    0    0  501 -0.00000000000E+00 -0.00000000000E+00 -0.36553935251E+02  0.36553935251E+02  0.00000000000E+00 0.  1.
         25    2    1    2    0    0 -0.19852848266E+02 -0.24137903603E+02  0.18373760336E+03  0.22446352626E+03  0.12509034239E+03 0.  0.
          5    1    3    3  502    0 -0.21766557165E+02 -0.25251807379E+02  0.20242102694E+03  0.20519059758E+03  0.41800000000E+01 0. -1.
         -5    1    3    3    0  502  0.19137088994E+01  0.11139037760E+01 -0.18683423581E+02  0.19272928685E+02  0.41800000000E+01 0. -1.
        -11    1    1    2    0    0  0.17269777393E+02  0.20707937632E+01 -0.10256426060E+02  0.20192267667E+02  0.00000000000E+00 0.  1.
         11    1    1    2    0    0  0.25830708725E+01  0.22067109840E+02  0.12670144588E+03  0.12863469975E+03  0.00000000000E+00 0. -1.
</event>
<event>
 7    1  0.2594791E-009  0.2880600E+03  0.7561462E-02  0.1091366E+00
          1   -1    0    0  501    0  0.00000000000E+00  0.00000000000E+00  0.14587124517E+04  0.14587124517E+04  0.00000000000E+00 0. -1.
         -1   -1    0    0    0  501 -0.00000000000E+00 -0.00000000000E+00 -0.76755437628E+02  0.76755437628E+02  0.00000000000E+00 0.  1.
         25    2    1    2    0    0  0.20100409793E+03  0.19782226431E+03  0.10312427680E+04  0.10764039865E+04  0.12509036714E+03 0.  0.
          5    1    3    3  502    0  0.38175344928E+02  0.44492006978E+02  0.80340813206E+02  0.99544032026E+02  0.41800000000E+01 0. -1.
         -5    1    3    3    0  502  0.16282875301E+03  0.15333025733E+03  0.95090195481E+03  0.97685995449E+03  0.41800000000E+01 0. -1.
        -11    1    1    2    0    0 -0.11796488588E+03 -0.16828298161E+03  0.27189031071E+03  0.34082138616E+03  0.00000000000E+00 0.  1.
         11    1    1    2    0    0 -0.83039212048E+02 -0.29539282698E+02  0.78823935308E+02  0.11824251662E+03  0.00000000000E+00 0. -1.
</event>
<event>
 7    1  0.2594791E-009  0.1076246E+03  0.7561462E-02  0.1265033E+00
         -2   -1    0    0    0  501 -0.00000000000E+00  0.00000000000E+00  0.96814275387E+02  0.96814275387E+02  0.00000000000E+00 0. -1.
          2   -1    0    0  501    0  0.00000000000E+00 -0.00000000000E+00 -0.18504693873E+03  0.18504693873E+03  0.00000000000E+00 0.  1.
         25    2    1    2    0    0  0.34498648799E+01  0.74608037764E+02 -0.18597789886E+02  0.14687401869E+03  0.12509132148E+03 0.  0.
          5    1    3    3  502    0 -0.30576882110E+02  0.47932035001E+02  0.43066055061E+02  0.71446365880E+02  0.41800000000E+01 0.  1.
         -5    1    3    3    0  502  0.34026746990E+02  0.26676002763E+02 -0.61663844947E+02  0.75427652806E+02  0.41800000000E+01 0.  1.
        -11    1    1    2    0    0 -0.87995484895E+01  0.19054204691E+02 -0.19344599116E+02  0.28543095224E+02  0.00000000000E+00 0.  1.
         11    1    1    2    0    0  0.53496836096E+01 -0.93662242455E+02 -0.50290274346E+02  0.10644410021E+03  0.00000000000E+00 0. -1.
</event>
<event>
 7    1  0.2594791E-009  0.9399663E+02  0.7561462E-02  0.1293452E+00
         -2   -1    0    0    0  501 -0.00000000000E+00  0.00000000000E+00  0.14667967809E+02  0.14667967809E+02  0.00000000000E+00 0.  1.
          2   -1    0    0  501    0  0.00000000000E+00 -0.00000000000E+00 -0.90400655570E+03  0.90400655570E+03  0.00000000000E+00 0. -1.
         25    2    1    2    0    0 -0.26477307993E+02 -0.13820412022E+02 -0.61438094892E+03  0.62769680100E+03  0.12508905616E+03 0.  0.
          5    1    3    3  502    0  0.92283091817E+01  0.34710800326E+02 -0.46732305810E+03  0.46871986771E+03  0.41800000000E+01 0. -1.
         -5    1    3    3    0  502 -0.35705617175E+02 -0.48531212347E+02 -0.14705789082E+03  0.15897693330E+03  0.41800000000E+01 0. -1.
        -11    1    1    2    0    0  0.49195059438E+02  0.35003382133E+02 -0.13951762782E+03  0.15202157448E+03  0.00000000000E+00 0. -1.
         11    1    1    2    0    0 -0.22717751445E+02 -0.21182970111E+02 -0.13544001115E+03  0.13895614803E+03  0.00000000000E+00 0.  1.
</event>
<event>
 7    1  0.2594791E-009  0.1091804E+03  0.7561462E-02  0.1262095E+00
          1   -1    0    0  501    0  0.00000000000E+00  0.00000000000E+00  0.74648968065E+02  0.74648968065E+02  0.00000000000E+00 0. -1.
         -1   -1    0    0    0  501 -0.00000000000E+00 -0.00000000000E+00 -0.16494374300E+03  0.16494374300E+03  0.00000000000E+00 0.  1.
         25    2    1    2    0    0 -0.20663887448E+02  0.56945996620E+01 -0.54293638282E+02  0.13803907579E+03  0.12509021775E+03 0.  0.
          5    1    3    3  502    0 -0.65956187127E+02  0.32873893964E+02 -0.34476997975E+02  0.81468075429E+02  0.41800000000E+01 0.  1.
         -5    1    3    3    0  502  0.45292299679E+02 -0.27179294302E+02 -0.19816640307E+02  0.56571000363E+02  0.41800000000E+01 0.  1.
        -11    1    1    2    0    0  0.10177190683E+02 -0.47439599809E+02 -0.32439559191E+02  0.58364508400E+02  0.00000000000E+00 0.  1.
         11    1    1    2    0    0  0.10486696765E+02  0.41745000147E+02 -0.35615774638E+01  0.43189126876E+02  0.00000000000E+00 0. -1.
</event>
<event>
 7    1  0.2594791E-009  0.1092056E+03  0.7561462E-02  0.1262048E+00
          2   -1    0    0  501    0  0.00000000000E+00  0.00000000000E+00  0.29880567199E+03  0.29880567199E+03  0.00000000000E+00 0. -1.
         -2   -1    0    0    0  501 -0.00000000000E+00 -0.00000000000E+00 -0.43418361705E+02  0.43418361705E+02  0.00000000000E+00 0.  1.
         25    2    1    2    0    0  0.26635763883E+02 -0.13935942652E+02  0.13877282753E+03  0.18923262668E+03  0.12508962757E+03 0.  0.
          5    1    3    3  502    0  0.43923312916E+02 -0.62719167297E+02  0.80341044011E+02  0.11106352739E+03  0.41800000000E+01 0.  1.
         -5    1    3    3    0  502 -0.17287549033E+02  0.48783224645E+02  0.58431783515E+02  0.78169099285E+02  0.41800000000E+01 0.  1.
        -11    1    1    2    0    0  0.17803787914E+02  0.36019138092E+02  0.85364613503E+02  0.94347604164E+02  0.00000000000E+00 0. -1.
         11    1    1    2    0    0 -0.44439551797E+02 -0.22083195440E+02  0.31249869259E+02  0.58643802856E+02  0.00000000000E+00 0.  1.
</event>
<event>
 6    1  0.2594791E-009  0.8120182E+02  0.7561462E-02  0.1325675E+00
          2   -1    0    0  501    0  0.00000000000E+00  0.00000000000E+00  0.15578268076E+02  0.15578268076E+02  0.00000000000E+00 0.  1.
         -2   -1    0    0    0  501 -0.00000000000E+00 -0.00000000000E+00 -0.94435432975E+03  0.94435432975E+03  0.00000000000E+00 0. -1.
          5    1    1    2  502    0  0.31483791049E+02  0.51108306086E+02 -0.23027654708E+03  0.23800850527E+03  0.41800000000E+01 0. -1.
         -5    1    1    2    0  502 -0.32974470338E+02 -0.38410241311E+02 -0.55122390873E+03  0.55355933041E+03  0.41800000000E+01 0. -1.
        -11    1    1    2    0    0  0.25069319098E+02 -0.12131579831E+02 -0.10808018618E+02  0.29874056565E+02  0.00000000000E+00 0.  1.
         11    1    1    2    0    0 -0.23578639808E+02 -0.56648494451E+00 -0.13646758726E+03  0.13849070558E+03  0.00000000000E+00 0. -1.
</event>
<event>
 7    1  0.2594791E-009  0.1572645E+03  0.7561462E-02  0.1191820E+00
         -2   -1    0    0    0  501 -0.00000000000E+00  0.00000000000E+00  0.44639039341E+02  0.44639039341E+02  0.00000000000E+00 0.  1.
          2   -1    0    0  501    0  0.00000000000E+00 -0.00000000000E+00 -0.76963449550E+03  0.76963449550E+03  0.00000000000E+00 0. -1.
         25    2    1    2    0    0  0.14111795357E+03  0.34746981090E+02 -0.29898637988E+03  0.35519138426E+03  0.12508570893E+03 0.  0.
          5    1    3    3  502    0  0.26901952954E+02  0.30641844925E+02 -0.19932011047E+03  0.20349107246E+03  0.41800000000E+01 0.  1.
         -5    1    3    3    0  502  0.11421600062E+03  0.41051361652E+01 -0.99666269407E+02  0.15170031179E+03  0.41800000000E+01 0.  1.
        -11    1    1    2    0    0 -0.66779946869E+02 -0.49828433554E+02 -0.13756107307E+03  0.16082749429E+03  0.00000000000E+00 0.  1.
         11    1    1    2    0    0 -0.74338006704E+02  0.15081452464E+02 -0.28844800320E+03  0.29825465630E+03  0.00000000000E+00 0. -1.
</event>
<event>
 7    1  0.2594791E-009  0.1449171E+03  0.7561462E-02  0.1206862E+00
         -2   -1    0    0    0  501 -0.00000000000E+00  0.00000000000E+00  0.23684593043E+03  0.23684593043E+03  0.00000000000E+00 0.  1.
          2   -1    0    0  501    0  0.00000000000E+00 -0.00000000000E+00 -0.10268480255E+03  0.10268480255E+03  0.00000000000E+00 0. -1.
         25    2    1    2    0    0 -0.87088895569E+02 -0.68740953780E+02  0.81939206516E+02  0.18620241118E+03  0.12509000722E+03 0.  0.
          5    1    3    3  502    0  0.52036836962E+00 -0.73347509625E+02  0.62010578602E+02  0.96140065581E+02  0.41800000000E+01 0.  1.
         -5    1    3    3    0  502 -0.87609263938E+02  0.46065558447E+01  0.19928627914E+02  0.90062345601E+02  0.41800000000E+01 0.  1.
        -11    1    1    2    0    0  0.49144609687E+02 -0.98476289397E+00  0.55171126206E+02  0.73891918273E+02  0.00000000000E+00 0.  1.
         11    1    1    2    0    0  0.37944285882E+02  0.69725716674E+02 -0.29492048434E+01  0.79436403531E+02  0.00000000000E+00 0. -1.
</event>
<event>
 7    1  0.2594791E-009  0.1080197E+03  0.7561462E-02  0.1264282E+00
         -2   -1    0    0    0  501 -0.00000000000E+00  0.00000000000E+00  0.64063015914E+02  0.64063015914E+02  0.00000000000E+00 0.  1.
          2   -1    0    0  501    0  0.00000000000E+00 -0.00000000000E+00 -0.20585352995E+03  0.20585352995E+03  0.00000000000E+00 0. -1.
         25    2    1    2    0    0  0.29455096307E+01  0.33918767832E+02 -0.72209097045E+02  0.14839087551E+03  0.12508612793E+03 0.  0.
          5    1    3    3  502    0 -0.53758132654E+02  0.10493132492E+02 -0.18736741109E+01  0.54963858222E+02  0.41800000000E+01 0. -1.
         -5    1    3    3    0  502  0.56703642285E+02  0.23425635340E+02 -0.70335422934E+02  0.93427017285E+02  0.41800000000E+01 0. -1.
        -11    1    1    2    0    0 -0.15753074781E+02  0.30289025010E+02 -0.22680856486E+02  0.40987872012E+02  0.00000000000E+00 0. -1.
         11    1    1    2    0    0  0.12807565151E+02 -0.64207792843E+02 -0.46900560510E+02  0.80537798349E+02  0.00000000000E+00 0.  1.
</event>
<event>
 7    1  0.2594791E-009  0.6665539E+02  0.7561462E-02  0.1371851E+00
         -3   -1    0    0    0  501 -0.00000000000E+00  0.00000000000E+00  0.18235349461E+02  0.18235349461E+02  0.00000000000E+00 0.  1.
          3   -1    0    0  501    0  0.00000000000E+00 -0.00000000000E+00 -0.76926582562E+03  0.76926582562E+03  0.00000000000E+00 0. -1.
         25    2    1    2    0    0 -0.12590652075E+02 -0.34076764124E+02 -0.52248703684E+03  0.53847894643E+03  0.12508845552E+03 0.  0.
          5    1    3    3  502    0  0.14498031905E+02 -0.23787814335E+02 -0.50189663534E+03  0.50268654051E+03  0.41800000000E+01 0. -1.
         -5    1    3    3    0  502 -0.27088683980E+02 -0.10288949789E+02 -0.20590401499E+02  0.35792405918E+02  0.41800000000E+01 0. -1.
        -11    1    1    2    0    0  0.39306171931E+02  0.11685870234E+02 -0.40003774442E+02  0.57287316961E+02  0.00000000000E+00 0.  1.
         11    1    1    2    0    0 -0.26715519856E+02  0.22390893890E+02 -0.18853966488E+03  0.19173491169E+03  0.00000000000E+00 0. -1.
</event>
<event>
 7    1  0.2594791E-009  0.9705374E+02  0.7561462E-02  0.1286616E+00
          1   -1    0    0  501    0  0.00000000000E+00  0.00000000000E+00  0.17458055787E+03  0.17458055787E+03  0.00000000000E+00 0. -1.
         -1   -1    0    0    0  501 -0.00000000000E+00 -0.00000000000E+00 -0.11405464537E+03  0.11405464537E+03  0.00000000000E+00 0.  1.
         25    2    1    2    0    0 -0.14913841656E+02  0.12844640571E+02 -0.57191304097E+02  0.13894196183E+03  0.12508643423E+03 0.  0.
          5    1    3    3  502    0 -0.29392776695E+02 -0.44785096845E+02  0.35726500611E+01  0.53850500924E+02  0.41800000000E+01 0. -1.
         -5    1    3    3    0  502  0.14478935039E+02  0.57629737416E+02 -0.60763954158E+02  0.85091460908E+02  0.41800000000E+01 0. -1.
        -11    1    1    2    0    0  0.14825727093E+02 -0.45652771108E+02  0.10320007942E+03  0.11381666875E+03  0.00000000000E+00 0. -1.
         11    1    1    2    0    0  0.88114563024E-01  0.32808130537E+02  0.14517137188E+02  0.35876572658E+02  0.00000000000E+00 0.  1.
</event>
<event>
 7    1  0.2594791E-009  0.1017817E+03  0.7561462E-02  0.1276593E+00
          2   -1    0    0  501    0  0.00000000000E+00  0.00000000000E+00  0.18084622979E+03  0.18084622979E+03  0.00000000000E+00 0.  1.
         -2   -1    0    0    0  501 -0.00000000000E+00 -0.00000000000E+00 -0.23895582028E+03  0.23895582028E+03  0.00000000000E+00 0. -1.
         25    2    1    2    0    0  0.49507494348E+02  0.80175561914E+02 -0.18155684142E+03  0.23977324262E+03  0.12509679646E+03 0.  0.
          5    1    3    3  502    0  0.62273720012E+01  0.16617744690E+01  0.18758670885E+02  0.20270712612E+02  0.41800000000E+01 0. -1.
         -5    1    3    3    0  502  0.43280122347E+02  0.78513787445E+02 -0.20031551231E+03  0.21950253001E+03  0.41800000000E+01 0. -1.
        -11    1    1    2    0    0 -0.47771998676E+02 -0.31051867831E+02  0.12005537904E+02  0.58228131463E+02  0.00000000000E+00 0. -1.
         11    1    1    2    0    0 -0.17354956725E+01 -0.49123694082E+02  0.11144171303E+03  0.12180067598E+03  0.00000000000E+00 0.  1.
</event>
<event>
 7    1  0.2594791E-009  0.7133937E+02  0.7561462E-02  0.1355597E+00
         -1   -1    0    0    0  501 -0.00000000000E+00  0.00000000000E+00  0.29863212689E+03  0.29863212689E+03  0.00000000000E+00 0.  1.
          1   -1    0    0  501    0  0.00000000000E+00 -0.00000000000E+00 -0.51388250480E+02  0.51388250480E+02  0.00000000000E+00 0. -1.
         25    2    1    2    0    0 -0.33840520457E+02 -0.50698456456E+02  0.12049166177E+03  0.18407155007E+03  0.12509428716E+03 0.  0.
          5    1    3    3  502    0 -0.35585154049E+02 -0.37679501272E+02  0.14605195566E+03  0.15503126832E+03  0.41800000000E+01 0.  1.
         -5    1    3    3    0  502  0.17446335926E+01 -0.13018955184E+02 -0.25560293892E+02  0.29040281753E+02  0.41800000000E+01 0.  1.
        -11    1    1    2    0    0 -0.71776024163E+00  0.40999040499E+02  0.78538253794E+01  0.41750677536E+02  0.00000000000E+00 0. -1.
         11    1    1    2    0    0  0.34558280698E+02  0.96994159567E+01  0.11889838926E+03  0.12419814976E+03  0.00000000000E+00 0.  1.
</event>
<event>
 7    1  0.2594791E-009  0.1448709E+03  0.7561462E-02  0.1206921E+00
          2   -1    0    0  501    0  0.00000000000E+00  0.00000000000E+00  0.11887177779E+04  0.11887177779E+04  0.00000000000E+00 0. -1.
         -2   -1    0    0    0  501 -0.00000000000E+00 -0.00000000000E+00 -0.20266208017E+02  0.20266208017E+02  0.00000000000E+00 0.  1.
         25    2    1    2    0    0 -0.97244655920E+01  0.11748354489E+03  0.75944034385E+03  0.77864887332E+03  0.12508990170E+03 0.  0.
          5    1    3    3  502    0 -0.62583506667E+02  0.92577840249E+02  0.54477117925E+03  0.55612989665E+03  0.41800000000E+01 0.  1.
         -5    1    3    3    0  502  0.52859041075E+02  0.24905704640E+02  0.21466916460E+03  0.22251897667E+03  0.41800000000E+01 0.  1.
        -11    1    1    2    0    0 -0.51867737481E+01 -0.47375268591E+02  0.26744052293E+03  0.27165373548E+03  0.00000000000E+00 0. -1.
         11    1    1    2    0    0  0.14911239340E+02 -0.70108276298E+02  0.14157070306E+03  0.15868137707E+03  0.00000000000E+00 0.  1.
</event>
<event>
 7    1  0.2594791E-009  0.1516659E+03  0.7561462E-02  0.1198441E+00
          3   -1    0    0  501    0  0.00000000000E+00  0.00000000000E+00  0.48536942171E+02  0.48536942171E+02  0.00000000000E+00 0. -1.
         -3   -1    0    0    0  501 -0.00000000000E+00 -0.00000000000E+00 -0.56787932672E+03  0.56787932672E+03  0.00000000000E+00 0.  1.
         25    2    1    2    0    0 -0.67021002071E+01 -0.12573618097E+03 -0.29944154687E+03  0.34809126674E+03  0.12509110534E+03 0.  0.
          5    1    3    3  502    0 -0.17737185825E+02 -0.14517026226E+03 -0.28707683097E+03  0.32221047792E+03  0.41800000000E+01 0. -1.
         -5    1    3    3    0  502  0.11035085618E+02  0.19434081293E+02 -0.12364715903E+02  0.25880788815E+02  0.41800000000E+01 0. -1.
        -11    1    1    2    0    0 -0.18402714019E+02  0.29005477545E+02 -0.98856281336E+01  0.35744975234E+02  0.00000000000E+00 0. -1.
         11    1    1    2    0    0  0.25104814226E+02  0.96730703420E+02 -0.21001520955E+03  0.23258002692E+03  0.00000000000E+00 0.  1.
</event>
<event>
 6    1  0.2594791E-009  0.1495618E+03  0.7561462E-02  0.1201013E+00
          2   -1    0    0  501    0  0.00000000000E+00  0.00000000000E+00  0.10132346248E+04  0.10132346248E+04  0.00000000000E+00 0. -1.
         -2   -1    0    0    0  501 -0.00000000000E+00 -0.00000000000E+00 -0.33512437715E+02  0.33512437715E+02  0.00000000000E+00 0.  1.
          5    1    1    2  502    0 -0.59807886764E+02 -0.57133640805E+02  0.61330097179E+03  0.61886734493E+03  0.41800000000E+01 0. -1.
         -5    1    1    2    0  502  0.28717298832E+02 -0.59655297719E+02  0.15052081596E+03  0.16449141690E+03  0.41800000000E+01 0. -1.
        -11    1    1    2    0    0  0.29698399978E+02  0.13169186655E+03  0.18463055599E+03  0.22872075744E+03  0.00000000000E+00 0.  1.
         11    1    1    2    0    0  0.13921879546E+01 -0.14902928030E+02  0.31269843358E+02  0.34667543247E+02  0.00000000000E+00 0. -1.
</event>
<event>
 7    1  0.2594791E-009  0.1335238E+03  0.7561462E-02  0.1222319E+00
          1   -1    0    0  501    0  0.00000000000E+00  0.00000000000E+00  0.46022565545E+03  0.46022565545E+03  0.00000000000E+00 0. -1.
         -1   -1    0    0    0  501 -0.00000000000E+00 -0.00000000000E+00 -0.79343118964E+02  0.79343118964E+02  0.00000000000E+00 0.  1.
         25    2    1    2    0    0  0.24247224897E+01  0.10083856751E+03  0.36933418771E+03  0.40277725445E+03  0.12508988174E+03 0.  0.
          5    1    3    3  502    0  0.61418980535E+02  0.50677635033E+02  0.14589260882E+03  0.16626075776E+03  0.41800000000E+01 0. -1.
         -5    1    3    3    0  502 -0.58994258045E+02  0.50160932475E+02  0.22344157889E+03  0.23651649669E+03  0.41800000000E+01 0. -1.
        -11    1    1    2    0    0  0.15929788126E+02 -0.14657375713E+02 -0.31897136099E+02  0.38548983175E+02  0.00000000000E+00 0.  1.
         11    1    1    2    0    0 -0.18354510615E+02 -0.86181191795E+02  0.43445484876E+02  0.98242536792E+02  0.00000000000E+00 0. -1.
</event>
<event>
 7    1  0.2594791E-009  0.1049082E+03  0.7561462E-02  0.1270301E+00
         -2   -1    0    0    0  501 -0.00000000000E+00  0.00000000000E+00  0.35749621010E+02  0.35749621010E+02  0.00000000000E+00 0. -1.
          2   -1    0    0  501    0  0.00000000000E+00 -0.00000000000E+00 -0.46405455633E+03  0.46405455633E+03  0.00000000000E+00 0.  1.
         25    2    1    2    0    0 -0.59767071250E+02 -0.13479120901E+02 -0.30294107769E+03  0.33342726402E+03  0.12508658735E+03 0.  0.
          5    1    3    3  502    0 -0.77752171613E+02 -0.51034733954E+02 -0.24385171489E+03  0.26101930104E+03  0.41800000000E+01 0. -1.
         -5    1    3    3    0  502  0.17985100363E+02  0.37555613052E+02 -0.59089362795E+02  0.72407962976E+02  0.41800000000E+01 0. -1.
        -11    1    1    2    0    0  0.11681089886E+02 -0.14976648869E+02 -0.10531507621E+03  0.10701407922E+03  0.00000000000E+00 0.  1.
         11    1    1    2    0    0  0.48085981364E+02  0.28455769771E+02 -0.20048781419E+02  0.59362834108E+02  0.00000000000E+00 0. -1.
</event>
<event>
 7    1  0.2594791E-009  0.1257132E+03  0.7561462E-02  0.1233959E+00
         -2   -1    0    0    0  501 -0.00000000000E+00  0.00000000000E+00  0.46446406396E+03  0.46446406396E+03  0.00000000000E+00 0.  1.
          2   -1    0    0  501    0  0.00000000000E+00 -0.00000000000E+00 -0.47164499227E+02  0.47164499227E+02  0.00000000000E+00 0. -1.
         25    2    1    2    0    0 -0.57729828294E+02  0.69083194870E+02  0.28384371543E+03  0.32298674422E+03  0.12509181135E+03 0.  0.
          5    1    3    3  502    0 -0.60606714108E+02 -0.12441621249E+02  0.18294539505E+03  0.19316950511E+03  0.41800000000E+01 0.  1.
         -5    1    3    3    0  502  0.28768858135E+01  0.81524816120E+02  0.10089832038E+03  0.12981723911E+03  0.41800000000E+01 0.  1.
        -11    1    1    2    0    0 -0.11014094248E+02 -0.21405133885E+02  0.92337028870E+02  0.95423356309E+02  0.00000000000E+00 0.  1.
         11    1    1    2    0    0  0.68743922542E+02 -0.47678060986E+02  0.41118820432E+02  0.93218462654E+02  0.00000000000E+00 0. -1.
</event>
<event>
 7    1  0.2594791E-009  0.1277699E+03  0.7561462E-02  0.1230803E+00
         -1   -1    0    0    0  501 -0.00000000000E+00  0.00000000000E+00  0.43670765444E+03  0.43670765444E+03  0.00000000000E+00 0.  1.
          1   -1    0    0  501    0  0.00000000000E+00 -0.00000000000E+00 -0.54611781701E+02  0.54611781701E+02  0.00000000000E+00 0. -1.
         25    2    1    2    0    0 -0.57439144356E+02  0.14576842619E+02  0.33945808759E+03  0.36659029352E+03  0.12507961634E+03 0.  0.
          5    1    3    3  502    0  0.27392690446E+02  0.40942628723E+02  0.11727719297E+03  0.12727164149E+03  0.41800000000E+01 0. -1.
         -5    1    3    3    0  502 -0.84831834803E+02 -0.26365786104E+02  0.22218089463E+03  0.23931865203E+03  0.41800000000E+01 0. -1.
        -11    1    1    2    0    0  0.10854785433E+02 -0.54651444009E+02  0.18526186597E+02  0.58718193849E+02  0.00000000000E+00 0. -1.
         11    1    1    2    0    0  0.46584358923E+02  0.40074601390E+02  0.24111598543E+02  0.66010948768E+02  0.00000000000E+00 0.  1.
</event>
<event>
 7    1  0.2594791E-009  0.9366789E+02  0.7561462E-02  0.1294205E+00
          2   -1    0    0  501    0  0.00000000000E+00  0.00000000000E+00  0.11358154698E+03  0.11358154698E+03  0.00000000000E+00 0. -1.
         -2   -1    0    0    0  501 -0.00000000000E+00 -0.00000000000E+00 -0.12267178943E+03  0.12267178943E+03  0.00000000000E+00 0.  1.
         25    2    1    2    0    0  0.65132274363E+01  0.12104132664E+02  0.39724520630E+02  0.13196344507E+03  0.12508949251E+03 0.  0.
          5    1    3    3  502    0  0.59112040999E+02 -0.47708033879E+01 -0.65108112747E+01  0.59806830877E+02  0.41800000000E+01 0. -1.
         -5    1    3    3    0  502 -0.52598813563E+02  0.16874936052E+02  0.46235331905E+02  0.72156614190E+02  0.41800000000E+01 0. -1.
        -11    1    1    2    0    0 -0.47859710010E+01  0.29983945335E+02  0.99810447903E+01  0.31961910947E+02  0.00000000000E+00 0. -1.
         11    1    1    2    0    0 -0.17272564353E+01 -0.42088078000E+02 -0.58795807878E+02  0.72327980398E+02  0.00000000000E+00 0.  1.
</event>
<event>
 7    1  0.2594791E-009  0.1009513E+03  0.7561462E-02  0.1278308E+00
          2   -1    0    0  501    0  0.00000000000E+00  0.00000000000E+00  0.46346063848E+03  0.46346063848E+03  0.00000000000E+00 0. -1.
         -2   -1    0    0    0  501 -0.00000000000E+00 -0.00000000000E+00 -0.33789586142E+02  0.33789586142E+02  0.00000000000E+00 0.  1.
         25    2    1    2    0    0 -0.49948135498E+02  0.33274316659E+02  0.26340243217E+03  0.29770592663E+03  0.12508389619E+03 0.  0.
          5    1    3    3  502    0  0.18574620956E+02 -0.24202105721E+01  0.19028002613E+03  0.19124548284E+03  0.41800000000E+01 0. -1.
         -5    1    3    3    0  502 -0.68522756454E+02  0.35694527231E+02  0.73122406045E+02  0.10646044379E+03  0.41800000000E+01 0. -1.
        -11    1    1    2    0    0  0.31619694817E+02 -0.62955918953E+02  0.80624007818E+02  0.10706765837E+03  0.00000000000E+00 0.  1.
         11    1    1    2    0    0  0.18328440681E+02  0.29681602294E+02  0.85644612344E+02  0.92476639623E+02  0.00000000000E+00 0. -1.
</event>
<event>
 7    1  0.2594791E-009  0.1475395E+03  0.7561462E-02  0.1203530E+00
          4   -1    0    0  501    0  0.00000000000E+00  0.00000000000E+00  0.22361473429E+03  0.22361473429E+03  0.00000000000E+00 0. -1.
         -4   -1    0    0    0  501 -0.00000000000E+00 -0.00000000000E+00 -0.14782498934E+03  0.14782498934E+03  0.00000000000E+00 0.  1.
         25    2    1    2    0    0 -0.11040640399E+03 -0.93680042737E+02  0.18724618963E+02  0.19225862771E+03  0.12508894485E+03 0.  0.
          5    1    3    3  502    0 -0.81716625587E+02 -0.53341145088E+02 -0.48193238585E+02  0.10891714880E+03  0.41800000000E+01 0.  1.
         -5    1    3    3    0  502 -0.28689778399E+02 -0.40338897649E+02  0.66917857549E+02  0.83341478911E+02  0.41800000000E+01 0.  1.
        -11    1    1    2    0    0  0.58720444420E+02  0.30724990067E+02 -0.17721637057E+02  0.68601545373E+02  0.00000000000E+00 0.  1.
         11    1    1    2    0    0  0.51685959566E+02  0.62955052670E+02  0.74786763040E+02  0.11057955055E+03  0.00000000000E+00 0. -1.
</event>
<event>
 7    1  0.6576243E-009  0.1426012E+03  0.7561462E-02  0.1209871E+00
         -2   -1    0    0    0  501 -0.00000000000E+00  0.00000000000E+00  0.10818313187E+03  0.10818313187E+03  0.00000000000E+00 0. -1.
          2   -1    0    0  501    0  0.00000000000E+00 -0.00000000000E+00 -0.24389512878E+03  0.24389512878E+03  0.00000000000E+00 0.  1.
         25    2    1    2    0    0  0.11292558544E+03  0.38042028336E+02 -0.53908764731E+02  0.18098384546E+03  0.12509841579E+03 0.  0.
          5    1    3    3  502    0  0.45410718948E+02 -0.39102908365E+02 -0.50248576214E+02  0.78317064868E+02  0.41800000000E+01 0. -1.
         -5    1    3    3    0  502  0.67514866497E+02  0.77144936701E+02 -0.36601885171E+01  0.10266678059E+03  0.41800000000E+01 0. -1.
        -11    1    1    2    0    0 -0.10126171082E+03 -0.23619122689E+02 -0.19118460695E+02  0.10572281009E+03  0.00000000000E+00 0. -1.
         11    1    1    2    0    0 -0.11663874627E+02 -0.14422905647E+02 -0.62684771475E+02  0.65371605101E+02  0.00000000000E+00 0.  1.
</event>
<event>
 7    1  0.2594791E-009  0.1027065E+03  0.7561462E-02  0.1274705E+00
          1   -1    0    0  501    0  0.00000000000E+00  0.00000000000E+00  0.27964129927E+03  0.27964129927E+03  0.00000000000E+00 0. -1.
         -1   -1    0    0    0  501 -0.00000000000E+00 -0.00000000000E+00 -0.52829501843E+02  0.52829501843E+02  0.00000000000E+00 0.  1.
         25    2    1    2    0    0  0.19040928678E+01 -0.21011694943E+02  0.57612003827E+02  0.13932711251E+03  0.12509110441E+03 0.  0.
          5    1    3    3  502    0  0.45419425689E+02  0.23570333800E+02 -0.41416987620E+01  0.51508357905E+02  0.41800000000E+01 0.  1.
         -5    1    3    3    0  502 -0.43515332822E+02 -0.44582028742E+02  0.61753702589E+02  0.87818754607E+02  0.41800000000E+01 0.  1.
        -11    1    1    2    0    0 -0.33957844806E+02 -0.20131595384E+02  0.90440342552E+02  0.98680656248E+02  0.00000000000E+00 0. -1.
         11    1    1    2    0    0  0.32053751938E+02  0.41143290326E+02  0.78759451052E+02  0.94463032357E+02  0.00000000000E+00 0.  1.
</event>
<event>
 7    1  0.2594791E-009  0.9845913E+02  0.7561462E-02  0.1283570E+00
          2   -1    0    0  501    0  0.00000000000E+00  0.00000000000E+00  0.58116971435E+03  0.58116971435E+03  0.00000000000E+00 0. -1.
         -2   -1    0    0    0  501 -0.00000000000E+00 -0.00000000000E+00 -0.26874062492E+02  0.26874062492E+02  0.00000000000E+00 0.  1.
         25    2    1    2    0    0 -0.19312244201E+02  0.37942296109E+02  0.42962867325E+03  0.44949025373E+03  0.12509240867E+03 0.  0.
          5    1    3    3  502    0  0.47530555119E+02  0.13570097242E+02  0.27216189904E+03  0.27664575344E+03  0.41800000000E+01 0.  1.
         -5    1    3    3    0  502 -0.66842799320E+02  0.24372198867E+02  0.15746677422E+03  0.17284450029E+03  0.41800000000E+01 0.  1.
        -11    1    1    2    0    0  0.41693839847E+02 -0.32870655087E+02  0.29663563963E+02  0.60817623054E+02  0.00000000000E+00 0.  1.
         11    1    1    2    0    0 -0.22381595645E+02 -0.50716410222E+01  0.95003414647E+02  0.97735900061E+02  0.00000000000E+00 0. -1.
</event>
<event>
 7    1  0.2594791E-009  0.1049731E+03  0.7561462E-02  0.1270173E+00
          2   -1    0    0  501    0  0.00000000000E+00  0.00000000000E+00  0.11352025981E+03  0.11352025981E+03  0.00000000000E+00 0. -1.
         -2   -1    0    0    0  501 -0.00000000000E+00 -0.00000000000E+00 -0.13248582673E+03  0.13248582673E+03  0.00000000000E+00 0.  1.
         25    2    1    2    0    0  0.35651414435E+02 -0.10145396975E+02 -0.54229167820E+02  0.14127927058E+03  0.12508028311E+03 0.  0.
          5    1    3    3  502    0 -0.46223421582E+02  0.62497739357E+01 -0.18249004045E+02  0.50260948316E+02  0.41800000000E+01 0.  1.
         -5    1    3    3    0  502  0.81874836018E+02 -0.16395170911E+02 -0.35980163775E+02  0.91018322262E+02  0.41800000000E+01 0.  1.
        -11    1    1    2    0    0  0.20457503088E+02  0.11337102305E+02 -0.16304256556E+02  0.28510841852E+02  0.00000000000E+00 0.  1.
         11    1    1    2    0    0 -0.56108917524E+02 -0.11917053292E+01  0.51567857457E+02  0.76215974113E+02  0.00000000000E+00 0. -1.
</event>
<event>
 7    1  0.2594791E-009  0.1332808E+03  0.7561462E-02  0.1222667E+00
          2   -1    0    0  501    0  0.00000000000E+00  0.00000000000E+00  0.21656124460E+04  0.21656124460E+04  0.00000000000E+00 0.  1.
         -2   -1    0    0    0  501 -0.00000000000E+00 -0.00000000000E+00 -0.14503993367E+02  0.14503993367E+02  0.00000000000E+00 0. -1.
         25    2    1    2    0    0 -0.98105175768E+02  0.51401038168E+02  0.16533273572E+04  0.16617473880E+04  0.12508532807E+03 0.  0.
          5    1    3    3  502    0 -0.24777466392E+02  0.48799220056E+02  0.22752126176E+03  0.23404846436E+03  0.41800000000E+01 0.  1.
         -5    1    3    3    0  502 -0.73327709376E+02  0.26018181126E+01  0.14258060954E+04  0.14276989236E+04  0.41800000000E+01 0.  1.
        -11    1    1    2    0    0  0.56552760597E+02  0.16202094419E+02  0.29096198996E+03  0.29684946050E+03  0.00000000000E+00 0.  1.
         11    1    1    2    0    0  0.41552415171E+02 -0.67603132587E+02  0.20681910550E+03  0.22151959088E+03  0.00000000000E+00 0. -1.
</event>
<event>
 7    1  0.2594791E-009  0.1172084E+03  0.7561462E-02  0.1247775E+00
         -2   -1    0    0    0  501 -0.00000000000E+00  0.00000000000E+00  0.20975447526E+03  0.20975447526E+03  0.00000000000E+00 0.  1.
          2   -1    0    0  501    0  0.00000000000E+00 -0.00000000000E+00 -0.81248211078E+02  0.81248211078E+02  0.00000000000E+00 0. -1.
         25    2    1    2    0    0 -0.57396318251E+02  0.88576879770E+01  0.21729078621E+02  0.13961276388E+03  0.12508706966E+03 0.  0.
          5    1    3    3  502    0 -0.92275454434E+02 -0.16343564301E+02  0.75266393051E+01  0.94106292479E+02  0.41800000000E+01 0.  1.
         -5    1    3    3    0  502  0.34879136183E+02  0.25201252278E+02  0.14202439316E+02  0.45506471405E+02  0.41800000000E+01 0.  1.
        -11    1    1    2    0    0  0.30459731691E+02  0.34695219223E+02  0.82895571942E+02  0.94885348391E+02  0.00000000000E+00 0.  1.
         11    1    1    2    0    0  0.26936586560E+02 -0.43552907200E+02  0.23881613621E+02  0.56504574065E+02  0.00000000000E+00 0. -1.
</event>
<event>
 7    1  0.2594791E-009  0.1689516E+03  0.7561462E-02  0.1178946E+00
         -2   -1    0    0    0  501 -0.00000000000E+00  0.00000000000E+00  0.10885992297E+03  0.10885992297E+03  0.00000000000E+00 0.  1.
          2   -1    0    0  501    0  0.00000000000E+00 -0.00000000000E+00 -0.36856424953E+03  0.36856424953E+03  0.00000000000E+00 0. -1.
         25    2    1    2    0    0 -0.12564682400E+03 -0.93931236860E+02 -0.59358991258E+02  0.20923874545E+03  0.12508861305E+03 0.  0.
          5    1    3    3  502    0 -0.33652504418E+01 -0.41528972964E+02 -0.63509378400E+02  0.76071637624E+02  0.41800000000E+01 0. -1.
         -5    1    3    3    0  502 -0.12228157355E+03 -0.52402263896E+02  0.41503871420E+01  0.13316710782E+03  0.41800000000E+01 0. -1.
        -11    1    1    2    0    0  0.12166205586E+03  0.73564874544E+02 -0.12265235608E+03  0.18776859976E+03  0.00000000000E+00 0.  1.
         11    1    1    2    0    0  0.39847681324E+01  0.20366362316E+02 -0.77692979221E+02  0.80416827289E+02  0.00000000000E+00 0. -1.
</event>
<event>
 7    1  0.2594791E-009  0.9918546E+02  0.7561462E-02  0.1282018E+00
          1   -1    0    0  501    0  0.00000000000E+00  0.00000000000E+00  0.93271032690E+02  0.93271032690E+02  0.00000000000E+00 0. -1.
         -1   -1    0    0    0  501 -0.00000000000E+00 -0.00000000000E+00 -0.23715342978E+03  0.23715342978E+03  0.00000000000E+00 0.  1.
         25    2    1    2    0    0  0.27425179119E+02 -0.17318150972E+02 -0.18681412259E+03  0.22715612030E+03  0.12509327635E+03 0.  0.
          5    1    3    3  502    0  0.58309082540E+02 -0.36560628087E+02 -0.17590979332E+03  0.18894008685E+03  0.41800000000E+01 0. -1.
         -5    1    3    3    0  502 -0.30883903421E+02  0.19242477116E+02 -0.10904329272E+02  0.38216033454E+02  0.41800000000E+01 0. -1.
        -11    1    1    2    0    0  0.48522013801E+01  0.48009382092E+02  0.30275773862E+02  0.56965490518E+02  0.00000000000E+00 0.  1.
         11    1    1    2    0    0 -0.32277380499E+02 -0.30691231120E+02  0.12655951633E+02  0.46302851654E+02  0.00000000000E+00 0. -1.
</event>
<event>
 7    1  0.2594791E-009  0.2247251E+03  0.7561462E-02  0.1130409E+00
          2   -1    0    0  501    0  0.00000000000E+00  0.00000000000E+00  0.38039352095E+03  0.38039352095E+03  0.00000000000E+00 0. -1.
         -2   -1    0    0    0  501 -0.00000000000E+00 -0.00000000000E+00 -0.16277814623E+03  0.16277814623E+03  0.00000000000E+00 0.  1.
         25    2    1    2    0    0  0.14564838482E+03  0.13746865894E+03  0.21994999170E+03  0.32270245360E+03  0.12509112886E+03 0.  0.
          5    1    3    3  502    0  0.49281219005E+01  0.85709387181E+02  0.74026728258E+02  0.11343638893E+03  0.41800000000E+01 0.  1.
         -5    1    3    3    0  502  0.14072026292E+03  0.51759271757E+02  0.14592326344E+03  0.20926606467E+03  0.41800000000E+01 0.  1.
        -11    1    1    2    0    0 -0.20527075950E+01 -0.39767484865E+02 -0.22307604237E+02  0.45643133851E+02  0.00000000000E+00 0.  1.
         11    1    1    2    0    0 -0.14359567723E+03 -0.97701174073E+02  0.19972987263E+02  0.17482607973E+03  0.00000000000E+00 0. -1.
</event>
<event>
 7    1  0.2594791E-009  0.1045930E+03  0.7561462E-02  0.1270924E+00
          1   -1    0    0  501    0  0.00000000000E+00  0.00000000000E+00  0.94944406568E+03  0.94944406568E+03  0.00000000000E+00 0. -1.
         -1   -1    0    0    0  501 -0.00000000000E+00 -0.00000000000E+00 -0.16833656112E+02  0.16833656112E+02  0.00000000000E+00 0.  1.
         25    2    1    2    0    0  0.26936469318E+02  0.53647062663E+02  0.60157576879E+03  0.61736977680E+03  0.12509378482E+03 0.  0.
          5    1    3    3  502    0  0.58046749680E+02  0.28387523981E+02  0.14240958642E+03  0.15643925138E+03  0.41800000000E+01 0. -1.
         -5    1    3    3    0  502 -0.31110280362E+02  0.25259538683E+02  0.45916618237E+03  0.46093052542E+03  0.41800000000E+01 0. -1.
        -11    1    1    2    0    0 -0.57797159253E+02 -0.40633165816E+02  0.27208524656E+03  0.28110842602E+03  0.00000000000E+00 0.  1.
         11    1    1    2    0    0  0.30860689935E+02 -0.13013896847E+02  0.58949394214E+02  0.67799518971E+02  0.00000000000E+00 0. -1.
</event>
<event>
 7    1  0.2594791E-009  0.1199513E+03  0.7561462E-02  0.1243177E+00
          1   -1    0    0  501    0  0.00000000000E+00  0.00000000000E+00  0.30573848452E+03  0.30573848452E+03  0.00000000000E+00 0. -1.
         -1   -1    0    0    0  501 -0.00000000000E+00 -0.00000000000E+00 -0.56786690382E+02  0.56786690382E+02  0.00000000000E+00 0.  1.
         25    2    1    2    0    0  0.62026226842E+02  0.31336763100E+02  0.17655533425E+03  0.22726172489E+03  0.12508740949E+03 0.  0.
          5    1    3    3  502    0 -0.30459510797E+02  0.38863609444E+02  0.72016305851E+02  0.87418434243E+02  0.41800000000E+01 0. -1.
         -5    1    3    3    0  502  0.92485737639E+02 -0.75268463434E+01  0.10453902839E+03  0.13984329065E+03  0.41800000000E+01 0. -1.
        -11    1    1    2    0    0 -0.16850877511E+02 -0.46778499517E+02  0.14410080788E+01  0.49741899785E+02  0.00000000000E+00 0.  1.
         11    1    1    2    0    0 -0.45175349330E+02  0.15441736417E+02  0.70955451818E+02  0.85521550228E+02  0.00000000000E+00 0. -1.
</event>
<event>
 7    1  0.2594791E-009  0.1622648E+03  0.7561462E-02  0.1186163E+00
         -2   -1    0    0    0  501 -0.00000000000E+00  0.00000000000E+00  0.44122608180E+02  0.44122608180E+02  0.00000000000E+00 0.  1.
          2   -1    0    0  501    0  0.00000000000E+00 -0.00000000000E+00 -0.81058467503E+03  0.81058467503E+03  0.00000000000E+00 0. -1.
         25    2    1    2    0    0 -0.11982302095E+03 -0.92328693219E+02 -0.39100530643E+03  0.43751006580E+03  0.12509102318E+03 0.  0.
          5    1    3    3  502    0 -0.81601835595E+02 -0.22559924612E+02 -0.80324967563E+02  0.11677920442E+03  0.41800000000E+01 0. -1.
         -5    1    3    3    0  502 -0.38221185352E+02 -0.69768768607E+02 -0.31068033887E+03  0.32073086138E+03  0.41800000000E+01 0. -1.
        -11    1    1    2    0    0  0.65528526094E+02  0.17818098150E+02 -0.26378599984E+03  0.27238672153E+03  0.00000000000E+00 0. -1.
         11    1    1    2    0    0  0.54294494853E+02  0.74510595069E+02 -0.11167076058E+03  0.14481049588E+03  0.00000000000E+00 0.  1.
</event>
<event>
 6    1  0.2594791E-009  0.1825761E+03  0.7561462E-02  0.1165333E+00
         -1   -1    0    0    0  501 -0.00000000000E+00  0.00000000000E+00  0.31481189728E+03  0.31481189728E+03  0.00000000000E+00 0.  1.
          1   -1    0    0  501    0  0.00000000000E+00 -0.00000000000E+00 -0.12425063814E+03  0.12425063814E+03  0.00000000000E+00 0. -1.
          5    1    1    2  502    0 -0.12568917986E+03  0.11520097227E+03  0.41540617915E+02  0.17553384085E+03  0.41800000000E+01 0. -1.
         -5    1    1    2    0  502  0.65245926686E+01 -0.22184467951E+01  0.49683183883E+02  0.50332722721E+02  0.41800000000E+01 0. -1.
        -11    1    1    2    0    0  0.32430722836E+02 -0.91660027343E+02  0.35902643482E+02  0.10364512630E+03  0.00000000000E+00 0. -1.
         11    1    1    2    0    0  0.86733864352E+02 -0.21322498135E+02  0.63434813862E+02  0.10955084556E+03  0.00000000000E+00 0.  1.
</event>
<event>
 7    1  0.2594791E-009  0.2225069E+03  0.7561462E-02  0.1132028E+00
          2   -1    0    0  501    0  0.00000000000E+00  0.00000000000E+00  0.18233207870E+03  0.18233207870E+03  0.00000000000E+00 0. -1.
         -2   -1    0    0    0  501 -0.00000000000E+00 -0.00000000000E+00 -0.32237163399E+03  0.32237163399E+03  0.00000000000E+00 0.  1.
         25    2    1    2    0    0 -0.18238966734E+03  0.11270556609E+03 -0.10874357180E+03  0.27100786322E+03  0.12510620342E+03 0.  0.
          5    1    3    3  502    0 -0.11376108923E+03  0.69801036119E+02 -0.13089743843E+03  0.18699032556E+03  0.41800000000E+01 0.  1.
         -5    1    3    3    0  502 -0.68628578118E+02  0.42904529974E+02  0.22153866634E+02  0.84017537655E+02  0.41800000000E+01 0.  1.
        -11    1    1    2    0    0  0.10724448245E+03 -0.16729037659E+02 -0.26385230811E+02  0.11170237294E+03  0.00000000000E+00 0.  1.
         11    1    1    2    0    0  0.75145184898E+02 -0.95976528434E+02 -0.49107526747E+01  0.12199347653E+03  0.00000000000E+00 0. -1.
</event>
<event>
 7    1  0.2594791E-009  0.1617455E+03  0.7561462E-02  0.1186740E+00
         -2   -1    0    0    0  501 -0.00000000000E+00  0.00000000000E+00  0.92874189714E+03  0.92874189714E+03  0.00000000000E+00 0.  1.
          2   -1    0    0  501    0  0.00000000000E+00 -0.00000000000E+00 -0.28651809021E+02  0.28651809021E+02  0.00000000000E+00 0. -1.
         25    2    1    2    0    0 -0.82523491293E+02 -0.89552365455E+02  0.46599962852E+03  0.49762723320E+03  0.12508979441E+03 0.  0.
          5    1    3    3  502    0 -0.10888442470E+03 -0.39703699871E+02  0.34721588641E+03  0.36607177698E+03  0.41800000000E+01 0. -1.
         -5    1    3    3    0  502  0.26360933409E+02 -0.49848665584E+02  0.11878374211E+03  0.13155545622E+03  0.41800000000E+01 0. -1.
        -11    1    1    2    0    0 -0.72962524623E+01  0.53812505413E+02  0.17484420292E+03  0.18308335898E+03  0.00000000000E+00 0.  1.
         11    1    1    2    0    0  0.89819743755E+02  0.35739860043E+02  0.25924625667E+03  0.27668311398E+03  0.00000000000E+00 0. -1.
</event>
<event>
 6    1  0.2594791E-009  0.1480305E+03  0.7561462E-02  0.1202914E+00
          2   -1    0    0  501    0  0.00000000000E+00  0.00000000000E+00  0.60758115103E+03  0.60758115103E+03  0.00000000000E+00 0. -1.
         -2   -1    0    0    0  501 -0.00000000000E+00 -0.00000000000E+00 -0.38763100665E+02  0.38763100665E+02  0.00000000000E+00 0.  1.
          5    1    1    2  502    0  0.48908480360E+02 -0.75956771314E+02  0.10667849511E+03  0.13985436810E+03  0.41800000000E+01 0. -1.
         -5    1    1    2    0  502  0.51138066034E+02  0.39010292529E+02  0.17265336086E+03  0.18429205120E+03  0.41800000000E+01 0. -1.
        -11    1    1    2    0    0 -0.99512089423E+02 -0.46007118397E+01  0.21335884538E+03  0.23546935978E+03  0.00000000000E+00 0.  1.
         11    1    1    2    0    0 -0.53445697057E+00  0.41547190625E+02  0.76127349021E+02  0.86728472614E+02  0.00000000000E+00 0. -1.
</event>
<event>
 7    1  0.2594791E-009  0.1070019E+03  0.7561462E-02  0.1266225E+00
         -1   -1    0    0    0  501 -0.00000000000E+00  0.00000000000E+00  0.96444382304E+02  0.96444382304E+02  0.00000000000E+00 0. -1.
          1   -1    0    0  501    0  0.00000000000E+00 -0.00000000000E+00 -0.17183049863E+03  0.17183049863E+03  0.00000000000E+00 0.  1.
         25    2    1    2    0    0 -0.39939298046E+02 -0.55912181938E+02 -0.54298468661E+02  0.15270519869E+03  0.12509690000E+03 0.  0.
          5    1    3    3  502    0  0.12742921538E+02 -0.78111189460E+02 -0.53050568888E+02  0.95370725212E+02  0.41800000000E+01 0.  1.
         -5    1    3    3    0  502 -0.52682219584E+02  0.22199007521E+02 -0.12478997730E+01  0.57334473479E+02  0.41800000000E+01 0.  1.
        -11    1    1    2    0    0  0.20158816999E+02  0.53899809049E+02  0.26976485787E+02  0.63555472650E+02  0.00000000000E+00 0. -1.
         11    1    1    2    0    0  0.19780481047E+02  0.20123728887E+01 -0.48064133452E+02  0.52014209593E+02  0.00000000000E+00 0.  1.
</event>
<event>
 7    1  0.2594791E-009  0.9549738E+02  0.7561462E-02  0.1290060E+00
          2   -1    0    0  501    0  0.00000000000E+00  0.00000000000E+00  0.84657146925E+03  0.84657146925E+03  0.00000000000E+00 0. -1.
         -2   -1    0    0    0  501 -0.00000000000E+00 -0.00000000000E+00 -0.16855036789E+02  0.16855036789E+02  0.00000000000E+00 0.  1.
         25    2    1    2    0    0  0.23816844939E+02 -0.24910975303E+02  0.61126427630E+03  0.62488220364E+03  0.12508378852E+03 0.  0.
          5    1    3    3  502    0 -0.29965932868E+02 -0.37163891095E+02  0.10284464182E+03  0.11346190852E+03  0.41800000000E+01 0. -1.
         -5    1    3    3    0  502  0.53782777806E+02  0.12252915792E+02  0.50841963448E+03  0.51142029512E+03  0.41800000000E+01 0. -1.
        -11    1    1    2    0    0 -0.35767951799E+02 -0.20205501267E+02  0.15121546567E+03  0.15669628494E+03  0.00000000000E+00 0.  1.
         11    1    1    2    0    0  0.11951106860E+02  0.45116476570E+02  0.67236690489E+02  0.81848017455E+02  0.00000000000E+00 0. -1.
</event>
<event>
 7    1  0.2594791E-009  0.1173650E+03  0.7561462E-02  0.1247508E+00
         -3   -1    0    0    0  501 -0.00000000000E+00  0.00000000000E+00  0.18426373071E+03  0.18426373071E+03  0.00000000000E+00 0.  1.
          3   -1    0    0  501    0  0.00000000000E+00 -0.00000000000E+00 -0.13132329947E+03  0.13132329947E+03  0.00000000000E+00 0. -1.
         25    2    1    2    0    0 -0.96246556776E+02 -0.49380695581E+02  0.56667441286E+02  0.17481704139E+03  0.12509175142E+03 0.  0.
          5    1    3    3  502    0 -0.48370453950E+02 -0.50354531853E+01 -0.36529951678E+02  0.60966928524E+02  0.41800000000E+01 0.  1.
         -5    1    3    3    0  502 -0.47876102826E+02 -0.44345242396E+02  0.93197392964E+02  0.11385011287E+03  0.41800000000E+01 0.  1.
        -11    1    1    2    0    0  0.57823976721E+02 -0.17060568246E+00 -0.38115606883E+02  0.69256341790E+02  0.00000000000E+00 0. -1.
         11    1    1    2    0    0  0.38422580055E+02  0.49551301263E+02  0.34388596831E+02  0.71513646998E+02  0.00000000000E+00 0.  1.
</event>
<event>
 7    1  0.2594791E-009  0.1159441E+03  0.7561462E-02  0.1249942E+00
         -1   -1    0    0    0  501 -0.00000000000E+00  0.00000000000E+00  0.72776288807E+03  0.72776288807E+03  0.00000000000E+00 0.  1.
          1   -1    0    0  501    0  0.00000000000E+00 -0.00000000000E+00 -0.36949163654E+02  0.36949163654E+02  0.00000000000E+00 0. -1.
         25    2    1    2    0    0  0.70429555565E+02  0.57367550026E+02  0.56598726234E+03  0.58672016045E+03  0.12509039711E+03 0.  0.
          5    1    3    3  502    0  0.83633051661E+02  0.39972254823E+02  0.20468910966E+03  0.22473845354E+03  0.41800000000E+01 0.  1.
         -5    1    3    3    0  502 -0.13203496096E+02  0.17395295203E+02  0.36129815268E+03  0.36198170691E+03  0.41800000000E+01 0.  1.
        -11    1    1    2    0    0 -0.44326841518E+02  0.92798118926E+01  0.16593288974E+02  0.48231950269E+02  0.00000000000E+00 0. -1.
         11    1    1    2    0    0 -0.26102714047E+02 -0.66647361918E+02  0.10823317310E+03  0.12975994101E+03  0.00000000000E+00 0.  1.
</event>
<event>
 7    1  0.2656669E-009  0.1119267E+03  0.7561462E-02  0.1257043E+00
         -3   -1    0    0    0  501 -0.00000000000E+00  0.00000000000E+00  0.13481647400E+03  0.13481647400E+03  0.00000000000E+00 0.  1.
          3   -1    0    0  501    0  0.00000000000E+00 -0.00000000000E+00 -0.13538865500E+03  0.13538865500E+03  0.00000000000E+00 0. -1.
         25    2    1    2    0    0 -0.75493906698E+02 -0.31675262751E+01  0.26814009327E+02  0.14857791997E+03  0.12508814506E+03 0.  0.
          5    1    3    3  502    0 -0.32218932617E+02  0.52170456015E+02 -0.19326429838E+02  0.64426697805E+02  0.41800000000E+01 0.  1.
         -5    1    3    3    0  502 -0.43274974081E+02 -0.55337982291E+02  0.46140439164E+02  0.84151222166E+02  0.41800000000E+01 0.  1.
        -11    1    1    2    0    0  0.43131570340E+02  0.27830586742E+02  0.23515858535E+02  0.56461221392E+02  0.00000000000E+00 0.  1.
         11    1    1    2    0    0  0.32362336358E+02 -0.24663060467E+02 -0.50902048867E+02  0.65165987640E+02  0.00000000000E+00 0. -1.
</event>
<event>
 7    1  0.2594791E-009  0.1026642E+03  0.7561462E-02  0.1274791E+00
         -3   -1    0    0    0  501 -0.00000000000E+00  0.00000000000E+00  0.49132116813E+02  0.49132116813E+02  0.00000000000E+00 0.  1.
          3   -1    0    0  501    0  0.00000000000E+00 -0.00000000000E+00 -0.44683311206E+03  0.44683311206E+03  0.00000000000E+00 0. -1.
         25    2    1    2    0    0  0.74666772967E+02 -0.39867611518E+02 -0.30411840371E+03  0.33956299440E+03  0.12510183954E+03 0.  0.
          5    1    3    3  502    0  0.24900238814E+02 -0.56934426031E+01  0.34377365426E+01  0.26109914098E+02  0.41800000000E+01 0.  1.
         -5    1    3    3    0  502  0.49766534154E+02 -0.34174168915E+02 -0.30755614025E+03  0.31345308030E+03  0.41800000000E+01 0.  1.
        -11    1    1    2    0    0 -0.48345084671E+01  0.48344896633E+02 -0.63348911549E+02  0.79835368710E+02  0.00000000000E+00 0. -1.
         11    1    1    2    0    0 -0.69832264500E+02 -0.84772851145E+01 -0.30233679993E+02  0.76566865771E+02  0.00000000000E+00 0.  1.
</event>
<event>
 7    1  0.3947836E-009  0.2165968E+03  0.7561462E-02  0.1136446E+00
         -1   -1    0    0    0  501 -0.00000000000E+00  0.00000000000E+00  0.22866722085E+02  0.22866722085E+02  0.00000000000E+00 0.  1.
          1   -1    0    0  501    0  0.00000000000E+00 -0.00000000000E+00 -0.21478275597E+04  0.21478275597E+04  0.00000000000E+00 0. -1.
         25    2    1    2    0    0 -0.18876612727E+03  0.36532775671E+02 -0.10429918178E+04  0.10679171420E+04  0.12509114930E+03 0.  0.
          5    1    3    3  502    0 -0.17647210203E+03 -0.50881168950E+01 -0.93363270495E+03  0.95018724043E+03  0.41800000000E+01 0. -1.
         -5    1    3    3    0  502 -0.12294025240E+02  0.41620892566E+02 -0.10935911282E+03  0.11772990152E+03  0.41800000000E+01 0. -1.
        -11    1    1    2    0    0  0.11942532827E+03  0.22986075668E+02 -0.59309188620E+03  0.60543269996E+03  0.00000000000E+00 0.  1.
         11    1    1    2    0    0  0.69340799005E+02 -0.59518851338E+02 -0.48887713361E+03  0.49734443984E+03  0.00000000000E+00 0. -1.
</event>
<event>
 7    1  0.2594791E-009  0.6729086E+02  0.7561462E-02  0.1369556E+00
         -1   -1    0    0    0  501 -0.00000000000E+00  0.00000000000E+00  0.28228314515E+02  0.28228314515E+02  0.00000000000E+00 0.  1.
          1   -1    0    0  501    0  0.00000000000E+00 -0.00000000000E+00 -0.48070776440E+03  0.48070776440E+03  0.00000000000E+00 0. -1.
         25    2    1    2    0    0  0.16444555049E+02 -0.33402601140E+02 -0.21648809795E+03  0.25278601061E+03  0.12509002141E+03 0.  0.
          5    1    3    3  502    0  0.18519061958E+02 -0.45041332138E+02 -0.22954005664E+03  0.23468657239E+03  0.41800000000E+01 0.  1.
         -5    1    3    3    0  502 -0.20745069083E+01  0.11638730998E+02  0.13051958697E+02  0.18099438223E+02  0.41800000000E+01 0.  1.
        -11    1    1    2    0    0  0.11690630161E+02 -0.13877412218E+02 -0.51774339098E+01  0.18869531667E+02  0.00000000000E+00 0. -1.
         11    1    1    2    0    0 -0.28135185210E+02  0.47280013358E+02 -0.23081391803E+03  0.23728053664E+03  0.00000000000E+00 0.  1.
</event>
<event>
 7    1  0.2594791E-009  0.8075176E+02  0.7561462E-02  0.1326931E+00
         -1   -1    0    0    0  501 -0.00000000000E+00  0.00000000000E+00  0.12192115859E+03  0.12192115859E+03  0.00000000000E+00 0.  1.
          1   -1    0    0  501    0  0.00000000000E+00 -0.00000000000E+00 -0.97577232995E+02  0.97577232995E+02  0.00000000000E+00 0. -1.
         25    2    1    2    0    0  0.81388014032E+01  0.74962561231E+01  0.97962488523E+00  0.12554559336E+03  0.12505319829E+03 0.  0.
          5    1    3    3  502    0  0.49035851574E+01 -0.45243816901E+02  0.39191201948E+02  0.60203578177E+02  0.41800000000E+01 0. -1.
         -5    1    3    3    0  502  0.32352162459E+01  0.52740073024E+02 -0.38211577063E+02  0.65342015184E+02  0.41800000000E+01 0. -1.
        -11    1    1    2    0    0  0.25586672745E+02 -0.12881283794E+02  0.45130061334E+02  0.53453977685E+02  0.00000000000E+00 0.  1.
         11    1    1    2    0    0 -0.33725474148E+02  0.53850276705E+01 -0.21765760625E+02  0.40498820539E+02  0.00000000000E+00 0. -1.
</event>
<event>
 7    1  0.2594791E-009  0.9612704E+02  0.7561462E-02  0.1288658E+00
         -1   -1    0    0    0  501 -0.00000000000E+00  0.00000000000E+00  0.46436220246E+02  0.46436220246E+02  0.00000000000E+00 0.  1.
          1   -1    0    0  501    0  0.00000000000E+00 -0.00000000000E+00 -0.30819602514E+03  0.30819602514E+03  0.00000000000E+00 0. -1.
         25    2    1    2    0    0  0.19196253853E+02 -0.44012900150E+02 -0.16455014283E+03  0.21220201188E+03  0.12508921935E+03 0.  0.
          5    1    3    3  502    0  0.30443477741E+02 -0.63149180919E+02 -0.17406066771E+03  0.18769446671E+03  0.41800000000E+01 0. -1.
         -5    1    3    3    0  502 -0.11247223888E+02  0.19136280769E+02  0.95105248788E+01  0.24507545171E+02  0.41800000000E+01 0. -1.
        -11    1    1    2    0    0  0.30712927702E+02  0.38463971337E+02 -0.69231076656E+02  0.84945294125E+02  0.00000000000E+00 0.  1.
         11    1    1    2    0    0 -0.49909181555E+02  0.55489288136E+01 -0.27978585400E+02  0.57484939380E+02  0.00000000000E+00 0. -1.
</event>
<event>
 7    1  0.2594791E-009  0.1323628E+03  0.7561462E-02  0.1223991E+00
          2   -1    0    0  501    0  0.00000000000E+00  0.00000000000E+00  0.39841817250E+04  0.39841817250E+04  0.00000000000E+00 0. -1.
         -2   -1    0    0    0  501 -0.00000000000E+00 -0.00000000000E+00 -0.93593265221E+01  0.93593265221E+01  0.00000000000E+00 0.  1.
         25    2    1    2    0    0  0.64743998330E+02 -0.46162570829E+02  0.35225839396E+04  0.35257009890E+04  0.12508830481E+03 0.  0.
          5    1    3    3  502    0 -0.33579746287E+02 -0.30431188200E+02  0.14622759468E+04  0.14629839622E+04  0.41800000000E+01 0.  1.
         -5    1    3    3    0  502  0.98323744617E+02 -0.15731382629E+02  0.20603079927E+04  0.20627170268E+04  0.41800000000E+01 0.  1.
        -11    1    1    2    0    0 -0.80205180955E+02  0.10761674197E+02  0.29143552586E+03  0.30246214708E+03  0.00000000000E+00 0. -1.
         11    1    1    2    0    0  0.15461182625E+02  0.35400896632E+02  0.16080293302E+03  0.16537791545E+03  0.00000000000E+00 0.  1.
</event>
<event>
 7    1  0.2594791E-009  0.8423971E+02  0.7561462E-02  0.1317433E+00
         -1   -1    0    0    0  501 -0.00000000000E+00  0.00000000000E+00  0.30225518688E+02  0.30225518688E+02  0.00000000000E+00 0.  1.
          1   -1    0    0  501    0  0.00000000000E+00 -0.00000000000E+00 -0.44632333595E+03  0.44632333595E+03  0.00000000000E+00 0. -1.
         25    2    1    2    0    0 -0.40711114754E+02 -0.67022604138E+01 -0.23618843655E+03  0.27043415999E+03  0.12508933676E+03 0.  0.
          5    1    3    3  502    0 -0.49130848219E+02 -0.19866086551E+02 -0.24589098585E+03  0.25157176107E+03  0.41800000000E+01 0. -1.
         -5    1    3    3    0  502  0.84197334644E+01  0.13163826137E+02  0.97025493040E+01  0.18862398924E+02  0.41800000000E+01 0. -1.
        -11    1    1    2    0    0  0.21844507282E+02  0.48551020190E+02 -0.79127137761E+02  0.95370267852E+02  0.00000000000E+00 0. -1.
         11    1    1    2    0    0  0.18866607472E+02 -0.41848759776E+02 -0.10078224296E+03  0.11074442680E+03  0.00000000000E+00 0.  1.
</event>
<event>
 7    1  0.2594791E-009  0.1548736E+03  0.7561462E-02  0.1194609E+00
          2   -1    0    0  501    0  0.00000000000E+00  0.00000000000E+00  0.73268605712E+03  0.73268605712E+03  0.00000000000E+00 0. -1.
         -2   -1    0    0    0  501 -0.00000000000E+00 -0.00000000000E+00 -0.35081439983E+02  0.35081439983E+02  0.00000000000E+00 0.  1.
         25    2    1    2    0    0 -0.11069746734E+03 -0.29208331456E+02  0.31508386718E+03  0.35781438244E+03  0.12508490327E+03 0.  0.
          5    1    3    3  502    0  0.89342376439E+01 -0.42687572496E+02  0.48985942956E+02  0.65720198228E+02  0.41800000000E+01 0. -1.
         -5    1    3    3    0  502 -0.11963170499E+03  0.13479241040E+02  0.26609792422E+03  0.29209418422E+03  0.41800000000E+01 0. -1.
        -11    1    1    2    0    0  0.70387198369E+02  0.61775521723E+02  0.21277688230E+03  0.23247488987E+03  0.00000000000E+00 0.  1.
         11    1    1    2    0    0  0.40310268974E+02 -0.32567190268E+02  0.16974386765E+03  0.17747822478E+03  0.00000000000E+00 0. -1.
</event>
<event>
 7    1  0.2594791E-009  0.1125054E+03  0.7561462E-02  0.1255999E+00
          2   -1    0    0  501    0  0.00000000000E+00  0.00000000000E+00  0.21266206622E+03  0.21266206622E+03  0.00000000000E+00 0. -1.
         -2   -1    0    0    0  501 -0.00000000000E+00 -0.00000000000E+00 -0.87623449026E+02  0.87623449026E+02  0.00000000000E+00 0.  1.
         25    2    1    2    0    0 -0.84825687939E+02 -0.13019323282E+01  0.60940500416E+02  0.16296886934E+03  0.12509202781E+03 0.  0.
          5    1    3    3  502    0  0.57140426519E+01  0.17010055348E+02 -0.28751029492E+02  0.34148006724E+02  0.41800000000E+01 0.  1.
         -5    1    3    3    0  502 -0.90539730591E+02 -0.18311987676E+02  0.89691529908E+02  0.12882086262E+03  0.41800000000E+01 0.  1.
        -11    1    1    2    0    0  0.87669566494E+01  0.31189731663E+02  0.41269883237E+02  0.52467724865E+02  0.00000000000E+00 0. -1.
         11    1    1    2    0    0  0.76058731290E+02 -0.29887799334E+02  0.22828233537E+02  0.84848921036E+02  0.00000000000E+00 0.  1.
</event>
<event>
 6    1  0.2594791E-009  0.5382771E+02  0.7561462E-02  0.1425725E+00
          1   -1    0    0  501    0  0.00000000000E+00  0.00000000000E+00  0.53061840845E+03  0.53061840845E+03  0.00000000000E+00 0. -1.
         -1   -1    0    0    0  501 -0.00000000000E+00 -0.00000000000E+00 -0.29787607082E+02  0.29787607082E+02  0.00000000000E+00 0.  1.
          5    1    1    2  502    0  0.68932081447E+01 -0.15133299099E+02 -0.30853683932E+01  0.17421967692E+02  0.41800000000E+01 0. -1.
         -5    1    1    2    0  502  0.70315350051E+01 -0.19845912899E+02  0.39769295603E+03  0.39827184487E+03  0.41800000000E+01 0. -1.
        -11    1    1    2    0    0 -0.36231426489E+02  0.27604094151E+02  0.11306794330E+02  0.46931288895E+02  0.00000000000E+00 0.  1.
         11    1    1    2    0    0  0.22306683339E+02  0.73751178466E+01  0.94916419399E+02  0.97780914070E+02  0.00000000000E+00 0. -1.
</event>
<event>
 7    1  0.2594791E-009  0.1278305E+03  0.7561462E-02  0.1230711E+00
         -2   -1    0    0    0  501 -0.00000000000E+00  0.00000000000E+00  0.35576532853E+02  0.35576532853E+02  0.00000000000E+00 0.  1.
          2   -1    0    0  501    0  0.00000000000E+00 -0.00000000000E+00 -0.59129473610E+03  0.59129473610E+03  0.00000000000E+00 0. -1.
         25    2    1    2    0    0 -0.42523474293E+02  0.73743437612E+02 -0.44554443595E+03  0.47053590627E+03  0.12509138352E+03 0.  0.
          5    1    3    3  502    0 -0.59003046642E+02  0.10223378889E+03 -0.34479023210E+03  0.36445971472E+03  0.41800000000E+01 0.  1.
         -5    1    3    3    0  502  0.16479572349E+02 -0.28490351278E+02 -0.10075420385E+03  0.10607619155E+03  0.41800000000E+01 0.  1.
        -11    1    1    2    0    0  0.58117367226E+02 -0.55359056367E+02 -0.58516734126E+02  0.99330064270E+02  0.00000000000E+00 0.  1.
         11    1    1    2    0    0 -0.15593892933E+02 -0.18384381245E+02 -0.51657033174E+02  0.57005298410E+02  0.00000000000E+00 0. -1.
</event>
<event>
 7    1  0.2594791E-009  0.1211222E+03  0.7561462E-02  0.1241257E+00
         -1   -1    0    0    0  501 -0.00000000000E+00  0.00000000000E+00  0.20163554200E+02  0.20163554200E+02  0.00000000000E+00 0.  1.
          1   -1    0    0  501    0  0.00000000000E+00 -0.00000000000E+00 -0.18822920250E+04  0.18822920250E+04  0.00000000000E+00 0. -1.
         25    2    1    2    0    0  0.66000538569E+02 -0.61592310233E+02 -0.16302036925E+04  0.16374863094E+04  0.12509056896E+03 0.  0.
          5    1    3    3  502    0  0.48695198619E+02 -0.98685379084E+02 -0.13161064652E+04  0.13207057684E+04  0.41800000000E+01 0. -1.
         -5    1    3    3    0  502  0.17305339949E+02  0.37093068851E+02 -0.31409722729E+03  0.31678054097E+03  0.41800000000E+01 0. -1.
        -11    1    1    2    0    0 -0.28743425778E+02  0.34524646041E+02 -0.21941808340E+02  0.49995786452E+02  0.00000000000E+00 0.  1.
         11    1    1    2    0    0 -0.37257112791E+02  0.27067664192E+02 -0.20998296990E+03  0.21497348336E+03  0.00000000000E+00 0. -1.
</event>
<event>
 7    1  0.2594791E-009  0.2334657E+03  0.7561462E-02  0.1124224E+00
          2   -1    0    0  501    0  0.00000000000E+00  0.00000000000E+00  0.78540519776E+03  0.78540519776E+03  0.00000000000E+00 0. -1.
         -2   -1    0    0    0  501 -0.00000000000E+00 -0.00000000000E+00 -0.78901741298E+02  0.78901741298E+02  0.00000000000E+00 0.  1.
         25    2    1    2    0    0  0.24386021645E+02 -0.21734668749E+03  0.44289059353E+03  0.50954504100E+03  0.12509920209E+03 0.  0.
          5    1    3    3  502    0  0.66847314232E+02 -0.17767441103E+03  0.29768277347E+03  0.35308535197E+03  0.41800000000E+01 0.  1.
         -5    1    3    3    0  502 -0.42461292586E+02 -0.39672276459E+02  0.14520782005E+03  0.15645968903E+03  0.41800000000E+01 0.  1.
        -11    1    1    2    0    0 -0.71979026115E+01  0.42893022528E+02  0.70950678725E+01  0.44067688522E+02  0.00000000000E+00 0.  1.
         11    1    1    2    0    0 -0.17188119034E+02  0.17445366496E+03  0.25651779507E+03  0.31069420954E+03  0.00000000000E+00 0. -1.
</event>
<event>
 7    1  0.2594791E-009  0.1031573E+03  0.7561462E-02  0.1273793E+00
          2   -1    0    0  501    0  0.00000000000E+00  0.00000000000E+00  0.33551264469E+03  0.33551264469E+03  0.00000000000E+00 0. -1.
         -2   -1    0    0    0  501 -0.00000000000E+00 -0.00000000000E+00 -0.48993391457E+02  0.48993391457E+02  0.00000000000E+00 0.  1.
         25    2    1    2    0    0 -0.53255043150E+02 -0.41988224360E+02  0.14768141226E+03  0.20507362539E+03  0.12508509783E+03 0.  0.
          5    1    3    3  502    0  0.15936811785E+02 -0.51453501367E+02  0.16649481956E+02  0.56534258836E+02  0.41800000000E+01 0. -1.
         -5    1    3    3    0  502 -0.69191854935E+02  0.94652770063E+01  0.13103193030E+03  0.14853936655E+03  0.41800000000E+01 0. -1.
        -11    1    1    2    0    0  0.37120014720E+02 -0.23966231883E+00  0.41395665078E+01  0.37350889437E+02  0.00000000000E+00 0.  1.
         11    1    1    2    0    0  0.16135028430E+02  0.42227886679E+02  0.13469827447E+03  0.14208152132E+03  0.00000000000E+00 0. -1.
</event>
<event>
 7    1  0.2594791E-009  0.1642160E+03  0.7561462E-02  0.1184017E+00
          2   -1    0    0  501    0  0.00000000000E+00  0.00000000000E+00  0.23459967407E+03  0.23459967407E+03  0.00000000000E+00 0. -1.
         -2   -1    0    0    0  501 -0.00000000000E+00 -0.00000000000E+00 -0.15429224098E+03  0.15429224098E+03  0.00000000000E+00 0.  1.
         25    2    1    2    0    0 -0.12995703142E+03 -0.79801270463E+02  0.36511317761E+01  0.19727891043E+03  0.12509422430E+03 0.  0.
          5    1    3    3  502    0 -0.30281753629E+02 -0.28361574786E+02 -0.56274147798E+02  0.70040100211E+02  0.41800000000E+01 0.  1.
         -5    1    3    3    0  502 -0.99675277790E+02 -0.51439695677E+02  0.59925279574E+02  0.12723881022E+03  0.41800000000E+01 0.  1.
        -11    1    1    2    0    0  0.13310746250E+03  0.46435391597E+02  0.70185851764E+02  0.15747982713E+03  0.00000000000E+00 0. -1.
         11    1    1    2    0    0 -0.31504310801E+01  0.33365878866E+02  0.64704495470E+01  0.34133177493E+02  0.00000000000E+00 0.  1.
</event>
<event>
 7    1  0.2594791E-009  0.9958275E+02  0.7561462E-02  0.1281176E+00
          2   -1    0    0  501    0  0.00000000000E+00  0.00000000000E+00  0.12266188521E+03  0.12266188521E+03  0.00000000000E+00 0. -1.
         -2   -1    0    0    0  501 -0.00000000000E+00 -0.00000000000E+00 -0.12492056321E+03  0.12492056321E+03  0.00000000000E+00 0.  1.
         25    2    1    2    0    0 -0.40275929492E+02 -0.13916429192E+02  0.39798507016E+02  0.13801031400E+03  0.12508840119E+03 0.  0.
          5    1    3    3  502    0 -0.40344821684E+02  0.32248685136E+02 -0.25642024567E+02  0.57815812315E+02  0.41800000000E+01 0.  1.
         -5    1    3    3    0  502  0.68892192489E-01 -0.46165114328E+02  0.65440531584E+02  0.80194501688E+02  0.41800000000E+01 0.  1.
        -11    1    1    2    0    0  0.70138244481E+02  0.10872625243E+02 -0.26487173359E+02  0.75757228508E+02  0.00000000000E+00 0. -1.
         11    1    1    2    0    0 -0.29862314989E+02  0.30438039483E+01 -0.15570011651E+02  0.33814905912E+02  0.00000000000E+00 0.  1.
</event>
<event>
 7    1  0.2594791E-009  0.1193048E+03  0.7561462E-02  0.1244248E+00
         -2   -1    0    0    0  501 -0.00000000000E+00  0.00000000000E+00  0.54966947090E+02  0.54966947090E+02  0.00000000000E+00 0.  1.
          2   -1    0    0  501    0  0.00000000000E+00 -0.00000000000E+00 -0.37562182690E+03  0.37562182690E+03  0.00000000000E+00 0. -1.
         25    2    1    2    0    0 -0.49272937889E+02  0.75451239645E+02 -0.19076656161E+03  0.24527585816E+03  0.12509058157E+03 0.  0.
          5    1    3    3  502    0 -0.76356540141E+02  0.21306070667E+02 -0.15675466575E+03  0.17570932674E+03  0.41800000000E+01 0. -1.
         -5    1    3    3    0  502  0.27083602252E+02  0.54145168978E+02 -0.34011895862E+02  0.69566531427E+02  0.41800000000E+01 0. -1.
        -11    1    1    2    0    0  0.13718025279E+02 -0.56716668444E+02 -0.10431777138E+02  0.59277201952E+02  0.00000000000E+00 0.  1.
         11    1    1    2    0    0  0.35554912609E+02 -0.18734571200E+02 -0.11945654107E+03  0.12603571388E+03  0.00000000000E+00 0. -1.
</event>
<event>
 7    1  0.2594791E-009  0.1160075E+03  0.7561462E-02  0.1249833E+00
          2   -1    0    0  501    0  0.00000000000E+00  0.00000000000E+00  0.39345958880E+02  0.39345958880E+02  0.00000000000E+00 0. -1.
         -2   -1    0    0    0  501 -0.00000000000E+00 -0.00000000000E+00 -0.35540375775E+03  0.35540375775E+03  0.00000000000E+00 0.  1.
         25    2    1    2    0    0 -0.23537678616E+02  0.44742210988E+02 -0.21845067237E+03  0.25675745485E+03  0.12509119314E+03 0.  0.
          5    1    3    3  502    0 -0.71503164229E+02  0.39601408200E+01 -0.12085467151E+03  0.14054077428E+03  0.41800000000E+01 0.  1.
         -5    1    3    3    0  502  0.47965485613E+02  0.40782070168E+02 -0.97596000865E+02  0.11621668057E+03  0.41800000000E+01 0.  1.
        -11    1    1    2    0    0 -0.18931312491E+02 -0.50865682840E+02 -0.60357780808E+02  0.81171263311E+02  0.00000000000E+00 0.  1.
         11    1    1    2    0    0  0.42468991107E+02  0.61234718514E+01 -0.37249345692E+02  0.56820998474E+02  0.00000000000E+00 0. -1.
</event>
<event>
 7    1  0.2594791E-009  0.1020306E+03  0.7561462E-02  0.1276083E+00
          1   -1    0    0  501    0  0.00000000000E+00  0.00000000000E+00  0.49962377541E+03  0.49962377541E+03  0.00000000000E+00 0. -1.
         -1   -1    0    0    0  501 -0.00000000000E+00 -0.00000000000E+00 -0.26449586796E+02  0.26449586796E+02  0.00000000000E+00 0.  1.
         25    2    1    2    0    0 -0.34528907817E+02 -0.76820230491E+01  0.22549659036E+03  0.26028349582E+03  0.12509007547E+03 0.  0.
          5    1    3    3  502    0  0.37694207107E+02  0.22336366635E+02  0.42298752549E+02  0.61044437839E+02  0.41800000000E+01 0.  1.
         -5    1    3    3    0  502 -0.72223114924E+02 -0.30018389684E+02  0.18319783781E+03  0.19923905798E+03  0.41800000000E+01 0.  1.
        -11    1    1    2    0    0  0.51336200009E+01  0.38670557240E+02  0.49304360610E+02  0.62870390699E+02  0.00000000000E+00 0.  1.
         11    1    1    2    0    0  0.29395287816E+02 -0.30988534191E+02  0.19837323765E+03  0.20291947569E+03  0.00000000000E+00 0. -1.
</event>
<event>
 7    1  0.2594791E-009  0.7210258E+02  0.7561462E-02  0.1353086E+00
         -2   -1    0    0    0  501 -0.00000000000E+00  0.00000000000E+00  0.48331678864E+02  0.48331678864E+02  0.00000000000E+00 0. -1.
          2   -1    0    0  501    0  0.00000000000E+00 -0.00000000000E+00 -0.29212559612E+03  0.29212559612E+03  0.00000000000E+00 0.  1.
         25    2    1    2    0    0  0.23719159846E+02 -0.27883456726E+02 -0.88509894673E+02  0.15754708883E+03  0.12508796121E+03 0.  0.
          5    1    3    3  502    0 -0.61347972430E+01  0.29622265879E+02 -0.87430285343E+02  0.92610159098E+02  0.41800000000E+01 0.  1.
         -5    1    3    3    0  502  0.29853957089E+02 -0.57505722605E+02 -0.10796093301E+01  0.64936929728E+02  0.41800000000E+01 0.  1.
        -11    1    1    2    0    0 -0.27403498272E+02  0.80432370172E+01 -0.15971639896E+03  0.16224972566E+03  0.00000000000E+00 0.  1.
         11    1    1    2    0    0  0.36843384261E+01  0.19840219709E+02  0.44323763774E+01  0.20660460500E+02  0.00000000000E+00 0. -1.
</event>
<event>
 7    1  0.2594791E-009  0.1324555E+03  0.7561462E-02  0.1223857E+00
          1   -1    0    0  501    0  0.00000000000E+00  0.00000000000E+00  0.70272198723E+03  0.70272198723E+03  0.00000000000E+00 0. -1.
         -1   -1    0    0    0  501 -0.00000000000E+00 -0.00000000000E+00 -0.29749019135E+02  0.29749019135E+02  0.00000000000E+00 0.  1.
         25    2    1    2    0    0  0.28707676379E+02 -0.82085424701E+02  0.26748402828E+03  0.30782695456E+03  0.12509029115E+03 0.  0.
          5    1    3    3  502    0  0.13224351440E+02 -0.11486842401E+03  0.20902295415E+03  0.23890940975E+03  0.41800000000E+01 0.  1.
         -5    1    3    3    0  502  0.15483324939E+02  0.32782999309E+02  0.58461074125E+02  0.68917544811E+02  0.41800000000E+01 0.  1.
        -11    1    1    2    0    0 -0.25173737911E+02  0.95540509371E+02  0.39514121518E+03  0.40730613296E+03  0.00000000000E+00 0. -1.
         11    1    1    2    0    0 -0.35339384679E+01 -0.13455084671E+02  0.10347724632E+02  0.17337918838E+02  0.00000000000E+00 0.  1.
</event>
<event>
 7    1  0.2594791E-009  0.1188914E+03  0.7561462E-02  0.1244937E+00
          3   -1    0    0  501    0  0.00000000000E+00  0.00000000000E+00  0.22637153116E+03  0.22637153116E+03  0.00000000000E+00 0. -1.
         -3   -1    0    0    0  501 -0.00000000000E+00 -0.00000000000E+00 -0.80096328659E+02  0.80096328659E+02  0.00000000000E+00 0.  1.
         25    2    1    2    0    0  0.15843418495E+01 -0.48896880892E+02  0.15165368068E+03  0.20258189916E+03  0.12508865617E+03 0.  0.
          5    1    3    3  502    0  0.20945315701E+01  0.42392926079E+02  0.42295647269E+02  0.60066142060E+02  0.41800000000E+01 0.  1.
         -5    1    3    3    0  502 -0.51018972061E+00 -0.91289806970E+02  0.10935803342E+03  0.14251575710E+03  0.41800000000E+01 0.  1.
        -11    1    1    2    0    0 -0.28612541361E+02 -0.16468110519E+02 -0.18929725401E+01  0.33067499637E+02  0.00000000000E+00 0.  1.
         11    1    1    2    0    0  0.27028199512E+02  0.65364991411E+02 -0.34855056481E+01  0.70818461015E+02  0.00000000000E+00 0. -1.
</event>
<event>
 7    1  0.2594791E-009  0.1037034E+03  0.7561462E-02  0.1272695E+00
          2   -1    0    0  501    0  0.00000000000E+00  0.00000000000E+00  0.99507240251E+03  0.99507240251E+03  0.00000000000E+00 0. -1.
         -2   -1    0    0    0  501 -0.00000000000E+00 -0.00000000000E+00 -0.17324056968E+02  0.17324056968E+02  0.00000000000E+00 0.  1.
         25    2    1    2    0    0 -0.35000737367E+02  0.51489166864E+02  0.70746110121E+03  0.72112766182E+03  0.12509080298E+03 0.  0.
          5    1    3    3  502    0 -0.62886900000E+02  0.25970876491E+02  0.64052745663E+03  0.64414450530E+03  0.41800000000E+01 0.  1.
         -5    1    3    3    0  502  0.27886162632E+02  0.25518290373E+02  0.66933644588E+02  0.76983156519E+02  0.41800000000E+01 0.  1.
        -11    1    1    2    0    0 -0.25416654898E+02 -0.75831473919E+01  0.32065193710E+02  0.41613544889E+02  0.00000000000E+00 0.  1.
         11    1    1    2    0    0  0.60417392265E+02 -0.43906019472E+02  0.23822205062E+03  0.24965525277E+03  0.00000000000E+00 0. -1.
</event>
<event>
 7    1  0.2594791E-009  0.1131974E+03  0.7561462E-02  0.1254761E+00
          3   -1    0    0  501    0  0.00000000000E+00  0.00000000000E+00  0.10475020551E+03  0.10475020551E+03  0.00000000000E+00 0. -1.
         -3   -1    0    0    0  501 -0.00000000000E+00 -0.00000000000E+00 -0.20206351533E+03  0.20206351533E+03  0.00000000000E+00 0.  1.
         25    2    1    2    0    0  0.94200579463E+02  0.16765133664E+02 -0.40761204612E+02  0.16270501745E+03  0.12512644814E+03 0.  0.
          5    1    3    3  502    0  0.67583551739E+02 -0.97348649393E+01 -0.81987133398E+02  0.10677858635E+03  0.41800000000E+01 0.  1.
         -5    1    3    3    0  502  0.26617027723E+02  0.26499998604E+02  0.41225928786E+02  0.55926431095E+02  0.41800000000E+01 0.  1.
        -11    1    1    2    0    0  0.20013622009E+01  0.17844441181E+02  0.11472246734E+02  0.21308260766E+02  0.00000000000E+00 0. -1.
         11    1    1    2    0    0 -0.96201941663E+02 -0.34609574845E+02 -0.68024351946E+02  0.12280044262E+03  0.00000000000E+00 0.  1.
</event>
<event>
 7    1  0.2594791E-009  0.1013534E+03  0.7561462E-02  0.1277475E+00
         -2   -1    0    0    0  501 -0.00000000000E+00  0.00000000000E+00  0.10438851205E+03  0.10438851205E+03  0.00000000000E+00 0. -1.
          2   -1    0    0  501    0  0.00000000000E+00 -0.00000000000E+00 -0.13564498806E+03  0.13564498806E+03  0.00000000000E+00 0.  1.
         25    2    1    2    0    0 -0.37965414023E+02 -0.30017411622E+02 -0.27831487580E+02  0.13699002341E+03  0.12509699098E+03 0.  0.
          5    1    3    3  502    0 -0.81213665160E+02 -0.28281889220E+02 -0.14147927961E+01  0.86110386744E+02  0.41800000000E+01 0.  1.
         -5    1    3    3    0  502  0.43248251136E+02 -0.17355224012E+01 -0.26416694784E+02  0.50879636670E+02  0.41800000000E+01 0.  1.
        -11    1    1    2    0    0 -0.83019527788E+01  0.25287151682E+02 -0.37074416886E+02  0.45638523723E+02  0.00000000000E+00 0.  1.
         11    1    1    2    0    0  0.46267366802E+02  0.47302599397E+01  0.33649428461E+02  0.57404952972E+02  0.00000000000E+00 0. -1.
</event>
<event>
 6    1  0.2594791E-009  0.1268817E+03  0.7561462E-02  0.1232157E+00
          1   -1    0    0  501    0  0.00000000000E+00  0.00000000000E+00  0.75311246238E+03  0.75311246238E+03  0.00000000000E+00 0. -1.
         -1   -1    0    0    0  501 -0.00000000000E+00 -0.00000000000E+00 -0.25117229083E+02  0.25117229083E+02  0.00000000000E+00 0.  1.
          5    1    1    2  502    0  0.55374804152E+02 -0.33190420032E+02  0.23871085599E+03  0.24732229597E+03  0.41800000000E+01 0. -1.
         -5    1    1    2    0  502 -0.59298768783E+02 -0.51794601900E+02  0.14286484632E+03  0.16317739267E+03  0.41800000000E+01 0. -1.
        -11    1    1    2    0    0 -0.21806289550E+02  0.39810814557E+00  0.20150116992E+02  0.29693433092E+02  0.00000000000E+00 0.  1.
         11    1    1    2    0    0  0.25730254181E+02  0.84586913786E+02  0.32626941399E+03  0.33803656972E+03  0.00000000000E+00 0. -1.
</event>
<event>
 7    1  0.2594791E-009  0.5236685E+02  0.7561462E-02  0.1432978E+00
         -1   -1    0    0    0  501 -0.00000000000E+00  0.00000000000E+00  0.98468492889E+02  0.98468492889E+02  0.00000000000E+00 0.  1.
          1   -1    0    0  501    0  0.00000000000E+00 -0.00000000000E+00 -0.13047626580E+03  0.13047626580E+03  0.00000000000E+00 0. -1.
         25    2    1    2    0    0  0.26155632369E+02  0.14491268443E+02 -0.31007155670E+02  0.13230090207E+03  0.12509185034E+03 0.  0.
          5    1    3    3  502    0  0.25057268106E+02  0.20447233119E+02  0.45201977717E+02  0.55737305431E+02  0.41800000000E+01 0.  1.
         -5    1    3    3    0  502  0.10983642621E+01 -0.59559646756E+01 -0.76209133387E+02  0.76563596642E+02  0.41800000000E+01 0.  1.
        -11    1    1    2    0    0  0.13585666709E+02 -0.20478163193E+02  0.34947373419E+02  0.42722879310E+02  0.00000000000E+00 0.  1.
         11    1    1    2    0    0 -0.39741299077E+02  0.59868947497E+01 -0.35947990659E+02  0.53920977305E+02  0.00000000000E+00 0. -1.
</event>
<event>
 7    1  0.2594791E-009  0.3235959E+03  0.7561462E-02  0.1074006E+00
         -1   -1    0    0    0  501 -0.00000000000E+00  0.00000000000E+00  0.14765800852E+03  0.14765800852E+03  0.00000000000E+00 0.  1.
          1   -1    0    0  501    0  0.00000000000E+00 -0.00000000000E+00 -0.78011836437E+03  0.78011836437E+03  0.00000000000E+00 0. -1.
         25    2    1    2    0    0 -0.29258302029E+03 -0.10945610844E+03 -0.21948448198E+03  0.40175441616E+03  0.12509080556E+03 0.  0.
          5    1    3    3  502    0 -0.11909796975E+03  0.73954577814E+01 -0.39461835390E+02  0.12575264628E+03  0.41800000000E+01 0. -1.
         -5    1    3    3    0  502 -0.17348505053E+03 -0.11685156622E+03 -0.18002264659E+03  0.27600176987E+03  0.41800000000E+01 0. -1.
        -11    1    1    2    0    0  0.19785667288E+03  0.41930877745E+02 -0.31286799020E+03  0.37254776983E+03  0.00000000000E+00 0.  1.
         11    1    1    2    0    0  0.94726347405E+02  0.67525230697E+02 -0.10010788366E+03  0.15347418690E+03  0.00000000000E+00 0. -1.
</event>
<event>
 7    1  0.2594791E-009  0.1397571E+03  0.7561462E-02  0.1213656E+00
          1   -1    0    0  501    0  0.00000000000E+00  0.00000000000E+00  0.46803364761E+03  0.46803364761E+03  0.00000000000E+00 0. -1.
         -1   -1    0    0    0  501 -0.00000000000E+00 -0.00000000000E+00 -0.62997081637E+02  0.62997081637E+02  0.00000000000E+00 0.  1.
         25    2    1    2    0    0 -0.91376740718E+02 -0.73332886424E+02  0.94870481032E+02  0.19590094966E+03  0.12509737379E+03 0.  0.
          5    1    3    3  502    0 -0.91884255604E+01  0.25011767299E+02 -0.11470986235E+02  0.29309923113E+02  0.41800000000E+01 0. -1.
         -5    1    3    3    0  502 -0.82188315157E+02 -0.98344653723E+02  0.10634146727E+03  0.16659102654E+03  0.41800000000E+01 0. -1.
        -11    1    1    2    0    0  0.16263980146E+02  0.37929905863E+02  0.73153475507E+02  0.83991819767E+02  0.00000000000E+00 0.  1.
         11    1    1    2    0    0  0.75112760571E+02  0.35402980561E+02  0.23701260944E+03  0.25113795983E+03  0.00000000000E+00 0. -1.
</event>
<event>
 7    1  0.2594791E-009  0.1113139E+03  0.7561462E-02  0.1258156E+00
         -2   -1    0    0    0  501 -0.00000000000E+00  0.00000000000E+00  0.31398308996E+02  0.31398308996E+02  0.00000000000E+00 0.  1.
          2   -1    0    0  501    0  0.00000000000E+00 -0.00000000000E+00 -0.56064617705E+03  0.56064617705E+03  0.00000000000E+00 0. -1.
         25    2    1    2    0    0  0.67523883597E+02 -0.36489205469E+02 -0.30197154917E+03  0.33574594972E+03  0.12509032445E+03 0.  0.
          5    1    3    3  502    0 -0.33671911943E+01 -0.40484305002E+02 -0.23340728719E+03  0.23695305662E+03  0.41800000000E+01 0.  1.
         -5    1    3    3    0  502  0.70891074792E+02  0.39950995323E+01 -0.68564261979E+02  0.98792893096E+02  0.41800000000E+01 0.  1.
        -11    1    1    2    0    0 -0.18063457286E+02  0.54970433136E+02 -0.72472475568E+02  0.92737784766E+02  0.00000000000E+00 0.  1.
         11    1    1    2    0    0 -0.49460426311E+02 -0.18481227667E+02 -0.15480384331E+03  0.16356075156E+03  0.00000000000E+00 0. -1.
</event>
<event>
 7    1  0.2594791E-009  0.1413981E+03  0.7561462E-02  0.1211460E+00
          2   -1    0    0  501    0  0.00000000000E+00  0.00000000000E+00  0.17919239086E+04  0.17919239086E+04  0.00000000000E+00 0. -1.
         -2   -1    0    0    0  501 -0.00000000000E+00 -0.00000000000E+00 -0.16530829719E+02  0.16530829719E+02  0.00000000000E+00 0.  1.
         25    2    1    2    0    0 -0.39270853028E+02 -0.10272948230E+03  0.12615838379E+04  0.12725317087E+04  0.12509045990E+03 0.  0.
          5    1    3    3  502    0 -0.25503106024E+02 -0.12348636229E+03  0.76727628562E+03  0.77757935991E+03  0.41800000000E+01 0. -1.
         -5    1    3    3    0  502 -0.13767747004E+02  0.20756879995E+02  0.49430755231E+03  0.49495234881E+03  0.41800000000E+01 0. -1.
        -11    1    1    2    0    0  0.16781161972E+02  0.10715197822E+03  0.49356938139E+03  0.50534531568E+03  0.00000000000E+00 0. -1.
         11    1    1    2    0    0  0.22489691055E+02 -0.44224959247E+01  0.20239859608E+02  0.30577713958E+02  0.00000000000E+00 0.  1.
</event>
<event>
 7    1  0.2594791E-009  0.2483516E+03  0.7561462E-02  0.1114351E+00
          1   -1    0    0  501    0  0.00000000000E+00  0.00000000000E+00  0.30955002296E+03  0.30955002296E+03  0.00000000000E+00 0. -1.
         -1   -1    0    0    0  501 -0.00000000000E+00 -0.00000000000E+00 -0.23528849397E+03  0.23528849397E+03  0.00000000000E+00 0.  1.
         25    2    1    2    0    0 -0.16467929858E+03 -0.15191885166E+03 -0.67180727029E+02  0.26525377982E+03  0.12509080204E+03 0.  0.
          5    1    3    3  502    0 -0.12411304460E+03 -0.29875107689E+02 -0.28205366196E+02  0.13080361226E+03  0.41800000000E+01 0.  1.
         -5    1    3    3    0  502 -0.40566253981E+02 -0.12204374397E+03 -0.38975360833E+02  0.13445016756E+03  0.41800000000E+01 0.  1.
        -11    1    1    2    0    0  0.75308180150E+02  0.14988991023E+02  0.56433889343E+02  0.95293104240E+02  0.00000000000E+00 0.  1.
         11    1    1    2    0    0  0.89371118428E+02  0.13692986064E+03  0.85008366677E+02  0.18429163288E+03  0.00000000000E+00 0. -1.
</event>
<event>
 7    1  0.2594791E-009  0.1843740E+03  0.7561462E-02  0.1163636E+00
          1   -1    0    0  501    0  0.00000000000E+00  0.00000000000E+00  0.85668950653E+03  0.85668950653E+03  0.00000000000E+00 0. -1.
         -1   -1    0    0    0  501 -0.00000000000E+00 -0.00000000000E+00 -0.49321078510E+02  0.49321078510E+02  0.00000000000E+00 0.  1.
         25    2    1    2    0    0 -0.15774721923E+03 -0.67879938751E+02  0.36722977022E+03  0.42426083922E+03  0.12509070429E+03 0.  0.
          5    1    3    3  502    0 -0.15767792007E+03 -0.81720118386E+02  0.25311133564E+03  0.30923021337E+03  0.41800000000E+01 0. -1.
         -5    1    3    3    0  502 -0.69299161962E-01  0.13840179635E+02  0.11411843457E+03  0.11503062585E+03  0.41800000000E+01 0. -1.
        -11    1    1    2    0    0  0.32053686716E+02  0.33432921385E+02  0.22892187091E+03  0.23356031778E+03  0.00000000000E+00 0. -1.
         11    1    1    2    0    0  0.12569353252E+03  0.34447017366E+02  0.21121678690E+03  0.24818942804E+03  0.00000000000E+00 0.  1.
</event>
<event>
 7    1  0.2594791E-009  0.9531200E+02  0.7561462E-02  0.1290475E+00
         -1   -1    0    0    0  501 -0.00000000000E+00  0.00000000000E+00  0.35027942300E+03  0.35027942300E+03  0.00000000000E+00 0.  1.
          1   -1    0    0  501    0  0.00000000000E+00 -0.00000000000E+00 -0.37782485230E+02  0.37782485230E+02  0.00000000000E+00 0. -1.
         25    2    1    2    0    0 -0.31666683558E+02  0.95573027818E+01  0.16332011023E+03  0.20836295297E+03  0.12509013102E+03 0.  0.
          5    1    3    3  502    0  0.42240193883E+02  0.32634599739E+01  0.20225266155E+02  0.47131920620E+02  0.41800000000E+01 0.  1.
         -5    1    3    3    0  502 -0.73906877441E+02  0.62938428079E+01  0.14309484408E+03  0.16123103235E+03  0.41800000000E+01 0.  1.
        -11    1    1    2    0    0  0.26897566704E+02 -0.37090567508E+02  0.14421568587E+03  0.15131871445E+03  0.00000000000E+00 0.  1.
         11    1    1    2    0    0  0.47691168541E+01  0.27533264726E+02  0.49611416746E+01  0.28380240816E+02  0.00000000000E+00 0. -1.
</event>
<event>
 7    1  0.2594791E-009  0.2614627E+03  0.7561462E-02  0.1106268E+00
          2   -1    0    0  501    0  0.00000000000E+00  0.00000000000E+00  0.13939160198E+03  0.13939160198E+03  0.00000000000E+00 0. -1.
         -2   -1    0    0    0  501 -0.00000000000E+00 -0.00000000000E+00 -0.69157552509E+03  0.69157552509E+03  0.00000000000E+00 0.  1.
         25    2    1    2    0    0  0.10435976820E+03  0.22733675164E+03 -0.48151931645E+03  0.55684931189E+03  0.12508934476E+03 0.  0.
          5    1    3    3  502    0  0.11198088829E+03  0.22326990911E+03 -0.48585677923E+03  0.54631808864E+03  0.41800000000E+01 0.  1.
         -5    1    3    3    0  502 -0.76211200919E+01  0.40668425371E+01  0.43374627821E+01  0.10531223246E+02  0.41800000000E+01 0.  1.
        -11    1    1    2    0    0 -0.48750535896E+02 -0.19091437488E+03 -0.64629869555E+02  0.20736907514E+03  0.00000000000E+00 0. -1.
         11    1    1    2    0    0 -0.55609232300E+02 -0.36422376761E+02 -0.60347371078E+01  0.66748740047E+02  0.00000000000E+00 0.  1.
</event>
<event>
 7    1  0.2594791E-009  0.1287944E+03  0.7561462E-02  0.1229256E+00
          1   -1    0    0  501    0  0.00000000000E+00  0.00000000000E+00  0.13450080173E+03  0.13450080173E+03  0.00000000000E+00 0. -1.
         -1   -1    0    0    0  501 -0.00000000000E+00 -0.00000000000E+00 -0.18576239440E+03  0.18576239440E+03  0.00000000000E+00 0.  1.
         25    2    1    2    0    0 -0.12833784257E+02  0.68504122640E+02  0.64683829917E+02  0.15712775715E+03  0.12509042080E+03 0.  0.
          5    1    3    3  502    0 -0.37435817222E+02  0.97742084451E+02  0.48022655245E+02  0.11523282215E+03  0.41800000000E+01 0.  1.
         -5    1    3    3    0  502  0.24602032966E+02 -0.29237961812E+02  0.16661174672E+02  0.41894934997E+02  0.41800000000E+01 0.  1.
        -11    1    1    2    0    0  0.47203768042E+02 -0.12736590398E+02 -0.43218412991E+02  0.65255250162E+02  0.00000000000E+00 0. -1.
         11    1    1    2    0    0 -0.34369983785E+02 -0.55767532242E+02 -0.72727009595E+02  0.97880188814E+02  0.00000000000E+00 0.  1.
</event>
<event>
 7    1  0.2594791E-009  0.1193910E+03  0.7561462E-02  0.1244105E+00
         -1   -1    0    0    0  501 -0.00000000000E+00  0.00000000000E+00  0.83662895819E+02  0.83662895819E+02  0.00000000000E+00 0.  1.
          1   -1    0    0  501    0  0.00000000000E+00 -0.00000000000E+00 -0.22320162803E+03  0.22320162803E+03  0.00000000000E+00 0. -1.
         25    2    1    2    0    0 -0.82881056849E+02  0.10660571311E+01 -0.80996187426E+02  0.17052390358E+03  0.12509042031E+03 0.  0.
          5    1    3    3  502    0  0.13358795786E+02 -0.14707198151E+02  0.21093225297E+02  0.29277220765E+02  0.41800000000E+01 0.  1.
         -5    1    3    3    0  502 -0.96239852635E+02  0.15773255282E+02 -0.10208941272E+03  0.14124668282E+03  0.41800000000E+01 0.  1.
        -11    1    1    2    0    0  0.78301624899E+02  0.34098181180E+02 -0.29023185877E+02  0.90200752436E+02  0.00000000000E+00 0.  1.
         11    1    1    2    0    0  0.45794319503E+01 -0.35164238311E+02 -0.29519358912E+02  0.46139867832E+02  0.00000000000E+00 0. -1.
</event>
<event>
 7    1  0.2594791E-009  0.2234448E+03  0.7561462E-02  0.1131341E+00
         -1   -1    0    0    0  501 -0.00000000000E+00  0.00000000000E+00  0.98331770163E+02  0.98331770163E+02  0.00000000000E+00 0.  1.
          1   -1    0    0  501    0  0.00000000000E+00 -0.00000000000E+00 -0.62638791995E+03  0.62638791995E+03  0.00000000000E+00 0. -1.
         25    2    1    2    0    0  0.14263485493E+03  0.16831471032E+03 -0.32073192342E+03  0.40889042746E+03  0.12509145223E+03 0.  0.
          5    1    3    3  502    0  0.51864768482E+02  0.30523949468E+02 -0.18690450674E+03  0.19639865768E+03  0.41800000000E+01 0. -1.
         -5    1    3    3    0  502  0.90770086444E+02  0.13779076085E+03 -0.13382741668E+03  0.21249176978E+03  0.41800000000E+01 0. -1.
        -11    1    1    2    0    0 -0.55845176776E+02 -0.81117881887E+02 -0.15157756518E+03  0.18076103783E+03  0.00000000000E+00 0. -1.
         11    1    1    2    0    0 -0.86789678150E+02 -0.87196828434E+02 -0.55746661190E+02  0.13506822482E+03  0.00000000000E+00 0.  1.
</event>
<event>
 7    1  0.2594791E-009  0.1226903E+03  0.7561462E-02  0.1238724E+00
         -2   -1    0    0    0  501 -0.00000000000E+00  0.00000000000E+00  0.39985605338E+02  0.39985605338E+02  0.00000000000E+00 0.  1.
          2   -1    0    0  501    0  0.00000000000E+00 -0.00000000000E+00 -0.44557952743E+03  0.44557952743E+03  0.00000000000E+00 0. -1.
         25    2    1    2    0    0  0.30605725057E+02  0.57566429503E+02 -0.28371936629E+03  0.31684870502E+03  0.12508324770E+03 0.  0.
          5    1    3    3  502    0  0.33895602344E+02 -0.34448983805E+02 -0.10907001614E+03  0.11937078857E+03  0.41800000000E+01 0.  1.
         -5    1    3    3    0  502 -0.32898772872E+01  0.92015413308E+02 -0.17464935014E+03  0.19747791645E+03  0.41800000000E+01 0.  1.
        -11    1    1    2    0    0 -0.38881513078E+02 -0.75515585806E+02 -0.60617717510E+02  0.10434981282E+03  0.00000000000E+00 0.  1.
         11    1    1    2    0    0  0.82757880209E+01  0.17949156303E+02 -0.61256838298E+02  0.64366614930E+02  0.00000000000E+00 0. -1.
</event>
<event>
 7    1  0.2594791E-009  0.7057770E+02  0.7561462E-02  0.1358140E+00
          2   -1    0    0  501    0  0.00000000000E+00  0.00000000000E+00  0.28557084155E+03  0.28557084155E+03  0.00000000000E+00 0. -1.
         -2   -1    0    0    0  501 -0.00000000000E+00 -0.00000000000E+00 -0.49524124758E+02  0.49524124758E+02  0.00000000000E+00 0.  1.
         25    2    1    2    0    0  0.10246037210E+02 -0.13873481725E+02  0.19934624785E+03  0.23597433375E+03  0.12508998714E+03 0.  0.
          5    1    3    3  502    0  0.56064531911E+02 -0.25612155776E+02  0.50672792997E+02  0.79902556981E+02  0.41800000000E+01 0. -1.
         -5    1    3    3    0  502 -0.45818494701E+02  0.11738674051E+02  0.14867345485E+03  0.15607177677E+03  0.41800000000E+01 0. -1.
        -11    1    1    2    0    0  0.48916318554E+01  0.15886426260E+02 -0.28043679195E+02  0.32599916324E+02  0.00000000000E+00 0.  1.
         11    1    1    2    0    0 -0.15137669065E+02 -0.20129445349E+01  0.64744148134E+02  0.66520716232E+02  0.00000000000E+00 0. -1.
</event>
<event>
 7    1  0.2594791E-009  0.1035936E+03  0.7561462E-02  0.1272916E+00
         -4   -1    0    0    0  501 -0.00000000000E+00  0.00000000000E+00  0.53327292372E+02  0.53327292372E+02  0.00000000000E+00 0.  1.
          4   -1    0    0  501    0  0.00000000000E+00 -0.00000000000E+00 -0.41493776001E+03  0.41493776001E+03  0.00000000000E+00 0. -1.
         25    2    1    2    0    0  0.69734003608E+02 -0.73885390291E+01 -0.80295913606E+02  0.16435415416E+03  0.12508969774E+03 0.  0.
          5    1    3    3  502    0  0.30036821686E+02 -0.43051799217E+02  0.15260165919E+02  0.54827120449E+02  0.41800000000E+01 0.  1.
         -5    1    3    3    0  502  0.39697181923E+02  0.35663260188E+02 -0.95556079525E+02  0.10952703371E+03  0.41800000000E+01 0.  1.
        -11    1    1    2    0    0  0.50720624951E+01  0.23866453576E+02 -0.19841269951E+02  0.31448520116E+02  0.00000000000E+00 0.  1.
         11    1    1    2    0    0 -0.74806066103E+02 -0.16477914547E+02 -0.26147328408E+03  0.27246237810E+03  0.00000000000E+00 0. -1.
</event>
<event>
 7    1  0.2594791E-009  0.1970058E+03  0.7561462E-02  0.1152290E+00
         -4   -1    0    0    0  501 -0.00000000000E+00  0.00000000000E+00  0.28891105218E+03  0.28891105218E+03  0.00000000000E+00 0.  1.
          4   -1    0    0  501    0  0.00000000000E+00 -0.00000000000E+00 -0.16489081240E+03  0.16489081240E+03  0.00000000000E+00 0. -1.
         25    2    1    2    0    0  0.53352320288E+02 -0.17776168322E+03  0.10177847324E+03  0.24587037375E+03  0.12509075494E+03 0.  0.
          5    1    3    3  502    0  0.25743338250E+01 -0.38015825666E+01 -0.24291624392E+02  0.25072587426E+02  0.41800000000E+01 0. -1.
         -5    1    3    3    0  502  0.50777986463E+02 -0.17396010065E+03  0.12607009764E+03  0.22079778633E+03  0.41800000000E+01 0. -1.
        -11    1    1    2    0    0  0.17633184248E+02  0.98779758569E+02  0.15417570676E+02  0.10151882276E+03  0.00000000000E+00 0.  1.
         11    1    1    2    0    0 -0.70985504536E+02  0.78981924651E+02  0.68241958548E+01  0.10641266807E+03  0.00000000000E+00 0. -1.
</event>
<event>
 7    1  0.2594791E-009  0.1429501E+03  0.7561462E-02  0.1209414E+00
          2   -1    0    0  501    0  0.00000000000E+00  0.00000000000E+00  0.18223411830E+03  0.18223411830E+03  0.00000000000E+00 0. -1.
         -2   -1    0    0    0  501 -0.00000000000E+00 -0.00000000000E+00 -0.13607162741E+03  0.13607162741E+03  0.00000000000E+00 0.  1.
         25    2    1    2    0    0 -0.10523387855E+03  0.50529959654E+02  0.14644453639E+02  0.17173910096E+03  0.12510960299E+03 0.  0.
          5    1    3    3  502    0 -0.10437266609E+03  0.76213132438E+01  0.49925158391E+02  0.11602470290E+03  0.41800000000E+01 0. -1.
         -5    1    3    3    0  502 -0.86121245973E+00  0.42908646410E+02 -0.35280704752E+02  0.55714398063E+02  0.41800000000E+01 0. -1.
        -11    1    1    2    0    0  0.31875334856E+02  0.18886320513E+02 -0.83624105035E+01  0.37982364119E+02  0.00000000000E+00 0.  1.
         11    1    1    2    0    0  0.73358543695E+02 -0.69416280167E+02  0.39880447758E+02  0.10858428062E+03  0.00000000000E+00 0. -1.
</event>
<event>
 7    1  0.2594791E-009  0.2008891E+03  0.7561462E-02  0.1148991E+00
         -1   -1    0    0    0  501 -0.00000000000E+00  0.00000000000E+00  0.39650742602E+03  0.39650742602E+03  0.00000000000E+00 0.  1.
          1   -1    0    0  501    0  0.00000000000E+00 -0.00000000000E+00 -0.19949084897E+03  0.19949084897E+03  0.00000000000E+00 0. -1.
         25    2    1    2    0    0 -0.11173074281E+03 -0.51128741272E+01  0.27316052444E+03  0.32059608887E+03  0.12512106023E+03 0.  0.
          5    1    3    3  502    0 -0.35614504021E+01 -0.48931114201E+02  0.60742636755E+02  0.78192571168E+02  0.41800000000E+01 0.  1.
         -5    1    3    3    0  502 -0.10816929241E+03  0.43818240073E+02  0.21241788769E+03  0.24240351770E+03  0.41800000000E+01 0.  1.
        -11    1    1    2    0    0  0.16636626885E+03 -0.32388961917E+02 -0.10892138798E+03  0.20147121140E+03  0.00000000000E+00 0. -1.
         11    1    1    2    0    0 -0.54635526038E+02  0.37501836044E+02  0.32777440594E+02  0.73930974726E+02  0.00000000000E+00 0.  1.
</event>
<event>
 7    1  0.2594791E-009  0.1114429E+03  0.7561462E-02  0.1257921E+00
          1   -1    0    0  501    0  0.00000000000E+00  0.00000000000E+00  0.13615348303E+03  0.13615348303E+03  0.00000000000E+00 0.  1.
         -1   -1    0    0    0  501 -0.00000000000E+00 -0.00000000000E+00 -0.11221576786E+03  0.11221576786E+03  0.00000000000E+00 0. -1.
         25    2    1    2    0    0  0.32641323633E+02 -0.33747672256E+02  0.51311924205E+02  0.14312544120E+03  0.12509043513E+03 0.  0.
          5    1    3    3  502    0 -0.48025471538E+02 -0.16972014980E+02  0.20244239328E+02  0.54970872605E+02  0.41800000000E+01 0.  1.
         -5    1    3    3    0  502  0.80666795171E+02 -0.16775657276E+02  0.31067684877E+02  0.88154568593E+02  0.41800000000E+01 0.  1.
        -11    1    1    2    0    0 -0.27306718215E+02 -0.20890850652E+02 -0.35876353867E+02  0.49691017976E+02  0.00000000000E+00 0. -1.
         11    1    1    2    0    0 -0.53346054183E+01  0.54638522908E+02  0.85021448365E+01  0.55552791716E+02  0.00000000000E+00 0.  1.
</event>
<event>
 7    1  0.2594791E-009  0.8245833E+02  0.7561462E-02  0.1322216E+00
          1   -1    0    0  501    0  0.00000000000E+00  0.00000000000E+00  0.16670180183E+03  0.16670180183E+03  0.00000000000E+00 0.  1.
         -1   -1    0    0    0  501 -0.00000000000E+00 -0.00000000000E+00 -0.77542548234E+02  0.77542548234E+02  0.00000000000E+00 0. -1.
         25    2    1    2    0    0 -0.53532418785E+00  0.57188245163E+01  0.90932743086E+02  0.15475364788E+03  0.12508771419E+03 0.  0.
          5    1    3    3  502    0  0.28944309832E+02  0.33235655009E+02  0.10328364640E+03  0.11237155267E+03  0.41800000000E+01 0. -1.
         -5    1    3    3    0  502 -0.29479634020E+02 -0.27516830492E+02 -0.12350903311E+02  0.42382095216E+02  0.41800000000E+01 0. -1.
        -11    1    1    2    0    0 -0.10793365196E+02 -0.41339405791E+02  0.18964046112E+02  0.46744820551E+02  0.00000000000E+00 0.  1.
         11    1    1    2    0    0  0.11328689384E+02  0.35620581275E+02 -0.20737535603E+02  0.42745881631E+02  0.00000000000E+00 0. -1.
</event>
<event>
 7    1  0.2594791E-009  0.1006030E+03  0.7561462E-02  0.1279033E+00
          2   -1    0    0  501    0  0.00000000000E+00  0.00000000000E+00  0.65902847285E+03  0.65902847285E+03  0.00000000000E+00 0. -1.
         -2   -1    0    0    0  501 -0.00000000000E+00 -0.00000000000E+00 -0.34108817152E+02  0.34108817152E+02  0.00000000000E+00 0.  1.
         25    2    1    2    0    0  0.32164125002E+02  0.26985402846E+02  0.56108848513E+03  0.57639426818E+03  0.12508925352E+03 0.  0.
          5    1    3    3  502    0 -0.30706107144E+02 -0.15918984052E+02  0.58736583150E+02  0.68291563676E+02  0.41800000000E+01 0.  1.
         -5    1    3    3    0  502  0.62870232146E+02  0.42904386898E+02  0.50235190198E+03  0.50810270451E+03  0.41800000000E+01 0.  1.
        -11    1    1    2    0    0  0.79385919012E+01  0.23995232805E+02  0.40640605497E+02  0.47858659132E+02  0.00000000000E+00 0.  1.
         11    1    1    2    0    0 -0.40102716903E+02 -0.50980635651E+02  0.23190565070E+02  0.68884362686E+02  0.00000000000E+00 0. -1.
</event>
<event>
 7    1  0.2594791E-009  0.1041083E+03  0.7561462E-02  0.1271886E+00
          2   -1    0    0  501    0  0.00000000000E+00  0.00000000000E+00  0.17293897231E+03  0.17293897231E+03  0.00000000000E+00 0. -1.
         -2   -1    0    0    0  501 -0.00000000000E+00 -0.00000000000E+00 -0.76452444857E+02  0.76452444857E+02  0.00000000000E+00 0.  1.
         25    2    1    2    0    0  0.25485530843E+02 -0.24027045342E+02  0.38243978301E+02  0.13541406163E+03  0.12509018755E+03 0.  0.
          5    1    3    3  502    0  0.30457946791E+02 -0.66104352115E+02  0.53240288608E+02  0.90274429505E+02  0.41800000000E+01 0.  1.
         -5    1    3    3    0  502 -0.49724159481E+01  0.42077306774E+02 -0.14996310307E+02  0.45139632126E+02  0.41800000000E+01 0.  1.
        -11    1    1    2    0    0 -0.19844425306E+02  0.56445162265E+02  0.19024885324E+02  0.62783786287E+02  0.00000000000E+00 0.  1.
         11    1    1    2    0    0 -0.56411055372E+01 -0.32418116924E+02  0.39217663831E+02  0.51193569254E+02  0.00000000000E+00 0. -1.
</event>
<event>
 7    1  0.2594791E-009  0.1910644E+03  0.7561462E-02  0.1157505E+00
         -1   -1    0    0    0  501 -0.00000000000E+00  0.00000000000E+00  0.67659406556E+02  0.67659406556E+02  0.00000000000E+00 0.  1.
          1   -1    0    0  501    0  0.00000000000E+00 -0.00000000000E+00 -0.67428849708E+03  0.67428849708E+03  0.00000000000E+00 0. -1.
         25    2    1    2    0    0  0.40789157710E+02 -0.15427759429E+03 -0.15567267730E+03  0.25563134208E+03  0.12509224240E+03 0.  0.
          5    1    3    3  502    0  0.29414599833E+02  0.14771339189E+02 -0.22536546360E+02  0.40109593200E+02  0.41800000000E+01 0. -1.
         -5    1    3    3    0  502  0.11374557876E+02 -0.16904893348E+03 -0.13313613094E+03  0.21552174888E+03  0.41800000000E+01 0. -1.
        -11    1    1    2    0    0  0.22995226111E+02  0.70601096304E+02 -0.14745052213E+03  0.16509073778E+03  0.00000000000E+00 0. -1.
         11    1    1    2    0    0 -0.63784383821E+02  0.83676497989E+02 -0.30350589108E+03  0.32122582377E+03  0.00000000000E+00 0.  1.
</event>
<event>
 7    1  0.2594791E-009  0.1538150E+03  0.7561462E-02  0.1195862E+00
          2   -1    0    0  501    0  0.00000000000E+00  0.00000000000E+00  0.13330496896E+03  0.13330496896E+03  0.00000000000E+00 0. -1.
         -2   -1    0    0    0  501 -0.00000000000E+00 -0.00000000000E+00 -0.25916480943E+03  0.25916480943E+03  0.00000000000E+00 0.  1.
         25    2    1    2    0    0 -0.84054798022E+02  0.95882766163E+02  0.18600358523E+02  0.17958599302E+03  0.12508573714E+03 0.  0.
          5    1    3    3  502    0 -0.10520606962E+03  0.88029303762E+02 -0.15892879785E+02  0.13815763256E+03  0.41800000000E+01 0. -1.
         -5    1    3    3    0  502  0.21151271601E+02  0.78534624011E+01  0.34493238307E+02  0.41428360466E+02  0.41800000000E+01 0. -1.
        -11    1    1    2    0    0  0.90691588443E+02 -0.55086303181E+02 -0.68185070708E+02  0.12612957179E+03  0.00000000000E+00 0. -1.
         11    1    1    2    0    0 -0.66367904207E+01 -0.40796462982E+02 -0.76275128282E+02  0.86754213577E+02  0.00000000000E+00 0.  1.
</event>
<event>
 7    1  0.2594791E-009  0.1084629E+03  0.7561462E-02  0.1263443E+00
         -3   -1    0    0    0  501 -0.00000000000E+00  0.00000000000E+00  0.60492949896E+02  0.60492949896E+02  0.00000000000E+00 0.  1.
          3   -1    0    0  501    0  0.00000000000E+00 -0.00000000000E+00 -0.26692797905E+03  0.26692797905E+03  0.00000000000E+00 0. -1.
         25    2    1    2    0    0 -0.24387909813E+02  0.48099369870E+02 -0.16327209624E+03  0.21264134915E+03  0.12510094496E+03 0.  0.
          5    1    3    3  502    0 -0.65068787807E+02  0.44980681945E+02 -0.14983037615E+03  0.16948103998E+03  0.41800000000E+01 0.  1.
         -5    1    3    3    0  502  0.40680877994E+02  0.31186879248E+01 -0.13441720089E+02  0.43160309170E+02  0.41800000000E+01 0.  1.
        -11    1    1    2    0    0 -0.17405822433E+02  0.13661006784E+02  0.88806950928E+01  0.23842242055E+02  0.00000000000E+00 0.  1.
         11    1    1    2    0    0  0.41793732246E+02 -0.61760376654E+02 -0.52043628011E+02  0.90937337744E+02  0.00000000000E+00 0. -1.
</event>
<event>
 7    1  0.2594791E-009  0.2684512E+03  0.7561462E-02  0.1102169E+00
         -2   -1    0    0    0  501 -0.00000000000E+00  0.00000000000E+00  0.54469370675E+02  0.54469370675E+02  0.00000000000E+00 0. -1.
          2   -1    0    0  501    0  0.00000000000E+00 -0.00000000000E+00 -0.14878205495E+04  0.14878205495E+04  0.00000000000E+00 0.  1.
         25    2    1    2    0    0 -0.20507063822E+03 -0.14666004563E+03 -0.94150961527E+03  0.98267538183E+03  0.12508962696E+03 0.  0.
          5    1    3    3  502    0 -0.13004579932E+03 -0.25112790201E+02 -0.35265574339E+03  0.37673081623E+03  0.41800000000E+01 0.  1.
         -5    1    3    3    0  502 -0.75024838893E+02 -0.12154725543E+03 -0.58885387188E+03  0.60594456560E+03  0.41800000000E+01 0.  1.
        -11    1    1    2    0    0  0.12600430166E+03  0.47485374901E+02 -0.19671770221E+03  0.23839001495E+03  0.00000000000E+00 0.  1.
         11    1    1    2    0    0  0.79066336552E+02  0.99174670732E+02 -0.29512386136E+03  0.32122452340E+03  0.00000000000E+00 0. -1.
</event>
<event>
 7    1  0.2594791E-009  0.2860381E+03  0.7561462E-02  0.1092436E+00
          2   -1    0    0  501    0  0.00000000000E+00  0.00000000000E+00  0.10147990695E+04  0.10147990695E+04  0.00000000000E+00 0. -1.
         -2   -1    0    0    0  501 -0.00000000000E+00 -0.00000000000E+00 -0.16324068234E+03  0.16324068234E+03  0.00000000000E+00 0.  1.
         25    2    1    2    0    0  0.75290231518E+02 -0.26447543762E+03  0.26067955874E+02  0.30322027440E+03  0.12508845036E+03 0.  0.
          5    1    3    3  502    0  0.71976689141E+02 -0.13619486261E+03  0.67603158049E+02  0.16827757949E+03  0.41800000000E+01 0. -1.
         -5    1    3    3    0  502  0.33135423770E+01 -0.12828057501E+03 -0.41535202175E+02  0.13494269490E+03  0.41800000000E+01 0. -1.
        -11    1    1    2    0    0  0.86379190925E+01  0.13506166730E+03  0.39181802844E+03  0.41453303249E+03  0.00000000000E+00 0.  1.
         11    1    1    2    0    0 -0.83928150611E+02  0.12941377033E+03  0.43367240286E+03  0.46028644497E+03  0.00000000000E+00 0. -1.
</event>
<event>
 6    1  0.2594791E-009  0.1019725E+03  0.7561462E-02  0.1276202E+00
          3   -1    0    0  501    0  0.00000000000E+00  0.00000000000E+00  0.50375269633E+02  0.50375269633E+02  0.00000000000E+00 0. -1.
         -3   -1    0    0    0  501 -0.00000000000E+00 -0.00000000000E+00 -0.27337496992E+03  0.27337496992E+03  0.00000000000E+00 0.  1.
          5    1    1    2  502    0 -0.19902478517E+02 -0.73183701510E+02 -0.15757965883E+03  0.17493079802E+03  0.41800000000E+01 0. -1.
         -5    1    1    2    0  502 -0.40919277333E+01  0.33778600548E+02 -0.39996277956E+01  0.34513868952E+02  0.41800000000E+01 0. -1.
        -11    1    1    2    0    0  0.40493592506E+02 -0.99238126698E+01 -0.40855321477E+02  0.58372685264E+02  0.00000000000E+00 0. -1.
         11    1    1    2    0    0 -0.16499186256E+02  0.49328913632E+02 -0.20565092184E+02  0.55932887318E+02  0.00000000000E+00 0.  1.
</event>
<event>
 7    1  0.2594791E-009  0.2360660E+03  0.7561462E-02  0.1122442E+00
          2   -1    0    0  501    0  0.00000000000E+00  0.00000000000E+00  0.16378708736E+03  0.16378708736E+03  0.00000000000E+00 0. -1.
         -2   -1    0    0    0  501 -0.00000000000E+00 -0.00000000000E+00 -0.51274441612E+03  0.51274441612E+03  0.00000000000E+00 0.  1.
         25    2    1    2    0    0  0.22528068145E+03 -0.64683036163E+02 -0.25817933325E+02  0.26692642112E+03  0.12509143860E+03 0.  0.
          5    1    3    3  502    0  0.20459717537E+03 -0.53085717912E+02 -0.64787919373E+02  0.22111771641E+03  0.41800000000E+01 0.  1.
         -5    1    3    3    0  502  0.20683506077E+02 -0.11597318251E+02  0.38969986048E+02  0.45808704706E+02  0.41800000000E+01 0.  1.
        -11    1    1    2    0    0 -0.58533432692E+02  0.32037016721E+02 -0.35638154444E+02  0.75647942703E+02  0.00000000000E+00 0. -1.
         11    1    1    2    0    0 -0.16674724875E+03  0.32646019442E+02 -0.28750124099E+03  0.33395713965E+03  0.00000000000E+00 0.  1.
</event>
<event>
 7    1  0.2594791E-009  0.1332962E+03  0.7561462E-02  0.1222645E+00
          1   -1    0    0  501    0  0.00000000000E+00  0.00000000000E+00  0.51631517940E+02  0.51631517940E+02  0.00000000000E+00 0. -1.
         -1   -1    0    0    0  501 -0.00000000000E+00 -0.00000000000E+00 -0.40079188397E+03  0.40079188397E+03  0.00000000000E+00 0.  1.
         25    2    1    2    0    0  0.84354728306E+02 -0.25140198320E+02 -0.13975159107E+03  0.20718290441E+03  0.12508596610E+03 0.  0.
          5    1    3    3  502    0 -0.18836185725E+02 -0.41789828778E+02 -0.60100225049E+02  0.75701394524E+02  0.41800000000E+01 0.  1.
         -5    1    3    3    0  502  0.10319091403E+03  0.16649630458E+02 -0.79651366021E+02  0.13148150989E+03  0.41800000000E+01 0.  1.
        -11    1    1    2    0    0 -0.41687521398E+02  0.51148647407E+02 -0.16748190575E+03  0.18001172830E+03  0.00000000000E+00 0.  1.
         11    1    1    2    0    0 -0.42667206908E+02 -0.26008449087E+02 -0.41926869204E+02  0.65228769193E+02  0.00000000000E+00 0. -1.
</event>
<event>
 7    1  0.2594791E-009  0.1109893E+03  0.7561462E-02  0.1258749E+00
         -1   -1    0    0    0  501 -0.00000000000E+00  0.00000000000E+00  0.18857096256E+02  0.18857096256E+02  0.00000000000E+00 0.  1.
          1   -1    0    0  501    0  0.00000000000E+00 -0.00000000000E+00 -0.84761781094E+03  0.84761781094E+03  0.00000000000E+00 0. -1.
         25    2    1    2    0    0  0.55515751696E+01  0.48018200656E+02 -0.59602283334E+03  0.61092236463E+03  0.12508537152E+03 0.  0.
          5    1    3    3  502    0 -0.17650353867E+02  0.86801005620E+02 -0.38728155548E+03  0.39730394559E+03  0.41800000000E+01 0. -1.
         -5    1    3    3    0  502  0.23201929037E+02 -0.38782804964E+02 -0.20874127786E+03  0.21361841904E+03  0.41800000000E+01 0. -1.
        -11    1    1    2    0    0  0.28609249499E+02 -0.45391000608E+02 -0.64679629796E+02  0.84037411928E+02  0.00000000000E+00 0.  1.
         11    1    1    2    0    0 -0.34160824668E+02 -0.26272000481E+01 -0.16805825155E+03  0.17151513063E+03  0.00000000000E+00 0. -1.
</event>
<event>
 7    1  0.2594791E-009  0.1014883E+03  0.7561462E-02  0.1277197E+00
          1   -1    0    0  501    0  0.00000000000E+00  0.00000000000E+00  0.55487509536E+03  0.55487509536E+03  0.00000000000E+00 0. -1.
         -1   -1    0    0    0  501 -0.00000000000E+00 -0.00000000000E+00 -0.33970263668E+02  0.33970263668E+02  0.00000000000E+00 0.  1.
         25    2    1    2    0    0 -0.74405579816E+02 -0.36003543737E+02  0.28191518673E+03  0.31930397399E+03  0.12508560999E+03 0.  0.
          5    1    3    3  502    0 -0.28478833571E+02 -0.34394803984E+02  0.13337600226E+02  0.46791136794E+02  0.41800000000E+01 0.  1.
         -5    1    3    3    0  502 -0.45926746245E+02 -0.16087397529E+01  0.26857758650E+03  0.27251283720E+03  0.41800000000E+01 0.  1.
        -11    1    1    2    0    0  0.37766507244E+02  0.58026014986E+02  0.84470836804E+02  0.10921835814E+03  0.00000000000E+00 0.  1.
         11    1    1    2    0    0  0.36639072572E+02 -0.22022471249E+02  0.15451880816E+03  0.16032302690E+03  0.00000000000E+00 0. -1.
</event>
<event>
 7    1  0.2594791E-009  0.2631674E+03  0.7561462E-02  0.1105255E+00
          1   -1    0    0  501    0  0.00000000000E+00  0.00000000000E+00  0.99609675773E+03  0.99609675773E+03  0.00000000000E+00 0. -1.
         -1   -1    0    0    0  501 -0.00000000000E+00 -0.00000000000E+00 -0.82231094451E+02  0.82231094451E+02  0.00000000000E+00 0.  1.
         25    2    1    2    0    0  0.46083571183E+02 -0.24811121028E+03  0.31273899659E+03  0.42087555924E+03  0.12509071981E+03 0.  0.
          5    1    3    3  502    0 -0.15090881345E+02 -0.10819109009E+03  0.57770617899E+02  0.12364450399E+03  0.41800000000E+01 0. -1.
         -5    1    3    3    0  502  0.61174452529E+02 -0.13992012019E+03  0.25496837869E+03  0.29723105525E+03  0.41800000000E+01 0. -1.
        -11    1    1    2    0    0  0.20634767688E+02  0.95315695479E+02  0.18417858758E+03  0.20840496051E+03  0.00000000000E+00 0.  1.
         11    1    1    2    0    0 -0.66718338872E+02  0.15279551480E+03  0.41694807912E+03  0.44904733243E+03  0.00000000000E+00 0. -1.
</event>
<event>
 7    1  0.2594791E-009  0.1066342E+03  0.7561462E-02  0.1266933E+00
         -1   -1    0    0    0  501 -0.00000000000E+00  0.00000000000E+00  0.12845809391E+03  0.12845809391E+03  0.00000000000E+00 0.  1.
          1   -1    0    0  501    0  0.00000000000E+00 -0.00000000000E+00 -0.15314546717E+03  0.15314546717E+03  0.00000000000E+00 0. -1.
         25    2    1    2    0    0  0.45329605439E+02 -0.75637781613E+02  0.57773414478E+01  0.15315998105E+03  0.12509498385E+03 0.  0.
          5    1    3    3  502    0  0.31245942991E+02 -0.95165663386E+02 -0.34523570617E+02  0.10602906096E+03  0.41800000000E+01 0. -1.
         -5    1    3    3    0  502  0.14083662448E+02  0.19527881772E+02  0.40300912065E+02  0.47130920081E+02  0.41800000000E+01 0. -1.
        -11    1    1    2    0    0 -0.36698652281E+02  0.54052163794E+02 -0.61460590578E+02  0.89698560102E+02  0.00000000000E+00 0. -1.
         11    1    1    2    0    0 -0.86309531581E+01  0.21585617819E+02  0.30995875865E+02  0.38745019934E+02  0.00000000000E+00 0.  1.
</event>
<event>
 7    1  0.2594791E-009  0.9146104E+02  0.7561462E-02  0.1299352E+00
          1   -1    0    0  501    0  0.00000000000E+00  0.00000000000E+00  0.68270217346E+03  0.68270217346E+03  0.00000000000E+00 0. -1.
         -1   -1    0    0    0  501 -0.00000000000E+00 -0.00000000000E+00 -0.29685549546E+02  0.29685549546E+02  0.00000000000E+00 0.  1.
         25    2    1    2    0    0 -0.67689006902E+02 -0.72582594866E+01  0.51251574723E+03  0.53193502370E+03  0.12509194337E+03 0.  0.
          5    1    3    3  502    0 -0.35844986151E+02 -0.44584561266E+02  0.91111178283E+02  0.10766320329E+03  0.41800000000E+01 0. -1.
         -5    1    3    3    0  502 -0.31844020751E+02  0.37326301779E+02  0.42140456895E+03  0.42427182041E+03  0.41800000000E+01 0. -1.
        -11    1    1    2    0    0  0.62770295536E+02  0.17324255221E+02  0.15140787680E+03  0.16481682250E+03  0.00000000000E+00 0. -1.
         11    1    1    2    0    0  0.49187113661E+01 -0.10065995735E+02 -0.10907000124E+02  0.15635876801E+02  0.00000000000E+00 0.  1.
</event>
<event>
 7    1  0.2594791E-009  0.1030244E+03  0.7561462E-02  0.1274062E+00
          2   -1    0    0  501    0  0.00000000000E+00  0.00000000000E+00  0.23227990409E+03  0.23227990409E+03  0.00000000000E+00 0. -1.
         -2   -1    0    0    0  501 -0.00000000000E+00 -0.00000000000E+00 -0.62584924103E+02  0.62584924103E+02  0.00000000000E+00 0.  1.
         25    2    1    2    0    0 -0.12524871001E+02  0.57252363617E+01  0.15690084325E+03  0.20113466926E+03  0.12509048661E+03 0.  0.
          5    1    3    3  502    0 -0.43822359211E+02  0.44931131597E+02  0.41847695861E+02  0.75550696901E+02  0.41800000000E+01 0.  1.
         -5    1    3    3    0  502  0.31297488210E+02 -0.39205895235E+02  0.11505314739E+03  0.12558397236E+03  0.41800000000E+01 0.  1.
        -11    1    1    2    0    0  0.36774226241E+02 -0.37707577562E+02  0.87232335893E+01  0.53388200246E+02  0.00000000000E+00 0.  1.
         11    1    1    2    0    0 -0.24249355240E+02  0.31982341201E+02  0.40709031477E+01  0.40341958686E+02  0.00000000000E+00 0. -1.
</event>
<event>
 6    1  0.2594791E-009  0.1154738E+03  0.7561462E-02  0.1250756E+00
          1   -1    0    0  501    0  0.00000000000E+00  0.00000000000E+00  0.78294304938E+03  0.78294304938E+03  0.00000000000E+00 0. -1.
         -1   -1    0    0    0  501 -0.00000000000E+00 -0.00000000000E+00 -0.22937132054E+02  0.22937132054E+02  0.00000000000E+00 0.  1.
          5    1    1    2  502    0  0.22554517139E+02 -0.76473610919E+01  0.30197638753E+03  0.30294289792E+03  0.41800000000E+01 0.  1.
         -5    1    1    2    0  502 -0.82496052055E+02  0.40688173953E+02  0.22785575795E+03  0.24575769557E+03  0.41800000000E+01 0.  1.
        -11    1    1    2    0    0 -0.24897931590E+01 -0.49946691718E+02  0.10350132347E+03  0.11494953259E+03  0.00000000000E+00 0.  1.
         11    1    1    2    0    0  0.62431328076E+02  0.16905878856E+02  0.12667244837E+03  0.14223005534E+03  0.00000000000E+00 0. -1.
</event>
<event>
 7    1  0.2594791E-009  0.9891749E+02  0.7561462E-02  0.1282589E+00
          2   -1    0    0  501    0  0.00000000000E+00  0.00000000000E+00  0.11042933321E+03  0.11042933321E+03  0.00000000000E+00 0. -1.
         -2   -1    0    0    0  501 -0.00000000000E+00 -0.00000000000E+00 -0.18375695255E+03  0.18375695255E+03  0.00000000000E+00 0.  1.
         25    2    1    2    0    0 -0.23862575645E+02  0.82341671877E+02 -0.39959430566E+01  0.15170083306E+03  0.12509037431E+03 0.  0.
          5    1    3    3  502    0 -0.35044457978E+02  0.34661877412E+02 -0.59621483233E+02  0.77470984527E+02  0.41800000000E+01 0.  1.
         -5    1    3    3    0  502  0.11181882333E+02  0.47679794464E+02  0.55625540177E+02  0.74229848529E+02  0.41800000000E+01 0.  1.
        -11    1    1    2    0    0 -0.14161399894E+02 -0.39355374419E+02  0.11476211710E+02  0.43371582607E+02  0.00000000000E+00 0. -1.
         11    1    1    2    0    0  0.38023975539E+02 -0.42986297458E+02 -0.80807887995E+02  0.99113870105E+02  0.00000000000E+00 0.  1.
</event>
<event>
 7    1  0.2594791E-009  0.1114953E+03  0.7561462E-02  0.1257826E+00
         -1   -1    0    0    0  501 -0.00000000000E+00  0.00000000000E+00  0.15917774351E+03  0.15917774351E+03  0.00000000000E+00 0.  1.
          1   -1    0    0  501    0  0.00000000000E+00 -0.00000000000E+00 -0.96466861201E+02  0.96466861201E+02  0.00000000000E+00 0. -1.
         25    2    1    2    0    0 -0.20411663319E+02  0.37060783842E+02 -0.16671838908E+02  0.13309585417E+03  0.12508564460E+03 0.  0.
          5    1    3    3  502    0 -0.72582455921E+02  0.31876346464E+02 -0.12142121772E+02  0.80307022685E+02  0.41800000000E+01 0. -1.
         -5    1    3    3    0  502  0.52170792602E+02  0.51844373783E+01 -0.45297171361E+01  0.52788831480E+02  0.41800000000E+01 0. -1.
        -11    1    1    2    0    0 -0.79081496904E+01  0.23155875963E+02  0.34449568824E+02  0.42255250742E+02  0.00000000000E+00 0.  1.
         11    1    1    2    0    0  0.28319813009E+02 -0.60216659805E+02  0.44933152397E+02  0.80293499807E+02  0.00000000000E+00 0. -1.
</event>
<event>
 7    1  0.2594791E-009  0.1182394E+03  0.7561462E-02  0.1246030E+00
         -1   -1    0    0    0  501 -0.00000000000E+00  0.00000000000E+00  0.42525609523E+02  0.42525609523E+02  0.00000000000E+00 0.  1.
          1   -1    0    0  501    0  0.00000000000E+00 -0.00000000000E+00 -0.44646957598E+03  0.44646957598E+03  0.00000000000E+00 0. -1.
         25    2    1    2    0    0 -0.16683237548E+02 -0.60578270266E+02 -0.32466390963E+03  0.35355855709E+03  0.12509573067E+03 0.  0.
          5    1    3    3  502    0 -0.53364281305E+02  0.10653628447E+02 -0.18052735465E+03  0.18859704265E+03  0.41800000000E+01 0. -1.
         -5    1    3    3    0  502  0.36681043757E+02 -0.71231898713E+02 -0.14413655498E+03  0.16496151444E+03  0.41800000000E+01 0. -1.
        -11    1    1    2    0    0 -0.32045796055E+02  0.31444700402E+02 -0.61102607728E+02  0.75823682972E+02  0.00000000000E+00 0. -1.
         11    1    1    2    0    0  0.48729033603E+02  0.29133569864E+02 -0.18177449102E+02  0.59612945446E+02  0.00000000000E+00 0.  1.
</event>
<event>
 7    1  0.2594791E-009  0.2018902E+03  0.7561462E-02  0.1148154E+00
         -1   -1    0    0    0  501 -0.00000000000E+00  0.00000000000E+00  0.58748132701E+02  0.58748132701E+02  0.00000000000E+00 0.  1.
          1   -1    0    0  501    0  0.00000000000E+00 -0.00000000000E+00 -0.88428504371E+03  0.88428504371E+03  0.00000000000E+00 0. -1.
         25    2    1    2    0    0  0.19590241301E+03  0.11251025961E+02 -0.35043371377E+03  0.42066033393E+03  0.12508792023E+03 0.  0.
          5    1    3    3  502    0  0.18478635850E+02 -0.15650790755E+01 -0.15577800681E+03  0.15693364605E+03  0.41800000000E+01 0. -1.
         -5    1    3    3    0  502  0.17742377716E+03  0.12816105036E+02 -0.19465570696E+03  0.26372668788E+03  0.41800000000E+01 0. -1.
        -11    1    1    2    0    0 -0.15663780716E+03  0.18285656336E+02 -0.28182826826E+03  0.32295036871E+03  0.00000000000E+00 0.  1.
         11    1    1    2    0    0 -0.39264605851E+02 -0.29536682297E+02 -0.19327492898E+03  0.19942247377E+03  0.00000000000E+00 0. -1.
</event>
<event>
 7    1  0.2594791E-009  0.5925466E+02  0.7561462E-02  0.1400986E+00
          4   -1    0    0  501    0  0.00000000000E+00  0.00000000000E+00  0.16268346724E+03  0.16268346724E+03  0.00000000000E+00 0. -1.
         -4   -1    0    0    0  501 -0.00000000000E+00 -0.00000000000E+00 -0.79240363765E+02  0.79240363765E+02  0.00000000000E+00 0.  1.
         25    2    1    2    0    0  0.40032830614E+01 -0.31962574851E+02  0.33991266867E+02  0.13356849820E+03  0.12508998770E+03 0.  0.
          5    1    3    3  502    0 -0.73412799311E+01  0.20648511394E+02 -0.37711626828E+02  0.43816602011E+02  0.41800000000E+01 0.  1.
         -5    1    3    3    0  502  0.11344562992E+02 -0.52611086245E+02  0.71702893695E+02  0.89751896189E+02  0.41800000000E+01 0.  1.
        -11    1    1    2    0    0  0.90484095462E+01  0.26617348676E+02 -0.21891433360E+02  0.35631332005E+02  0.00000000000E+00 0.  1.
         11    1    1    2    0    0 -0.13051692608E+02  0.53452261746E+01  0.71343269970E+02  0.72724000803E+02  0.00000000000E+00 0. -1.
</event>
<event>
 7    1  0.2594791E-009  0.1299891E+03  0.7561462E-02  0.1227472E+00
          2   -1    0    0  501    0  0.00000000000E+00  0.00000000000E+00  0.69290813538E+03  0.69290813538E+03  0.00000000000E+00 0.  1.
         -2   -1    0    0    0  501 -0.00000000000E+00 -0.00000000000E+00 -0.26022626313E+02  0.26022626313E+02  0.00000000000E+00 0. -1.
         25    2    1    2    0    0 -0.40923071696E+02 -0.66498748435E+02  0.40405370595E+03  0.43012456919E+03  0.12510382244E+03 0.  0.
          5    1    3    3  502    0  0.32834162579E+02  0.10994574429E+02  0.15771298268E+03  0.16152343547E+03  0.41800000000E+01 0.  1.
         -5    1    3    3    0  502 -0.73757234275E+02 -0.77493322864E+02  0.24634072326E+03  0.26860113372E+03  0.41800000000E+01 0.  1.
        -11    1    1    2    0    0  0.28153436369E+02 -0.17449350928E+02  0.96987769054E+02  0.10248767327E+03  0.00000000000E+00 0.  1.
         11    1    1    2    0    0  0.12769635327E+02  0.83948099363E+02  0.16584403407E+03  0.18631851923E+03  0.00000000000E+00 0. -1.
</event>
<event>
 7    1  0.2594791E-009  0.2219587E+03  0.7561462E-02  0.1132431E+00
         -2   -1    0    0    0  501 -0.00000000000E+00  0.00000000000E+00  0.99131435722E+02  0.99131435722E+02  0.00000000000E+00 0.  1.
          2   -1    0    0  501    0  0.00000000000E+00 -0.00000000000E+00 -0.80475382180E+03  0.80475382180E+03  0.00000000000E+00 0. -1.
         25    2    1    2    0    0 -0.10802897471E+03 -0.17419239555E+03 -0.10377569357E+03  0.26160164237E+03  0.12511104935E+03 0.  0.
          5    1    3    3  502    0 -0.12368604986E+02 -0.13108748997E+03 -0.79361445596E+02  0.15379409567E+03  0.41800000000E+01 0.  1.
         -5    1    3    3    0  502 -0.95660369726E+02 -0.43104905578E+02 -0.24414247974E+02  0.10780754670E+03  0.41800000000E+01 0.  1.
        -11    1    1    2    0    0  0.42458747409E+02  0.42572816242E+02 -0.79762952263E+02  0.99886527961E+02  0.00000000000E+00 0. -1.
         11    1    1    2    0    0  0.65570227303E+02  0.13161957931E+03 -0.52208374025E+03  0.54239708719E+03  0.00000000000E+00 0.  1.
</event>
<event>
 7    1  0.2594791E-009  0.1097143E+03  0.7561462E-02  0.1261100E+00
          3   -1    0    0  501    0  0.00000000000E+00  0.00000000000E+00  0.58795424599E+02  0.58795424599E+02  0.00000000000E+00 0. -1.
         -3   -1    0    0    0  501 -0.00000000000E+00 -0.00000000000E+00 -0.22431894639E+03  0.22431894639E+03  0.00000000000E+00 0.  1.
         25    2    1    2    0    0 -0.10236556916E+02 -0.11340480653E+02 -0.12875068916E+03  0.18015598858E+03  0.12508415832E+03 0.  0.
          5    1    3    3  502    0  0.53122361616E+02 -0.24156187396E+02 -0.42614740471E+02  0.72380903549E+02  0.41800000000E+01 0. -1.
         -5    1    3    3    0  502 -0.63358918532E+02  0.12815706743E+02 -0.86135948692E+02  0.10777508503E+03  0.41800000000E+01 0. -1.
        -11    1    1    2    0    0  0.98232435965E+01  0.53293019645E+02 -0.21820642905E+02  0.58419025278E+02  0.00000000000E+00 0.  1.
         11    1    1    2    0    0  0.41331332001E+00 -0.41952538991E+02 -0.14952189721E+02  0.44539357126E+02  0.00000000000E+00 0. -1.
</event>
<event>
 7    1  0.2594791E-009  0.1569576E+03  0.7561462E-02  0.1192175E+00
         -2   -1    0    0    0  501 -0.00000000000E+00  0.00000000000E+00  0.20040067823E+03  0.20040067823E+03  0.00000000000E+00 0.  1.
          2   -1    0    0  501    0  0.00000000000E+00 -0.00000000000E+00 -0.13492700466E+03  0.13492700466E+03  0.00000000000E+00 0. -1.
         25    2    1    2    0    0  0.74605301110E+02 -0.90863231565E+02 -0.30520347884E+01  0.17169401392E+03  0.12508973457E+03 0.  0.
          5    1    3    3  502    0  0.22283333952E+02  0.28304467187E+02 -0.18243915403E+02  0.40595599318E+02  0.41800000000E+01 0. -1.
         -5    1    3    3    0  502  0.52321967158E+02 -0.11916769875E+03  0.15191880615E+02  0.13109841460E+03  0.41800000000E+01 0. -1.
        -11    1    1    2    0    0 -0.49017469165E+02 -0.40008711227E+01  0.13408322508E+02  0.50975507507E+02  0.00000000000E+00 0.  1.
         11    1    1    2    0    0 -0.25587831945E+02  0.94864102688E+02  0.55117385852E+02  0.11265816147E+03  0.00000000000E+00 0. -1.
</event>
<event>
 7    1  0.2594791E-009  0.1021459E+03  0.7561462E-02  0.1275847E+00
         -2   -1    0    0    0  501 -0.00000000000E+00  0.00000000000E+00  0.23674340387E+03  0.23674340387E+03  0.00000000000E+00 0. -1.
          2   -1    0    0  501    0  0.00000000000E+00 -0.00000000000E+00 -0.13783771030E+03  0.13783771030E+03  0.00000000000E+00 0.  1.
         25    2    1    2    0    0  0.11322885264E+02  0.83079166082E+02  0.17273879883E+03  0.22916685490E+03  0.12509356177E+03 0.  0.
          5    1    3    3  502    0  0.37610072116E+01  0.22322654813E+02 -0.17729749418E+02  0.29056195683E+02  0.41800000000E+01 0. -1.
         -5    1    3    3    0  502  0.75618780528E+01  0.60756511269E+02  0.19046854825E+03  0.20011065922E+03  0.41800000000E+01 0. -1.
        -11    1    1    2    0    0 -0.26992016026E+02  0.74719430845E+01 -0.77924828766E+00  0.28017960142E+02  0.00000000000E+00 0. -1.
         11    1    1    2    0    0  0.15669130762E+02 -0.90551109167E+02 -0.73053856971E+02  0.11739629913E+03  0.00000000000E+00 0.  1.
</event>
<event>
 7    1  0.2594791E-009  0.1492440E+03  0.7561462E-02  0.1201405E+00
         -2   -1    0    0    0  501 -0.00000000000E+00  0.00000000000E+00  0.17695737081E+02  0.17695737081E+02  0.00000000000E+00 0. -1.
          2   -1    0    0  501    0  0.00000000000E+00 -0.00000000000E+00 -0.14359038222E+04  0.14359038222E+04  0.00000000000E+00 0.  1.
         25    2    1    2    0    0  0.95586590726E+02 -0.50807674239E+02 -0.92097662884E+03  0.93571582602E+03  0.12509172676E+03 0.  0.
          5    1    3    3  502    0 -0.13046832854E+01  0.29771159108E+02 -0.33381151679E+03  0.33516507165E+03  0.41800000000E+01 0.  1.
         -5    1    3    3    0  502  0.96891274012E+02 -0.80578833347E+02 -0.58716511205E+03  0.60055075437E+03  0.41800000000E+01 0.  1.
        -11    1    1    2    0    0 -0.21214094908E+02  0.63419621044E+02 -0.28183508651E+03  0.28966032201E+03  0.00000000000E+00 0. -1.
         11    1    1    2    0    0 -0.74372495818E+02 -0.12611946805E+02 -0.21539636977E+03  0.22822341126E+03  0.00000000000E+00 0.  1.
</event>
<event>
 7    1  0.2594791E-009  0.9321278E+02  0.7561462E-02  0.1295253E+00
          1   -1    0    0  501    0  0.00000000000E+00  0.00000000000E+00  0.14852702882E+03  0.14852702882E+03  0.00000000000E+00 0. -1.
         -1   -1    0    0    0  501 -0.00000000000E+00 -0.00000000000E+00 -0.80281129672E+02  0.80281129672E+02  0.00000000000E+00 0.  1.
         25    2    1    2    0    0  0.17227026733E+01  0.26472861925E+01  0.22120008489E+02  0.12706820556E+03  0.12508820193E+03 0.  0.
          5    1    3    3  502    0  0.31311500642E+02  0.40907700050E+02  0.49302792133E+02  0.71428899669E+02  0.41800000000E+01 0. -1.
         -5    1    3    3    0  502 -0.29588797969E+02 -0.38260413857E+02 -0.27182783644E+02  0.55639305894E+02  0.41800000000E+01 0. -1.
        -11    1    1    2    0    0 -0.14774166056E+01  0.41759729261E+02  0.66279900607E+01  0.42308249787E+02  0.00000000000E+00 0.  1.
         11    1    1    2    0    0 -0.24528606774E+00 -0.44407015454E+02  0.39497900602E+02  0.59431703145E+02  0.00000000000E+00 0. -1.
</event>
<event>
 7    1  0.2594791E-009  0.1133076E+03  0.7561462E-02  0.1254565E+00
         -1   -1    0    0    0  501 -0.00000000000E+00  0.00000000000E+00  0.42111957805E+02  0.42111957805E+02  0.00000000000E+00 0.  1.
          1   -1    0    0  501    0  0.00000000000E+00 -0.00000000000E+00 -0.39878779307E+03  0.39878779307E+03  0.00000000000E+00 0. -1.
         25    2    1    2    0    0 -0.58605109664E+02 -0.42519233290E+02 -0.21702253885E+03  0.26074811273E+03  0.12509337251E+03 0.  0.
          5    1    3    3  502    0 -0.61741604669E+02  0.22181530964E+02 -0.53312653237E+02  0.84638983088E+02  0.41800000000E+01 0.  1.
         -5    1    3    3    0  502  0.31364950056E+01 -0.64700764254E+02 -0.16370988561E+03  0.17610912964E+03  0.41800000000E+01 0.  1.
        -11    1    1    2    0    0  0.97801593246E+01  0.45988885975E+02 -0.11723921690E+03  0.12631572796E+03  0.00000000000E+00 0. -1.
         11    1    1    2    0    0  0.48824950339E+02 -0.34696526843E+01 -0.22414079514E+02  0.53835910188E+02  0.00000000000E+00 0.  1.
</event>
<event>
 7    1  0.2594791E-009  0.1811697E+03  0.7561462E-02  0.1166676E+00
         -2   -1    0    0    0  501 -0.00000000000E+00  0.00000000000E+00  0.49853786070E+02  0.49853786070E+02  0.00000000000E+00 0.  1.
          2   -1    0    0  501    0  0.00000000000E+00 -0.00000000000E+00 -0.80016788816E+03  0.80016788816E+03  0.00000000000E+00 0. -1.
         25    2    1    2    0    0  0.16432050552E+03 -0.23041742076E+02 -0.43852772323E+03  0.48526891517E+03  0.12508879079E+03 0.  0.
          5    1    3    3  502    0  0.51801433492E+02 -0.56415575196E+02 -0.94284589759E+02  0.12154489665E+03  0.41800000000E+01 0. -1.
         -5    1    3    3    0  502  0.11251907202E+03  0.33373833120E+02 -0.34424313347E+03  0.36372401852E+03  0.41800000000E+01 0. -1.
        -11    1    1    2    0    0 -0.79289867784E+02 -0.27577527115E+01 -0.23250014518E+03  0.24566401007E+03  0.00000000000E+00 0. -1.
         11    1    1    2    0    0 -0.85030637732E+02  0.25799494787E+02 -0.79286233674E+02  0.11908874898E+03  0.00000000000E+00 0.  1.
</event>
<event>
 7    1  0.2594791E-009  0.1862971E+03  0.7561462E-02  0.1161844E+00
         -2   -1    0    0    0  501 -0.00000000000E+00  0.00000000000E+00  0.13711415470E+03  0.13711415470E+03  0.00000000000E+00 0.  1.
          2   -1    0    0  501    0  0.00000000000E+00 -0.00000000000E+00 -0.33157900359E+03  0.33157900359E+03  0.00000000000E+00 0. -1.
         25    2    1    2    0    0  0.10471424980E+02  0.16784057230E+03 -0.18554675503E+03  0.27991991996E+03  0.12508978710E+03 0.  0.
          5    1    3    3  502    0 -0.31027988919E+02  0.44795086075E+02 -0.12531689321E+03  0.13671551468E+03  0.41800000000E+01 0. -1.
         -5    1    3    3    0  502  0.41499413899E+02  0.12304548623E+03 -0.60229861824E+02  0.14320440528E+03  0.41800000000E+01 0. -1.
        -11    1    1    2    0    0 -0.46194752335E+02 -0.11782382381E+03 -0.12708367807E+02  0.12719241806E+03  0.00000000000E+00 0. -1.
         11    1    1    2    0    0  0.35723327354E+02 -0.50016748493E+02  0.37902739480E+01  0.61580820258E+02  0.00000000000E+00 0.  1.
</event>
<event>
 7    1  0.2594791E-009  0.1014948E+03  0.7561462E-02  0.1277184E+00
         -2   -1    0    0    0  501 -0.00000000000E+00  0.00000000000E+00  0.26326047742E+02  0.26326047742E+02  0.00000000000E+00 0.  1.
          2   -1    0    0  501    0  0.00000000000E+00 -0.00000000000E+00 -0.90340422958E+03  0.90340422958E+03  0.00000000000E+00 0. -1.
         25    2    1    2    0    0 -0.22616383637E+02 -0.97408990220E+02 -0.34585842551E+03  0.38113750829E+03  0.12509091712E+03 0.  0.
          5    1    3    3  502    0 -0.14569658531E+02 -0.44205929598E+02 -0.19986981171E+02  0.50827069340E+02  0.41800000000E+01 0.  1.
         -5    1    3    3    0  502 -0.80467251066E+01 -0.53203060621E+02 -0.32587144434E+03  0.33031043895E+03  0.41800000000E+01 0.  1.
        -11    1    1    2    0    0  0.99055791137E+01  0.10429900868E+02 -0.52252968713E+01  0.15303824917E+02  0.00000000000E+00 0.  1.
         11    1    1    2    0    0  0.12710804524E+02  0.86979089352E+02 -0.52599445945E+03  0.53328894411E+03  0.00000000000E+00 0. -1.
</event>
<event>
 7    1  0.2594791E-009  0.3747423E+03  0.7561462E-02  0.1052894E+00
          2   -1    0    0  501    0  0.00000000000E+00  0.00000000000E+00  0.38417149497E+03  0.38417149497E+03  0.00000000000E+00 0. -1.
         -2   -1    0    0    0  501 -0.00000000000E+00 -0.00000000000E+00 -0.42689178783E+03  0.42689178783E+03  0.00000000000E+00 0.  1.
         25    2    1    2    0    0  0.16946714629E+03 -0.33278310186E+03  0.90242943940E+02  0.40404849117E+03  0.12509071801E+03 0.  0.
          5    1    3    3  502    0  0.41469024532E+02 -0.46735473083E+02  0.64007185930E+02  0.89544830619E+02  0.41800000000E+01 0.  1.
         -5    1    3    3    0  502  0.12799812176E+03 -0.28604762878E+03  0.26235758010E+02  0.31450366055E+03  0.41800000000E+01 0.  1.
        -11    1    1    2    0    0 -0.12105329843E+03  0.24014302392E+03 -0.49937747585E+02  0.27352577874E+03  0.00000000000E+00 0.  1.
         11    1    1    2    0    0 -0.48413847860E+02  0.92640077935E+02 -0.83025489208E+02  0.13348901289E+03  0.00000000000E+00 0. -1.
</event>
<event>
 7    1  0.2594791E-009  0.3495456E+03  0.7561462E-02  0.1062802E+00
         -2   -1    0    0    0  501 -0.00000000000E+00  0.00000000000E+00  0.87700000765E+02  0.87700000765E+02  0.00000000000E+00 0.  1.
          2   -1    0    0  501    0  0.00000000000E+00 -0.00000000000E+00 -0.16162461465E+04  0.16162461465E+04  0.00000000000E+00 0. -1.
         25    2    1    2    0    0 -0.79721891346E+02 -0.33920072968E+03 -0.56586588181E+03  0.67621401525E+03  0.12509389769E+03 0.  0.
          5    1    3    3  502    0 -0.13316713041E+02 -0.51252615875E+02 -0.19439965301E+03  0.20152633320E+03  0.41800000000E+01 0.  1.
         -5    1    3    3    0  502 -0.66405178305E+02 -0.28794811380E+03 -0.37146622880E+03  0.47468768205E+03  0.41800000000E+01 0.  1.
        -11    1    1    2    0    0 -0.20321821430E+01  0.46178172758E+02 -0.22657380323E+03  0.23124065757E+03  0.00000000000E+00 0.  1.
         11    1    1    2    0    0  0.81754073489E+02  0.29302255692E+03 -0.73610646066E+03  0.79649147441E+03  0.00000000000E+00 0. -1.
</event>
<event>
 7    1  0.2594791E-009  0.9443325E+02  0.7561462E-02  0.1292458E+00
         -3   -1    0    0    0  501 -0.00000000000E+00  0.00000000000E+00  0.46803375481E+02  0.46803375481E+02  0.00000000000E+00 0.  1.
          3   -1    0    0  501    0  0.00000000000E+00 -0.00000000000E+00 -0.34573804579E+03  0.34573804579E+03  0.00000000000E+00 0. -1.
         25    2    1    2    0    0  0.63729930287E+02  0.99853667183E+01 -0.13944080415E+03  0.19812033887E+03  0.12508684683E+03 0.  0.
          5    1    3    3  502    0  0.49776729653E+02 -0.25702397156E+02 -0.29091792949E+01  0.56251860047E+02  0.41800000000E+01 0. -1.
         -5    1    3    3    0  502  0.13953200634E+02  0.35687763874E+02 -0.13653162486E+03  0.14186847883E+03  0.41800000000E+01 0. -1.
        -11    1    1    2    0    0 -0.99099444879E+00 -0.28665986331E+02 -0.86076950751E+01  0.29946840515E+02  0.00000000000E+00 0.  1.
         11    1    1    2    0    0 -0.62738935838E+02  0.18680619613E+02 -0.15088617108E+03  0.16447424188E+03  0.00000000000E+00 0. -1.
</event>
<event>
 7    1  0.2594791E-009  0.1231710E+03  0.7561462E-02  0.1237956E+00
         -1   -1    0    0    0  501 -0.00000000000E+00  0.00000000000E+00  0.50207375120E+02  0.50207375120E+02  0.00000000000E+00 0.  1.
          1   -1    0    0  501    0  0.00000000000E+00 -0.00000000000E+00 -0.42168434132E+03  0.42168434132E+03  0.00000000000E+00 0. -1.
         25    2    1    2    0    0  0.40420925995E+02 -0.72721354207E+02 -0.28082405977E+03  0.31848301574E+03  0.12508809756E+03 0.  0.
          5    1    3    3  502    0  0.26979280987E+02 -0.10756770719E+03 -0.22891024826E+03  0.25439352859E+03  0.41800000000E+01 0. -1.
         -5    1    3    3    0  502  0.13441645008E+02  0.34846352980E+02 -0.51913811512E+02  0.64089487143E+02  0.41800000000E+01 0. -1.
        -11    1    1    2    0    0 -0.52638072744E+02  0.63468246108E+02 -0.10425222248E+03  0.13291918920E+03  0.00000000000E+00 0. -1.
         11    1    1    2    0    0  0.12217146749E+02  0.92531080984E+01  0.13599316057E+02  0.20489511497E+02  0.00000000000E+00 0.  1.
</event>
<event>
 7    1  0.2594791E-009  0.8882572E+02  0.7561462E-02  0.1305721E+00
         -1   -1    0    0    0  501 -0.00000000000E+00  0.00000000000E+00  0.67597995979E+02  0.67597995979E+02  0.00000000000E+00 0.  1.
          1   -1    0    0  501    0  0.00000000000E+00 -0.00000000000E+00 -0.30899095139E+03  0.30899095139E+03  0.00000000000E+00 0. -1.
         25    2    1    2    0    0  0.27152224851E+02  0.40341204940E+02 -0.23742112288E+03  0.27272882384E+03  0.12509022995E+03 0.  0.
          5    1    3    3  502    0 -0.25883006129E+02  0.78882723724E+01 -0.19599666901E+03  0.19789977643E+03  0.41800000000E+01 0. -1.
         -5    1    3    3    0  502  0.53035230980E+02  0.32452932568E+02 -0.41424453873E+02  0.74829047408E+02  0.41800000000E+01 0. -1.
        -11    1    1    2    0    0 -0.79221031838E+01  0.21647838336E+02  0.23917854800E+02  0.33218254044E+02  0.00000000000E+00 0.  1.
         11    1    1    2    0    0 -0.19230121667E+02 -0.61989043277E+02 -0.27889687329E+02  0.70641869490E+02  0.00000000000E+00 0. -1.
</event>
<event>
 7    1  0.2594791E-009  0.1940522E+03  0.7561462E-02  0.1154856E+00
         -2   -1    0    0    0  501 -0.00000000000E+00  0.00000000000E+00  0.16684968235E+03  0.16684968235E+03  0.00000000000E+00 0.  1.
          2   -1    0    0  501    0  0.00000000000E+00 -0.00000000000E+00 -0.39783338794E+03  0.39783338794E+03  0.00000000000E+00 0. -1.
         25    2    1    2    0    0 -0.48703142309E+02  0.17782636549E+03  0.38447315220E+02  0.22609692594E+03  0.12508961403E+03 0.  0.
          5    1    3    3  502    0 -0.47464434477E+02  0.11668912302E+03 -0.34635070323E+02  0.13071451514E+03  0.41800000000E+01 0. -1.
         -5    1    3    3    0  502 -0.12387078313E+01  0.61137242472E+02  0.73082385543E+02  0.95382410804E+02  0.41800000000E+01 0. -1.
        -11    1    1    2    0    0  0.39226303409E+02 -0.22633858845E+02 -0.92869971923E+02  0.10332388945E+03  0.00000000000E+00 0.  1.
         11    1    1    2    0    0  0.94768389000E+01 -0.15519250665E+03 -0.17656104889E+03  0.23526225490E+03  0.00000000000E+00 0. -1.
</event>
<event>
 7    1  0.2594791E-009  0.1323189E+03  0.7561462E-02  0.1224055E+00
         -4   -1    0    0    0  501 -0.00000000000E+00  0.00000000000E+00  0.14843048861E+03  0.14843048861E+03  0.00000000000E+00 0.  1.
          4   -1    0    0  501    0  0.00000000000E+00 -0.00000000000E+00 -0.18156426882E+03  0.18156426882E+03  0.00000000000E+00 0. -1.
         25    2    1    2    0    0 -0.83595689021E+02 -0.30560442176E+02 -0.10280406971E+03  0.18476495151E+03  0.12508889122E+03 0.  0.
          5    1    3    3  502    0  0.95080824884E+01 -0.46839757438E+02 -0.69528293692E+02  0.84474981700E+02  0.41800000000E+01 0.  1.
         -5    1    3    3    0  502 -0.93103771509E+02  0.16279315262E+02 -0.33275776022E+02  0.10028996981E+03  0.41800000000E+01 0.  1.
        -11    1    1    2    0    0  0.45903819603E+02  0.59057574588E+02  0.62423711208E+02  0.97425240525E+02  0.00000000000E+00 0. -1.
         11    1    1    2    0    0  0.37691869418E+02 -0.28497132412E+02  0.72465782942E+01  0.47804565398E+02  0.00000000000E+00 0.  1.
</event>
<event>
 7    1  0.2594791E-009  0.1420317E+03  0.7561462E-02  0.1210621E+00
          2   -1    0    0  501    0  0.00000000000E+00  0.00000000000E+00  0.30261000150E+03  0.30261000150E+03  0.00000000000E+00 0. -1.
         -2   -1    0    0    0  501 -0.00000000000E+00 -0.00000000000E+00 -0.79250973179E+02  0.79250973179E+02  0.00000000000E+00 0.  1.
         25    2    1    2    0    0  0.25785155221E+02  0.98544582925E+02  0.70512634205E+02  0.17605146712E+03  0.12508468507E+03 0.  0.
          5    1    3    3  502    0 -0.36108190088E+02  0.68041656015E+02 -0.22816995763E+00  0.77142678241E+02  0.41800000000E+01 0. -1.
         -5    1    3    3    0  502  0.61893345308E+02  0.30502926910E+02  0.70740804163E+02  0.98908788877E+02  0.41800000000E+01 0. -1.
        -11    1    1    2    0    0  0.26294582285E+02 -0.77118363986E+02  0.88214354492E+02  0.12008505094E+03  0.00000000000E+00 0.  1.
         11    1    1    2    0    0 -0.52079737505E+02 -0.21426218939E+02  0.64632039627E+02  0.85724456621E+02  0.00000000000E+00 0. -1.
</event>
<event>
 7    1  0.2594791E-009  0.1018628E+03  0.7561462E-02  0.1276427E+00
         -2   -1    0    0    0  501 -0.00000000000E+00  0.00000000000E+00  0.49048747078E+02  0.49048747078E+02  0.00000000000E+00 0.  1.
          2   -1    0    0  501    0  0.00000000000E+00 -0.00000000000E+00 -0.24967759441E+03  0.24967759441E+03  0.00000000000E+00 0. -1.
         25    2    1    2    0    0  0.60174138280E+01 -0.12221522168E+02 -0.14041746265E+03  0.18854782171E+03  0.12509053673E+03 0.  0.
          5    1    3    3  502    0 -0.12205653748E+02  0.54369273257E+02 -0.52383507758E+02  0.76593081561E+02  0.41800000000E+01 0. -1.
         -5    1    3    3    0  502  0.18223067576E+02 -0.66590795425E+02 -0.88033954894E+02  0.11195474015E+03  0.41800000000E+01 0. -1.
        -11    1    1    2    0    0  0.75257229864E+01 -0.31771375260E+02  0.20898434560E+01  0.32717338493E+02  0.00000000000E+00 0.  1.
         11    1    1    2    0    0 -0.13543136814E+02  0.43992897429E+02 -0.62301228135E+02  0.77461181285E+02  0.00000000000E+00 0. -1.
</event>
<event>
 7    1  0.2594791E-009  0.1641136E+03  0.7561462E-02  0.1184129E+00
         -1   -1    0    0    0  501 -0.00000000000E+00  0.00000000000E+00  0.46633062659E+03  0.46633062659E+03  0.00000000000E+00 0.  1.
          1   -1    0    0  501    0  0.00000000000E+00 -0.00000000000E+00 -0.70751345231E+02  0.70751345231E+02  0.00000000000E+00 0. -1.
         25    2    1    2    0    0 -0.15634606342E+02  0.14249306202E+03  0.24186150006E+03  0.30772264908E+03  0.12509008718E+03 0.  0.
          5    1    3    3  502    0 -0.28388742446E+02 -0.10588458253E+02  0.15933928600E+02  0.34487659046E+02  0.41800000000E+01 0.  1.
         -5    1    3    3    0  502  0.12754136104E+02  0.15308152027E+03  0.22592757146E+03  0.27323499004E+03  0.41800000000E+01 0.  1.
        -11    1    1    2    0    0  0.64169447754E+01 -0.11027440360E+03  0.16082187321E+03  0.19510329616E+03  0.00000000000E+00 0.  1.
         11    1    1    2    0    0  0.92176615664E+01 -0.32218658417E+02 -0.71040919118E+01  0.34256026577E+02  0.00000000000E+00 0. -1.
</event>
<event>
 7    1  0.2594791E-009  0.2126693E+03  0.7561462E-02  0.1139469E+00
         -2   -1    0    0    0  501 -0.00000000000E+00  0.00000000000E+00  0.52252725569E+02  0.52252725569E+02  0.00000000000E+00 0.  1.
          2   -1    0    0  501    0  0.00000000000E+00 -0.00000000000E+00 -0.13568470845E+04  0.13568470845E+04  0.00000000000E+00 0. -1.
         25    2    1    2    0    0 -0.20552966973E+03 -0.18288162475E+02 -0.32103761690E+03  0.40161347592E+03  0.12510527785E+03 0.  0.
          5    1    3    3  502    0 -0.10672336743E+02 -0.89349157897E+01 -0.12207571644E+03  0.12293772585E+03  0.41800000000E+01 0.  1.
         -5    1    3    3    0  502 -0.19485733299E+03 -0.93532466853E+01 -0.19896190046E+03  0.27867575007E+03  0.41800000000E+01 0.  1.
        -11    1    1    2    0    0  0.10164756898E+03 -0.22445869824E+02 -0.55255186353E+03  0.56227182683E+03  0.00000000000E+00 0. -1.
         11    1    1    2    0    0  0.10388210075E+03  0.40734032299E+02 -0.43100487849E+03  0.44521450732E+03  0.00000000000E+00 0.  1.
</event>
<event>
 7    1  0.2700331E-009  0.1728437E+03  0.7561462E-02  0.1174914E+00
          2   -1    0    0  501    0  0.00000000000E+00  0.00000000000E+00  0.67019445656E+03  0.67019445656E+03  0.00000000000E+00 0. -1.
         -2   -1    0    0    0  501 -0.00000000000E+00 -0.00000000000E+00 -0.60333772038E+02  0.60333772038E+02  0.00000000000E+00 0.  1.
         25    2    1    2    0    0  0.58007604891E+02 -0.15096005490E+03  0.40787167113E+03  0.45624701459E+03  0.12509283675E+03 0.  0.
          5    1    3    3  502    0  0.90266034950E+01 -0.48815846453E+02  0.22711357552E+02  0.54751662965E+02  0.41800000000E+01 0. -1.
         -5    1    3    3    0  502  0.48981001396E+02 -0.10214420844E+03  0.38516031358E+03  0.40149535162E+03  0.41800000000E+01 0. -1.
        -11    1    1    2    0    0 -0.59216897026E+02  0.39812338349E+02  0.10385422966E+03  0.12600541336E+03  0.00000000000E+00 0. -1.
         11    1    1    2    0    0  0.12092921352E+01  0.11114771655E+03  0.98134783735E+02  0.14827580065E+03  0.00000000000E+00 0.  1.
</event>
<event>
 7    1  0.2594791E-009  0.9473933E+02  0.7561462E-02  0.1291764E+00
          1   -1    0    0  501    0  0.00000000000E+00  0.00000000000E+00  0.58465617052E+02  0.58465617052E+02  0.00000000000E+00 0. -1.
         -1   -1    0    0    0  501 -0.00000000000E+00 -0.00000000000E+00 -0.24802833010E+03  0.24802833010E+03  0.00000000000E+00 0.  1.
         25    2    1    2    0    0  0.40225919508E+02  0.33675755088E+02 -0.10675146837E+03  0.17261249827E+03  0.12508803891E+03 0.  0.
          5    1    3    3  502    0  0.65161787389E+02  0.36824478497E+02 -0.12180067195E+03  0.14302089652E+03  0.41800000000E+01 0. -1.
         -5    1    3    3    0  502 -0.24935867881E+02 -0.31487234092E+01  0.15049203579E+02  0.29591601756E+02  0.41800000000E+01 0. -1.
        -11    1    1    2    0    0  0.21086469656E+02 -0.95336324312E+01 -0.59739093499E+02  0.64064722289E+02  0.00000000000E+00 0.  1.
         11    1    1    2    0    0 -0.61312389164E+02 -0.24142122657E+02 -0.23072151171E+02  0.69816726585E+02  0.00000000000E+00 0. -1.
</event>
<event>
 7    1  0.2594791E-009  0.1366818E+03  0.7561462E-02  0.1217865E+00
          2   -1    0    0  501    0  0.00000000000E+00  0.00000000000E+00  0.17959747936E+03  0.17959747936E+03  0.00000000000E+00 0. -1.
         -2   -1    0    0    0  501 -0.00000000000E+00 -0.00000000000E+00 -0.15504591155E+03  0.15504591155E+03  0.00000000000E+00 0.  1.
         25    2    1    2    0    0 -0.71510392303E+02 -0.66093652988E+02  0.93512029977E+02  0.18405412786E+03  0.12509722243E+03 0.  0.
          5    1    3    3  502    0  0.24607026067E+02 -0.24247461859E+02 -0.10471020645E+02  0.36339507589E+02  0.41800000000E+01 0. -1.
         -5    1    3    3    0  502 -0.96117418370E+02 -0.41846191129E+02  0.10398305062E+03  0.14771462027E+03  0.41800000000E+01 0. -1.
        -11    1    1    2    0    0  0.93297273887E+02  0.46037248042E+02 -0.50022734514E+02  0.11543865683E+03  0.00000000000E+00 0.  1.
         11    1    1    2    0    0 -0.21786881584E+02  0.20056404946E+02 -0.18937727654E+02  0.35150606214E+02  0.00000000000E+00 0. -1.
</event>
<event>
 7    1  0.2594791E-009  0.1291396E+03  0.7561462E-02  0.1228738E+00
         -1   -1    0    0    0  501 -0.00000000000E+00  0.00000000000E+00  0.58456463556E+02  0.58456463556E+02  0.00000000000E+00 0.  1.
          1   -1    0    0  501    0  0.00000000000E+00 -0.00000000000E+00 -0.30398161653E+03  0.30398161653E+03  0.00000000000E+00 0. -1.
         25    2    1    2    0    0  0.32977782270E+02 -0.64096487946E+02 -0.96077972304E+02  0.17342280275E+03  0.12509435583E+03 0.  0.
          5    1    3    3  502    0 -0.38199708978E+02 -0.60462908435E+02 -0.36323797355E+02  0.80323543975E+02  0.41800000000E+01 0. -1.
         -5    1    3    3    0  502  0.71177491249E+02 -0.36335795113E+01 -0.59754174949E+02  0.93099258775E+02  0.41800000000E+01 0. -1.
        -11    1    1    2    0    0 -0.40512266708E+02 -0.92154881256E+01 -0.62308868027E+02  0.74890346575E+02  0.00000000000E+00 0.  1.
         11    1    1    2    0    0  0.75344844379E+01  0.73311976072E+02 -0.87138312643E+02  0.11412493076E+03  0.00000000000E+00 0. -1.
</event>
<event>
 7    1  0.2594791E-009  0.7329191E+02  0.7561462E-02  0.1349244E+00
          1   -1    0    0  501    0  0.00000000000E+00  0.00000000000E+00  0.16696317869E+03  0.16696317869E+03  0.00000000000E+00 0. -1.
         -1   -1    0    0    0  501 -0.00000000000E+00 -0.00000000000E+00 -0.74504574534E+02  0.74504574534E+02  0.00000000000E+00 0.  1.
         25    2    1    2    0    0 -0.19435042807E+02 -0.10050285850E+02  0.35516906140E+02  0.13186219402E+03  0.12508980156E+03 0.  0.
          5    1    3    3  502    0 -0.55315128577E+02 -0.18279504051E+02 -0.22860199893E+02  0.62721326971E+02  0.41800000000E+01 0.  1.
         -5    1    3    3    0  502  0.35880085771E+02  0.82292182015E+01  0.58377106034E+02  0.69140867047E+02  0.41800000000E+01 0.  1.
        -11    1    1    2    0    0 -0.14355509808E+02  0.97195765433E+01 -0.19461258281E+02  0.26063219369E+02  0.00000000000E+00 0.  1.
         11    1    1    2    0    0  0.33790552615E+02  0.33070930645E+00  0.76402956292E+02  0.83542339833E+02  0.00000000000E+00 0. -1.
</event>
<event>
 7    1  0.2594791E-009  0.2084137E+03  0.7561462E-02  0.1142828E+00
          1   -1    0    0  501    0  0.00000000000E+00  0.00000000000E+00  0.10888621230E+04  0.10888621230E+04  0.00000000000E+00 0. -1.
         -1   -1    0    0    0  501 -0.00000000000E+00 -0.00000000000E+00 -0.45532513614E+02  0.45532513614E+02  0.00000000000E+00 0.  1.
         25    2    1    2    0    0 -0.44481609186E+02  0.18972896951E+03  0.53256889022E+03  0.58073193283E+03  0.12507701449E+03 0.  0.
          5    1    3    3  502    0  0.19014079533E+02  0.13782328895E+03  0.24621171233E+03  0.28283294343E+03  0.41800000000E+01 0.  1.
         -5    1    3    3    0  502 -0.63495688719E+02  0.51905680558E+02  0.28635717789E+03  0.29789898940E+03  0.41800000000E+01 0.  1.
        -11    1    1    2    0    0  0.35179798670E+02 -0.11636526932E+03  0.41636396945E+03  0.43374814027E+03  0.00000000000E+00 0. -1.
         11    1    1    2    0    0  0.93018105160E+01 -0.73363700197E+02  0.94396749755E+02  0.11991456354E+03  0.00000000000E+00 0.  1.
</event>
<event>
 7    1  0.2594791E-009  0.1004724E+03  0.7561462E-02  0.1279306E+00
          2   -1    0    0  501    0  0.00000000000E+00  0.00000000000E+00  0.16212067222E+04  0.16212067222E+04  0.00000000000E+00 0. -1.
         -2   -1    0    0    0  501 -0.00000000000E+00 -0.00000000000E+00 -0.10714182534E+02  0.10714182534E+02  0.00000000000E+00 0.  1.
         25    2    1    2    0    0 -0.75416130134E+02  0.20379394380E+02  0.10458289939E+04  0.10561762805E+04  0.12508852303E+03 0.  0.
          5    1    3    3  502    0 -0.16988810075E+02  0.27391002995E+02  0.87206892971E+03  0.87267438216E+03  0.41800000000E+01 0. -1.
         -5    1    3    3    0  502 -0.58427320059E+02 -0.70116086145E+01  0.17376006421E+03  0.18350189835E+03  0.41800000000E+01 0. -1.
        -11    1    1    2    0    0  0.19052536114E+01 -0.34534468063E+02  0.12252078418E+03  0.12730908072E+03  0.00000000000E+00 0.  1.
         11    1    1    2    0    0  0.73510876522E+02  0.14155073683E+02  0.44214276156E+03  0.44843554350E+03  0.00000000000E+00 0. -1.
</event>
<event>
 7    1  0.2594791E-009  0.1208692E+03  0.7561462E-02  0.1241670E+00
          2   -1    0    0  501    0  0.00000000000E+00  0.00000000000E+00  0.10822345039E+03  0.10822345039E+03  0.00000000000E+00 0. -1.
         -2   -1    0    0    0  501 -0.00000000000E+00 -0.00000000000E+00 -0.16779006957E+03  0.16779006957E+03  0.00000000000E+00 0.  1.
         25    2    1    2    0    0 -0.74422620536E+02  0.15925613334E+02 -0.57095284529E+02  0.15715894606E+03  0.12508681466E+03 0.  0.
          5    1    3    3  502    0  0.24422075259E+02 -0.19654314742E+02 -0.39433963056E+02  0.50549378733E+02  0.41800000000E+01 0. -1.
         -5    1    3    3    0  502 -0.98844695795E+02  0.35579928076E+02 -0.17661321472E+02  0.10660956732E+03  0.41800000000E+01 0. -1.
        -11    1    1    2    0    0  0.87440818233E+02 -0.43390939345E+01  0.20601406132E+02  0.89939659573E+02  0.00000000000E+00 0. -1.
         11    1    1    2    0    0 -0.13018197698E+02 -0.11586519399E+02 -0.23072740792E+02  0.28914914330E+02  0.00000000000E+00 0.  1.
</event>
<event>
 7    1  0.2594791E-009  0.1087745E+03  0.7561462E-02  0.1262856E+00
         -2   -1    0    0    0  501 -0.00000000000E+00  0.00000000000E+00  0.14959240790E+02  0.14959240790E+02  0.00000000000E+00 0.  1.
          2   -1    0    0  501    0  0.00000000000E+00 -0.00000000000E+00 -0.80640063519E+03  0.80640063519E+03  0.00000000000E+00 0. -1.
         25    2    1    2    0    0 -0.29498223387E+02  0.28421342074E+02 -0.48472059358E+03  0.50227473950E+03  0.12509173527E+03 0.  0.
          5    1    3    3  502    0  0.17867986839E+02 -0.42420963779E+02 -0.16169883064E+03  0.16817487135E+03  0.41800000000E+01 0. -1.
         -5    1    3    3    0  502 -0.47366210226E+02  0.70842305853E+02 -0.32302176294E+03  0.33409986815E+03  0.41800000000E+01 0. -1.
        -11    1    1    2    0    0  0.54884249372E+02 -0.13346708179E+02 -0.23116340001E+03  0.23796414215E+03  0.00000000000E+00 0. -1.
         11    1    1    2    0    0 -0.25386025985E+02 -0.15074633895E+02 -0.75557400813E+02  0.81120994323E+02  0.00000000000E+00 0.  1.
</event>
<event>
 7    1  0.2594791E-009  0.1089168E+03  0.7561462E-02  0.1262589E+00
          1   -1    0    0  501    0  0.00000000000E+00  0.00000000000E+00  0.69193769859E+02  0.69193769859E+02  0.00000000000E+00 0. -1.
         -1   -1    0    0    0  501 -0.00000000000E+00 -0.00000000000E+00 -0.29208697583E+03  0.29208697583E+03  0.00000000000E+00 0.  1.
         25    2    1    2    0    0 -0.17456119333E+02  0.80164168634E+02 -0.67028881865E+02  0.16392516886E+03  0.12509028718E+03 0.  0.
          5    1    3    3  502    0  0.22406948810E+02  0.36961073215E+02  0.28313548886E+02  0.51839384050E+02  0.41800000000E+01 0.  1.
         -5    1    3    3    0  502 -0.39863068143E+02  0.43203095419E+02 -0.95342430751E+02  0.11208578481E+03  0.41800000000E+01 0.  1.
        -11    1    1    2    0    0 -0.30722627672E+02 -0.49842924233E+02 -0.10854901050E+03  0.12333322597E+03  0.00000000000E+00 0. -1.
         11    1    1    2    0    0  0.48178747005E+02 -0.30321244400E+02 -0.47315313604E+02  0.74022350857E+02  0.00000000000E+00 0.  1.
</event>
<event>
 7    1  0.2594791E-009  0.1677683E+03  0.7561462E-02  0.1180195E+00
         -1   -1    0    0    0  501 -0.00000000000E+00  0.00000000000E+00  0.10815491949E+04  0.10815491949E+04  0.00000000000E+00 0.  1.
          1   -1    0    0  501    0  0.00000000000E+00 -0.00000000000E+00 -0.34341863077E+02  0.34341863077E+02  0.00000000000E+00 0. -1.
         25    2    1    2    0    0 -0.12613662123E+03  0.86216954364E+02  0.68648686834E+03  0.71431983167E+03  0.12507913926E+03 0.  0.
          5    1    3    3  502    0 -0.57208485214E+02  0.83917599726E+02  0.21524374207E+03  0.23803847426E+03  0.41800000000E+01 0. -1.
         -5    1    3    3    0  502 -0.68928136014E+02  0.22993546384E+01  0.47124312627E+03  0.47628135742E+03  0.41800000000E+01 0. -1.
        -11    1    1    2    0    0  0.90538078712E+02 -0.91598228196E+02  0.20784598530E+03  0.24451448364E+03  0.00000000000E+00 0. -1.
         11    1    1    2    0    0  0.35598542516E+02  0.53812738317E+01  0.15287447818E+03  0.15705674266E+03  0.00000000000E+00 0.  1.
</event>
<event>
 7    1  0.2594791E-009  0.1778392E+03  0.7561462E-02  0.1169911E+00
          1   -1    0    0  501    0  0.00000000000E+00  0.00000000000E+00  0.36752163471E+02  0.36752163471E+02  0.00000000000E+00 0. -1.
         -1   -1    0    0    0  501 -0.00000000000E+00 -0.00000000000E+00 -0.10633539026E+04  0.10633539026E+04  0.00000000000E+00 0.  1.
         25    2    1    2    0    0  0.16236573295E+03 -0.45739140472E+02 -0.56062413805E+03  0.59866656605E+03  0.12509009927E+03 0.  0.
          5    1    3    3  502    0  0.15063390300E+03 -0.32119345936E+02 -0.29873913673E+03  0.33613207126E+03  0.41800000000E+01 0.  1.
         -5    1    3    3    0  502  0.11731829947E+02 -0.13619794536E+02 -0.26188500132E+03  0.26253449479E+03  0.41800000000E+01 0.  1.
        -11    1    1    2    0    0 -0.55123957797E+02  0.51920965668E+02 -0.15670336087E+03  0.17404131897E+03  0.00000000000E+00 0.  1.
         11    1    1    2    0    0 -0.10724177515E+03 -0.61818251962E+01 -0.30927424021E+03  0.32739818106E+03  0.00000000000E+00 0. -1.
</event>
<event>
 7    1  0.2594791E-009  0.1223306E+03  0.7561462E-02  0.1239301E+00
         -2   -1    0    0    0  501 -0.00000000000E+00  0.00000000000E+00  0.25408409245E+02  0.25408409245E+02  0.00000000000E+00 0.  1.
          2   -1    0    0  501    0  0.00000000000E+00 -0.00000000000E+00 -0.63209415507E+03  0.63209415507E+03  0.00000000000E+00 0. -1.
         25    2    1    2    0    0 -0.59279490925E+02  0.24953156980E+02 -0.32619806876E+03  0.35523154983E+03  0.12509019085E+03 0.  0.
          5    1    3    3  502    0 -0.70371760524E+02  0.61533935144E+02 -0.27944821013E+03  0.29469880284E+03  0.41800000000E+01 0. -1.
         -5    1    3    3    0  502  0.11092269599E+02 -0.36580778164E+02 -0.46749858635E+02  0.60532746992E+02  0.41800000000E+01 0. -1.
        -11    1    1    2    0    0 -0.18679234867E+02  0.15980249180E+02 -0.58123664846E+02  0.63108181674E+02  0.00000000000E+00 0.  1.
         11    1    1    2    0    0  0.77958725792E+02 -0.40933406160E+02 -0.22236401222E+03  0.23916283281E+03  0.00000000000E+00 0. -1.
</event>
<event>
 7    1  0.2594791E-009  0.1042305E+03  0.7561462E-02  0.1271643E+00
          1   -1    0    0  501    0  0.00000000000E+00  0.00000000000E+00  0.23726884860E+03  0.23726884860E+03  0.00000000000E+00 0. -1.
         -1   -1    0    0    0  501 -0.00000000000E+00 -0.00000000000E+00 -0.56340368257E+02  0.56340368257E+02  0.00000000000E+00 0.  1.
         25    2    1    2    0    0  0.12311514708E+02 -0.29421123602E+02  0.65164096615E+02  0.14460700519E+03  0.12509056940E+03 0.  0.
          5    1    3    3  502    0  0.16802830896E+02  0.45674510628E+02  0.68361092503E+01  0.49322417184E+02  0.41800000000E+01 0.  1.
         -5    1    3    3    0  502 -0.44913161878E+01 -0.75095634230E+02  0.58327987365E+02  0.95284588006E+02  0.41800000000E+01 0.  1.
        -11    1    1    2    0    0 -0.18178033736E+02 -0.24233940241E+02  0.13081654900E+02  0.32997794851E+02  0.00000000000E+00 0.  1.
         11    1    1    2    0    0  0.58665190284E+01  0.53655063843E+02  0.10268272883E+03  0.11600441682E+03  0.00000000000E+00 0. -1.
</event>
<event>
 7    1  0.2594791E-009  0.1488667E+03  0.7561462E-02  0.1201872E+00
         -1   -1    0    0    0  501 -0.00000000000E+00  0.00000000000E+00  0.14550017752E+03  0.14550017752E+03  0.00000000000E+00 0.  1.
          1   -1    0    0  501    0  0.00000000000E+00 -0.00000000000E+00 -0.19551784178E+03  0.19551784178E+03  0.00000000000E+00 0. -1.
         25    2    1    2    0    0 -0.48638394121E+02 -0.10029476866E+03 -0.92663251441E+02  0.19146450171E+03  0.12508974077E+03 0.  0.
          5    1    3    3  502    0 -0.81654255629E+02 -0.10176555563E+03 -0.88906594234E+02  0.15794144698E+03  0.41800000000E+01 0. -1.
         -5    1    3    3    0  502  0.33015861508E+02  0.14707869684E+01 -0.37566572064E+01  0.33523054736E+02  0.41800000000E+01 0. -1.
        -11    1    1    2    0    0  0.44722772830E+02  0.13106387056E+02  0.41294681178E+02  0.62266800824E+02  0.00000000000E+00 0. -1.
         11    1    1    2    0    0  0.39156212908E+01  0.87188381607E+02  0.13509060007E+01  0.87286716769E+02  0.00000000000E+00 0.  1.
</event>
<event>
 7    1  0.2594791E-009  0.1508243E+03  0.7561462E-02  0.1199464E+00
          2   -1    0    0  501    0  0.00000000000E+00  0.00000000000E+00  0.39178678349E+03  0.39178678349E+03  0.00000000000E+00 0.  1.
         -2   -1    0    0    0  501 -0.00000000000E+00 -0.00000000000E+00 -0.11928769551E+03  0.11928769551E+03  0.00000000000E+00 0. -1.
         25    2    1    2    0    0  0.44438314699E+02 -0.14338930103E+03  0.10157672863E+02  0.19566815703E+03  0.12509034293E+03 0.  0.
          5    1    3    3  502    0  0.43653746302E+02 -0.12372401247E+03 -0.43561052061E+02  0.13830516435E+03  0.41800000000E+01 0.  1.
         -5    1    3    3    0  502  0.78456839687E+00 -0.19665288557E+02  0.53718724924E+02  0.57362992679E+02  0.41800000000E+01 0.  1.
        -11    1    1    2    0    0 -0.29623736651E+02  0.10549853744E+03  0.24988961327E+03  0.27285953529E+03  0.00000000000E+00 0.  1.
         11    1    1    2    0    0 -0.14814578048E+02  0.37890763587E+02  0.12451801853E+02  0.42546786687E+02  0.00000000000E+00 0. -1.
</event>
<event>
 7    1  0.2594791E-009  0.8585220E+02  0.7561462E-02  0.1313219E+00
          2   -1    0    0  501    0  0.00000000000E+00  0.00000000000E+00  0.31862441542E+02  0.31862441542E+02  0.00000000000E+00 0. -1.
         -2   -1    0    0    0  501 -0.00000000000E+00 -0.00000000000E+00 -0.46677470052E+03  0.46677470052E+03  0.00000000000E+00 0.  1.
         25    2    1    2    0    0 -0.17058010348E+02 -0.53641512953E+02 -0.22300999079E+03  0.26181835705E+03  0.12508800291E+03 0.  0.
          5    1    3    3  502    0  0.14342676709E+02 -0.17071599246E+02 -0.21066923803E+03  0.21188712119E+03  0.41800000000E+01 0.  1.
         -5    1    3    3    0  502 -0.31400687057E+02 -0.36569913708E+02 -0.12340752761E+02  0.49931235865E+02  0.41800000000E+01 0.  1.
        -11    1    1    2    0    0  0.44289047327E+02  0.45804960416E+01 -0.13101764220E+03  0.13837674380E+03  0.00000000000E+00 0.  1.
         11    1    1    2    0    0 -0.27231036978E+02  0.49061016912E+02 -0.80884625992E+02  0.98442041208E+02  0.00000000000E+00 0. -1.
</event>
<event>
 7    1  0.2594791E-009  0.1927572E+03  0.7561462E-02  0.1155998E+00
         -1   -1    0    0    0  501 -0.00000000000E+00  0.00000000000E+00  0.81963324453E+02  0.81963324453E+02  0.00000000000E+00 0.  1.
          1   -1    0    0  501    0  0.00000000000E+00 -0.00000000000E+00 -0.48364526086E+03  0.48364526086E+03  0.00000000000E+00 0. -1.
         25    2    1    2    0    0 -0.98019404536E+02 -0.12621490985E+03 -0.27944881294E+03  0.34536107017E+03  0.12507846578E+03 0.  0.
          5    1    3    3  502    0 -0.21376982615E+02  0.24763847165E+02 -0.36386351613E+02  0.49108680453E+02  0.41800000000E+01 0.  1.
         -5    1    3    3    0  502 -0.76642421921E+02 -0.15097875702E+03 -0.24306246133E+03  0.29625238972E+03  0.41800000000E+01 0.  1.
        -11    1    1    2    0    0  0.97936840774E+02  0.55737139146E+02 -0.72652808480E+02  0.13407715704E+03  0.00000000000E+00 0. -1.
         11    1    1    2    0    0  0.82563762092E-01  0.70477770705E+02 -0.49580314987E+02  0.86170358097E+02  0.00000000000E+00 0.  1.
</event>
<event>
 7    1  0.2594791E-009  0.1153427E+03  0.7561462E-02  0.1250984E+00
         -2   -1    0    0    0  501 -0.00000000000E+00  0.00000000000E+00  0.35787625811E+02  0.35787625811E+02  0.00000000000E+00 0.  1.
          2   -1    0    0  501    0  0.00000000000E+00 -0.00000000000E+00 -0.62527358996E+03  0.62527358996E+03  0.00000000000E+00 0. -1.
         25    2    1    2    0    0  0.19788184246E+02 -0.80519300227E+02 -0.44667842250E+03  0.47121540888E+03  0.12508964185E+03 0.  0.
          5    1    3    3  502    0 -0.34539562080E+02 -0.77698927657E+02 -0.34998581275E+03  0.36019112459E+03  0.41800000000E+01 0. -1.
         -5    1    3    3    0  502  0.54327746326E+02 -0.28203725692E+01 -0.96692609747E+02  0.11102428429E+03  0.41800000000E+01 0. -1.
        -11    1    1    2    0    0  0.11292911827E+02  0.22153413993E+02  0.72193516724E+01  0.25892521075E+02  0.00000000000E+00 0.  1.
         11    1    1    2    0    0 -0.31081096072E+02  0.58365886234E+02 -0.15002689333E+03  0.16395328582E+03  0.00000000000E+00 0. -1.
</event>
<event>
 7    1  0.2594791E-009  0.1006733E+03  0.7561462E-02  0.1278886E+00
         -2   -1    0    0    0  501 -0.00000000000E+00  0.00000000000E+00  0.20761890242E+02  0.20761890242E+02  0.00000000000E+00 0.  1.
          2   -1    0    0  501    0  0.00000000000E+00 -0.00000000000E+00 -0.69456634647E+03  0.69456634647E+03  0.00000000000E+00 0. -1.
         25    2    1    2    0    0  0.45113301784E+02 -0.34452263003E+01 -0.45625133333E+03  0.47524663626E+03  0.12508799516E+03 0.  0.
          5    1    3    3  502    0 -0.33675057633E+02 -0.31196194917E+01 -0.44738609029E+02  0.56238394983E+02  0.41800000000E+01 0. -1.
         -5    1    3    3    0  502  0.78788359417E+02 -0.32560680862E+00 -0.41151272430E+03  0.41900824128E+03  0.41800000000E+01 0. -1.
        -11    1    1    2    0    0 -0.33991282378E+02  0.38638100528E+02 -0.63838225454E+02  0.81997738501E+02  0.00000000000E+00 0.  1.
         11    1    1    2    0    0 -0.11122019406E+02 -0.35192874228E+02 -0.15371489745E+03  0.15808386195E+03  0.00000000000E+00 0. -1.
</event>
<event>
 7    1  0.2594791E-009  0.6493071E+02  0.7561462E-02  0.1378232E+00
          2   -1    0    0  501    0  0.00000000000E+00  0.00000000000E+00  0.17740237685E+03  0.17740237685E+03  0.00000000000E+00 0. -1.
         -2   -1    0    0    0  501 -0.00000000000E+00 -0.00000000000E+00 -0.73712864460E+02  0.73712864460E+02  0.00000000000E+00 0.  1.
         25    2    1    2    0    0  0.11738294953E+02  0.38464330859E+00  0.87125125368E+02  0.15289184559E+03  0.12508874233E+03 0.  0.
          5    1    3    3  502    0  0.80968056860E+01  0.15397666932E+02 -0.29863828023E+02  0.34813316898E+02  0.41800000000E+01 0.  1.
         -5    1    3    3    0  502  0.36414892669E+01 -0.15013023623E+02  0.11698895339E+03  0.11807852869E+03  0.41800000000E+01 0.  1.
        -11    1    1    2    0    0  0.40781013662E+02 -0.11313689277E+02  0.86960591156E+00  0.42330212081E+02  0.00000000000E+00 0.  1.
         11    1    1    2    0    0 -0.52519308615E+02  0.10929045968E+02  0.15694781108E+02  0.55893183638E+02  0.00000000000E+00 0. -1.
</event>
<event>
 7    1  0.2665688E-009  0.1574925E+03  0.7561462E-02  0.1191557E+00
         -2   -1    0    0    0  501 -0.00000000000E+00  0.00000000000E+00  0.73589074188E+02  0.73589074188E+02  0.00000000000E+00 0.  1.
          2   -1    0    0  501    0  0.00000000000E+00 -0.00000000000E+00 -0.37034936529E+03  0.37034936529E+03  0.00000000000E+00 0. -1.
         25    2    1    2    0    0  0.52902649372E+02  0.10474899983E+03 -0.10423719659E+03  0.20071105747E+03  0.12509393335E+03 0.  0.
          5    1    3    3  502    0  0.77359873180E+02  0.15706974840E+02 -0.45947288354E+02  0.91432405328E+02  0.41800000000E+01 0.  1.
         -5    1    3    3    0  502 -0.24457223808E+02  0.89042024993E+02 -0.58289908233E+02  0.10927865214E+03  0.41800000000E+01 0.  1.
        -11    1    1    2    0    0 -0.74850293146E+02 -0.70502071110E+02 -0.16391865925E+03  0.19350047872E+03  0.00000000000E+00 0. -1.
         11    1    1    2    0    0  0.21947643774E+02 -0.34246928723E+02 -0.28604435265E+02  0.49726903292E+02  0.00000000000E+00 0.  1.
</event>
<event>
 7    1  0.2594791E-009  0.1387422E+03  0.7561462E-02  0.1215032E+00
          1   -1    0    0  501    0  0.00000000000E+00  0.00000000000E+00  0.15007782128E+04  0.15007782128E+04  0.00000000000E+00 0. -1.
         -1   -1    0    0    0  501 -0.00000000000E+00 -0.00000000000E+00 -0.21003716570E+02  0.21003716570E+02  0.00000000000E+00 0.  1.
         25    2    1    2    0    0  0.58594116501E+02  0.87315244222E+02  0.11858371706E+04  0.11970448330E+04  0.12509722016E+03 0.  0.
          5    1    3    3  502    0  0.58491775345E+02 -0.10398424157E+02  0.61632422061E+03  0.61919498731E+03  0.41800000000E+01 0.  1.
         -5    1    3    3    0  502  0.10234115616E+00  0.97713668379E+02  0.56951295003E+03  0.57784984564E+03  0.41800000000E+01 0.  1.
        -11    1    1    2    0    0 -0.69561143061E+02 -0.64735824292E+02  0.14278075098E+03  0.17151041491E+03  0.00000000000E+00 0.  1.
         11    1    1    2    0    0  0.10967026560E+02 -0.22579419930E+02  0.15115657460E+03  0.15322668150E+03  0.00000000000E+00 0. -1.
</event>
<event>
 7    1  0.2594791E-009  0.7946779E+02  0.7561462E-02  0.1330569E+00
         -2   -1    0    0    0  501 -0.00000000000E+00  0.00000000000E+00  0.24333139425E+02  0.24333139425E+02  0.00000000000E+00 0.  1.
          2   -1    0    0  501    0  0.00000000000E+00 -0.00000000000E+00 -0.64961307808E+03  0.64961307808E+03  0.00000000000E+00 0. -1.
         25    2    1    2    0    0 -0.70480958565E+01  0.52290384917E+02 -0.24061867453E+03  0.27627878718E+03  0.12509461101E+03 0.  0.
          5    1    3    3  502    0 -0.12300414006E+02  0.27238057521E+01  0.12519376859E+02  0.18246273577E+02  0.41800000000E+01 0. -1.
         -5    1    3    3    0  502  0.52523181497E+01  0.49566579165E+02 -0.25313805139E+03  0.25803251361E+03  0.41800000000E+01 0. -1.
        -11    1    1    2    0    0  0.40986897163E+02 -0.11479954778E+02 -0.11048031149E+03  0.11839600639E+03  0.00000000000E+00 0.  1.
         11    1    1    2    0    0 -0.33938801307E+02 -0.40810430139E+02 -0.27418095264E+03  0.27927142394E+03  0.00000000000E+00 0. -1.
</event>
<event>
 7    1  0.2594791E-009  0.1522030E+03  0.7561462E-02  0.1197792E+00
         -1   -1    0    0    0  501 -0.00000000000E+00  0.00000000000E+00  0.23983444182E+02  0.23983444182E+02  0.00000000000E+00 0.  1.
          1   -1    0    0  501    0  0.00000000000E+00 -0.00000000000E+00 -0.12957931618E+04  0.12957931618E+04  0.00000000000E+00 0. -1.
         25    2    1    2    0    0  0.11028341682E+03 -0.84760501011E+02 -0.62277135962E+03  0.65025729809E+03  0.12507442903E+03 0.  0.
          5    1    3    3  502    0  0.45762070505E+02 -0.49898463332E+02 -0.91343232963E+02  0.11377645779E+03  0.41800000000E+01 0. -1.
         -5    1    3    3    0  502  0.64521346311E+02 -0.34862037678E+02 -0.53142812666E+03  0.53648084030E+03  0.41800000000E+01 0. -1.
        -11    1    1    2    0    0 -0.29579130645E+02 -0.16309320155E+02 -0.10411730799E+03  0.10945927424E+03  0.00000000000E+00 0.  1.
         11    1    1    2    0    0 -0.80704286171E+02  0.10106982117E+03 -0.54492104999E+03  0.56006003364E+03  0.00000000000E+00 0. -1.
</event>
<event>
 7    1  0.2594791E-009  0.9542664E+02  0.7561462E-02  0.1290218E+00
          1   -1    0    0  501    0  0.00000000000E+00  0.00000000000E+00  0.37915376540E+03  0.37915376540E+03  0.00000000000E+00 0. -1.
         -1   -1    0    0    0  501 -0.00000000000E+00 -0.00000000000E+00 -0.41368786038E+02  0.41368786038E+02  0.00000000000E+00 0.  1.
         25    2    1    2    0    0 -0.47176057542E+02  0.43682933735E+02  0.18649284002E+03  0.23358420069E+03  0.12509284684E+03 0.  0.
          5    1    3    3  502    0  0.75795911308E+01 -0.23112577703E+02  0.12515965981E+03  0.12756980165E+03  0.41800000000E+01 0. -1.
         -5    1    3    3    0  502 -0.54755648673E+02  0.66795511439E+02  0.61333180212E+02  0.10601439904E+03  0.41800000000E+01 0. -1.
        -11    1    1    2    0    0  0.30591962294E+02  0.24387574891E+01  0.30927474364E+01  0.30844461120E+02  0.00000000000E+00 0.  1.
         11    1    1    2    0    0  0.16584095248E+02 -0.46121691224E+02  0.14819939191E+03  0.15609388962E+03  0.00000000000E+00 0. -1.
</event>
<event>
 7    1  0.2594791E-009  0.1030498E+03  0.7561462E-02  0.1274010E+00
          1   -1    0    0  501    0  0.00000000000E+00  0.00000000000E+00  0.18584964827E+03  0.18584964827E+03  0.00000000000E+00 0. -1.
         -1   -1    0    0    0  501 -0.00000000000E+00 -0.00000000000E+00 -0.12268499330E+03  0.12268499330E+03  0.00000000000E+00 0.  1.
         25    2    1    2    0    0 -0.51840561445E+01  0.14375995559E+02 -0.74665144267E+02  0.14647795189E+03  0.12508941976E+03 0.  0.
          5    1    3    3  502    0  0.57265936687E+02  0.16459489220E+02 -0.18972208052E+02  0.62671519595E+02  0.41800000000E+01 0. -1.
         -5    1    3    3    0  502 -0.62449992831E+02 -0.20834936611E+01 -0.55692936215E+02  0.83806432299E+02  0.41800000000E+01 0. -1.
        -11    1    1    2    0    0 -0.10424237023E+02  0.32608957670E+02  0.41928333213E+02  0.54129418654E+02  0.00000000000E+00 0. -1.
         11    1    1    2    0    0  0.15608293167E+02 -0.46984953229E+02  0.95901466026E+02  0.10792727103E+03  0.00000000000E+00 0.  1.
</event>
<event>
 7    1  0.2594791E-009  0.1278127E+03  0.7561462E-02  0.1230738E+00
          2   -1    0    0  501    0  0.00000000000E+00  0.00000000000E+00  0.17201158341E+04  0.17201158341E+04  0.00000000000E+00 0. -1.
         -2   -1    0    0    0  501 -0.00000000000E+00 -0.00000000000E+00 -0.14942180364E+02  0.14942180364E+02  0.00000000000E+00 0.  1.
         25    2    1    2    0    0  0.91718354356E+02  0.38760429703E+02  0.12549139935E+04  0.12650566418E+04  0.12507816928E+03 0.  0.
          5    1    3    3  502    0  0.69070171130E+02 -0.17826929286E+02  0.10140745389E+04  0.10165889685E+04  0.41800000000E+01 0.  1.
         -5    1    3    3    0  502  0.22648183226E+02  0.56587358989E+02  0.24083945461E+03  0.24846767334E+03  0.41800000000E+01 0.  1.
        -11    1    1    2    0    0 -0.13413950751E+02 -0.42614387004E+02  0.26646432709E+03  0.27018356291E+03  0.00000000000E+00 0. -1.
         11    1    1    2    0    0 -0.78304403605E+02  0.38539573014E+01  0.18379533313E+03  0.19981780975E+03  0.00000000000E+00 0.  1.
</event>
<event>
 7    1  0.2594791E-009  0.8773713E+02  0.7561462E-02  0.1308426E+00
          1   -1    0    0  501    0  0.00000000000E+00  0.00000000000E+00  0.25917658827E+03  0.25917658827E+03  0.00000000000E+00 0. -1.
         -1   -1    0    0    0  501 -0.00000000000E+00 -0.00000000000E+00 -0.53203213265E+02  0.53203213265E+02  0.00000000000E+00 0.  1.
         25    2    1    2    0    0 -0.36977699391E+02 -0.10082862806E+02  0.16194166745E+03  0.20819125884E+03  0.12509789058E+03 0.  0.
          5    1    3    3  502    0 -0.18150827001E+02 -0.55464914333E+02  0.14448612078E+03  0.15588303545E+03  0.41800000000E+01 0.  1.
         -5    1    3    3    0  502 -0.18826872390E+02  0.45382051527E+02  0.17455546669E+02  0.52308223391E+02  0.41800000000E+01 0.  1.
        -11    1    1    2    0    0  0.51914298297E+02  0.89071131991E+01 -0.50086492258E+01  0.52910467776E+02  0.00000000000E+00 0.  1.
         11    1    1    2    0    0 -0.14936598906E+02  0.11757496070E+01  0.49040356786E+02  0.51278074922E+02  0.00000000000E+00 0. -1.
</event>
<event>
 7    1  0.2594791E-009  0.1084385E+03  0.7561462E-02  0.1263489E+00
         -1   -1    0    0    0  501 -0.00000000000E+00  0.00000000000E+00  0.21394061466E+02  0.21394061466E+02  0.00000000000E+00 0.  1.
          1   -1    0    0  501    0  0.00000000000E+00 -0.00000000000E+00 -0.10758482324E+04  0.10758482324E+04  0.00000000000E+00 0. -1.
         25    2    1    2    0    0  0.10387492836E+02 -0.10547343589E+03 -0.56189898981E+03  0.58532939781E+03  0.12508990169E+03 0.  0.
          5    1    3    3  502    0 -0.43983284423E+01 -0.92124379095E+01 -0.36931979194E+03  0.36948449957E+03  0.41800000000E+01 0.  1.
         -5    1    3    3    0  502  0.14785821278E+02 -0.96260997981E+02 -0.19257919787E+03  0.21584489824E+03  0.41800000000E+01 0.  1.
        -11    1    1    2    0    0 -0.12530783744E+02  0.25981242821E+02 -0.26655371318E+02  0.39275365560E+02  0.00000000000E+00 0.  1.
         11    1    1    2    0    0  0.21432909085E+01  0.79492193070E+02 -0.46589980976E+03  0.47263753045E+03  0.00000000000E+00 0. -1.
</event>
<event>
 7    1  0.2594791E-009  0.1214029E+03  0.7561462E-02  0.1240800E+00
         -1   -1    0    0    0  501 -0.00000000000E+00  0.00000000000E+00  0.29842767340E+03  0.29842767340E+03  0.00000000000E+00 0.  1.
          1   -1    0    0  501    0  0.00000000000E+00 -0.00000000000E+00 -0.10403895296E+03  0.10403895296E+03  0.00000000000E+00 0. -1.
         25    2    1    2    0    0  0.66435343676E+02  0.74236562119E+02 -0.99541075115E+01  0.16018167713E+03  0.12503744793E+03 0.  0.
          5    1    3    3  502    0 -0.11201747453E+02  0.95051608795E+01  0.43255662442E+02  0.45873216179E+02  0.41800000000E+01 0.  1.
         -5    1    3    3    0  502  0.77637091129E+02  0.64731401239E+02 -0.53209769954E+02  0.11430846095E+03  0.41800000000E+01 0.  1.
        -11    1    1    2    0    0 -0.68439875456E+02 -0.18915937226E+02  0.14299216943E+03  0.15965146335E+03  0.00000000000E+00 0.  1.
         11    1    1    2    0    0  0.20045317795E+01 -0.55320624893E+02  0.61350658528E+02  0.82633485876E+02  0.00000000000E+00 0. -1.
</event>
<event>
 7    1  0.2594791E-009  0.8130797E+02  0.7561462E-02  0.1325380E+00
         -2   -1    0    0    0  501 -0.00000000000E+00  0.00000000000E+00  0.11924677508E+02  0.11924677508E+02  0.00000000000E+00 0.  1.
          2   -1    0    0  501    0  0.00000000000E+00 -0.00000000000E+00 -0.15011179609E+04  0.15011179609E+04  0.00000000000E+00 0. -1.
         25    2    1    2    0    0 -0.25786487795E+02  0.49448299776E+02 -0.10979022398E+04  0.11064118875E+04  0.12509140417E+03 0.  0.
          5    1    3    3  502    0 -0.14027646198E+02  0.29364488062E+02 -0.10669841251E+04  0.10674884747E+04  0.41800000000E+01 0.  1.
         -5    1    3    3    0  502 -0.11758841597E+02  0.20083811714E+02 -0.30918114688E+02  0.38923412807E+02  0.41800000000E+01 0.  1.
        -11    1    1    2    0    0  0.49785144207E+02 -0.61646647886E+02 -0.33485292832E+03  0.34410078957E+03  0.00000000000E+00 0.  1.
         11    1    1    2    0    0 -0.23998656412E+02  0.12198348110E+02 -0.56438115285E+02  0.62529961324E+02  0.00000000000E+00 0. -1.
</event>
<event>
 7    1  0.2594791E-009  0.1405230E+03  0.7561462E-02  0.1212627E+00
          2   -1    0    0  501    0  0.00000000000E+00  0.00000000000E+00  0.54091110516E+03  0.54091110516E+03  0.00000000000E+00 0. -1.
         -2   -1    0    0    0  501 -0.00000000000E+00 -0.00000000000E+00 -0.46055076909E+02  0.46055076909E+02  0.00000000000E+00 0.  1.
         25    2    1    2    0    0  0.40810040853E+02 -0.94387055020E+02  0.17497171271E+03  0.23840464962E+03  0.12508917268E+03 0.  0.
          5    1    3    3  502    0  0.11020039566E+02  0.23844302883E+02  0.19130560400E+01  0.26666912746E+02  0.41800000000E+01 0.  1.
         -5    1    3    3    0  502  0.29790001287E+02 -0.11823135790E+03  0.17305865667E+03  0.21173773687E+03  0.41800000000E+01 0.  1.
        -11    1    1    2    0    0 -0.43755938814E+02  0.10904612503E+03  0.30737418810E+03  0.32906615000E+03  0.00000000000E+00 0. -1.
         11    1    1    2    0    0  0.29458979606E+01 -0.14659070010E+02  0.12510127451E+02  0.19495382459E+02  0.00000000000E+00 0.  1.
</event>
<event>
 7    1  0.2594791E-009  0.1415413E+03  0.7561462E-02  0.1211270E+00
          4   -1    0    0  501    0  0.00000000000E+00  0.00000000000E+00  0.19385529258E+03  0.19385529258E+03  0.00000000000E+00 0. -1.
         -4   -1    0    0    0  501 -0.00000000000E+00 -0.00000000000E+00 -0.11971087953E+03  0.11971087953E+03  0.00000000000E+00 0.  1.
         25    2    1    2    0    0  0.72337665285E+02  0.70961297628E+02  0.58104961481E+01  0.16106011255E+03  0.12505340623E+03 0.  0.
          5    1    3    3  502    0  0.69063649249E+01 -0.31214937936E+02  0.21344975216E+02  0.38667177215E+02  0.41800000000E+01 0.  1.
         -5    1    3    3    0  502  0.65431300360E+02  0.10217623556E+03 -0.15534479068E+02  0.12239293534E+03  0.41800000000E+01 0.  1.
        -11    1    1    2    0    0 -0.82618880724E+02 -0.31110939752E+02  0.22900993802E+02  0.91204306595E+02  0.00000000000E+00 0. -1.
         11    1    1    2    0    0  0.10281215439E+02 -0.39850357876E+02  0.45432923100E+02  0.61301752954E+02  0.00000000000E+00 0.  1.
</event>
<event>
 7    1  0.2594791E-009  0.1602130E+03  0.7561462E-02  0.1188456E+00
         -1   -1    0    0    0  501 -0.00000000000E+00  0.00000000000E+00  0.47818355323E+03  0.47818355323E+03  0.00000000000E+00 0.  1.
          1   -1    0    0  501    0  0.00000000000E+00 -0.00000000000E+00 -0.61598656885E+02  0.61598656885E+02  0.00000000000E+00 0. -1.
         25    2    1    2    0    0  0.28721868226E+02  0.12789524884E+03  0.19252490507E+03  0.26437636393E+03  0.12508749874E+03 0.  0.
          5    1    3    3  502    0  0.66061300133E+02  0.12592419680E+03  0.16436711191E+03  0.21738219475E+03  0.41800000000E+01 0.  1.
         -5    1    3    3    0  502 -0.37339431907E+02  0.19710520392E+01  0.28157793161E+02  0.46994169180E+02  0.41800000000E+01 0.  1.
        -11    1    1    2    0    0  0.14458170647E+02 -0.23851129362E+02  0.11600588249E+03  0.11931169197E+03  0.00000000000E+00 0.  1.
         11    1    1    2    0    0 -0.43180038873E+02 -0.10404411948E+03  0.10805410879E+03  0.15609415422E+03  0.00000000000E+00 0. -1.
</event>
<event>
 7    1  0.2594791E-009  0.6766126E+02  0.7561462E-02  0.1368232E+00
         -1   -1    0    0    0  501 -0.00000000000E+00  0.00000000000E+00  0.16502963692E+03  0.16502963692E+03  0.00000000000E+00 0.  1.
          1   -1    0    0  501    0  0.00000000000E+00 -0.00000000000E+00 -0.73108299358E+02  0.73108299358E+02  0.00000000000E+00 0. -1.
         25    2    1    2    0    0 -0.18005467002E+02  0.13943376422E+02  0.57724478117E+02  0.13963433481E+03  0.12508803899E+03 0.  0.
          5    1    3    3  502    0 -0.48689748015E+02  0.16567998381E+02 -0.20452376295E+02  0.55506416099E+02  0.41800000000E+01 0. -1.
         -5    1    3    3    0  502  0.30684281013E+02 -0.26246219595E+01  0.78176854412E+02  0.84127918715E+02  0.41800000000E+01 0. -1.
        -11    1    1    2    0    0  0.33940784095E+02 -0.13980734371E+02  0.58724961693E+02  0.69253583910E+02  0.00000000000E+00 0.  1.
         11    1    1    2    0    0 -0.15935317093E+02  0.37357949407E-01 -0.24528102252E+02  0.29250017548E+02  0.00000000000E+00 0. -1.
</event>
<event>
 7    1  0.2594791E-009  0.1872506E+03  0.7561462E-02  0.1160965E+00
         -2   -1    0    0    0  501 -0.00000000000E+00  0.00000000000E+00  0.47709459088E+02  0.47709459088E+02  0.00000000000E+00 0.  1.
          2   -1    0    0  501    0  0.00000000000E+00 -0.00000000000E+00 -0.89538692648E+03  0.89538692648E+03  0.00000000000E+00 0. -1.
         25    2    1    2    0    0  0.11611154009E+03  0.96260157148E+02 -0.63712456850E+03  0.66657924630E+03  0.12510902532E+03 0.  0.
          5    1    3    3  502    0  0.96763414156E+02 -0.29119454552E+00 -0.34065873388E+03  0.35415969347E+03  0.41800000000E+01 0.  1.
         -5    1    3    3    0  502  0.19348125929E+02  0.96551351693E+02 -0.29646583462E+03  0.31241955283E+03  0.41800000000E+01 0.  1.
        -11    1    1    2    0    0 -0.73970917684E+02  0.39672670769E-01 -0.81271123785E+02  0.10989401166E+03  0.00000000000E+00 0.  1.
         11    1    1    2    0    0 -0.42140622401E+02 -0.96299829819E+02 -0.12928177511E+03  0.16662312761E+03  0.00000000000E+00 0. -1.
</event>
<event>
 7    1  0.2594791E-009  0.2064060E+03  0.7561462E-02  0.1144444E+00
         -1   -1    0    0    0  501 -0.00000000000E+00  0.00000000000E+00  0.96617562641E+02  0.96617562641E+02  0.00000000000E+00 0.  1.
          1   -1    0    0  501    0  0.00000000000E+00 -0.00000000000E+00 -0.50323876955E+03  0.50323876955E+03  0.00000000000E+00 0. -1.
         25    2    1    2    0    0  0.14972514367E+03 -0.10201826167E+03 -0.14666372785E+03  0.26454212255E+03  0.12508773391E+03 0.  0.
          5    1    3    3  502    0  0.84652517715E+02 -0.60241501741E+01 -0.11729399031E+03  0.14483677608E+03  0.41800000000E+01 0.  1.
         -5    1    3    3    0  502  0.65072625957E+02 -0.95994111498E+02 -0.29369737537E+02  0.11970534647E+03  0.41800000000E+01 0.  1.
        -11    1    1    2    0    0 -0.12687907042E+03  0.22243220091E+02 -0.15776677841E+03  0.20367477930E+03  0.00000000000E+00 0.  1.
         11    1    1    2    0    0 -0.22846073248E+02  0.79775041581E+02 -0.10219070065E+03  0.13163943034E+03  0.00000000000E+00 0. -1.
</event>
<event>
 7    1  0.2594791E-009  0.1062880E+03  0.7561462E-02  0.1267603E+00
          1   -1    0    0  501    0  0.00000000000E+00  0.00000000000E+00  0.15122470006E+03  0.15122470006E+03  0.00000000000E+00 0. -1.
         -1   -1    0    0    0  501 -0.00000000000E+00 -0.00000000000E+00 -0.11699588422E+03  0.11699588422E+03  0.00000000000E+00 0.  1.
         25    2    1    2    0    0  0.62342764362E+02 -0.83844966136E+01 -0.21972635546E+02  0.14173046962E+03  0.12509120375E+03 0.  0.
          5    1    3    3  502    0 -0.33470225479E+02  0.20585344352E+02 -0.19404243178E+01  0.39563241048E+02  0.41800000000E+01 0.  1.
         -5    1    3    3    0  502  0.95812989841E+02 -0.28969840965E+02 -0.20032211228E+02  0.10216722857E+03  0.41800000000E+01 0.  1.
        -11    1    1    2    0    0 -0.41662122872E+02  0.22965132269E+02 -0.15835119338E+02  0.50138615725E+02  0.00000000000E+00 0.  1.
         11    1    1    2    0    0 -0.20680641489E+02 -0.14580635656E+02  0.72036570716E+02  0.76351498932E+02  0.00000000000E+00 0. -1.
</event>
<event>
 7    1  0.2594791E-009  0.1069771E+03  0.7561462E-02  0.1266272E+00
          2   -1    0    0  501    0  0.00000000000E+00  0.00000000000E+00  0.72480508564E+03  0.72480508564E+03  0.00000000000E+00 0. -1.
         -2   -1    0    0    0  501 -0.00000000000E+00 -0.00000000000E+00 -0.20203492990E+02  0.20203492990E+02  0.00000000000E+00 0.  1.
         25    2    1    2    0    0  0.50322613117E+02  0.11268217445E+02  0.43259401337E+03  0.45325974820E+03  0.12508989097E+03 0.  0.
          5    1    3    3  502    0 -0.20378568282E+02  0.28989019799E+02  0.38625960635E+02  0.52584090266E+02  0.41800000000E+01 0.  1.
         -5    1    3    3    0  502  0.70701181399E+02 -0.17720802354E+02  0.39396805273E+03  0.40067565793E+03  0.41800000000E+01 0.  1.
        -11    1    1    2    0    0  0.13605641391E+02 -0.34626453028E+02  0.87106067332E+02  0.94718380967E+02  0.00000000000E+00 0.  1.
         11    1    1    2    0    0 -0.63928254507E+02  0.23358235584E+02  0.18490151195E+03  0.19703044946E+03  0.00000000000E+00 0. -1.
</event>
<event>
 6    1  0.2594791E-009  0.7672302E+02  0.7561462E-02  0.1338617E+00
         -1   -1    0    0    0  501 -0.00000000000E+00  0.00000000000E+00  0.23902906022E+03  0.23902906022E+03  0.00000000000E+00 0.  1.
          1   -1    0    0  501    0  0.00000000000E+00 -0.00000000000E+00 -0.56605296871E+02  0.56605296871E+02  0.00000000000E+00 0. -1.
          5    1    1    2  502    0 -0.63280516553E+02 -0.12723345988E+02  0.57389671303E+01  0.64936241437E+02  0.41800000000E+01 0. -1.
         -5    1    1    2    0  502  0.21988353345E+02  0.28503250880E+02  0.94650005944E+02  0.10135096950E+03  0.41800000000E+01 0. -1.
        -11    1    1    2    0    0  0.20704893348E+02 -0.22775127642E+02  0.97774494952E+02  0.10250488238E+03  0.00000000000E+00 0.  1.
         11    1    1    2    0    0  0.20587269859E+02  0.69952227498E+01 -0.15739704674E+02  0.26842263780E+02  0.00000000000E+00 0. -1.
</event>
<event>
 7    1  0.2594791E-009  0.1008364E+03  0.7561462E-02  0.1278547E+00
         -1   -1    0    0    0  501 -0.00000000000E+00  0.00000000000E+00  0.59011806918E+02  0.59011806918E+02  0.00000000000E+00 0.  1.
          1   -1    0    0  501    0  0.00000000000E+00 -0.00000000000E+00 -0.24685013243E+03  0.24685013243E+03  0.00000000000E+00 0. -1.
         25    2    1    2    0    0 -0.29275316352E+02  0.78247788397E+01 -0.47468365824E+02  0.13718977175E+03  0.12509802719E+03 0.  0.
          5    1    3    3  502    0 -0.18418440997E+02  0.55847825916E+02 -0.62128888259E+02  0.85648641464E+02  0.41800000000E+01 0.  1.
         -5    1    3    3    0  502 -0.10856875355E+02 -0.48023047077E+02  0.14660522435E+02  0.51541130285E+02  0.41800000000E+01 0.  1.
        -11    1    1    2    0    0 -0.31837514076E+01  0.37456881001E+02 -0.62255774207E+02  0.72725068783E+02  0.00000000000E+00 0.  1.
         11    1    1    2    0    0  0.32459067759E+02 -0.45281659840E+02 -0.78114185476E+02  0.95947098811E+02  0.00000000000E+00 0. -1.
</event>
<event>
 7    1  0.2594791E-009  0.1096963E+03  0.7561462E-02  0.1261133E+00
          1   -1    0    0  501    0  0.00000000000E+00  0.00000000000E+00  0.63654997016E+02  0.63654997016E+02  0.00000000000E+00 0. -1.
         -1   -1    0    0    0  501 -0.00000000000E+00 -0.00000000000E+00 -0.25507132697E+03  0.25507132697E+03  0.00000000000E+00 0.  1.
         25    2    1    2    0    0  0.25799282738E+02 -0.61444094034E+02 -0.10411561622E+03  0.17586515401E+03  0.12509001228E+03 0.  0.
          5    1    3    3  502    0  0.60891081297E+02 -0.38520603541E+02 -0.11177448934E+03  0.13305100355E+03  0.41800000000E+01 0. -1.
         -5    1    3    3    0  502 -0.35091798558E+02 -0.22923490493E+02  0.76588731139E+01  0.42814150463E+02  0.41800000000E+01 0. -1.
        -11    1    1    2    0    0  0.12397999611E+01 -0.19610566151E+02 -0.41494222360E+02  0.45911674964E+02  0.00000000000E+00 0.  1.
         11    1    1    2    0    0 -0.27039082700E+02  0.81054660186E+02 -0.45806491369E+02  0.96949495009E+02  0.00000000000E+00 0. -1.
</event>
<event>
 6    1  0.2594791E-009  0.1211838E+03  0.7561462E-02  0.1241157E+00
          1   -1    0    0  501    0  0.00000000000E+00  0.00000000000E+00  0.76693411479E+02  0.76693411479E+02  0.00000000000E+00 0. -1.
         -1   -1    0    0    0  501 -0.00000000000E+00 -0.00000000000E+00 -0.28598487947E+03  0.28598487947E+03  0.00000000000E+00 0.  1.
          5    1    1    2  502    0 -0.58411964499E+02 -0.75905145084E+02 -0.47237571719E+02  0.10687567183E+03  0.41800000000E+01 0.  1.
         -5    1    1    2    0  502  0.22920467324E+02 -0.10135417244E+02 -0.11563899655E+03  0.11839731597E+03  0.41800000000E+01 0.  1.
        -11    1    1    2    0    0  0.59698656801E+02  0.51092486588E+02 -0.60952038343E+01  0.78813217923E+02  0.00000000000E+00 0.  1.
         11    1    1    2    0    0 -0.24207159625E+02  0.34948075740E+02 -0.40319695883E+02  0.58592085226E+02  0.00000000000E+00 0. -1.
</event>
<event>
 7    1  0.2594791E-009  0.9580953E+02  0.7561462E-02  0.1289363E+00
         -1   -1    0    0    0  501 -0.00000000000E+00  0.00000000000E+00  0.23982222442E+03  0.23982222442E+03  0.00000000000E+00 0.  1.
          1   -1    0    0  501    0  0.00000000000E+00 -0.00000000000E+00 -0.50141824596E+02  0.50141824596E+02  0.00000000000E+00 0. -1.
         25    2    1    2    0    0  0.84505405283E+01  0.10989205294E+01  0.13163613154E+03  0.18179307627E+03  0.12509209483E+03 0.  0.
          5    1    3    3  502    0 -0.53095045501E+01 -0.58973585367E+02  0.41127376552E+02  0.72215013063E+02  0.41800000000E+01 0.  1.
         -5    1    3    3    0  502  0.13760045078E+02  0.60072505896E+02  0.90508754991E+02  0.10957806320E+03  0.41800000000E+01 0.  1.
        -11    1    1    2    0    0 -0.27165867818E+02  0.25969113764E+02 -0.41470464687E+01  0.37809750573E+02  0.00000000000E+00 0. -1.
         11    1    1    2    0    0  0.18715327290E+02 -0.27068034293E+02  0.62191314745E+02  0.70361222174E+02  0.00000000000E+00 0.  1.
</event>
<event>
 7    1  0.2594791E-009  0.2720660E+03  0.7561462E-02  0.1100103E+00
          2   -1    0    0  501    0  0.00000000000E+00  0.00000000000E+00  0.17257497567E+04  0.17257497567E+04  0.00000000000E+00 0. -1.
         -2   -1    0    0    0  501 -0.00000000000E+00 -0.00000000000E+00 -0.45197619273E+02  0.45197619273E+02  0.00000000000E+00 0.  1.
         25    2    1    2    0    0 -0.25518581311E+03  0.12456179073E+02  0.77455990227E+03  0.82514530224E+03  0.12508705768E+03 0.  0.
          5    1    3    3  502    0 -0.15021922691E+03  0.67092384072E+02  0.40826365531E+03  0.44018619786E+03  0.41800000000E+01 0. -1.
         -5    1    3    3    0  502 -0.10496658620E+03 -0.54636204999E+02  0.36629624696E+03  0.38495910439E+03  0.41800000000E+01 0. -1.
        -11    1    1    2    0    0  0.17161568802E+02  0.13332861993E+02  0.26326883482E+02  0.34137800845E+02  0.00000000000E+00 0.  1.
         11    1    1    2    0    0  0.23802424431E+03 -0.25789041066E+02  0.87966535169E+03  0.91166427290E+03  0.00000000000E+00 0. -1.
</event>
<event>
 7    1  0.2594791E-009  0.2190072E+03  0.7561462E-02  0.1134625E+00
         -1   -1    0    0    0  501 -0.00000000000E+00  0.00000000000E+00  0.19515860286E+03  0.19515860286E+03  0.00000000000E+00 0.  1.
          1   -1    0    0  501    0  0.00000000000E+00 -0.00000000000E+00 -0.30026035356E+03  0.30026035356E+03  0.00000000000E+00 0. -1.
         25    2    1    2    0    0  0.19395419851E+03  0.78293250884E+02 -0.49601040679E+00  0.24371107769E+03  0.12508708609E+03 0.  0.
          5    1    3    3  502    0  0.13568304416E+03  0.36331015949E+02  0.56980905398E+02  0.15163814551E+03  0.41800000000E+01 0. -1.
         -5    1    3    3    0  502  0.58271154351E+02  0.41962234935E+02 -0.57476915805E+02  0.92072932182E+02  0.41800000000E+01 0. -1.
        -11    1    1    2    0    0 -0.96638152727E+02 -0.84047602360E+02 -0.37827880973E+02  0.13354355321E+03  0.00000000000E+00 0.  1.
         11    1    1    2    0    0 -0.97316045787E+02  0.57543514762E+01 -0.66777859327E+02  0.11816432552E+03  0.00000000000E+00 0. -1.
</event>
<event>
 7    1  0.2594791E-009  0.1544132E+03  0.7561462E-02  0.1195153E+00
         -1   -1    0    0    0  501 -0.00000000000E+00  0.00000000000E+00  0.23252248157E+02  0.23252248157E+02  0.00000000000E+00 0.  1.
          1   -1    0    0  501    0  0.00000000000E+00 -0.00000000000E+00 -0.14316049452E+04  0.14316049452E+04  0.00000000000E+00 0. -1.
         25    2    1    2    0    0 -0.13640180737E+03 -0.10295136856E+02 -0.53465409634E+03  0.56587435113E+03  0.12508931062E+03 0.  0.
          5    1    3    3  502    0 -0.15005185049E+02  0.13896284419E+02 -0.43807559657E+01  0.21328987830E+02  0.41800000000E+01 0. -1.
         -5    1    3    3    0  502 -0.12139662232E+03 -0.24191421275E+02 -0.53027334038E+03  0.54454536330E+03  0.41800000000E+01 0. -1.
        -11    1    1    2    0    0  0.83029855817E+02 -0.38737798382E+02 -0.49751728483E+03  0.50588340819E+03  0.00000000000E+00 0. -1.
         11    1    1    2    0    0  0.53371951548E+02  0.49032935238E+02 -0.37618131590E+03  0.38309943407E+03  0.00000000000E+00 0.  1.
</event>
<event>
 7    1  0.2594791E-009  0.1356072E+03  0.7561462E-02  0.1219365E+00
         -1   -1    0    0    0  501 -0.00000000000E+00  0.00000000000E+00  0.45381607731E+02  0.45381607731E+02  0.00000000000E+00 0.  1.
          1   -1    0    0  501    0  0.00000000000E+00 -0.00000000000E+00 -0.43118528552E+03  0.43118528552E+03  0.00000000000E+00 0. -1.
         25    2    1    2    0    0 -0.64545541417E+02 -0.55483666194E+02 -0.17537136296E+03  0.23163589198E+03  0.12512196999E+03 0.  0.
          5    1    3    3  502    0  0.37793509830E+02 -0.16123241260E+02 -0.54613319943E+02  0.68471858520E+02  0.41800000000E+01 0.  1.
         -5    1    3    3    0  502 -0.10233905125E+03 -0.39360424934E+02 -0.12075804302E+03  0.16316403346E+03  0.41800000000E+01 0.  1.
        -11    1    1    2    0    0  0.74872572599E+02  0.69915289862E+02 -0.19900609919E+03  0.22382465771E+03  0.00000000000E+00 0.  1.
         11    1    1    2    0    0 -0.10327031182E+02 -0.14431623668E+02 -0.11426215638E+02  0.21106343562E+02  0.00000000000E+00 0. -1.
</event>
<event>
 7    1  0.2594791E-009  0.1323363E+03  0.7561462E-02  0.1224030E+00
          2   -1    0    0  501    0  0.00000000000E+00  0.00000000000E+00  0.73868381635E+03  0.73868381635E+03  0.00000000000E+00 0. -1.
         -2   -1    0    0    0  501 -0.00000000000E+00 -0.00000000000E+00 -0.31284894970E+02  0.31284894970E+02  0.00000000000E+00 0.  1.
         25    2    1    2    0    0  0.86493596858E+02  0.58875338290E+02  0.35552520845E+03  0.39114181627E+03  0.12508516632E+03 0.  0.
          5    1    3    3  502    0  0.73283673515E+02 -0.22843819965E+02  0.21055138049E+03  0.22414658851E+03  0.41800000000E+01 0.  1.
         -5    1    3    3    0  502  0.13209923343E+02  0.81719158255E+02  0.14497382796E+03  0.16699522776E+03  0.41800000000E+01 0.  1.
        -11    1    1    2    0    0 -0.11177929041E+02 -0.46506601724E+01 -0.26195348926E+01  0.12386956880E+02  0.00000000000E+00 0.  1.
         11    1    1    2    0    0 -0.75315667817E+02 -0.54224678117E+02  0.35449324782E+03  0.36643993817E+03  0.00000000000E+00 0. -1.
</event>
<event>
 7    1  0.2594791E-009  0.1423423E+03  0.7561462E-02  0.1210212E+00
          2   -1    0    0  501    0  0.00000000000E+00  0.00000000000E+00  0.31289225214E+03  0.31289225214E+03  0.00000000000E+00 0. -1.
         -2   -1    0    0    0  501 -0.00000000000E+00 -0.00000000000E+00 -0.10527496656E+03  0.10527496656E+03  0.00000000000E+00 0.  1.
         25    2    1    2    0    0  0.73555921742E+02  0.10508037918E+03  0.26147818348E+02  0.18106284622E+03  0.12509071175E+03 0.  0.
          5    1    3    3  502    0  0.46486357276E+02  0.91182666960E+02  0.72473777905E+02  0.12547980336E+03  0.41800000000E+01 0. -1.
         -5    1    3    3    0  502  0.27069564466E+02  0.13897712222E+02 -0.46325959557E+02  0.55583042866E+02  0.41800000000E+01 0. -1.
        -11    1    1    2    0    0 -0.40698964772E+02  0.76706067353E+00  0.36908940724E+02  0.54947829993E+02  0.00000000000E+00 0.  1.
         11    1    1    2    0    0 -0.32856956970E+02 -0.10584743986E+03  0.14456052651E+03  0.18215654249E+03  0.00000000000E+00 0. -1.
</event>
<event>
 7    1  0.2594791E-009  0.1881999E+03  0.7561462E-02  0.1160095E+00
          2   -1    0    0  501    0  0.00000000000E+00  0.00000000000E+00  0.35390510288E+03  0.35390510288E+03  0.00000000000E+00 0. -1.
         -2   -1    0    0    0  501 -0.00000000000E+00 -0.00000000000E+00 -0.18230730717E+03  0.18230730717E+03  0.00000000000E+00 0.  1.
         25    2    1    2    0    0 -0.16086981432E+03  0.25958037131E+02  0.25435134955E+03  0.32694514689E+03  0.12508238568E+03 0.  0.
          5    1    3    3  502    0 -0.33803203880E+02 -0.30340725580E+02  0.13896677980E+03  0.14626159615E+03  0.41800000000E+01 0. -1.
         -5    1    3    3    0  502 -0.12706661044E+03  0.56298762711E+02  0.11538456975E+03  0.18068355074E+03  0.41800000000E+01 0. -1.
        -11    1    1    2    0    0  0.19648411514E+02 -0.45133449439E+02 -0.27720690364E+02  0.56493583773E+02  0.00000000000E+00 0.  1.
         11    1    1    2    0    0  0.14122140281E+03  0.19175412308E+02 -0.55032863475E+02  0.15277367938E+03  0.00000000000E+00 0. -1.
</event>
<event>
 7    1  0.2594791E-009  0.1037446E+03  0.7561462E-02  0.1272613E+00
         -2   -1    0    0    0  501 -0.00000000000E+00  0.00000000000E+00  0.26269750927E+02  0.26269750927E+02  0.00000000000E+00 0.  1.
          2   -1    0    0  501    0  0.00000000000E+00 -0.00000000000E+00 -0.77551492143E+03  0.77551492143E+03  0.00000000000E+00 0. -1.
         25    2    1    2    0    0 -0.15559079193E+02 -0.17601675803E+02 -0.66148091595E+03  0.67361435082E+03  0.12508951809E+03 0.  0.
          5    1    3    3  502    0 -0.24804518981E+02 -0.69646012926E+02 -0.40403963906E+03  0.41076919750E+03  0.41800000000E+01 0. -1.
         -5    1    3    3    0  502  0.92454397877E+01  0.52044337123E+02 -0.25744127688E+03  0.26284515333E+03  0.41800000000E+01 0. -1.
        -11    1    1    2    0    0 -0.29747032567E+02  0.18627428907E+02 -0.73404403702E+01  0.35857344005E+02  0.00000000000E+00 0. -1.
         11    1    1    2    0    0  0.45306111760E+02 -0.10257531039E+01 -0.80423814191E+02  0.92312977535E+02  0.00000000000E+00 0.  1.
</event>
<event>
 7    1  0.2594791E-009  0.1108795E+03  0.7561462E-02  0.1258950E+00
          2   -1    0    0  501    0  0.00000000000E+00  0.00000000000E+00  0.11264364944E+03  0.11264364944E+03  0.00000000000E+00 0. -1.
         -2   -1    0    0    0  501 -0.00000000000E+00 -0.00000000000E+00 -0.12787664533E+03  0.12787664533E+03  0.00000000000E+00 0.  1.
         25    2    1    2    0    0  0.37652360662E+02  0.31953164723E+02 -0.22131469246E+02  0.13629690436E+03  0.12509332199E+03 0.  0.
          5    1    3    3  502    0 -0.82364812843E+01  0.65355416039E+02 -0.39341097300E+02  0.76839861832E+02  0.41800000000E+01 0. -1.
         -5    1    3    3    0  502  0.45888841946E+02 -0.33402251316E+02  0.17209628054E+02  0.59457042526E+02  0.41800000000E+01 0. -1.
        -11    1    1    2    0    0 -0.34779121809E+02  0.24356287642E+02 -0.13043575315E+02  0.44417912136E+02  0.00000000000E+00 0.  1.
         11    1    1    2    0    0 -0.28732388533E+01 -0.56309452365E+02  0.19942048674E+02  0.59805478281E+02  0.00000000000E+00 0. -1.
</event>
<event>
 7    1  0.2594791E-009  0.8850475E+02  0.7561462E-02  0.1306514E+00
          2   -1    0    0  501    0  0.00000000000E+00  0.00000000000E+00  0.32485172635E+03  0.32485172635E+03  0.00000000000E+00 0. -1.
         -2   -1    0    0    0  501 -0.00000000000E+00 -0.00000000000E+00 -0.40930412815E+02  0.40930412815E+02  0.00000000000E+00 0.  1.
         25    2    1    2    0    0  0.19146684026E+02  0.21014948400E+02  0.19993813361E+03  0.23755283670E+03  0.12509144411E+03 0.  0.
          5    1    3    3  502    0  0.24513899763E+01 -0.31587415100E+02  0.17313201653E+03  0.17605664331E+03  0.41800000000E+01 0.  1.
         -5    1    3    3    0  502  0.16695294050E+02  0.52602363500E+02  0.26806117079E+02  0.61496193395E+02  0.41800000000E+01 0.  1.
        -11    1    1    2    0    0 -0.51198871241E+02 -0.25744315744E+02  0.28556542975E+02  0.64027887332E+02  0.00000000000E+00 0.  1.
         11    1    1    2    0    0  0.32052187215E+02  0.47293673444E+01  0.55426636950E+02  0.64201415127E+02  0.00000000000E+00 0. -1.
</event>
<event>
 7    1  0.2594791E-009  0.1048439E+03  0.7561462E-02  0.1270427E+00
          1   -1    0    0  501    0  0.00000000000E+00  0.00000000000E+00  0.42153127436E+02  0.42153127436E+02  0.00000000000E+00 0. -1.
         -1   -1    0    0    0  501 -0.00000000000E+00 -0.00000000000E+00 -0.34205950904E+03  0.34205950904E+03  0.00000000000E+00 0.  1.
         25    2    1    2    0    0  0.24763488749E+02  0.31347527293E+02 -0.11632330698E+03  0.17543092940E+03  0.12509596877E+03 0.  0.
          5    1    3    3  502    0  0.62766626285E+02 -0.23215205769E+01 -0.10625460359E+03  0.12350122273E+03  0.41800000000E+01 0.  1.
         -5    1    3    3    0  502 -0.38003137536E+02  0.33669047870E+02 -0.10068703398E+02  0.51929706673E+02  0.41800000000E+01 0.  1.
        -11    1    1    2    0    0 -0.51112917946E+02 -0.43180154258E+02 -0.15146502760E+03  0.16558596163E+03  0.00000000000E+00 0. -1.
         11    1    1    2    0    0  0.26349429197E+02  0.11832626965E+02 -0.32118047014E+02  0.43195745438E+02  0.00000000000E+00 0.  1.
</event>
<event>
 7    1  0.2594791E-009  0.1495132E+03  0.7561462E-02  0.1201072E+00
         -2   -1    0    0    0  501 -0.00000000000E+00  0.00000000000E+00  0.11202790893E+03  0.11202790893E+03  0.00000000000E+00 0. -1.
          2   -1    0    0  501    0  0.00000000000E+00 -0.00000000000E+00 -0.22534088672E+03  0.22534088672E+03  0.00000000000E+00 0.  1.
         25    2    1    2    0    0 -0.10841167607E+03  0.35774185617E+02 -0.81416021824E+02  0.18788605988E+03  0.12505886222E+03 0.  0.
          5    1    3    3  502    0 -0.12938147512E+03  0.20492158597E+02 -0.36842165411E+02  0.13614078089E+03  0.41800000000E+01 0.  1.
         -5    1    3    3    0  502  0.20969799050E+02  0.15282027020E+02 -0.44573856413E+02  0.51745278988E+02  0.41800000000E+01 0.  1.
        -11    1    1    2    0    0  0.12261440351E+03 -0.34751425481E+02 -0.39389612306E+02  0.13339226019E+03  0.00000000000E+00 0.  1.
         11    1    1    2    0    0 -0.14202727444E+02 -0.10227601354E+01  0.74926563431E+01  0.16090475575E+02  0.00000000000E+00 0. -1.
</event>
<event>
 7    1  0.2594791E-009  0.1215078E+03  0.7561462E-02  0.1240630E+00
          1   -1    0    0  501    0  0.00000000000E+00  0.00000000000E+00  0.39556047007E+03  0.39556047007E+03  0.00000000000E+00 0. -1.
         -1   -1    0    0    0  501 -0.00000000000E+00 -0.00000000000E+00 -0.42591068026E+02  0.42591068026E+02  0.00000000000E+00 0.  1.
         25    2    1    2    0    0  0.16322552541E+01 -0.69425057078E+02  0.20933906057E+03  0.25356045137E+03  0.12509019710E+03 0.  0.
          5    1    3    3  502    0  0.59227129443E+02 -0.13386773771E+02  0.11004009662E+03  0.12575115840E+03  0.41800000000E+01 0.  1.
         -5    1    3    3    0  502 -0.57594874189E+02 -0.56038283308E+02  0.99298963950E+02  0.12780929297E+03  0.41800000000E+01 0.  1.
        -11    1    1    2    0    0  0.34302703703E+02  0.17423781023E+02  0.15048399934E+02  0.41312443247E+02  0.00000000000E+00 0.  1.
         11    1    1    2    0    0 -0.35934958957E+02  0.52001276056E+02  0.12858194154E+03  0.14327864348E+03  0.00000000000E+00 0. -1.
</event>
<event>
 7    1  0.2594791E-009  0.1187272E+03  0.7561462E-02  0.1245212E+00
         -3   -1    0    0    0  501 -0.00000000000E+00  0.00000000000E+00  0.72951820123E+02  0.72951820123E+02  0.00000000000E+00 0.  1.
          3   -1    0    0  501    0  0.00000000000E+00 -0.00000000000E+00 -0.24459742615E+03  0.24459742615E+03  0.00000000000E+00 0. -1.
         25    2    1    2    0    0 -0.77715135843E+02  0.40148339167E+01 -0.11987885273E+03  0.18993009258E+03  0.12508692779E+03 0.  0.
          5    1    3    3  502    0 -0.92944270036E+02 -0.33408694033E+02 -0.54288302095E+02  0.11278062916E+03  0.41800000000E+01 0.  1.
         -5    1    3    3    0  502  0.15229134193E+02  0.37423527950E+02 -0.65590550639E+02  0.77149463418E+02  0.41800000000E+01 0.  1.
        -11    1    1    2    0    0  0.47559140681E+02  0.27027371720E+02 -0.62471842276E+02  0.83036629036E+02  0.00000000000E+00 0. -1.
         11    1    1    2    0    0  0.30155995162E+02 -0.31042205636E+02  0.10705088982E+02  0.44582524660E+02  0.00000000000E+00 0.  1.
</event>
<event>
 7    1  0.2594791E-009  0.1023594E+03  0.7561462E-02  0.1275411E+00
         -1   -1    0    0    0  501 -0.00000000000E+00  0.00000000000E+00  0.14871896642E+03  0.14871896642E+03  0.00000000000E+00 0.  1.
          1   -1    0    0  501    0  0.00000000000E+00 -0.00000000000E+00 -0.97065788755E+02  0.97065788755E+02  0.00000000000E+00 0. -1.
         25    2    1    2    0    0  0.43086533786E+02  0.75281553393E+01  0.64000959442E+00  0.13252083407E+03  0.12509292280E+03 0.  0.
          5    1    3    3  502    0  0.39560130122E+02  0.63510098573E+02 -0.89085857545E+01  0.75467687232E+02  0.41800000000E+01 0. -1.
         -5    1    3    3    0  502  0.35264036649E+01 -0.55981943233E+02  0.95485953489E+01  0.57053146838E+02  0.41800000000E+01 0. -1.
        -11    1    1    2    0    0 -0.14958353064E+02 -0.32588667650E+02 -0.13698506509E+02  0.38385188109E+02  0.00000000000E+00 0. -1.
         11    1    1    2    0    0 -0.28128180723E+02  0.25060512311E+02  0.64711674576E+02  0.74878732992E+02  0.00000000000E+00 0.  1.
</event>
<event>
 7    1  0.2594791E-009  0.1560283E+03  0.7561462E-02  0.1193255E+00
         -2   -1    0    0    0  501 -0.00000000000E+00  0.00000000000E+00  0.65988072551E+02  0.65988072551E+02  0.00000000000E+00 0.  1.
          2   -1    0    0  501    0  0.00000000000E+00 -0.00000000000E+00 -0.78226472801E+03  0.78226472801E+03  0.00000000000E+00 0. -1.
         25    2    1    2    0    0 -0.88990996402E+02 -0.93377562655E+02 -0.65260345511E+03  0.67688715340E+03  0.12508470000E+03 0.  0.
          5    1    3    3  502    0 -0.81848161750E+02 -0.26897968370E+02 -0.18046234508E+03  0.20001688098E+03  0.41800000000E+01 0.  1.
         -5    1    3    3    0  502 -0.71428346520E+01 -0.66479594284E+02 -0.47214111002E+03  0.47687027242E+03  0.41800000000E+01 0.  1.
        -11    1    1    2    0    0  0.75223193630E+02  0.11879964982E+02 -0.35699425604E+02  0.84107736959E+02  0.00000000000E+00 0.  1.
         11    1    1    2    0    0  0.13767802772E+02  0.81497597672E+02 -0.27973774753E+02  0.87257910205E+02  0.00000000000E+00 0. -1.
</event>
<event>
 7    1  0.2594791E-009  0.1189485E+03  0.7561462E-02  0.1244842E+00
         -1   -1    0    0    0  501 -0.00000000000E+00  0.00000000000E+00  0.48740616875E+02  0.48740616875E+02  0.00000000000E+00 0.  1.
          1   -1    0    0  501    0  0.00000000000E+00 -0.00000000000E+00 -0.30976227990E+03  0.30976227990E+03  0.00000000000E+00 0. -1.
         25    2    1    2    0    0 -0.57024172474E+02  0.33205613704E+01 -0.16257076353E+03  0.21293187247E+03  0.12509175347E+03 0.  0.
          5    1    3    3  502    0 -0.89403569355E+02  0.24616605273E+02 -0.13973171497E+03  0.16775398665E+03  0.41800000000E+01 0. -1.
         -5    1    3    3    0  502  0.32379396881E+02 -0.21296043902E+02 -0.22839048562E+02  0.45177885823E+02  0.41800000000E+01 0. -1.
        -11    1    1    2    0    0 -0.10481854488E+02  0.29299676304E+02 -0.19655988122E+02  0.36806224665E+02  0.00000000000E+00 0.  1.
         11    1    1    2    0    0  0.67506026962E+02 -0.32620237674E+02 -0.78794911375E+02  0.10876479964E+03  0.00000000000E+00 0. -1.
</event>
<event>
 7    1  0.2594791E-009  0.8835793E+02  0.7561462E-02  0.1306878E+00
          1   -1    0    0  501    0  0.00000000000E+00  0.00000000000E+00  0.30436453650E+02  0.30436453650E+02  0.00000000000E+00 0. -1.
         -1   -1    0    0    0  501 -0.00000000000E+00 -0.00000000000E+00 -0.43911041142E+03  0.43911041142E+03  0.00000000000E+00 0.  1.
         25    2    1    2    0    0  0.51913997545E+01  0.33850909840E+02 -0.23323636976E+03  0.26687171867E+03  0.12509386604E+03 0.  0.
          5    1    3    3  502    0 -0.50404879225E+02  0.40147313285E+02 -0.17247591157E+03  0.18416805121E+03  0.41800000000E+01 0. -1.
         -5    1    3    3    0  502  0.55596278980E+02 -0.62964034450E+01 -0.60760458188E+02  0.82703667464E+02  0.41800000000E+01 0. -1.
        -11    1    1    2    0    0  0.14938731004E+02  0.18452968753E+01  0.63417082720E+01  0.16333648349E+02  0.00000000000E+00 0. -1.
         11    1    1    2    0    0 -0.20130130758E+02 -0.35696206716E+02 -0.18177929629E+03  0.18634149805E+03  0.00000000000E+00 0.  1.
</event>
<event>
 7    1  0.2594791E-009  0.1849997E+03  0.7561462E-02  0.1163050E+00
         -2   -1    0    0    0  501 -0.00000000000E+00  0.00000000000E+00  0.18755205443E+03  0.18755205443E+03  0.00000000000E+00 0. -1.
          2   -1    0    0  501    0  0.00000000000E+00 -0.00000000000E+00 -0.21107078317E+03  0.21107078317E+03  0.00000000000E+00 0.  1.
         25    2    1    2    0    0 -0.13263658544E+03  0.83916721566E+02  0.43675802972E+02  0.20540469942E+03  0.12509610236E+03 0.  0.
          5    1    3    3  502    0 -0.22275710909E+02  0.81173349714E+02  0.43692458476E+02  0.94930623763E+02  0.41800000000E+01 0. -1.
         -5    1    3    3    0  502 -0.11036087453E+03  0.27433718525E+01 -0.16655503927E-01  0.11047407566E+03  0.41800000000E+01 0. -1.
        -11    1    1    2    0    0  0.26807942243E+01  0.12910183282E+02  0.70582483937E+01  0.14955880463E+02  0.00000000000E+00 0. -1.
         11    1    1    2    0    0  0.12995579121E+03 -0.96826904848E+02 -0.74252780110E+02  0.17826225772E+03  0.00000000000E+00 0.  1.
</event>
<event>
 7    1  0.2594791E-009  0.8773914E+02  0.7561462E-02  0.1308421E+00
          2   -1    0    0  501    0  0.00000000000E+00  0.00000000000E+00  0.40145623899E+03  0.40145623899E+03  0.00000000000E+00 0. -1.
         -2   -1    0    0    0  501 -0.00000000000E+00 -0.00000000000E+00 -0.39397104107E+02  0.39397104107E+02  0.00000000000E+00 0.  1.
         25    2    1    2    0    0 -0.99903044143E+01  0.33208878985E+02  0.12231042687E+03  0.17835342157E+03  0.12508983428E+03 0.  0.
          5    1    3    3  502    0 -0.47463115408E+02  0.51160789082E+02  0.28183950537E+02  0.75378917024E+02  0.41800000000E+01 0. -1.
         -5    1    3    3    0  502  0.37472810994E+02 -0.17951910098E+02  0.94126476330E+02  0.10297450454E+03  0.41800000000E+01 0. -1.
        -11    1    1    2    0    0  0.77207150440E+01  0.14295576719E+02 -0.17698797625E+01  0.16343360392E+02  0.00000000000E+00 0.  1.
         11    1    1    2    0    0  0.22695893703E+01 -0.47504455704E+02  0.24151858778E+03  0.24615656114E+03  0.00000000000E+00 0. -1.
</event>
<event>
 7    1  0.2594791E-009  0.1456589E+03  0.7561462E-02  0.1205911E+00
          2   -1    0    0  501    0  0.00000000000E+00  0.00000000000E+00  0.45144920564E+02  0.45144920564E+02  0.00000000000E+00 0. -1.
         -2   -1    0    0    0  501 -0.00000000000E+00 -0.00000000000E+00 -0.59882043181E+03  0.59882043181E+03  0.00000000000E+00 0.  1.
         25    2    1    2    0    0 -0.47875693788E+02  0.10438070156E+03 -0.39485130300E+03  0.42981766694E+03  0.12509301509E+03 0.  0.
          5    1    3    3  502    0 -0.81394132048E+02  0.43875793015E+02 -0.28760033362E+03  0.30212830758E+03  0.41800000000E+01 0. -1.
         -5    1    3    3    0  502  0.33518438260E+02  0.60504908548E+02 -0.10725096938E+03  0.12768935936E+03  0.41800000000E+01 0. -1.
        -11    1    1    2    0    0  0.57493572183E+02 -0.56443553995E+02 -0.49943218453E+02  0.94792988662E+02  0.00000000000E+00 0. -1.
         11    1    1    2    0    0 -0.96178783948E+01 -0.47937147567E+02 -0.10888098980E+03  0.11935469677E+03  0.00000000000E+00 0.  1.
</event>
<event>
 7    1  0.2594791E-009  0.1059570E+03  0.7561462E-02  0.1268246E+00
         -1   -1    0    0    0  501 -0.00000000000E+00  0.00000000000E+00  0.36888192791E+02  0.36888192791E+02  0.00000000000E+00 0.  1.
          1   -1    0    0  501    0  0.00000000000E+00 -0.00000000000E+00 -0.38901160886E+03  0.38901160886E+03  0.00000000000E+00 0. -1.
         25    2    1    2    0    0  0.42518663760E+02 -0.64644724565E+01 -0.20418002196E+03  0.24328302648E+03  0.12509006129E+03 0.  0.
          5    1    3    3  502    0  0.38503514154E+02  0.52683847016E+02 -0.14665273577E+03  0.16056962866E+03  0.41800000000E+01 0.  1.
         -5    1    3    3    0  502  0.40151496060E+01 -0.59148319473E+02 -0.57527286188E+02  0.82713397820E+02  0.41800000000E+01 0.  1.
        -11    1    1    2    0    0 -0.17734330760E+02  0.40950789826E+02 -0.12827316945E+03  0.13581413651E+03  0.00000000000E+00 0. -1.
         11    1    1    2    0    0 -0.24784333000E+02 -0.34486317370E+02 -0.19670224668E+02  0.46802638670E+02  0.00000000000E+00 0.  1.
</event>
<event>
 7    1  0.2594791E-009  0.7419499E+02  0.7561462E-02  0.1346382E+00
          3   -1    0    0  501    0  0.00000000000E+00  0.00000000000E+00  0.26863839246E+03  0.26863839246E+03  0.00000000000E+00 0. -1.
         -3   -1    0    0    0  501 -0.00000000000E+00 -0.00000000000E+00 -0.50217367080E+02  0.50217367080E+02  0.00000000000E+00 0.  1.
         25    2    1    2    0    0  0.24466037332E+02 -0.21482348361E+02  0.16807588059E+03  0.21203122239E+03  0.12509060461E+03 0.  0.
          5    1    3    3  502    0  0.25444027984E+00 -0.28424348858E+02 -0.11280787470E+02  0.30866436688E+02  0.41800000000E+01 0.  1.
         -5    1    3    3    0  502  0.24211597053E+02  0.69420004972E+01  0.17935666806E+03  0.18116478570E+03  0.41800000000E+01 0.  1.
        -11    1    1    2    0    0 -0.51716935258E+01 -0.34514318808E+02  0.16425594415E+02  0.38571813136E+02  0.00000000000E+00 0.  1.
         11    1    1    2    0    0 -0.19294343807E+02  0.55996667169E+02  0.33919550376E+02  0.68252724009E+02  0.00000000000E+00 0. -1.
</event>
<event>
 7    1  0.2594791E-009  0.1148786E+03  0.7561462E-02  0.1251793E+00
         -1   -1    0    0    0  501 -0.00000000000E+00  0.00000000000E+00  0.36333326786E+03  0.36333326786E+03  0.00000000000E+00 0.  1.
          1   -1    0    0  501    0  0.00000000000E+00 -0.00000000000E+00 -0.43549050346E+02  0.43549050346E+02  0.00000000000E+00 0. -1.
         25    2    1    2    0    0 -0.24436408118E+02  0.59371090782E+02  0.17605656950E+03  0.22531739076E+03  0.12509974601E+03 0.  0.
          5    1    3    3  502    0  0.38492081645E+02  0.54057940340E+02  0.46535679932E+02  0.81159985029E+02  0.41800000000E+01 0. -1.
         -5    1    3    3    0  502 -0.62928489763E+02  0.53131504413E+01  0.12952088957E+03  0.14415740573E+03  0.41800000000E+01 0. -1.
        -11    1    1    2    0    0  0.32325473083E+02  0.70499025039E+01  0.14645175365E+02  0.36181742590E+02  0.00000000000E+00 0. -1.
         11    1    1    2    0    0 -0.78890649645E+01 -0.66420993285E+02  0.12908247264E+03  0.14538318486E+03  0.00000000000E+00 0.  1.
</event>
<event>
 7    1  0.2594791E-009  0.1489917E+03  0.7561462E-02  0.1201717E+00
          1   -1    0    0  501    0  0.00000000000E+00  0.00000000000E+00  0.33080762738E+03  0.33080762738E+03  0.00000000000E+00 0. -1.
         -1   -1    0    0    0  501 -0.00000000000E+00 -0.00000000000E+00 -0.78526126254E+02  0.78526126254E+02  0.00000000000E+00 0.  1.
         25    2    1    2    0    0 -0.96398778580E+02  0.56505879689E+02  0.83171766072E+02  0.18722016725E+03  0.12509280317E+03 0.  0.
          5    1    3    3  502    0 -0.11932050785E+03  0.62928216834E+02  0.45430304563E+02  0.14240340249E+03  0.41800000000E+01 0.  1.
         -5    1    3    3    0  502  0.22921729271E+02 -0.64223371454E+01  0.37741461509E+02  0.44816764766E+02  0.41800000000E+01 0.  1.
        -11    1    1    2    0    0  0.54693296514E+02 -0.75333626353E+02  0.13915141612E+03  0.16742051413E+03  0.00000000000E+00 0.  1.
         11    1    1    2    0    0  0.41705482065E+02  0.18827746665E+02  0.29958318933E+02  0.54693072249E+02  0.00000000000E+00 0. -1.
</event>
<event>
 7    1  0.2594791E-009  0.1069251E+03  0.7561462E-02  0.1266372E+00
         -2   -1    0    0    0  501 -0.00000000000E+00  0.00000000000E+00  0.14031010901E+03  0.14031010901E+03  0.00000000000E+00 0.  1.
          2   -1    0    0  501    0  0.00000000000E+00 -0.00000000000E+00 -0.11391692409E+03  0.11391692409E+03  0.00000000000E+00 0. -1.
         25    2    1    2    0    0  0.22763704992E+02  0.62886559186E+01  0.21395473142E+02  0.12908165975E+03  0.12508627085E+03 0.  0.
          5    1    3    3  502    0  0.45113126176E+02 -0.42451100596E+02 -0.15336379125E+02  0.63952849975E+02  0.41800000000E+01 0.  1.
         -5    1    3    3    0  502 -0.22349421184E+02  0.48739756515E+02  0.36731852268E+02  0.65128809780E+02  0.41800000000E+01 0.  1.
        -11    1    1    2    0    0 -0.38205416001E+01 -0.50102305901E+02  0.41407471614E+02  0.65110800181E+02  0.00000000000E+00 0.  1.
         11    1    1    2    0    0 -0.18943163392E+02  0.43813649983E+02 -0.36409759837E+02  0.60034573168E+02  0.00000000000E+00 0. -1.
</event>
<event>
 7    1  0.2594791E-009  0.1104242E+03  0.7561462E-02  0.1259786E+00
          1   -1    0    0  501    0  0.00000000000E+00  0.00000000000E+00  0.59218008801E+03  0.59218008801E+03  0.00000000000E+00 0. -1.
         -1   -1    0    0    0  501 -0.00000000000E+00 -0.00000000000E+00 -0.67823442854E+02  0.67823442854E+02  0.00000000000E+00 0.  1.
         25    2    1    2    0    0 -0.14438943989E+02 -0.37288174921E+02  0.54378437952E+03  0.55941751496E+03  0.12509042148E+03 0.  0.
          5    1    3    3  502    0 -0.42765712141E+02 -0.69995306771E+02  0.27039157474E+03  0.28259038411E+03  0.41800000000E+01 0.  1.
         -5    1    3    3    0  502  0.28326768151E+02  0.32707131849E+02  0.27339280478E+03  0.27682713085E+03  0.41800000000E+01 0.  1.
        -11    1    1    2    0    0 -0.29089737152E+02 -0.10200433265E+02 -0.18909813687E+02  0.36164107898E+02  0.00000000000E+00 0.  1.
         11    1    1    2    0    0  0.43528681142E+02  0.47488608186E+02 -0.51792067193E+00  0.64421908007E+02  0.00000000000E+00 0. -1.
</event>
<event>
 7    1  0.2594791E-009  0.1099063E+03  0.7561462E-02  0.1260743E+00
          1   -1    0    0  501    0  0.00000000000E+00  0.00000000000E+00  0.15802092304E+03  0.15802092304E+03  0.00000000000E+00 0. -1.
         -1   -1    0    0    0  501 -0.00000000000E+00 -0.00000000000E+00 -0.83805225039E+02  0.83805225039E+02  0.00000000000E+00 0.  1.
         25    2    1    2    0    0 -0.13964105062E+02  0.24114710266E+02  0.68988748537E+02  0.14554809999E+03  0.12509311134E+03 0.  0.
          5    1    3    3  502    0 -0.56510776914E+02 -0.22236318978E+02  0.15383803542E+02  0.62785791390E+02  0.41800000000E+01 0.  1.
         -5    1    3    3    0  502  0.42546671852E+02  0.46351029244E+02  0.53604944994E+02  0.82762308604E+02  0.41800000000E+01 0.  1.
        -11    1    1    2    0    0  0.24261015042E+02 -0.56720498749E+02  0.66951771813E+01  0.62053502936E+02  0.00000000000E+00 0. -1.
         11    1    1    2    0    0 -0.10296909980E+02  0.32605788483E+02 -0.14682277214E+01  0.34224545145E+02  0.00000000000E+00 0.  1.
</event>
<event>
 7    1  0.2594791E-009  0.1985923E+03  0.7561462E-02  0.1150932E+00
          4   -1    0    0  501    0  0.00000000000E+00  0.00000000000E+00  0.51262356752E+03  0.51262356752E+03  0.00000000000E+00 0. -1.
         -4   -1    0    0    0  501 -0.00000000000E+00 -0.00000000000E+00 -0.92384111358E+02  0.92384111358E+02  0.00000000000E+00 0.  1.
         25    2    1    2    0    0 -0.16852196247E+03 -0.49524715496E+02  0.12390283335E+03  0.24870004216E+03  0.12508976608E+03 0.  0.
          5    1    3    3  502    0 -0.73546456231E+02 -0.80675790734E+02  0.94443722287E+02  0.14441174992E+03  0.41800000000E+01 0. -1.
         -5    1    3    3    0  502 -0.94975506240E+02  0.31151075238E+02  0.29459111060E+02  0.10428829224E+03  0.41800000000E+01 0. -1.
        -11    1    1    2    0    0  0.80363590188E+02 -0.10781746876E+02  0.74575175465E+02  0.11016355790E+03  0.00000000000E+00 0.  1.
         11    1    1    2    0    0  0.88158372284E+02  0.60306462372E+02  0.22176144735E+03  0.24614407882E+03  0.00000000000E+00 0. -1.
</event>
<event>
 7    1  0.3022858E-009  0.2554196E+03  0.7561462E-02  0.1109927E+00
         -2   -1    0    0    0  501 -0.00000000000E+00  0.00000000000E+00  0.66799748855E+02  0.66799748855E+02  0.00000000000E+00 0.  1.
          2   -1    0    0  501    0  0.00000000000E+00 -0.00000000000E+00 -0.12220454371E+04  0.12220454371E+04  0.00000000000E+00 0. -1.
         25    2    1    2    0    0  0.25233899318E+03  0.19216711508E+02 -0.42158989782E+03  0.50737509271E+03  0.12508874163E+03 0.  0.
          5    1    3    3  502    0  0.22681185525E+03  0.34775443803E+01 -0.41962683089E+03  0.47703234754E+03  0.41800000000E+01 0.  1.
         -5    1    3    3    0  502  0.25527137930E+02  0.15739167128E+02 -0.19630669278E+01  0.30342745171E+02  0.41800000000E+01 0.  1.
        -11    1    1    2    0    0 -0.57596209213E+02  0.30169379534E+01 -0.77128849096E+02  0.96308278944E+02  0.00000000000E+00 0.  1.
         11    1    1    2    0    0 -0.19474278397E+03 -0.22233649461E+02 -0.65652694136E+03  0.68516181432E+03  0.00000000000E+00 0. -1.
</event>
<event>
 7    1  0.2594791E-009  0.1645818E+03  0.7561462E-02  0.1183619E+00
         -1   -1    0    0    0  501 -0.00000000000E+00  0.00000000000E+00  0.11993678481E+04  0.11993678481E+04  0.00000000000E+00 0.  1.
          1   -1    0    0  501    0  0.00000000000E+00 -0.00000000000E+00 -0.29343116122E+02  0.29343116122E+02  0.00000000000E+00 0. -1.
         25    2    1    2    0    0 -0.14774302775E+03  0.29660855366E+02  0.49641852611E+03  0.53365379059E+03  0.12508895460E+03 0.  0.
          5    1    3    3  502    0 -0.11014527891E+03 -0.18683904613E+02  0.42509951475E+03  0.43955447967E+03  0.41800000000E+01 0. -1.
         -5    1    3    3    0  502 -0.37597748840E+02  0.48344759979E+02  0.71319011360E+02  0.94099310925E+02  0.41800000000E+01 0. -1.
        -11    1    1    2    0    0  0.13918510755E+03 -0.16330967273E+02  0.65822386686E+03  0.67297685960E+03  0.00000000000E+00 0.  1.
         11    1    1    2    0    0  0.85579202042E+01 -0.13329888092E+02  0.15382339057E+02  0.22080314075E+02  0.00000000000E+00 0. -1.
</event>
<event>
 7    1  0.2594791E-009  0.9670990E+02  0.7561462E-02  0.1287371E+00
          1   -1    0    0  501    0  0.00000000000E+00  0.00000000000E+00  0.17062136564E+03  0.17062136564E+03  0.00000000000E+00 0. -1.
         -1   -1    0    0    0  501 -0.00000000000E+00 -0.00000000000E+00 -0.88868475963E+02  0.88868475963E+02  0.00000000000E+00 0.  1.
         25    2    1    2    0    0  0.17095020482E+02 -0.25830093490E+02  0.95841183846E+02  0.16060035739E+03  0.12509000286E+03 0.  0.
          5    1    3    3  502    0  0.68460233561E+02 -0.16131969214E+02  0.30392495712E+02  0.76734739236E+02  0.41800000000E+01 0. -1.
         -5    1    3    3    0  502 -0.51365213079E+02 -0.96981242752E+01  0.65448688134E+02  0.83865618149E+02  0.41800000000E+01 0. -1.
        -11    1    1    2    0    0  0.21862270436E+02 -0.29847377952E+01 -0.38694815305E+02  0.44543868937E+02  0.00000000000E+00 0.  1.
         11    1    1    2    0    0 -0.38957290918E+02  0.28814831285E+02  0.24606521135E+02  0.54345615279E+02  0.00000000000E+00 0. -1.
</event>
<event>
 7    1  0.2594791E-009  0.7065970E+02  0.7561462E-02  0.1357864E+00
         -2   -1    0    0    0  501 -0.00000000000E+00  0.00000000000E+00  0.27008786697E+02  0.27008786697E+02  0.00000000000E+00 0.  1.
          2   -1    0    0  501    0  0.00000000000E+00 -0.00000000000E+00 -0.46702892340E+03  0.46702892340E+03  0.00000000000E+00 0. -1.
         25    2    1    2    0    0 -0.14781387418E+02  0.33544248202E+01 -0.31440414120E+03  0.33871760755E+03  0.12509960865E+03 0.  0.
          5    1    3    3  502    0  0.31395485607E+02  0.17894383586E+02 -0.27140531634E+03  0.27383243711E+03  0.41800000000E+01 0. -1.
         -5    1    3    3    0  502 -0.46176873025E+02 -0.14539958766E+02 -0.42998824862E+02  0.64885170438E+02  0.41800000000E+01 0. -1.
        -11    1    1    2    0    0  0.32649177697E+02  0.98830998587E+01 -0.72380750568E+01  0.34871681887E+02  0.00000000000E+00 0.  1.
         11    1    1    2    0    0 -0.17867790279E+02 -0.13237524679E+02 -0.11837792045E+03  0.12044842066E+03  0.00000000000E+00 0. -1.
</event>
<event>
 7    1  0.2594791E-009  0.1158249E+03  0.7561462E-02  0.1250148E+00
          2   -1    0    0  501    0  0.00000000000E+00  0.00000000000E+00  0.56972715707E+03  0.56972715707E+03  0.00000000000E+00 0. -1.
         -2   -1    0    0    0  501 -0.00000000000E+00 -0.00000000000E+00 -0.25745262306E+02  0.25745262306E+02  0.00000000000E+00 0.  1.
         25    2    1    2    0    0 -0.37266914399E+02 -0.37435905682E+02  0.34345722653E+03  0.36932305645E+03  0.12508550526E+03 0.  0.
          5    1    3    3  502    0  0.36322825236E+02 -0.48605563647E+02  0.14015758916E+03  0.15278570172E+03  0.41800000000E+01 0. -1.
         -5    1    3    3    0  502 -0.73589739635E+02  0.11169657965E+02  0.20329963737E+03  0.21653735473E+03  0.41800000000E+01 0. -1.
        -11    1    1    2    0    0  0.33038771038E+02  0.62587906636E+02  0.10046502631E+03  0.12289030865E+03  0.00000000000E+00 0.  1.
         11    1    1    2    0    0  0.42281433608E+01 -0.25152000954E+02  0.10005964192E+03  0.10325905427E+03  0.00000000000E+00 0. -1.
</event>
<event>
 7    1  0.2594791E-009  0.2229996E+03  0.7561462E-02  0.1131666E+00
         -2   -1    0    0    0  501 -0.00000000000E+00  0.00000000000E+00  0.18806756089E+03  0.18806756089E+03  0.00000000000E+00 0.  1.
          2   -1    0    0  501    0  0.00000000000E+00 -0.00000000000E+00 -0.50641952146E+03  0.50641952146E+03  0.00000000000E+00 0. -1.
         25    2    1    2    0    0 -0.19292571078E+03  0.69785391162E+02 -0.39052281198E+03  0.45852536463E+03  0.12508841927E+03 0.  0.
          5    1    3    3  502    0 -0.71677593510E+02 -0.23001046286E+02 -0.67421667563E+02  0.10114286529E+03  0.41800000000E+01 0.  1.
         -5    1    3    3    0  502 -0.12124811728E+03  0.92786437448E+02 -0.32310114441E+03  0.35738249934E+03  0.41800000000E+01 0.  1.
        -11    1    1    2    0    0  0.14290405741E+03 -0.15007196500E+02  0.19552946513E+02  0.14501414858E+03  0.00000000000E+00 0. -1.
         11    1    1    2    0    0  0.50021653375E+02 -0.54778194662E+02  0.52617904895E+02  0.90947569139E+02  0.00000000000E+00 0.  1.
</event>
<event>
 7    1  0.2594791E-009  0.1072191E+03  0.7561462E-02  0.1265808E+00
          2   -1    0    0  501    0  0.00000000000E+00  0.00000000000E+00  0.69965569836E+03  0.69965569836E+03  0.00000000000E+00 0. -1.
         -2   -1    0    0    0  501 -0.00000000000E+00 -0.00000000000E+00 -0.20955492044E+02  0.20955492044E+02  0.00000000000E+00 0.  1.
         25    2    1    2    0    0 -0.28483445050E+02 -0.29939210139E+02  0.48621186894E+03  0.50374205717E+03  0.12508563355E+03 0.  0.
          5    1    3    3  502    0  0.11523509126E+02 -0.71821224689E+02  0.24260601687E+03  0.25331054340E+03  0.41800000000E+01 0. -1.
         -5    1    3    3    0  502 -0.40006954176E+02  0.41882014550E+02  0.24360585207E+03  0.25043151377E+03  0.41800000000E+01 0. -1.
        -11    1    1    2    0    0  0.48800452952E+02  0.18421312325E+01  0.48732168999E+02  0.68990593208E+02  0.00000000000E+00 0.  1.
         11    1    1    2    0    0 -0.20317007902E+02  0.28097078907E+02  0.14375616838E+03  0.14787854002E+03  0.00000000000E+00 0. -1.
</event>
<event>
 7    1  0.2594791E-009  0.1076268E+03  0.7561462E-02  0.1265029E+00
          3   -1    0    0  501    0  0.00000000000E+00  0.00000000000E+00  0.23003814439E+02  0.23003814439E+02  0.00000000000E+00 0. -1.
         -3   -1    0    0    0  501 -0.00000000000E+00 -0.00000000000E+00 -0.56464975783E+03  0.56464975783E+03  0.00000000000E+00 0.  1.
         25    2    1    2    0    0 -0.19075149033E+02  0.27790984650E+02 -0.27644463246E+03  0.30529594219E+03  0.12509107628E+03 0.  0.
          5    1    3    3  502    0  0.40340007740E+02  0.44661502099E+02 -0.18721519123E+03  0.19669510980E+03  0.41800000000E+01 0.  1.
         -5    1    3    3    0  502 -0.59415156773E+02 -0.16870517449E+02 -0.89229441229E+02  0.10860083239E+03  0.41800000000E+01 0.  1.
        -11    1    1    2    0    0  0.41178632596E+02  0.15832143042E+02 -0.86707496660E+02  0.97285798104E+02  0.00000000000E+00 0. -1.
         11    1    1    2    0    0 -0.22103483563E+02 -0.43623127693E+02 -0.17849381427E+03  0.18507183197E+03  0.00000000000E+00 0.  1.
</event>
<event>
 7    1  0.2594791E-009  0.1399289E+03  0.7561462E-02  0.1213425E+00
          1   -1    0    0  501    0  0.00000000000E+00  0.00000000000E+00  0.41338102650E+03  0.41338102650E+03  0.00000000000E+00 0. -1.
         -1   -1    0    0    0  501 -0.00000000000E+00 -0.00000000000E+00 -0.58007834552E+02  0.58007834552E+02  0.00000000000E+00 0.  1.
         25    2    1    2    0    0 -0.71644315522E+02 -0.75881315269E+02  0.13494817120E+03  0.21153886030E+03  0.12508716381E+03 0.  0.
          5    1    3    3  502    0  0.30032182155E+02 -0.73594426732E+01  0.60399494883E+02  0.67982826828E+02  0.41800000000E+01 0.  1.
         -5    1    3    3    0  502 -0.10167649768E+03 -0.68521872596E+02  0.74548676322E+02  0.14355603347E+03  0.41800000000E+01 0.  1.
        -11    1    1    2    0    0  0.17011426646E+02 -0.13160451737E+02  0.76758096182E+01  0.22836466008E+02  0.00000000000E+00 0.  1.
         11    1    1    2    0    0  0.54632888877E+02  0.89041767006E+02  0.21274921112E+03  0.23701353474E+03  0.00000000000E+00 0. -1.
</event>
<event>
 7    1  0.2594791E-009  0.1309980E+03  0.7561462E-02  0.1225982E+00
          2   -1    0    0  501    0  0.00000000000E+00  0.00000000000E+00  0.25998599166E+03  0.25998599166E+03  0.00000000000E+00 0. -1.
         -2   -1    0    0    0  501 -0.00000000000E+00 -0.00000000000E+00 -0.83766906751E+02  0.83766906751E+02  0.00000000000E+00 0.  1.
         25    2    1    2    0    0 -0.78872042690E+02 -0.61527330261E+02  0.81411270568E+02  0.17967119912E+03  0.12509010085E+03 0.  0.
          5    1    3    3  502    0  0.33148538674E+02 -0.26571282408E+02  0.19592987654E+02  0.46970376092E+02  0.41800000000E+01 0. -1.
         -5    1    3    3    0  502 -0.11202058136E+03 -0.34956047853E+02  0.61818282913E+02  0.13270082303E+03  0.41800000000E+01 0. -1.
        -11    1    1    2    0    0  0.20197005981E+02  0.27291593284E+02  0.89754263103E+02  0.95961335233E+02  0.00000000000E+00 0. -1.
         11    1    1    2    0    0  0.58675036709E+02  0.34235736977E+02  0.50535512398E+01  0.68120364057E+02  0.00000000000E+00 0.  1.
</event>
<event>
 7    1  0.2594791E-009  0.1065393E+03  0.7561462E-02  0.1267116E+00
          2   -1    0    0  501    0  0.00000000000E+00  0.00000000000E+00  0.10290337662E+04  0.10290337662E+04  0.00000000000E+00 0. -1.
         -2   -1    0    0    0  501 -0.00000000000E+00 -0.00000000000E+00 -0.26961198699E+02  0.26961198699E+02  0.00000000000E+00 0.  1.
         25    2    1    2    0    0  0.63836722624E+02 -0.52342833992E+02  0.82979460301E+03  0.84322017403E+03  0.12508508818E+03 0.  0.
          5    1    3    3  502    0  0.49769115023E+02 -0.68704640081E+02  0.80735107787E+03  0.81180695225E+03  0.41800000000E+01 0. -1.
         -5    1    3    3    0  502  0.14067607600E+02  0.16361806090E+02  0.22443525136E+02  0.31413221781E+02  0.41800000000E+01 0. -1.
        -11    1    1    2    0    0 -0.28271980766E+02 -0.13496906776E+02  0.11313756837E+03  0.11739497760E+03  0.00000000000E+00 0. -1.
         11    1    1    2    0    0 -0.35564741858E+02  0.65839740768E+02  0.59140396151E+02  0.95379813298E+02  0.00000000000E+00 0.  1.
</event>
<event>
 7    1  0.2594791E-009  0.1181464E+03  0.7561462E-02  0.1246187E+00
         -1   -1    0    0    0  501 -0.00000000000E+00  0.00000000000E+00  0.84799511656E+02  0.84799511656E+02  0.00000000000E+00 0. -1.
          1   -1    0    0  501    0  0.00000000000E+00 -0.00000000000E+00 -0.20780106157E+03  0.20780106157E+03  0.00000000000E+00 0.  1.
         25    2    1    2    0    0 -0.63010622745E+02 -0.44275040056E+01 -0.20936053895E+02  0.14167635829E+03  0.12507570018E+03 0.  0.
          5    1    3    3  502    0 -0.96240603712E+02 -0.19702267447E+01 -0.38523982147E+02  0.10376755368E+03  0.41800000000E+01 0. -1.
         -5    1    3    3    0  502  0.33229980967E+02 -0.24572772609E+01  0.17587928252E+02  0.37908804608E+02  0.41800000000E+01 0. -1.
        -11    1    1    2    0    0 -0.19940002907E+02 -0.97661328470E+01 -0.42077213173E+02  0.47575970143E+02  0.00000000000E+00 0. -1.
         11    1    1    2    0    0  0.82950625652E+02  0.14193636853E+02 -0.59988282848E+02  0.10334824480E+03  0.00000000000E+00 0.  1.
</event>
<event>
 7    1  0.2594791E-009  0.9682387E+02  0.7561462E-02  0.1287120E+00
         -1   -1    0    0    0  501 -0.00000000000E+00  0.00000000000E+00  0.10585723799E+03  0.10585723799E+03  0.00000000000E+00 0.  1.
          1   -1    0    0  501    0  0.00000000000E+00 -0.00000000000E+00 -0.16258928574E+03  0.16258928574E+03  0.00000000000E+00 0. -1.
         25    2    1    2    0    0 -0.60848957947E+02  0.28917472362E+02 -0.78847533898E+00  0.14207638965E+03  0.12508502273E+03 0.  0.
          5    1    3    3  502    0  0.74000074438E+01  0.21561384477E+01 -0.51884672252E+02  0.52620344524E+02  0.41800000000E+01 0.  1.
         -5    1    3    3    0  502 -0.68248965391E+02  0.26761333914E+02  0.51096196913E+02  0.89456045121E+02  0.41800000000E+01 0.  1.
        -11    1    1    2    0    0  0.67469302353E+02 -0.53428914777E+02 -0.52333194806E+02  0.10072496698E+03  0.00000000000E+00 0. -1.
         11    1    1    2    0    0 -0.66203444060E+01  0.24511442415E+02 -0.36103776085E+01  0.25645167104E+02  0.00000000000E+00 0.  1.
</event>
<event>
 7    1  0.2594791E-009  0.5969514E+02  0.7561462E-02  0.1399116E+00
         -3   -1    0    0    0  501 -0.00000000000E+00  0.00000000000E+00  0.18492391692E+03  0.18492391692E+03  0.00000000000E+00 0.  1.
          3   -1    0    0  501    0  0.00000000000E+00 -0.00000000000E+00 -0.77691143720E+02  0.77691143720E+02  0.00000000000E+00 0. -1.
         25    2    1    2    0    0 -0.40794773496E+02  0.30968734123E+02  0.50459075396E+02  0.14428330375E+03  0.12509307500E+03 0.  0.
          5    1    3    3  502    0 -0.26788010988E+02 -0.27282385035E+01 -0.39000452072E+02  0.47576764075E+02  0.41800000000E+01 0.  1.
         -5    1    3    3    0  502 -0.14006762508E+02  0.33696972626E+02  0.89459527468E+02  0.96706539670E+02  0.41800000000E+01 0.  1.
        -11    1    1    2    0    0  0.23758509973E+02 -0.30107148844E+02 -0.17477023400E+02  0.42146809542E+02  0.00000000000E+00 0. -1.
         11    1    1    2    0    0  0.17036263523E+02 -0.86158527894E+00  0.74250721200E+02  0.76184947350E+02  0.00000000000E+00 0.  1.
</event>
<event>
 7    1  0.2594791E-009  0.1100255E+03  0.7561462E-02  0.1260523E+00
         -1   -1    0    0    0  501 -0.00000000000E+00  0.00000000000E+00  0.26121434286E+02  0.26121434286E+02  0.00000000000E+00 0.  1.
          1   -1    0    0  501    0  0.00000000000E+00 -0.00000000000E+00 -0.50679228936E+03  0.50679228936E+03  0.00000000000E+00 0. -1.
         25    2    1    2    0    0 -0.10014054262E+02  0.46349338701E+02 -0.27418579448E+03  0.30507867093E+03  0.12508638247E+03 0.  0.
          5    1    3    3  502    0  0.19609314259E+02  0.79370090597E+02 -0.12532992734E+03  0.14969702593E+03  0.41800000000E+01 0. -1.
         -5    1    3    3    0  502 -0.29623368521E+02 -0.33020751895E+02 -0.14885586715E+03  0.15538164500E+03  0.41800000000E+01 0. -1.
        -11    1    1    2    0    0 -0.33111318903E+02 -0.42857965526E+01 -0.10080684727E+03  0.10619203335E+03  0.00000000000E+00 0. -1.
         11    1    1    2    0    0  0.43125373164E+02 -0.42063542149E+02 -0.10567821333E+03  0.12164301937E+03  0.00000000000E+00 0.  1.
</event>
<event>
 7    1  0.2594791E-009  0.1456839E+03  0.7561462E-02  0.1205879E+00
          1   -1    0    0  501    0  0.00000000000E+00  0.00000000000E+00  0.15175179776E+03  0.15175179776E+03  0.00000000000E+00 0. -1.
         -1   -1    0    0    0  501 -0.00000000000E+00 -0.00000000000E+00 -0.21637821649E+03  0.21637821649E+03  0.00000000000E+00 0.  1.
         25    2    1    2    0    0  0.11147888194E+03 -0.77604100869E+02 -0.83139590195E+02  0.20250520324E+03  0.12508488434E+03 0.  0.
          5    1    3    3  502    0  0.39700040137E+02 -0.40664072128E+01  0.29629834309E+02  0.49880139692E+02  0.41800000000E+01 0. -1.
         -5    1    3    3    0  502  0.71778841803E+02 -0.73537693656E+02 -0.11276942450E+03  0.15262506354E+03  0.41800000000E+01 0. -1.
        -11    1    1    2    0    0 -0.10846151302E+03  0.47950564418E+02 -0.16402154809E+02  0.11971711288E+03  0.00000000000E+00 0.  1.
         11    1    1    2    0    0 -0.30173689197E+01  0.29653536451E+02  0.34915326272E+02  0.45907698133E+02  0.00000000000E+00 0. -1.
</event>
<event>
 7    1  0.2594791E-009  0.1371076E+03  0.7561462E-02  0.1217275E+00
          2   -1    0    0  501    0  0.00000000000E+00  0.00000000000E+00  0.19397112539E+03  0.19397112539E+03  0.00000000000E+00 0. -1.
         -2   -1    0    0    0  501 -0.00000000000E+00 -0.00000000000E+00 -0.16790221392E+03  0.16790221392E+03  0.00000000000E+00 0.  1.
         25    2    1    2    0    0 -0.25914172251E+02 -0.90764942051E+02 -0.95978430974E+02  0.18376500529E+03  0.12509156218E+03 0.  0.
          5    1    3    3  502    0 -0.57343528206E+02 -0.53401086853E+01 -0.10228336116E+02  0.58642034818E+02  0.41800000000E+01 0.  1.
         -5    1    3    3    0  502  0.31429355955E+02 -0.85424833366E+02 -0.85750094858E+02  0.12512297047E+03  0.41800000000E+01 0.  1.
        -11    1    1    2    0    0  0.12084125419E+02 -0.14674932553E+02  0.38262439519E+02  0.42724630022E+02  0.00000000000E+00 0. -1.
         11    1    1    2    0    0  0.13830046832E+02  0.10543987460E+03  0.83784902921E+02  0.13538370400E+03  0.00000000000E+00 0.  1.
</event>
<event>
 7    1  0.2594791E-009  0.1012214E+03  0.7561462E-02  0.1277748E+00
          1   -1    0    0  501    0  0.00000000000E+00  0.00000000000E+00  0.32708726581E+03  0.32708726581E+03  0.00000000000E+00 0. -1.
         -1   -1    0    0    0  501 -0.00000000000E+00 -0.00000000000E+00 -0.40071703763E+02  0.40071703763E+02  0.00000000000E+00 0.  1.
         25    2    1    2    0    0 -0.35484051047E+02 -0.95948609840E+01  0.18012659776E+03  0.22236146434E+03  0.12509136808E+03 0.  0.
          5    1    3    3  502    0 -0.43311658572E+02  0.50863990642E+02  0.11495388152E+03  0.13302222592E+03  0.41800000000E+01 0. -1.
         -5    1    3    3    0  502  0.78276075248E+01 -0.60458851626E+02  0.65172716238E+02  0.89339238419E+02  0.41800000000E+01 0. -1.
        -11    1    1    2    0    0 -0.16969274425E+02 -0.84140621456E+01  0.81735008047E+02  0.83900919284E+02  0.00000000000E+00 0. -1.
         11    1    1    2    0    0  0.52453325472E+02  0.18008923130E+02  0.25153956236E+02  0.60896585944E+02  0.00000000000E+00 0.  1.
</event>
<event>
 7    1  0.2594791E-009  0.1239333E+03  0.7561462E-02  0.1236746E+00
         -2   -1    0    0    0  501 -0.00000000000E+00  0.00000000000E+00  0.11584326754E+02  0.11584326754E+02  0.00000000000E+00 0. -1.
          2   -1    0    0  501    0  0.00000000000E+00 -0.00000000000E+00 -0.13604531959E+04  0.13604531959E+04  0.00000000000E+00 0.  1.
         25    2    1    2    0    0  0.15061825117E+02 -0.54442472057E+02 -0.72640509829E+03  0.73925798552E+03  0.12508861254E+03 0.  0.
          5    1    3    3  502    0 -0.40147293585E+02 -0.66292132396E+02 -0.34137061527E+03  0.35008259221E+03  0.41800000000E+01 0.  1.
         -5    1    3    3    0  502  0.55209118703E+02  0.11849660339E+02 -0.38503448303E+03  0.38917539331E+03  0.41800000000E+01 0.  1.
        -11    1    1    2    0    0  0.36501576284E+02  0.49960002196E+02 -0.32209688997E+03  0.32798593479E+03  0.00000000000E+00 0.  1.
         11    1    1    2    0    0 -0.51563401401E+02  0.44824698607E+01 -0.30036688084E+03  0.30479360230E+03  0.00000000000E+00 0. -1.
</event>
<event>
 7    1  0.2594791E-009  0.6395825E+02  0.7561462E-02  0.1381934E+00
         -1   -1    0    0    0  501 -0.00000000000E+00  0.00000000000E+00  0.97254919624E+03  0.97254919624E+03  0.00000000000E+00 0.  1.
          1   -1    0    0  501    0  0.00000000000E+00 -0.00000000000E+00 -0.13987510633E+02  0.13987510633E+02  0.00000000000E+00 0. -1.
         25    2    1    2    0    0 -0.56263919768E+01  0.13622875681E+02  0.70541117519E+03  0.71656812463E+03  0.12509081547E+03 0.  0.
          5    1    3    3  502    0 -0.13521746369E+02 -0.10005480663E+02  0.86898183300E+01  0.19388981684E+02  0.41800000000E+01 0. -1.
         -5    1    3    3    0  502  0.78953543919E+01  0.23628356344E+02  0.69672135686E+03  0.69717914294E+03  0.41800000000E+01 0. -1.
        -11    1    1    2    0    0  0.20260265229E+01 -0.49361748228E+02  0.19861145439E+03  0.20466361862E+03  0.00000000000E+00 0. -1.
         11    1    1    2    0    0  0.36003654539E+01  0.35738872547E+02  0.54539056023E+02  0.65304963626E+02  0.00000000000E+00 0.  1.
</event>
<event>
 7    1  0.2594791E-009  0.1024545E+03  0.7561462E-02  0.1275218E+00
          2   -1    0    0  501    0  0.00000000000E+00  0.00000000000E+00  0.20029893844E+03  0.20029893844E+03  0.00000000000E+00 0. -1.
         -2   -1    0    0    0  501 -0.00000000000E+00 -0.00000000000E+00 -0.65969592881E+02  0.65969592881E+02  0.00000000000E+00 0.  1.
         25    2    1    2    0    0  0.31752380837E+02  0.43356786524E+01  0.90985441073E+02  0.15798989245E+03  0.12512171607E+03 0.  0.
          5    1    3    3  502    0  0.31655793263E+02  0.60023772578E+02  0.71947403176E+02  0.98989109226E+02  0.41800000000E+01 0.  1.
         -5    1    3    3    0  502  0.96587574376E-01 -0.55688093925E+02  0.19038037897E+02  0.59000783225E+02  0.41800000000E+01 0.  1.
        -11    1    1    2    0    0 -0.34791455788E+02  0.30403369033E+02 -0.73132155964E+01  0.46779198013E+02  0.00000000000E+00 0.  1.
         11    1    1    2    0    0  0.30390749509E+01 -0.34739047686E+02  0.50657120078E+02  0.61499440854E+02  0.00000000000E+00 0. -1.
</event>
<event>
 7    1  0.2594791E-009  0.1070141E+03  0.7561462E-02  0.1266201E+00
          1   -1    0    0  501    0  0.00000000000E+00  0.00000000000E+00  0.11630169945E+04  0.11630169945E+04  0.00000000000E+00 0. -1.
         -1   -1    0    0    0  501 -0.00000000000E+00 -0.00000000000E+00 -0.11054075885E+02  0.11054075885E+02  0.00000000000E+00 0.  1.
         25    2    1    2    0    0  0.92919705561E+00 -0.32623647897E+02  0.68677373237E+03  0.69883283228E+03  0.12507598565E+03 0.  0.
          5    1    3    3  502    0  0.54228823768E+02  0.42654991895E+01  0.45056218685E+03  0.45385318819E+03  0.41800000000E+01 0. -1.
         -5    1    3    3    0  502 -0.53299626712E+02 -0.36889147086E+02  0.23621154552E+03  0.24497964409E+03  0.41800000000E+01 0. -1.
        -11    1    1    2    0    0  0.27841116522E+02 -0.20178928128E+02  0.11910752406E+03  0.12397144509E+03  0.00000000000E+00 0.  1.
         11    1    1    2    0    0 -0.28770313578E+02  0.52802576024E+02  0.34608166222E+03  0.35126679305E+03  0.00000000000E+00 0. -1.
</event>
<event>
 7    1  0.2594791E-009  0.9801418E+02  0.7561462E-02  0.1284528E+00
          2   -1    0    0  501    0  0.00000000000E+00  0.00000000000E+00  0.14331890421E+04  0.14331890421E+04  0.00000000000E+00 0. -1.
         -2   -1    0    0    0  501 -0.00000000000E+00 -0.00000000000E+00 -0.13739948473E+02  0.13739948473E+02  0.00000000000E+00 0.  1.
         25    2    1    2    0    0 -0.67627574851E+01 -0.80055414480E+02  0.95827893067E+03  0.96974298503E+03  0.12509334022E+03 0.  0.
          5    1    3    3  502    0  0.69276174587E+00 -0.15666087220E+01  0.69177964919E+03  0.69179439837E+03  0.41800000000E+01 0.  1.
         -5    1    3    3    0  502 -0.74555192310E+01 -0.78488805758E+02  0.26649928149E+03  0.27794858667E+03  0.41800000000E+01 0.  1.
        -11    1    1    2    0    0  0.36945863694E+02  0.72611904610E+02  0.40377706645E+03  0.41191431746E+03  0.00000000000E+00 0. -1.
         11    1    1    2    0    0 -0.30183106209E+02  0.74435098699E+01  0.57393096529E+02  0.65271688111E+02  0.00000000000E+00 0.  1.
</event>
<event>
 7    1  0.2594791E-009  0.1712325E+03  0.7561462E-02  0.1176569E+00
          1   -1    0    0  501    0  0.00000000000E+00  0.00000000000E+00  0.26694229173E+03  0.26694229173E+03  0.00000000000E+00 0. -1.
         -1   -1    0    0    0  501 -0.00000000000E+00 -0.00000000000E+00 -0.12926424813E+03  0.12926424813E+03  0.00000000000E+00 0.  1.
         25    2    1    2    0    0  0.55783802991E+02  0.13907220492E+03  0.82886855667E+02  0.21206279667E+03  0.12508991979E+03 0.  0.
          5    1    3    3  502    0  0.10812395942E+02  0.11531080371E+03  0.10505570557E+03  0.15642142766E+03  0.41800000000E+01 0.  1.
         -5    1    3    3    0  502  0.44971407049E+02  0.23761401208E+02 -0.22168849906E+02  0.55641369012E+02  0.41800000000E+01 0.  1.
        -11    1    1    2    0    0 -0.16434403144E+01  0.13523568168E+02  0.16086218136E+01  0.13717705938E+02  0.00000000000E+00 0.  1.
         11    1    1    2    0    0 -0.54140362677E+02 -0.15259577308E+03  0.53182566116E+02  0.17042603725E+03  0.00000000000E+00 0. -1.
</event>
<event>
 7    1  0.2594791E-009  0.2470936E+03  0.7561462E-02  0.1115155E+00
         -4   -1    0    0    0  501 -0.00000000000E+00  0.00000000000E+00  0.10897708806E+03  0.10897708806E+03  0.00000000000E+00 0. -1.
          4   -1    0    0  501    0  0.00000000000E+00 -0.00000000000E+00 -0.65840514270E+03  0.65840514270E+03  0.00000000000E+00 0.  1.
         25    2    1    2    0    0 -0.24035861377E+03 -0.29088482368E+02 -0.23235294041E+03  0.35812438866E+03  0.12508711291E+03 0.  0.
          5    1    3    3  502    0 -0.90190237892E+02 -0.13084714089E+02 -0.17343438396E+03  0.19596542219E+03  0.41800000000E+01 0.  1.
         -5    1    3    3    0  502 -0.15016837588E+03 -0.16003768279E+02 -0.58918556449E+02  0.16215896647E+03  0.41800000000E+01 0.  1.
        -11    1    1    2    0    0  0.33714895991E+02 -0.20382786257E+02 -0.90143560378E+02  0.98376895992E+02  0.00000000000E+00 0.  1.
         11    1    1    2    0    0  0.20664371778E+03  0.49471268625E+02 -0.22693155386E+03  0.31088094611E+03  0.00000000000E+00 0. -1.
</event>
<event>
 7    1  0.2594791E-009  0.1957382E+03  0.7561462E-02  0.1153385E+00
          1   -1    0    0  501    0  0.00000000000E+00  0.00000000000E+00  0.93727791478E+03  0.93727791478E+03  0.00000000000E+00 0. -1.
         -1   -1    0    0    0  501 -0.00000000000E+00 -0.00000000000E+00 -0.75539193060E+02  0.75539193060E+02  0.00000000000E+00 0.  1.
         25    2    1    2    0    0 -0.16381091331E+03 -0.10509817657E+03  0.16728849822E+03  0.28550324405E+03  0.12508804373E+03 0.  0.
          5    1    3    3  502    0 -0.12933563843E+03 -0.88081082350E+02  0.53665961631E+02  0.16547958265E+03  0.41800000000E+01 0.  1.
         -5    1    3    3    0  502 -0.34475274884E+02 -0.17017094220E+02  0.11362253659E+03  0.12002366140E+03  0.41800000000E+01 0.  1.
        -11    1    1    2    0    0  0.13322415308E+03  0.96478673917E+02  0.66106582327E+03  0.68122304143E+03  0.00000000000E+00 0. -1.
         11    1    1    2    0    0  0.30586760229E+02  0.86195026538E+01  0.33384400232E+02  0.46090822363E+02  0.00000000000E+00 0.  1.
</event>
<event>
 7    1  0.2594791E-009  0.9120459E+02  0.7561462E-02  0.1299961E+00
         -1   -1    0    0    0  501 -0.00000000000E+00  0.00000000000E+00  0.40420174018E+02  0.40420174018E+02  0.00000000000E+00 0.  1.
          1   -1    0    0  501    0  0.00000000000E+00 -0.00000000000E+00 -0.36860668362E+03  0.36860668362E+03  0.00000000000E+00 0. -1.
         25    2    1    2    0    0  0.55761512815E+02 -0.33452408564E+01 -0.20239463127E+03  0.24440730588E+03  0.12510318722E+03 0.  0.
          5    1    3    3  502    0  0.64421098247E+02  0.10158902065E+02 -0.31208713967E+02  0.72420559360E+02  0.41800000000E+01 0. -1.
         -5    1    3    3    0  502 -0.86595854316E+01 -0.13504142921E+02 -0.17118591730E+03  0.17198674652E+03  0.41800000000E+01 0. -1.
        -11    1    1    2    0    0  0.20972933914E+02 -0.88851492771E+01 -0.54896987291E+02  0.59434746136E+02  0.00000000000E+00 0. -1.
         11    1    1    2    0    0 -0.76734446730E+02  0.12230390133E+02 -0.70894891038E+02  0.10518480562E+03  0.00000000000E+00 0.  1.
</event>
<event>
 7    1  0.2594791E-009  0.1610888E+03  0.7561462E-02  0.1187473E+00
         -2   -1    0    0    0  501 -0.00000000000E+00  0.00000000000E+00  0.28387373367E+03  0.28387373367E+03  0.00000000000E+00 0.  1.
          2   -1    0    0  501    0  0.00000000000E+00 -0.00000000000E+00 -0.11923028621E+03  0.11923028621E+03  0.00000000000E+00 0. -1.
         25    2    1    2    0    0  0.11597843464E+03  0.45937197254E+02 -0.98672994775E-01  0.17666576426E+03  0.12509819796E+03 0.  0.
          5    1    3    3  502    0  0.12926820184E+03  0.64320118695E+02  0.20309997172E+02  0.14586745374E+03  0.41800000000E+01 0.  1.
         -5    1    3    3    0  502 -0.13289767201E+02 -0.18382921441E+02 -0.20408670167E+02  0.30798310521E+02  0.41800000000E+01 0.  1.
        -11    1    1    2    0    0 -0.96356441393E+02 -0.73248058543E+02  0.11972035876E+03  0.17024337338E+03  0.00000000000E+00 0. -1.
         11    1    1    2    0    0 -0.19621993245E+02  0.27310861289E+02  0.45021761692E+02  0.56194882232E+02  0.00000000000E+00 0.  1.
</event>
<event>
 7    1  0.2594791E-009  0.1308795E+03  0.7561462E-02  0.1226157E+00
          2   -1    0    0  501    0  0.00000000000E+00  0.00000000000E+00  0.12629217863E+02  0.12629217863E+02  0.00000000000E+00 0. -1.
         -2   -1    0    0    0  501 -0.00000000000E+00 -0.00000000000E+00 -0.18609176605E+04  0.18609176605E+04  0.00000000000E+00 0.  1.
         25    2    1    2    0    0  0.17556945087E+02  0.68082744179E+02 -0.14743821415E+04  0.14813486067E+04  0.12508992381E+03 0.  0.
          5    1    3    3  502    0 -0.14003968029E+02 -0.33703945178E+02 -0.35295649276E+03  0.35486310773E+03  0.41800000000E+01 0. -1.
         -5    1    3    3    0  502  0.31560913116E+02  0.10178668936E+03 -0.11214256487E+04  0.11264854990E+04  0.41800000000E+01 0. -1.
        -11    1    1    2    0    0 -0.10830377337E+02 -0.92456447900E+02 -0.29556590173E+03  0.30987851506E+03  0.00000000000E+00 0.  1.
         11    1    1    2    0    0 -0.67265677499E+01  0.24373703721E+02 -0.78340399417E+02  0.82319756605E+02  0.00000000000E+00 0. -1.
</event>
<event>
 7    1  0.2594791E-009  0.1208339E+03  0.7561462E-02  0.1241728E+00
          1   -1    0    0  501    0  0.00000000000E+00  0.00000000000E+00  0.36119629811E+03  0.36119629811E+03  0.00000000000E+00 0. -1.
         -1   -1    0    0    0  501 -0.00000000000E+00 -0.00000000000E+00 -0.50359101463E+02  0.50359101463E+02  0.00000000000E+00 0.  1.
         25    2    1    2    0    0  0.79132804848E+02 -0.10591038561E+02  0.14825575425E+03  0.20976540271E+03  0.12509030579E+03 0.  0.
          5    1    3    3  502    0  0.10443524615E+03 -0.12431781534E+02  0.15083045901E+03  0.18392544576E+03  0.41800000000E+01 0. -1.
         -5    1    3    3    0  502 -0.25302441304E+02  0.18407429730E+01 -0.25747047566E+01  0.25839956950E+02  0.41800000000E+01 0. -1.
        -11    1    1    2    0    0 -0.89964570186E+02 -0.67905955929E+01  0.94318471425E+02  0.13052091836E+03  0.00000000000E+00 0.  1.
         11    1    1    2    0    0  0.10831765338E+02  0.17381634154E+02  0.68262970969E+02  0.71269078510E+02  0.00000000000E+00 0. -1.
</event>
<event>
 7    1  0.2594791E-009  0.1007655E+03  0.7561462E-02  0.1278694E+00
          1   -1    0    0  501    0  0.00000000000E+00  0.00000000000E+00  0.14067974907E+03  0.14067974907E+03  0.00000000000E+00 0. -1.
         -1   -1    0    0    0  501 -0.00000000000E+00 -0.00000000000E+00 -0.11908002795E+03  0.11908002795E+03  0.00000000000E+00 0.  1.
         25    2    1    2    0    0  0.70081315026E+02  0.10431293672E+02  0.58304723946E+01  0.14387969885E+03  0.12508865148E+03 0.  0.
          5    1    3    3  502    0 -0.61297123510E+01  0.72118773052E+01  0.53064051455E+02  0.54063393388E+02  0.41800000000E+01 0. -1.
         -5    1    3    3    0  502  0.76211027377E+02  0.32194163664E+01 -0.47233579061E+02  0.89816305460E+02  0.41800000000E+01 0. -1.
        -11    1    1    2    0    0 -0.79190924597E+02  0.21113311814E+02  0.11993712886E+02  0.82830088875E+02  0.00000000000E+00 0. -1.
         11    1    1    2    0    0  0.91096095705E+01 -0.31544605485E+02  0.37755358459E+01  0.33049989299E+02  0.00000000000E+00 0.  1.
</event>
<event>
 7    1  0.2594791E-009  0.1240083E+03  0.7561462E-02  0.1236627E+00
         -2   -1    0    0    0  501 -0.00000000000E+00  0.00000000000E+00  0.12642354166E+03  0.12642354166E+03  0.00000000000E+00 0.  1.
          2   -1    0    0  501    0  0.00000000000E+00 -0.00000000000E+00 -0.13437039383E+03  0.13437039383E+03  0.00000000000E+00 0. -1.
         25    2    1    2    0    0 -0.42220510679E+02  0.56661547686E+02 -0.15871979700E+02  0.14455048949E+03  0.12509924765E+03 0.  0.
          5    1    3    3  502    0 -0.74360346062E+02  0.74177929872E+02 -0.18521610105E+01  0.10513196111E+03  0.41800000000E+01 0. -1.
         -5    1    3    3    0  502  0.32139835384E+02 -0.17516382186E+02 -0.14019818690E+02  0.39418528378E+02  0.41800000000E+01 0. -1.
        -11    1    1    2    0    0 -0.15907539886E+02 -0.43698537035E+02 -0.19808245264E+02  0.50546795593E+02  0.00000000000E+00 0.  1.
         11    1    1    2    0    0  0.58128050565E+02 -0.12963010651E+02  0.27733372795E+02  0.65696650403E+02  0.00000000000E+00 0. -1.
</event>
<event>
 7    1  0.2594791E-009  0.1256599E+03  0.7561462E-02  0.1234042E+00
         -1   -1    0    0    0  501 -0.00000000000E+00  0.00000000000E+00  0.13416293513E+03  0.13416293513E+03  0.00000000000E+00 0. -1.
          1   -1    0    0  501    0  0.00000000000E+00 -0.00000000000E+00 -0.40079566719E+03  0.40079566719E+03  0.00000000000E+00 0.  1.
         25    2    1    2    0    0  0.80692759915E+02 -0.66537239681E+02 -0.33094490252E+03  0.36893135781E+03  0.12508913824E+03 0.  0.
          5    1    3    3  502    0  0.91953519651E+02 -0.45264970926E+02 -0.32877605051E+03  0.34440605564E+03  0.41800000000E+01 0. -1.
         -5    1    3    3    0  502 -0.11260759736E+02 -0.21272268755E+02 -0.21688520116E+01  0.24525302177E+02  0.41800000000E+01 0. -1.
        -11    1    1    2    0    0 -0.18580885955E+02  0.58868224586E+02  0.80442143581E+02  0.10139849926E+03  0.00000000000E+00 0. -1.
         11    1    1    2    0    0 -0.62111873960E+02  0.76690150952E+01 -0.16129973115E+02  0.64628745245E+02  0.00000000000E+00 0.  1.
</event>
<event>
 7    1  0.2594791E-009  0.1128382E+03  0.7561462E-02  0.1255402E+00
         -2   -1    0    0    0  501 -0.00000000000E+00  0.00000000000E+00  0.49708163060E+02  0.49708163060E+02  0.00000000000E+00 0.  1.
          2   -1    0    0  501    0  0.00000000000E+00 -0.00000000000E+00 -0.43301516070E+03  0.43301516070E+03  0.00000000000E+00 0. -1.
         25    2    1    2    0    0 -0.10905425471E+02 -0.63902453746E+02 -0.85204035070E+02  0.16464975647E+03  0.12508941928E+03 0.  0.
          5    1    3    3  502    0  0.46042425652E+02 -0.12045639634E+02 -0.71977365677E+02  0.86389906610E+02  0.41800000000E+01 0. -1.
         -5    1    3    3    0  502 -0.56947851123E+02 -0.51856814112E+02 -0.13226669392E+02  0.78259849863E+02  0.41800000000E+01 0. -1.
        -11    1    1    2    0    0  0.24321471506E+02 -0.95279200604E+01 -0.14962292590E+03  0.15188592822E+03  0.00000000000E+00 0. -1.
         11    1    1    2    0    0 -0.13416046035E+02  0.73430373806E+02 -0.14848003667E+03  0.16618763906E+03  0.00000000000E+00 0.  1.
</event>
<event>
 7    1  0.2594791E-009  0.1114361E+03  0.7561462E-02  0.1257933E+00
         -3   -1    0    0    0  501 -0.00000000000E+00  0.00000000000E+00  0.24179820166E+02  0.24179820166E+02  0.00000000000E+00 0.  1.
          3   -1    0    0  501    0  0.00000000000E+00 -0.00000000000E+00 -0.68308332388E+03  0.68308332388E+03  0.00000000000E+00 0. -1.
         25    2    1    2    0    0  0.12950994999E+02 -0.50144419994E+02 -0.49082953672E+03  0.50915754787E+03  0.12508230613E+03 0.  0.
          5    1    3    3  502    0  0.44068033292E+02 -0.77235514343E+02 -0.39198663962E+03  0.40196805131E+03  0.41800000000E+01 0.  1.
         -5    1    3    3    0  502 -0.31117038293E+02  0.27091094350E+02 -0.98842897102E+02  0.10718949656E+03  0.41800000000E+01 0.  1.
        -11    1    1    2    0    0  0.19210521568E+02 -0.11828991108E+02 -0.92514659714E+02  0.95225686826E+02  0.00000000000E+00 0. -1.
         11    1    1    2    0    0 -0.32161516567E+02  0.61973411102E+02 -0.75559307280E+02  0.10287990935E+03  0.00000000000E+00 0.  1.
</event>
<event>
 7    1  0.2676495E-009  0.1039359E+03  0.7561462E-02  0.1272230E+00
          1   -1    0    0  501    0  0.00000000000E+00  0.00000000000E+00  0.99552359959E+03  0.99552359959E+03  0.00000000000E+00 0. -1.
         -1   -1    0    0    0  501 -0.00000000000E+00 -0.00000000000E+00 -0.26124064205E+02  0.26124064205E+02  0.00000000000E+00 0.  1.
         25    2    1    2    0    0  0.50036373085E+02 -0.19827227517E+02  0.85556993741E+03  0.86633972386E+03  0.12509133366E+03 0.  0.
          5    1    3    3  502    0  0.81551450014E+01 -0.67329709897E+02  0.55486075808E+03  0.55900601918E+03  0.41800000000E+01 0.  1.
         -5    1    3    3    0  502  0.41881228084E+02  0.47502482380E+02  0.30070917934E+03  0.30733370468E+03  0.41800000000E+01 0.  1.
        -11    1    1    2    0    0 -0.18705301444E+02  0.36463127620E+02  0.55372479946E+01  0.41353465312E+02  0.00000000000E+00 0.  1.
         11    1    1    2    0    0 -0.31331071641E+02 -0.16635900103E+02  0.10829234998E+03  0.11395447462E+03  0.00000000000E+00 0. -1.
</event>
<event>
 7    1  0.2594791E-009  0.9505401E+02  0.7561462E-02  0.1291054E+00
         -1   -1    0    0    0  501 -0.00000000000E+00  0.00000000000E+00  0.15222873097E+03  0.15222873097E+03  0.00000000000E+00 0. -1.
          1   -1    0    0  501    0  0.00000000000E+00 -0.00000000000E+00 -0.11140588205E+03  0.11140588205E+03  0.00000000000E+00 0.  1.
         25    2    1    2    0    0 -0.26619912003E+02 -0.57239527544E+02 -0.12344257077E+02  0.14065125293E+03  0.12508161751E+03 0.  0.
          5    1    3    3  502    0  0.79133236801E+01 -0.79172115525E+02 -0.41888166683E+02  0.90016306725E+02  0.41800000000E+01 0. -1.
         -5    1    3    3    0  502 -0.34533235683E+02  0.21932587981E+02  0.29543909606E+02  0.50634946204E+02  0.41800000000E+01 0. -1.
        -11    1    1    2    0    0  0.29073459985E+02  0.29350301488E+02  0.76233724047E+02  0.86708055883E+02  0.00000000000E+00 0. -1.
         11    1    1    2    0    0 -0.24535479824E+01  0.27889226056E+02 -0.23066618050E+02  0.36275304216E+02  0.00000000000E+00 0.  1.
</event>
<event>
 7    1  0.2594791E-009  0.1074862E+03  0.7561462E-02  0.1265297E+00
         -3   -1    0    0    0  501 -0.00000000000E+00  0.00000000000E+00  0.15950335943E+03  0.15950335943E+03  0.00000000000E+00 0.  1.
          3   -1    0    0  501    0  0.00000000000E+00 -0.00000000000E+00 -0.13455655864E+03  0.13455655864E+03  0.00000000000E+00 0. -1.
         25    2    1    2    0    0  0.36605033706E+02 -0.38111183050E+02  0.10344789660E+03  0.17071679285E+03  0.12510142000E+03 0.  0.
          5    1    3    3  502    0 -0.37265598576E+02 -0.44513116030E+02  0.64426964028E+02  0.86824238723E+02  0.41800000000E+01 0. -1.
         -5    1    3    3    0  502  0.73870632282E+02  0.64019329798E+01  0.39020932568E+02  0.83892554128E+02  0.41800000000E+01 0. -1.
        -11    1    1    2    0    0  0.14048761321E+02  0.27309533515E+02 -0.17623740301E+01  0.30761733984E+02  0.00000000000E+00 0.  1.
         11    1    1    2    0    0 -0.50653795027E+02  0.10801649535E+02 -0.76738721777E+02  0.92581391237E+02  0.00000000000E+00 0. -1.
</event>
<event>
 7    1  0.2594791E-009  0.9758883E+02  0.7561462E-02  0.1285450E+00
         -3   -1    0    0    0  501 -0.00000000000E+00  0.00000000000E+00  0.16270327343E+03  0.16270327343E+03  0.00000000000E+00 0.  1.
          3   -1    0    0  501    0  0.00000000000E+00 -0.00000000000E+00 -0.74880077789E+02  0.74880077789E+02  0.00000000000E+00 0. -1.
         25    2    1    2    0    0 -0.14863648139E+01 -0.77497885685E+01  0.57370963855E+02  0.13784603172E+03  0.12509129652E+03 0.  0.
          5    1    3    3  502    0  0.19982536845E+02 -0.61462843306E+02  0.16311289158E+02  0.66787075397E+02  0.41800000000E+01 0. -1.
         -5    1    3    3    0  502 -0.21468901659E+02  0.53713054738E+02  0.41059674697E+02  0.71058956325E+02  0.41800000000E+01 0. -1.
        -11    1    1    2    0    0 -0.52920210035E+01  0.39550224897E+02  0.48296306445E+02  0.62647896947E+02  0.00000000000E+00 0.  1.
         11    1    1    2    0    0  0.67783858174E+01 -0.31800436328E+02 -0.17844074656E+02  0.37089422553E+02  0.00000000000E+00 0. -1.
</event>
<event>
 7    1  0.2594791E-009  0.1228230E+03  0.7561462E-02  0.1238511E+00
          1   -1    0    0  501    0  0.00000000000E+00  0.00000000000E+00  0.46560429604E+03  0.46560429604E+03  0.00000000000E+00 0. -1.
         -1   -1    0    0    0  501 -0.00000000000E+00 -0.00000000000E+00 -0.34592690789E+02  0.34592690789E+02  0.00000000000E+00 0.  1.
         25    2    1    2    0    0  0.29778425086E+02  0.54938814686E+02  0.28096980564E+03  0.31384193221E+03  0.12509076213E+03 0.  0.
          5    1    3    3  502    0  0.41730766614E+02 -0.31004720952E+02  0.89530060329E+02  0.10361396482E+03  0.41800000000E+01 0.  1.
         -5    1    3    3    0  502 -0.11952341529E+02  0.85943535638E+02  0.19143974531E+03  0.21022796738E+03  0.41800000000E+01 0.  1.
        -11    1    1    2    0    0 -0.29902027549E+02  0.17189368189E+02  0.27292791583E+02  0.43982975146E+02  0.00000000000E+00 0.  1.
         11    1    1    2    0    0  0.12360246388E+00 -0.72128182876E+02  0.12274900803E+03  0.14237207948E+03  0.00000000000E+00 0. -1.
</event>
<event>
 7    1  0.2594791E-009  0.1102299E+03  0.7561462E-02  0.1260145E+00
         -1   -1    0    0    0  501 -0.00000000000E+00  0.00000000000E+00  0.39751953411E+02  0.39751953411E+02  0.00000000000E+00 0.  1.
          1   -1    0    0  501    0  0.00000000000E+00 -0.00000000000E+00 -0.42670254766E+03  0.42670254766E+03  0.00000000000E+00 0. -1.
         25    2    1    2    0    0  0.55375458373E+02 -0.18501488355E+02 -0.28699921253E+03  0.31847175426E+03  0.12508782438E+03 0.  0.
          5    1    3    3  502    0  0.12604074660E+02 -0.54440470971E+02 -0.23650200936E+03  0.24304999570E+03  0.41800000000E+01 0. -1.
         -5    1    3    3    0  502  0.42771383714E+02  0.35938982615E+02 -0.50497203163E+02  0.75421758555E+02  0.41800000000E+01 0. -1.
        -11    1    1    2    0    0 -0.16261689399E+02 -0.37049625895E+02 -0.45718712190E+02  0.61051764638E+02  0.00000000000E+00 0.  1.
         11    1    1    2    0    0 -0.39113768974E+02  0.55551114251E+02 -0.54232669536E+02  0.86930982180E+02  0.00000000000E+00 0. -1.
</event>
<event>
 7    1  0.2594791E-009  0.2449517E+03  0.7561462E-02  0.1116537E+00
         -1   -1    0    0    0  501 -0.00000000000E+00  0.00000000000E+00  0.96684470741E+02  0.96684470741E+02  0.00000000000E+00 0.  1.
          1   -1    0    0  501    0  0.00000000000E+00 -0.00000000000E+00 -0.78662794749E+03  0.78662794749E+03  0.00000000000E+00 0. -1.
         25    2    1    2    0    0  0.22815517974E+03  0.31080663592E+02 -0.18431008863E+03  0.32037221501E+03  0.12508938279E+03 0.  0.
          5    1    3    3  502    0  0.12995688052E+03  0.56901752838E+02 -0.46922791358E+02  0.14948518662E+03  0.41800000000E+01 0. -1.
         -5    1    3    3    0  502  0.98198299222E+02 -0.25821089246E+02 -0.13738729727E+03  0.17088702839E+03  0.41800000000E+01 0. -1.
        -11    1    1    2    0    0 -0.21616749534E+03 -0.51915134016E+02 -0.43855127115E+03  0.49168158864E+03  0.00000000000E+00 0.  1.
         11    1    1    2    0    0 -0.11987684394E+02  0.20834470424E+02 -0.67082116970E+02  0.71258614582E+02  0.00000000000E+00 0. -1.
</event>
<event>
 7    1  0.2594791E-009  0.9282730E+02  0.7561462E-02  0.1296146E+00
          1   -1    0    0  501    0  0.00000000000E+00  0.00000000000E+00  0.75008831120E+03  0.75008831120E+03  0.00000000000E+00 0. -1.
         -1   -1    0    0    0  501 -0.00000000000E+00 -0.00000000000E+00 -0.22132359468E+02  0.22132359468E+02  0.00000000000E+00 0.  1.
         25    2    1    2    0    0 -0.82818740780E+01  0.43630844174E+02  0.55876518554E+03  0.57431515613E+03  0.12508847265E+03 0.  0.
          5    1    3    3  502    0 -0.57965752780E+02  0.40957014261E+02  0.43641790869E+03  0.44217142483E+03  0.41800000000E+01 0. -1.
         -5    1    3    3    0  502  0.49683878702E+02  0.26738299131E+01  0.12234727685E+03  0.13214373130E+03  0.41800000000E+01 0. -1.
        -11    1    1    2    0    0 -0.17966924105E+02 -0.64025544131E+01 -0.34266622578E+01  0.19378985500E+02  0.00000000000E+00 0.  1.
         11    1    1    2    0    0  0.26248798183E+02 -0.37228289761E+02  0.17261742845E+03  0.17852652903E+03  0.00000000000E+00 0. -1.
</event>
<event>
 7    1  0.2594791E-009  0.8946888E+02  0.7561462E-02  0.1304143E+00
         -1   -1    0    0    0  501 -0.00000000000E+00  0.00000000000E+00  0.17409440857E+02  0.17409440857E+02  0.00000000000E+00 0.  1.
          1   -1    0    0  501    0  0.00000000000E+00 -0.00000000000E+00 -0.80814561588E+03  0.80814561588E+03  0.00000000000E+00 0. -1.
         25    2    1    2    0    0 -0.29883563461E+02  0.18020390592E+02 -0.57088878449E+03  0.58547367871E+03  0.12509061664E+03 0.  0.
          5    1    3    3  502    0  0.29702132564E+02  0.13564756289E+02 -0.42784388198E+02  0.53983289687E+02  0.41800000000E+01 0. -1.
         -5    1    3    3    0  502 -0.59585696025E+02  0.44556343031E+01 -0.52810439629E+03  0.53149038903E+03  0.41800000000E+01 0. -1.
        -11    1    1    2    0    0  0.33338307642E+02  0.25805205083E+02 -0.16217018512E+03  0.16756049746E+03  0.00000000000E+00 0.  1.
         11    1    1    2    0    0 -0.34547441813E+01 -0.43825595675E+02 -0.57677205420E+02  0.72520880571E+02  0.00000000000E+00 0. -1.
</event>
<event>
 7    1  0.2594791E-009  0.1041191E+03  0.7561462E-02  0.1271865E+00
         -1   -1    0    0    0  501 -0.00000000000E+00  0.00000000000E+00  0.20269547196E+03  0.20269547196E+03  0.00000000000E+00 0.  1.
          1   -1    0    0  501    0  0.00000000000E+00 -0.00000000000E+00 -0.58194269278E+02  0.58194269278E+02  0.00000000000E+00 0. -1.
         25    2    1    2    0    0 -0.10128074252E+02  0.13906019641E+02  0.71003112408E+02  0.14486144558E+03  0.12508973248E+03 0.  0.
          5    1    3    3  502    0 -0.14050447657E+02 -0.51220693274E+02  0.76505542408E+01  0.53823581068E+02  0.41800000000E+01 0.  1.
         -5    1    3    3    0  502  0.39223734051E+01  0.65126712915E+02  0.63352558168E+02  0.91037864510E+02  0.41800000000E+01 0.  1.
        -11    1    1    2    0    0  0.30610068899E+02 -0.43744573207E+02  0.39991157167E+02  0.66707245893E+02  0.00000000000E+00 0.  1.
         11    1    1    2    0    0 -0.20481994647E+02  0.29838553567E+02  0.33506933102E+02  0.49321049762E+02  0.00000000000E+00 0. -1.
</event>
<event>
 7    1  0.2594791E-009  0.1287034E+03  0.7561462E-02  0.1229392E+00
          2   -1    0    0  501    0  0.00000000000E+00  0.00000000000E+00  0.65371390948E+03  0.65371390948E+03  0.00000000000E+00 0. -1.
         -2   -1    0    0    0  501 -0.00000000000E+00 -0.00000000000E+00 -0.43021786647E+02  0.43021786647E+02  0.00000000000E+00 0.  1.
         25    2    1    2    0    0  0.56817174342E+01 -0.11216664800E+03  0.45135249703E+03  0.48164343932E+03  0.12509071600E+03 0.  0.
          5    1    3    3  502    0 -0.88345712495E+01 -0.16993033609E+02 -0.51983856631E+00  0.19610085990E+02  0.41800000000E+01 0. -1.
         -5    1    3    3    0  502  0.14516288684E+02 -0.95173614390E+02  0.45187233559E+03  0.46203335333E+03  0.41800000000E+01 0. -1.
        -11    1    1    2    0    0 -0.42011507454E+02  0.88818301372E+02  0.89088840697E+02  0.13262910297E+03  0.00000000000E+00 0.  1.
         11    1    1    2    0    0  0.36329790020E+02  0.23348346627E+02  0.70250785108E+02  0.82463153841E+02  0.00000000000E+00 0. -1.
</event>
<event>
 7    1  0.2695373E-009  0.1113758E+03  0.7561462E-02  0.1258043E+00
         -2   -1    0    0    0  501 -0.00000000000E+00  0.00000000000E+00  0.23040224432E+02  0.23040224432E+02  0.00000000000E+00 0.  1.
          2   -1    0    0  501    0  0.00000000000E+00 -0.00000000000E+00 -0.86238021004E+03  0.86238021004E+03  0.00000000000E+00 0. -1.
         25    2    1    2    0    0 -0.72506936815E+02 -0.53170246746E+02 -0.47885445092E+03  0.50302310598E+03  0.12508528674E+03 0.  0.
          5    1    3    3  502    0 -0.90838792349E+02 -0.30247919516E+02 -0.45496484947E+03  0.46494850197E+03  0.41800000000E+01 0. -1.
         -5    1    3    3    0  502  0.18331855534E+02 -0.22922327230E+02 -0.23889601445E+02  0.38074604005E+02  0.41800000000E+01 0. -1.
        -11    1    1    2    0    0 -0.54365087543E+00  0.14698966720E+02 -0.23832594450E+01  0.14900842409E+02  0.00000000000E+00 0.  1.
         11    1    1    2    0    0  0.73050587691E+02  0.38471280026E+02 -0.35810227524E+03  0.36749648608E+03  0.00000000000E+00 0. -1.
</event>
<event>
 7    1  0.2594791E-009  0.5732499E+02  0.7561462E-02  0.1409413E+00
          1   -1    0    0  501    0  0.00000000000E+00  0.00000000000E+00  0.33001662964E+03  0.33001662964E+03  0.00000000000E+00 0. -1.
         -1   -1    0    0    0  501 -0.00000000000E+00 -0.00000000000E+00 -0.37767592897E+02  0.37767592897E+02  0.00000000000E+00 0.  1.
         25    2    1    2    0    0  0.25487201969E+02  0.17674828941E+01  0.17747653458E+03  0.21862810459E+03  0.12509039264E+03 0.  0.
          5    1    3    3  502    0  0.10449022733E+02 -0.21810335642E+02  0.18714299098E+03  0.18874544840E+03  0.41800000000E+01 0. -1.
         -5    1    3    3    0  502  0.15038179236E+02  0.23577818536E+02 -0.96664564062E+01  0.29882656192E+02  0.41800000000E+01 0. -1.
        -11    1    1    2    0    0 -0.34565327451E+02  0.18801577366E+02  0.11981812433E+03  0.12611361580E+03  0.00000000000E+00 0. -1.
         11    1    1    2    0    0  0.90781254820E+01 -0.20569060260E+02 -0.50456221580E+01  0.23042502148E+02  0.00000000000E+00 0.  1.
</event>
<event>
 7    1  0.2594791E-009  0.5429375E+02  0.7561462E-02  0.1423469E+00
          2   -1    0    0  501    0  0.00000000000E+00  0.00000000000E+00  0.26498436323E+03  0.26498436323E+03  0.00000000000E+00 0. -1.
         -2   -1    0    0    0  501 -0.00000000000E+00 -0.00000000000E+00 -0.58518641356E+02  0.58518641356E+02  0.00000000000E+00 0.  1.
         25    2    1    2    0    0 -0.12658202226E+02  0.33205170634E+02  0.18854023031E+03  0.22903539777E+03  0.12508789527E+03 0.  0.
          5    1    3    3  502    0 -0.13683718029E+02  0.34052749725E+02 -0.33563409699E+01  0.37088695415E+02  0.41800000000E+01 0.  1.
         -5    1    3    3    0  502  0.10255158036E+01 -0.84757909045E+00  0.19189657128E+03  0.19194670235E+03  0.41800000000E+01 0.  1.
        -11    1    1    2    0    0 -0.21839412259E+02 -0.43021339929E+01  0.38897304749E+02  0.44815941376E+02  0.00000000000E+00 0. -1.
         11    1    1    2    0    0  0.34497614484E+02 -0.28903036641E+02 -0.20971813194E+02  0.49651665439E+02  0.00000000000E+00 0.  1.
</event>
<event>
 7    1  0.2594791E-009  0.1086657E+03  0.7561462E-02  0.1263061E+00
          1   -1    0    0  501    0  0.00000000000E+00  0.00000000000E+00  0.16117341731E+03  0.16117341731E+03  0.00000000000E+00 0. -1.
         -1   -1    0    0    0  501 -0.00000000000E+00 -0.00000000000E+00 -0.14984717282E+03  0.14984717282E+03  0.00000000000E+00 0.  1.
         25    2    1    2    0    0 -0.93493456437E+02 -0.21724697001E+02 -0.50271300362E+02  0.16549183054E+03  0.12508938196E+03 0.  0.
          5    1    3    3  502    0 -0.33714162589E+02  0.19257632026E+02  0.35740211933E+02  0.52937097572E+02  0.41800000000E+01 0.  1.
         -5    1    3    3    0  502 -0.59779293849E+02 -0.40982329027E+02 -0.86011512295E+02  0.11255473296E+03  0.41800000000E+01 0.  1.
        -11    1    1    2    0    0  0.41456016786E+02 -0.12617447991E+02 -0.15816190497E+02  0.46129743154E+02  0.00000000000E+00 0.  1.
         11    1    1    2    0    0  0.52037439651E+02  0.34342144991E+02  0.77413735356E+02  0.99399016443E+02  0.00000000000E+00 0. -1.
</event>
<event>
 7    1  0.2594791E-009  0.7886204E+02  0.7561462E-02  0.1332312E+00
          3   -1    0    0  501    0  0.00000000000E+00  0.00000000000E+00  0.14811096650E+03  0.14811096650E+03  0.00000000000E+00 0. -1.
         -3   -1    0    0    0  501 -0.00000000000E+00 -0.00000000000E+00 -0.11942126365E+03  0.11942126365E+03  0.00000000000E+00 0.  1.
         25    2    1    2    0    0  0.36900180552E+02  0.69210773564E+01 -0.49994381829E+02  0.13984792903E+03  0.12509388635E+03 0.  0.
          5    1    3    3  502    0 -0.19983020860E+02  0.26831970672E+02  0.26136471618E+02  0.42659856089E+02  0.41800000000E+01 0. -1.
         -5    1    3    3    0  502  0.56883201413E+02 -0.19910893315E+02 -0.76130853447E+02  0.97188072942E+02  0.41800000000E+01 0. -1.
        -11    1    1    2    0    0 -0.16651988596E+02 -0.29123154901E+02 -0.92155770131E+01  0.34790425914E+02  0.00000000000E+00 0.  1.
         11    1    1    2    0    0 -0.20248191957E+02  0.22202077544E+02  0.87899661693E+02  0.92893875204E+02  0.00000000000E+00 0. -1.
</event>
<event>
 7    1  0.2594791E-009  0.1071608E+03  0.7561462E-02  0.1265920E+00
         -2   -1    0    0    0  501 -0.00000000000E+00  0.00000000000E+00  0.13810505786E+02  0.13810505786E+02  0.00000000000E+00 0.  1.
          2   -1    0    0  501    0  0.00000000000E+00 -0.00000000000E+00 -0.89213658421E+03  0.89213658421E+03  0.00000000000E+00 0. -1.
         25    2    1    2    0    0  0.95662631024E+01  0.21193873722E+02 -0.51162364255E+03  0.52720783656E+03  0.12509459477E+03 0.  0.
          5    1    3    3  502    0 -0.47230770747E+02 -0.18178678133E+02 -0.13419926483E+03  0.14348562689E+03  0.41800000000E+01 0.  1.
         -5    1    3    3    0  502  0.56797033849E+02  0.39372551855E+02 -0.37742437772E+03  0.38372220967E+03  0.41800000000E+01 0.  1.
        -11    1    1    2    0    0  0.28438539127E+02  0.22596483585E+02 -0.12428576312E+03  0.12948475776E+03  0.00000000000E+00 0.  1.
         11    1    1    2    0    0 -0.38004802229E+02 -0.43790357307E+02 -0.24241667275E+03  0.24925449568E+03  0.00000000000E+00 0. -1.
</event>
<event>
 7    1  0.2594791E-009  0.1085994E+03  0.7561462E-02  0.1263186E+00
         -1   -1    0    0    0  501 -0.00000000000E+00  0.00000000000E+00  0.45026971230E+03  0.45026971230E+03  0.00000000000E+00 0.  1.
          1   -1    0    0  501    0  0.00000000000E+00 -0.00000000000E+00 -0.40673295531E+02  0.40673295531E+02  0.00000000000E+00 0. -1.
         25    2    1    2    0    0 -0.74732581129E+02  0.28461759898E+02  0.24328405357E+03  0.28500725445E+03  0.12508786475E+03 0.  0.
          5    1    3    3  502    0 -0.63064891888E+00 -0.13534531308E+02 -0.10262677666E+02  0.17503605591E+02  0.41800000000E+01 0.  1.
         -5    1    3    3    0  502 -0.74101932210E+02  0.41996291207E+02  0.25354673124E+03  0.26750364886E+03  0.41800000000E+01 0.  1.
        -11    1    1    2    0    0  0.92550883143E+02 -0.34730933461E+02  0.11723650619E+03  0.15335025951E+03  0.00000000000E+00 0.  1.
         11    1    1    2    0    0 -0.17818302015E+02  0.62691735629E+01  0.49075857012E+02  0.52585493868E+02  0.00000000000E+00 0. -1.
</event>
<event>
 7    1  0.2594791E-009  0.9765224E+02  0.7561462E-02  0.1285312E+00
         -2   -1    0    0    0  501 -0.00000000000E+00  0.00000000000E+00  0.74529632750E+02  0.74529632750E+02  0.00000000000E+00 0. -1.
          2   -1    0    0  501    0  0.00000000000E+00 -0.00000000000E+00 -0.17758568923E+03  0.17758568923E+03  0.00000000000E+00 0.  1.
         25    2    1    2    0    0  0.29162848304E+02 -0.45159933151E+02 -0.61274061702E+02  0.14931203454E+03  0.12509868800E+03 0.  0.
          5    1    3    3  502    0  0.71597604830E+02 -0.12319553220E+01 -0.16878379906E+02  0.73689122939E+02  0.41800000000E+01 0. -1.
         -5    1    3    3    0  502 -0.42434756526E+02 -0.43927977829E+02 -0.44395681797E+02  0.75622911606E+02  0.41800000000E+01 0. -1.
        -11    1    1    2    0    0 -0.16415012296E+02  0.46712454109E+02 -0.61696433570E+02  0.79107243112E+02  0.00000000000E+00 0.  1.
         11    1    1    2    0    0 -0.12747836008E+02 -0.15525209584E+01  0.19914438791E+02  0.23696044323E+02  0.00000000000E+00 0. -1.
</event>
<event>
 7    1  0.2594791E-009  0.8285980E+02  0.7561462E-02  0.1321126E+00
         -4   -1    0    0    0  501 -0.00000000000E+00  0.00000000000E+00  0.43607935421E+03  0.43607935421E+03  0.00000000000E+00 0.  1.
          4   -1    0    0  501    0  0.00000000000E+00 -0.00000000000E+00 -0.32634339692E+02  0.32634339692E+02  0.00000000000E+00 0. -1.
         25    2    1    2    0    0  0.29184468796E+02 -0.34674086346E+02  0.22266679338E+03  0.25938949032E+03  0.12509349037E+03 0.  0.
          5    1    3    3  502    0 -0.10522361899E+02 -0.43214627824E+00 -0.13391757479E+02  0.17541904649E+02  0.41800000000E+01 0.  1.
         -5    1    3    3    0  502  0.39706830695E+02 -0.34241940068E+02  0.23605855086E+03  0.24184758567E+03  0.41800000000E+01 0.  1.
        -11    1    1    2    0    0  0.21019112515E+02  0.45778647795E+02  0.61925522647E+02  0.79826424447E+02  0.00000000000E+00 0. -1.
         11    1    1    2    0    0 -0.50203581312E+02 -0.11104561449E+02  0.11885269849E+03  0.12949777914E+03  0.00000000000E+00 0.  1.
</event>
<event>
 7    1  0.2594791E-009  0.1136245E+03  0.7561462E-02  0.1254001E+00
          2   -1    0    0  501    0  0.00000000000E+00  0.00000000000E+00  0.83733411507E+02  0.83733411507E+02  0.00000000000E+00 0. -1.
         -2   -1    0    0    0  501 -0.00000000000E+00 -0.00000000000E+00 -0.18218113620E+03  0.18218113620E+03  0.00000000000E+00 0.  1.
         25    2    1    2    0    0  0.62325563764E+01  0.56680558736E+02 -0.71255655063E+02  0.15484255787E+03  0.12508924355E+03 0.  0.
          5    1    3    3  502    0  0.42864784557E+02 -0.15362333730E+02 -0.56322151306E+02  0.72546868854E+02  0.41800000000E+01 0.  1.
         -5    1    3    3    0  502 -0.36632228181E+02  0.72042892466E+02 -0.14933503757E+02  0.82295689017E+02  0.41800000000E+01 0.  1.
        -11    1    1    2    0    0 -0.22818696258E+02  0.14810513561E+02  0.97634460963E+01  0.28902752300E+02  0.00000000000E+00 0.  1.
         11    1    1    2    0    0  0.16586139881E+02 -0.71491072297E+02 -0.36955515723E+02  0.82169237532E+02  0.00000000000E+00 0. -1.
</event>
<event>
 7    1  0.2594791E-009  0.1300682E+03  0.7561462E-02  0.1227355E+00
          2   -1    0    0  501    0  0.00000000000E+00  0.00000000000E+00  0.97183539134E+02  0.97183539134E+02  0.00000000000E+00 0. -1.
         -2   -1    0    0    0  501 -0.00000000000E+00 -0.00000000000E+00 -0.26415953937E+03  0.26415953937E+03  0.00000000000E+00 0.  1.
         25    2    1    2    0    0 -0.70109354117E+02  0.92220794042E+02 -0.55059447184E+02  0.17916161258E+03  0.12508934530E+03 0.  0.
          5    1    3    3  502    0  0.10514061123E+02  0.53627185263E+02  0.23929187926E+02  0.59803836962E+02  0.41800000000E+01 0. -1.
         -5    1    3    3    0  502 -0.80623415239E+02  0.38593608779E+02 -0.78988635109E+02  0.11935777562E+03  0.41800000000E+01 0. -1.
        -11    1    1    2    0    0  0.44469374815E+02 -0.58000218557E+02 -0.11819131411E+03  0.13896307920E+03  0.00000000000E+00 0.  1.
         11    1    1    2    0    0  0.25639979301E+02 -0.34220575485E+02  0.62747610582E+01  0.43218386729E+02  0.00000000000E+00 0. -1.
</event>
<event>
 7    1  0.2594791E-009  0.1661549E+03  0.7561462E-02  0.1181918E+00
          2   -1    0    0  501    0  0.00000000000E+00  0.00000000000E+00  0.28018818346E+04  0.28018818346E+04  0.00000000000E+00 0. -1.
         -2   -1    0    0    0  501 -0.00000000000E+00 -0.00000000000E+00 -0.27421091987E+02  0.27421091987E+02  0.00000000000E+00 0.  1.
         25    2    1    2    0    0  0.51186935236E+02 -0.13231702627E+03  0.25018782011E+04  0.25090177113E+04  0.12508974595E+03 0.  0.
          5    1    3    3  502    0  0.85342645112E+02 -0.82515136829E+02  0.12364784218E+04  0.12421708719E+04  0.41800000000E+01 0.  1.
         -5    1    3    3    0  502 -0.34155709875E+02 -0.49801889445E+02  0.12653997793E+04  0.12668468394E+04  0.41800000000E+01 0.  1.
        -11    1    1    2    0    0  0.98849885558E+01  0.47249953248E+02  0.15730266954E+03  0.16454300631E+03  0.00000000000E+00 0. -1.
         11    1    1    2    0    0 -0.61071923792E+02  0.85067073026E+02  0.11527987202E+03  0.15574220906E+03  0.00000000000E+00 0.  1.
</event>
<event>
 7    1  0.2594791E-009  0.3212841E+03  0.7561462E-02  0.1075060E+00
          2   -1    0    0  501    0  0.00000000000E+00  0.00000000000E+00  0.20855817806E+03  0.20855817806E+03  0.00000000000E+00 0. -1.
         -2   -1    0    0    0  501 -0.00000000000E+00 -0.00000000000E+00 -0.80516855104E+03  0.80516855104E+03  0.00000000000E+00 0.  1.
         25    2    1    2    0    0  0.26605642173E+02  0.31832901161E+03 -0.58903757794E+03  0.68165954265E+03  0.12511292513E+03 0.  0.
          5    1    3    3  502    0 -0.85840033422E+01  0.97428204516E+02 -0.30359701772E+03  0.31898990849E+03  0.41800000000E+01 0. -1.
         -5    1    3    3    0  502  0.35189645515E+02  0.22090080709E+03 -0.28544056022E+03  0.36266963417E+03  0.41800000000E+01 0. -1.
        -11    1    1    2    0    0 -0.60400177653E+01 -0.23640482192E+03  0.32273820240E+02  0.23867408975E+03  0.00000000000E+00 0. -1.
         11    1    1    2    0    0 -0.20565624408E+02 -0.81924189683E+02 -0.39846615274E+02  0.93393096701E+02  0.00000000000E+00 0.  1.
</event>
<event>
 7    1  0.2594791E-009  0.1026595E+03  0.7561462E-02  0.1274801E+00
          1   -1    0    0  501    0  0.00000000000E+00  0.00000000000E+00  0.15598356950E+03  0.15598356950E+03  0.00000000000E+00 0. -1.
         -1   -1    0    0    0  501 -0.00000000000E+00 -0.00000000000E+00 -0.81931335906E+02  0.81931335906E+02  0.00000000000E+00 0.  1.
         25    2    1    2    0    0 -0.31247728424E+02  0.17673990347E+01  0.60002742823E+02  0.14221192880E+03  0.12507741329E+03 0.  0.
          5    1    3    3  502    0 -0.67883798528E+02  0.31659057941E+02  0.14402838836E+02  0.76389922233E+02  0.41800000000E+01 0.  1.
         -5    1    3    3    0  502  0.36636070104E+02 -0.29891658907E+02  0.45599903987E+02  0.65822006567E+02  0.41800000000E+01 0.  1.
        -11    1    1    2    0    0  0.39439380815E+02 -0.32450642292E+02 -0.14400990126E+02  0.53065030490E+02  0.00000000000E+00 0.  1.
         11    1    1    2    0    0 -0.81916523918E+01  0.30683243257E+02  0.28450480897E+02  0.42637946116E+02  0.00000000000E+00 0. -1.
</event>
<event>
 7    1  0.2594791E-009  0.1127515E+03  0.7561462E-02  0.1255558E+00
         -1   -1    0    0    0  501 -0.00000000000E+00  0.00000000000E+00  0.17978305782E+03  0.17978305782E+03  0.00000000000E+00 0.  1.
          1   -1    0    0  501    0  0.00000000000E+00 -0.00000000000E+00 -0.94232846276E+02  0.94232846276E+02  0.00000000000E+00 0. -1.
         25    2    1    2    0    0  0.44347978399E+02  0.25242825377E-01 -0.11268058868E+02  0.13321266665E+03  0.12510756005E+03 0.  0.
          5    1    3    3  502    0  0.84954507283E+02  0.13281275279E+02  0.74074704463E+01  0.86406039136E+02  0.41800000000E+01 0. -1.
         -5    1    3    3    0  502 -0.40606528885E+02 -0.13256032454E+02 -0.18675529314E+02  0.46806627518E+02  0.41800000000E+01 0. -1.
        -11    1    1    2    0    0  0.12950215029E+02 -0.29385791440E+02  0.11920494224E+02  0.34253919344E+02  0.00000000000E+00 0.  1.
         11    1    1    2    0    0 -0.57298193428E+02  0.29360548614E+02  0.84897776184E+02  0.10654931809E+03  0.00000000000E+00 0. -1.
</event>
<event>
 7    1  0.2594791E-009  0.9854110E+02  0.7561462E-02  0.1283394E+00
         -1   -1    0    0    0  501 -0.00000000000E+00  0.00000000000E+00  0.38640945163E+03  0.38640945163E+03  0.00000000000E+00 0.  1.
          1   -1    0    0  501    0  0.00000000000E+00 -0.00000000000E+00 -0.36480411878E+02  0.36480411878E+02  0.00000000000E+00 0. -1.
         25    2    1    2    0    0  0.78797525456E+01 -0.45834724050E+01  0.27150364545E+03  0.29907328436E+03  0.12508997243E+03 0.  0.
          5    1    3    3  502    0  0.46524103524E+02 -0.44751535489E+02  0.18592887978E+03  0.19686089726E+03  0.41800000000E+01 0.  1.
         -5    1    3    3    0  502 -0.38644350979E+02  0.40168063084E+02  0.85574765679E+02  0.10221238709E+03  0.41800000000E+01 0.  1.
        -11    1    1    2    0    0  0.17346610036E+02 -0.29423080670E+02  0.73677477868E+02  0.81209564097E+02  0.00000000000E+00 0.  1.
         11    1    1    2    0    0 -0.25226362582E+02  0.34006553075E+02  0.47479164295E+01  0.42607015051E+02  0.00000000000E+00 0. -1.
</event>
<event>
 7    1  0.2594791E-009  0.1637836E+03  0.7561462E-02  0.1184490E+00
         -1   -1    0    0    0  501 -0.00000000000E+00  0.00000000000E+00  0.16197831127E+03  0.16197831127E+03  0.00000000000E+00 0.  1.
          1   -1    0    0  501    0  0.00000000000E+00 -0.00000000000E+00 -0.19318105884E+03  0.19318105884E+03  0.00000000000E+00 0. -1.
         25    2    1    2    0    0 -0.45175019773E+02 -0.13218078703E+03 -0.16076727700E+02  0.18819722691E+03  0.12508873719E+03 0.  0.
          5    1    3    3  502    0  0.19262135389E+02 -0.12011819256E+03 -0.13298350413E+02  0.12244888145E+03  0.41800000000E+01 0.  1.
         -5    1    3    3    0  502 -0.64437155162E+02 -0.12062594469E+02 -0.27783772868E+01  0.65748345462E+02  0.41800000000E+01 0.  1.
        -11    1    1    2    0    0  0.37733297053E+02  0.12079111660E+03 -0.44859767726E+02  0.13426352563E+03  0.00000000000E+00 0. -1.
         11    1    1    2    0    0  0.74417227207E+01  0.11389670435E+02  0.29733747849E+02  0.32698617567E+02  0.00000000000E+00 0.  1.
</event>
<event>
 7    1  0.2594791E-009  0.1046207E+03  0.7561462E-02  0.1270869E+00
         -1   -1    0    0    0  501 -0.00000000000E+00  0.00000000000E+00  0.80696528006E+02  0.80696528006E+02  0.00000000000E+00 0.  1.
          1   -1    0    0  501    0  0.00000000000E+00 -0.00000000000E+00 -0.21978893235E+03  0.21978893235E+03  0.00000000000E+00 0. -1.
         25    2    1    2    0    0  0.29339077391E+02  0.72100084651E+02 -0.62643853331E+02  0.16009906978E+03  0.12509298987E+03 0.  0.
          5    1    3    3  502    0 -0.65629579939E+01  0.74457435273E+02 -0.88260977209E+02  0.11573441400E+03  0.41800000000E+01 0. -1.
         -5    1    3    3    0  502  0.35902035385E+02 -0.23573506223E+01  0.25617123877E+02  0.44364655780E+02  0.41800000000E+01 0. -1.
        -11    1    1    2    0    0 -0.40109965739E+02 -0.19746777962E+02  0.28030284583E+01  0.44795106429E+02  0.00000000000E+00 0.  1.
         11    1    1    2    0    0  0.10770888348E+02 -0.52353306690E+02 -0.79251579475E+02  0.95591284155E+02  0.00000000000E+00 0. -1.
</event>
<event>
 7    1  0.2702321E-009  0.6904909E+02  0.7561462E-02  0.1363357E+00
          1   -1    0    0  501    0  0.00000000000E+00  0.00000000000E+00  0.41436262034E+03  0.41436262034E+03  0.00000000000E+00 0. -1.
         -1   -1    0    0    0  501 -0.00000000000E+00 -0.00000000000E+00 -0.33848562896E+02  0.33848562896E+02  0.00000000000E+00 0.  1.
         25    2    1    2    0    0 -0.37405084568E+02  0.10188764019E+02  0.26782524980E+03  0.29813256300E+03  0.12509879867E+03 0.  0.
          5    1    3    3  502    0 -0.18805005040E+02 -0.21038051020E+02  0.25890888336E+03  0.26047554604E+03  0.41800000000E+01 0.  1.
         -5    1    3    3    0  502 -0.18600079528E+02  0.31226815039E+02  0.89163664470E+01  0.37657016963E+02  0.41800000000E+01 0.  1.
        -11    1    1    2    0    0  0.50069764031E+02  0.81204553999E+01  0.19623421586E+02  0.54387514567E+02  0.00000000000E+00 0.  1.
         11    1    1    2    0    0 -0.12664679463E+02 -0.18309219419E+02  0.93065386059E+02  0.95691105668E+02  0.00000000000E+00 0. -1.
</event>
<event>
 7    1  0.2594791E-009  0.2029704E+03  0.7561462E-02  0.1147257E+00
         -2   -1    0    0    0  501 -0.00000000000E+00  0.00000000000E+00  0.63056961483E+03  0.63056961483E+03  0.00000000000E+00 0.  1.
          2   -1    0    0  501    0  0.00000000000E+00 -0.00000000000E+00 -0.79487939711E+02  0.79487939711E+02  0.00000000000E+00 0. -1.
         25    2    1    2    0    0  0.96797196663E+02  0.14270556379E+03  0.14071534623E+03  0.25530878851E+03  0.12508874291E+03 0.  0.
          5    1    3    3  502    0  0.11529096950E+03  0.15229174307E+03  0.13261824750E+03  0.23257225679E+03  0.41800000000E+01 0. -1.
         -5    1    3    3    0  502 -0.18493772837E+02 -0.95861792759E+01  0.80970987299E+01  0.22736531721E+02  0.41800000000E+01 0. -1.
        -11    1    1    2    0    0 -0.48959578307E+02 -0.13697218647E+03  0.33606037514E+03  0.36618983589E+03  0.00000000000E+00 0.  1.
         11    1    1    2    0    0 -0.47837618355E+02 -0.57333773243E+01  0.74305953741E+02  0.88558930136E+02  0.00000000000E+00 0. -1.
</event>
<event>
 7    1  0.2594791E-009  0.1255619E+03  0.7561462E-02  0.1234194E+00
         -2   -1    0    0    0  501 -0.00000000000E+00  0.00000000000E+00  0.10566845657E+03  0.10566845657E+03  0.00000000000E+00 0. -1.
          2   -1    0    0  501    0  0.00000000000E+00 -0.00000000000E+00 -0.28235963408E+03  0.28235963408E+03  0.00000000000E+00 0.  1.
         25    2    1    2    0    0 -0.68049108322E+02 -0.56029412793E+02  0.22147250357E+02  0.15462209783E+03  0.12509003237E+03 0.  0.
          5    1    3    3  502    0  0.21027401724E+02 -0.60049891421E+02  0.94169075968E+01  0.64453794548E+02  0.41800000000E+01 0.  1.
         -5    1    3    3    0  502 -0.89076510046E+02  0.40204786278E+01  0.12730342760E+02  0.90168303284E+02  0.41800000000E+01 0.  1.
        -11    1    1    2    0    0  0.20512343633E+02 -0.46311695212E+01 -0.96129534147E+00  0.21050607146E+02  0.00000000000E+00 0. -1.
         11    1    1    2    0    0  0.47536764688E+02  0.60660582314E+02 -0.19787713253E+03  0.21235538567E+03  0.00000000000E+00 0.  1.
</event>
<event>
 7    1  0.2594791E-009  0.1293427E+03  0.7561462E-02  0.1228434E+00
          1   -1    0    0  501    0  0.00000000000E+00  0.00000000000E+00  0.32145918574E+03  0.32145918574E+03  0.00000000000E+00 0. -1.
         -1   -1    0    0    0  501 -0.00000000000E+00 -0.00000000000E+00 -0.68051366445E+02  0.68051366445E+02  0.00000000000E+00 0.  1.
         25    2    1    2    0    0 -0.48313495540E+02 -0.73123837190E+01  0.62742424113E+02  0.14822940863E+03  0.12509069106E+03 0.  0.
          5    1    3    3  502    0 -0.64993204420E+02  0.34125272049E+02  0.30928364667E+01  0.73591363968E+02  0.41800000000E+01 0.  1.
         -5    1    3    3    0  502  0.16679708880E+02 -0.41437655769E+02  0.59649587647E+02  0.74638044658E+02  0.41800000000E+01 0.  1.
        -11    1    1    2    0    0 -0.38472549920E+02 -0.26969064972E+02  0.10317312360E+03  0.11336737183E+03  0.00000000000E+00 0. -1.
         11    1    1    2    0    0  0.86786045461E+02  0.34281448691E+02  0.87492271586E+02  0.12791377173E+03  0.00000000000E+00 0.  1.
</event>
<event>
 7    1  0.2594791E-009  0.8990550E+02  0.7561462E-02  0.1303081E+00
         -1   -1    0    0    0  501 -0.00000000000E+00  0.00000000000E+00  0.13403792828E+03  0.13403792828E+03  0.00000000000E+00 0.  1.
          1   -1    0    0  501    0  0.00000000000E+00 -0.00000000000E+00 -0.11100345812E+03  0.11100345812E+03  0.00000000000E+00 0. -1.
         25    2    1    2    0    0 -0.38458860785E+02 -0.16817763376E+02  0.49986962392E+02  0.14109510644E+03  0.12508881450E+03 0.  0.
          5    1    3    3  502    0  0.15327808650E+02 -0.24416161189E+02  0.75508232748E+02  0.80932417843E+02  0.41800000000E+01 0.  1.
         -5    1    3    3    0  502 -0.53786669435E+02  0.75983978137E+01 -0.25521270356E+02  0.60162688594E+02  0.41800000000E+01 0.  1.
        -11    1    1    2    0    0  0.62659993025E+02  0.29068665143E+02 -0.53706031350E+01  0.69282792937E+02  0.00000000000E+00 0.  1.
         11    1    1    2    0    0 -0.24201132240E+02 -0.12250901768E+02 -0.21581889092E+02  0.34663487023E+02  0.00000000000E+00 0. -1.
</event>
<event>
 7    1  0.2594791E-009  0.1124184E+03  0.7561462E-02  0.1256156E+00
          2   -1    0    0  501    0  0.00000000000E+00  0.00000000000E+00  0.33921019587E+03  0.33921019587E+03  0.00000000000E+00 0. -1.
         -2   -1    0    0    0  501 -0.00000000000E+00 -0.00000000000E+00 -0.57648750183E+02  0.57648750183E+02  0.00000000000E+00 0.  1.
         25    2    1    2    0    0  0.67909118141E+02  0.31425888038E+02  0.90510600935E+02  0.17158148824E+03  0.12509517760E+03 0.  0.
          5    1    3    3  502    0  0.97950787475E+02  0.50145101217E+02  0.67773671563E+02  0.12930441176E+03  0.41800000000E+01 0. -1.
         -5    1    3    3    0  502 -0.30041669334E+02 -0.18719213179E+02  0.22736929372E+02  0.42277076480E+02  0.41800000000E+01 0. -1.
        -11    1    1    2    0    0 -0.33775410701E+02 -0.17107298053E+01  0.17345511554E+03  0.17672119870E+03  0.00000000000E+00 0. -1.
         11    1    1    2    0    0 -0.34133707440E+02 -0.29715158233E+02  0.17595729213E+02  0.48556259112E+02  0.00000000000E+00 0.  1.
</event>
<event>
 7    1  0.2594791E-009  0.1606157E+03  0.7561462E-02  0.1188003E+00
         -3   -1    0    0    0  501 -0.00000000000E+00  0.00000000000E+00  0.45638593968E+02  0.45638593968E+02  0.00000000000E+00 0.  1.
          3   -1    0    0  501    0  0.00000000000E+00 -0.00000000000E+00 -0.68782471961E+03  0.68782471961E+03  0.00000000000E+00 0. -1.
         25    2    1    2    0    0  0.35768000876E+02 -0.11375592517E+03 -0.18980593968E+03  0.25669499383E+03  0.12508502998E+03 0.  0.
          5    1    3    3  502    0 -0.69582278998E+01 -0.12583866882E+03 -0.15678216867E+03  0.20120116381E+03  0.41800000000E+01 0.  1.
         -5    1    3    3    0  502  0.42726228776E+02  0.12082743644E+02 -0.33023771011E+02  0.55493830028E+02  0.41800000000E+01 0.  1.
        -11    1    1    2    0    0  0.25936252359E+01  0.11210588268E+03 -0.33679038188E+03  0.35496791003E+03  0.00000000000E+00 0. -1.
         11    1    1    2    0    0 -0.38361626112E+02  0.16500424897E+01 -0.11558980408E+03  0.12180040971E+03  0.00000000000E+00 0.  1.
</event>
<event>
 7    1  0.2594791E-009  0.1111759E+03  0.7561462E-02  0.1258408E+00
         -2   -1    0    0    0  501 -0.00000000000E+00  0.00000000000E+00  0.33011818170E+03  0.33011818170E+03  0.00000000000E+00 0.  1.
          2   -1    0    0  501    0  0.00000000000E+00 -0.00000000000E+00 -0.64709865364E+02  0.64709865364E+02  0.00000000000E+00 0. -1.
         25    2    1    2    0    0  0.34575863625E+02  0.71044350662E+02  0.21999287816E+03  0.26512340902E+03  0.12510301940E+03 0.  0.
          5    1    3    3  502    0 -0.17797895654E+02  0.37443333814E+02  0.58416094606E+01  0.42075707218E+02  0.41800000000E+01 0.  1.
         -5    1    3    3    0  502  0.52373759279E+02  0.33601016849E+02  0.21415126870E+03  0.22304770180E+03  0.41800000000E+01 0.  1.
        -11    1    1    2    0    0  0.21680552695E+02  0.63924500385E+01 -0.23655595840E+01  0.22726760764E+02  0.00000000000E+00 0.  1.
         11    1    1    2    0    0 -0.56256416320E+02 -0.77436800701E+02  0.47780997759E+02  0.10697787728E+03  0.00000000000E+00 0. -1.
</event>
<event>
 7    1  0.2594791E-009  0.1888275E+03  0.7561462E-02  0.1159523E+00
         -2   -1    0    0    0  501 -0.00000000000E+00  0.00000000000E+00  0.41024862813E+02  0.41024862813E+02  0.00000000000E+00 0.  1.
          2   -1    0    0  501    0  0.00000000000E+00 -0.00000000000E+00 -0.10636027331E+04  0.10636027331E+04  0.00000000000E+00 0. -1.
         25    2    1    2    0    0 -0.15732447246E+03  0.24421113509E+02 -0.31791532148E+03  0.37691538135E+03  0.12509065772E+03 0.  0.
          5    1    3    3  502    0 -0.67005972332E+02  0.73086027621E+02 -0.17015798199E+03  0.19698370237E+03  0.41800000000E+01 0. -1.
         -5    1    3    3    0  502 -0.90318500124E+02 -0.48664914112E+02 -0.14775733949E+03  0.17993167898E+03  0.41800000000E+01 0. -1.
        -11    1    1    2    0    0  0.88539810606E+02  0.23856645950E+02 -0.45910994046E+03  0.46817771737E+03  0.00000000000E+00 0.  1.
         11    1    1    2    0    0  0.68784661851E+02 -0.48277759459E+02 -0.24555260836E+03  0.25953449720E+03  0.00000000000E+00 0. -1.
</event>
<event>
 7    1  0.2594791E-009  0.1016180E+03  0.7561462E-02  0.1276930E+00
          1   -1    0    0  501    0  0.00000000000E+00  0.00000000000E+00  0.38171408829E+03  0.38171408829E+03  0.00000000000E+00 0. -1.
         -1   -1    0    0    0  501 -0.00000000000E+00 -0.00000000000E+00 -0.37911784445E+02  0.37911784445E+02  0.00000000000E+00 0.  1.
         25    2    1    2    0    0 -0.39507912589E+02  0.13388888410E+02  0.24720371717E+03  0.28017534767E+03  0.12509360563E+03 0.  0.
          5    1    3    3  502    0  0.41856608676E+01 -0.50720656246E+02  0.12882752174E+03  0.13857888542E+03  0.41800000000E+01 0. -1.
         -5    1    3    3    0  502 -0.43693573456E+02  0.64109544656E+02  0.11837619544E+03  0.14159646225E+03  0.41800000000E+01 0. -1.
        -11    1    1    2    0    0  0.49400133808E+02  0.88035759947E+01  0.12222316857E+02  0.51645534172E+02  0.00000000000E+00 0.  1.
         11    1    1    2    0    0 -0.98922212192E+01 -0.22192464405E+02  0.84376269813E+02  0.87804990886E+02  0.00000000000E+00 0. -1.
</event>
<event>
 7    1  0.2594791E-009  0.9743907E+02  0.7561462E-02  0.1285775E+00
         -2   -1    0    0    0  501 -0.00000000000E+00  0.00000000000E+00  0.83708302090E+02  0.83708302090E+02  0.00000000000E+00 0.  1.
          2   -1    0    0  501    0  0.00000000000E+00 -0.00000000000E+00 -0.14176594175E+03  0.14176594175E+03  0.00000000000E+00 0. -1.
         25    2    1    2    0    0  0.23409687475E+02 -0.94784130902E+01 -0.32210539852E+02  0.13161323322E+03  0.12508665196E+03 0.  0.
          5    1    3    3  502    0 -0.30087401077E+02  0.38644477339E+02  0.68545420006E+01  0.49629673366E+02  0.41800000000E+01 0. -1.
         -5    1    3    3    0  502  0.53497088552E+02 -0.48122890429E+02 -0.39065081852E+02  0.81983559858E+02  0.41800000000E+01 0. -1.
        -11    1    1    2    0    0  0.24746113620E+02  0.11283187492E+01  0.16024601438E+02  0.29503069226E+02  0.00000000000E+00 0.  1.
         11    1    1    2    0    0 -0.48155801096E+02  0.83500943410E+01 -0.41871701247E+02  0.64357941390E+02  0.00000000000E+00 0. -1.
</event>
<event>
 7    1  0.2594791E-009  0.1041959E+03  0.7561462E-02  0.1271712E+00
          2   -1    0    0  501    0  0.00000000000E+00  0.00000000000E+00  0.14782496915E+03  0.14782496915E+03  0.00000000000E+00 0. -1.
         -2   -1    0    0    0  501 -0.00000000000E+00 -0.00000000000E+00 -0.12122444619E+03  0.12122444619E+03  0.00000000000E+00 0.  1.
         25    2    1    2    0    0 -0.29289829114E+02  0.63677482341E+02 -0.17597896160E+02  0.14447738083E+03  0.12510520283E+03 0.  0.
          5    1    3    3  502    0 -0.42736810588E+02 -0.24011588000E+02  0.12397678442E+02  0.50736241172E+02  0.41800000000E+01 0.  1.
         -5    1    3    3    0  502  0.13446981474E+02  0.87689070341E+02 -0.29995574603E+02  0.93741139655E+02  0.41800000000E+01 0.  1.
        -11    1    1    2    0    0  0.23896222333E+02 -0.45139835667E+02 -0.22003183220E+02  0.55612716870E+02  0.00000000000E+00 0.  1.
         11    1    1    2    0    0  0.53936067816E+01 -0.18537646674E+02  0.66201602333E+02  0.68959317642E+02  0.00000000000E+00 0. -1.
</event>
<event>
 7    1  0.2594791E-009  0.1470565E+03  0.7561462E-02  0.1204137E+00
         -1   -1    0    0    0  501 -0.00000000000E+00  0.00000000000E+00  0.11650640196E+03  0.11650640196E+03  0.00000000000E+00 0.  1.
          1   -1    0    0  501    0  0.00000000000E+00 -0.00000000000E+00 -0.29966572846E+03  0.29966572846E+03  0.00000000000E+00 0. -1.
         25    2    1    2    0    0 -0.10441996484E+03 -0.99871220643E+02 -0.45423869460E+02  0.19643715924E+03  0.12508572997E+03 0.  0.
          5    1    3    3  502    0 -0.62134324477E+02 -0.82673856765E+02 -0.86496795834E+02  0.13488813499E+03  0.41800000000E+01 0.  1.
         -5    1    3    3    0  502 -0.42285640361E+02 -0.17197363878E+02  0.41072926374E+02  0.61549024249E+02  0.41800000000E+01 0.  1.
        -11    1    1    2    0    0  0.32650167922E+02  0.37104655100E+02  0.32560433469E+01  0.49531714221E+02  0.00000000000E+00 0.  1.
         11    1    1    2    0    0  0.71769796917E+02  0.62766565543E+02 -0.14099150038E+03  0.17020325696E+03  0.00000000000E+00 0. -1.
</event>
<event>
 7    1  0.2594791E-009  0.1644270E+03  0.7561462E-02  0.1183787E+00
          1   -1    0    0  501    0  0.00000000000E+00  0.00000000000E+00  0.61882969387E+03  0.61882969387E+03  0.00000000000E+00 0. -1.
         -1   -1    0    0    0  501 -0.00000000000E+00 -0.00000000000E+00 -0.56024134545E+02  0.56024134545E+02  0.00000000000E+00 0.  1.
         25    2    1    2    0    0  0.56001463636E+02 -0.13769380536E+03  0.34912350089E+03  0.39953828709E+03  0.12509147059E+03 0.  0.
          5    1    3    3  502    0 -0.18049844496E+02 -0.62782056815E+02  0.49963130792E+02  0.82347862041E+02  0.41800000000E+01 0.  1.
         -5    1    3    3    0  502  0.74051308132E+02 -0.74911748547E+02  0.29916037010E+03  0.31719042505E+03  0.41800000000E+01 0.  1.
        -11    1    1    2    0    0 -0.66145180390E+02  0.10850772430E+03  0.20822307457E+03  0.24393843466E+03  0.00000000000E+00 0. -1.
         11    1    1    2    0    0  0.10143716753E+02  0.29186081065E+02  0.54589838608E+01  0.31377106659E+02  0.00000000000E+00 0.  1.
</event>
<event>
 7    1  0.2594791E-009  0.1020757E+03  0.7561462E-02  0.1275991E+00
         -2   -1    0    0    0  501 -0.00000000000E+00  0.00000000000E+00  0.20303246452E+03  0.20303246452E+03  0.00000000000E+00 0. -1.
          2   -1    0    0  501    0  0.00000000000E+00 -0.00000000000E+00 -0.11839551330E+03  0.11839551330E+03  0.00000000000E+00 0.  1.
         25    2    1    2    0    0 -0.55780321713E+02  0.43334511198E+02  0.13383394443E+03  0.19633622238E+03  0.12508822241E+03 0.  0.
          5    1    3    3  502    0  0.24788637036E+02 -0.67684776510E+01  0.86288453776E+02  0.90130230616E+02  0.41800000000E+01 0.  1.
         -5    1    3    3    0  502 -0.80568958749E+02  0.50102988849E+02  0.47545490651E+02  0.10620599176E+03  0.41800000000E+01 0.  1.
        -11    1    1    2    0    0  0.17830891513E+02  0.78065982619E+01  0.22129841622E+02  0.29472250657E+02  0.00000000000E+00 0. -1.
         11    1    1    2    0    0  0.37949430200E+02 -0.51141109460E+02 -0.71326834825E+02  0.95619504786E+02  0.00000000000E+00 0.  1.
</event>
<event>
 7    1  0.2594791E-009  0.1286345E+03  0.7561462E-02  0.1229496E+00
          2   -1    0    0  501    0  0.00000000000E+00  0.00000000000E+00  0.36412023399E+03  0.36412023399E+03  0.00000000000E+00 0. -1.
         -2   -1    0    0    0  501 -0.00000000000E+00 -0.00000000000E+00 -0.56253764955E+02  0.56253764955E+02  0.00000000000E+00 0.  1.
         25    2    1    2    0    0  0.96531381856E+01  0.72761446059E+02  0.82571009685E+02  0.16689843997E+03  0.12509878702E+03 0.  0.
          5    1    3    3  502    0  0.40578388691E+02  0.94631607763E+02  0.76430532477E+02  0.12829982662E+03  0.41800000000E+01 0.  1.
         -5    1    3    3    0  502 -0.30925250505E+02 -0.21870161704E+02  0.61404772081E+01  0.38598613345E+02  0.41800000000E+01 0.  1.
        -11    1    1    2    0    0  0.40408968972E+02 -0.33577578543E+02  0.10533644993E+03  0.11771196302E+03  0.00000000000E+00 0. -1.
         11    1    1    2    0    0 -0.50062107158E+02 -0.39183867516E+02  0.11995900942E+03  0.13576359596E+03  0.00000000000E+00 0.  1.
</event>
<event>
 7    1  0.2594791E-009  0.3056303E+03  0.7561462E-02  0.1082459E+00
          1   -1    0    0  501    0  0.00000000000E+00  0.00000000000E+00  0.80375034749E+02  0.80375034749E+02  0.00000000000E+00 0.  1.
         -1   -1    0    0    0  501 -0.00000000000E+00 -0.00000000000E+00 -0.14520347748E+04  0.14520347748E+04  0.00000000000E+00 0. -1.
         25    2    1    2    0    0 -0.26166795925E+03  0.13100223481E+03 -0.38943450430E+03  0.50292885540E+03  0.12508594659E+03 0.  0.
          5    1    3    3  502    0  0.27526825293E+01  0.37360361976E+02 -0.45226561612E+02  0.58875191578E+02  0.41800000000E+01 0. -1.
         -5    1    3    3    0  502 -0.26442064178E+03  0.93641872831E+02 -0.34420794268E+03  0.44405366382E+03  0.41800000000E+01 0. -1.
        -11    1    1    2    0    0  0.14141137442E+03 -0.79245000470E+02 -0.69763908986E+03  0.71622429909E+03  0.00000000000E+00 0. -1.
         11    1    1    2    0    0  0.12025658483E+03 -0.51757234337E+02 -0.28458614592E+03  0.31325665508E+03  0.00000000000E+00 0.  1.
</event>
<event>
 7    1  0.2594791E-009  0.1430092E+03  0.7561462E-02  0.1209336E+00
          2   -1    0    0  501    0  0.00000000000E+00  0.00000000000E+00  0.79246191425E+03  0.79246191425E+03  0.00000000000E+00 0.  1.
         -2   -1    0    0    0  501 -0.00000000000E+00 -0.00000000000E+00 -0.26390238144E+02  0.26390238144E+02  0.00000000000E+00 0. -1.
         25    2    1    2    0    0 -0.17814135863E+02  0.92882095491E+02  0.39336976687E+03  0.42347699599E+03  0.12509422668E+03 0.  0.
          5    1    3    3  502    0  0.52467199516E+02  0.36338231468E+02  0.12660987366E+03  0.14184782903E+03  0.41800000000E+01 0. -1.
         -5    1    3    3    0  502 -0.70281335380E+02  0.56543864022E+02  0.26675989321E+03  0.28162916696E+03  0.41800000000E+01 0. -1.
        -11    1    1    2    0    0  0.10085292143E+02 -0.11131528717E+03  0.32369123179E+03  0.34244535304E+03  0.00000000000E+00 0.  1.
         11    1    1    2    0    0  0.77288437202E+01  0.18433191682E+02  0.49010677447E+02  0.52929803368E+02  0.00000000000E+00 0. -1.
</event>
<event>
 7    1  0.2594791E-009  0.1088304E+03  0.7561462E-02  0.1262751E+00
          2   -1    0    0  501    0  0.00000000000E+00  0.00000000000E+00  0.34639205457E+03  0.34639205457E+03  0.00000000000E+00 0. -1.
         -2   -1    0    0    0  501 -0.00000000000E+00 -0.00000000000E+00 -0.42319245412E+02  0.42319245412E+02  0.00000000000E+00 0.  1.
         25    2    1    2    0    0 -0.22572605255E+02  0.41569430029E+02  0.21398110784E+03  0.25233606426E+03  0.12509210523E+03 0.  0.
          5    1    3    3  502    0  0.37949647515E+02  0.39340688154E+02  0.16641858210E+03  0.17521553116E+03  0.41800000000E+01 0. -1.
         -5    1    3    3    0  502 -0.60522252770E+02  0.22287418752E+01  0.47562525738E+02  0.77120533097E+02  0.41800000000E+01 0. -1.
        -11    1    1    2    0    0  0.43557466666E+01  0.28961404211E+02  0.30216263782E+02  0.42080376185E+02  0.00000000000E+00 0.  1.
         11    1    1    2    0    0  0.18216858588E+02 -0.70530834240E+02  0.59875437537E+02  0.94294859539E+02  0.00000000000E+00 0. -1.
</event>
<event>
 7    1  0.2594791E-009  0.1466027E+03  0.7561462E-02  0.1204711E+00
         -2   -1    0    0    0  501 -0.00000000000E+00  0.00000000000E+00  0.22646411692E+03  0.22646411692E+03  0.00000000000E+00 0.  1.
          2   -1    0    0  501    0  0.00000000000E+00 -0.00000000000E+00 -0.13273541461E+03  0.13273541461E+03  0.00000000000E+00 0. -1.
         25    2    1    2    0    0  0.30559286245E+02  0.11892494150E+03  0.10308775454E+03  0.20336228537E+03  0.12510844213E+03 0.  0.
          5    1    3    3  502    0 -0.79101293394E+01  0.12269776404E+03  0.10859294305E+03  0.16409512828E+03  0.41800000000E+01 0. -1.
         -5    1    3    3    0  502  0.38469415584E+02 -0.37728225424E+01 -0.55051885159E+01  0.39267157090E+02  0.41800000000E+01 0. -1.
        -11    1    1    2    0    0 -0.25681446599E+02 -0.20777209239E+02  0.34906025221E+02  0.48058919254E+02  0.00000000000E+00 0.  1.
         11    1    1    2    0    0 -0.48778396463E+01 -0.98147732257E+02 -0.44265077447E+02  0.10777832689E+03  0.00000000000E+00 0. -1.
</event>
<event>
 7    1  0.2594791E-009  0.1170798E+03  0.7561462E-02  0.1247994E+00
          1   -1    0    0  501    0  0.00000000000E+00  0.00000000000E+00  0.36462510707E+03  0.36462510707E+03  0.00000000000E+00 0. -1.
         -1   -1    0    0    0  501 -0.00000000000E+00 -0.00000000000E+00 -0.44179278156E+02  0.44179278156E+02  0.00000000000E+00 0.  1.
         25    2    1    2    0    0 -0.63325963123E+02  0.10874222191E+02  0.16009001353E+03  0.21308309957E+03  0.12508864288E+03 0.  0.
          5    1    3    3  502    0  0.26722801425E+02  0.20228916247E+02  0.96849607157E+02  0.10257015148E+03  0.41800000000E+01 0.  1.
         -5    1    3    3    0  502 -0.90048764548E+02 -0.93546940554E+01  0.63240406374E+02  0.11051294809E+03  0.41800000000E+01 0.  1.
        -11    1    1    2    0    0  0.38922944388E+02  0.38457180930E+02  0.10034696747E+03  0.11429551279E+03  0.00000000000E+00 0. -1.
         11    1    1    2    0    0  0.24403018735E+02 -0.49331403122E+02  0.60008847915E+02  0.81425772858E+02  0.00000000000E+00 0.  1.
</event>
<event>
 7    1  0.2594791E-009  0.2042065E+03  0.7561462E-02  0.1146238E+00
          1   -1    0    0  501    0  0.00000000000E+00  0.00000000000E+00  0.64289879562E+03  0.64289879562E+03  0.00000000000E+00 0. -1.
         -1   -1    0    0    0  501 -0.00000000000E+00 -0.00000000000E+00 -0.95198713616E+02  0.95198713616E+02  0.00000000000E+00 0.  1.
         25    2    1    2    0    0 -0.18243605899E+03  0.10691811657E+02  0.47022162161E+03  0.51976268234E+03  0.12509053547E+03 0.  0.
          5    1    3    3  502    0 -0.24531609658E+02  0.40503088765E+02  0.46180671013E+02  0.66275386435E+02  0.41800000000E+01 0.  1.
         -5    1    3    3    0  502 -0.15790444934E+03 -0.29811277109E+02  0.42404095059E+03  0.45348729590E+03  0.41800000000E+01 0.  1.
        -11    1    1    2    0    0  0.14945802746E+03  0.24998105429E+02  0.39327217765E+02  0.15655426313E+03  0.00000000000E+00 0.  1.
         11    1    1    2    0    0  0.32978031535E+02 -0.35689917085E+02  0.38151242633E+02  0.61780563771E+02  0.00000000000E+00 0. -1.
</event>
<event>
 7    1  0.2794058E-009  0.1007800E+03  0.7561462E-02  0.1278664E+00
          1   -1    0    0  501    0  0.00000000000E+00  0.00000000000E+00  0.65833806118E+03  0.65833806118E+03  0.00000000000E+00 0. -1.
         -1   -1    0    0    0  501 -0.00000000000E+00 -0.00000000000E+00 -0.31691377353E+02  0.31691377353E+02  0.00000000000E+00 0.  1.
         25    2    1    2    0    0 -0.11876631000E+02 -0.62512111427E+02  0.50874602736E+03  0.52774388647E+03  0.12506906455E+03 0.  0.
          5    1    3    3  502    0  0.41382551513E+02 -0.53367579559E+01  0.32956074246E+03  0.33221792837E+03  0.41800000000E+01 0.  1.
         -5    1    3    3    0  502 -0.53259182513E+02 -0.57175353471E+02  0.17918528490E+03  0.19552595810E+03  0.41800000000E+01 0.  1.
        -11    1    1    2    0    0  0.31173611091E+02  0.47985647722E+02  0.18720859157E+02  0.60207034335E+02  0.00000000000E+00 0.  1.
         11    1    1    2    0    0 -0.19296980090E+02  0.14526463705E+02  0.99179797311E+02  0.10207851774E+03  0.00000000000E+00 0. -1.
</event>
<event>
 7    1  0.2594791E-009  0.1111799E+03  0.7561462E-02  0.1258400E+00
          1   -1    0    0  501    0  0.00000000000E+00  0.00000000000E+00  0.35254852817E+03  0.35254852817E+03  0.00000000000E+00 0. -1.
         -1   -1    0    0    0  501 -0.00000000000E+00 -0.00000000000E+00 -0.40336723767E+02  0.40336723767E+02  0.00000000000E+00 0.  1.
         25    2    1    2    0    0 -0.49005640500E+02  0.13846676669E+01  0.15773397272E+03  0.20719984467E+03  0.12509316279E+03 0.  0.
          5    1    3    3  502    0  0.40142448453E+02  0.94128592119E+01  0.29962555622E+02  0.51139468375E+02  0.41800000000E+01 0. -1.
         -5    1    3    3    0  502 -0.89148088952E+02 -0.80281915450E+01  0.12777141710E+03  0.15606037630E+03  0.41800000000E+01 0. -1.
        -11    1    1    2    0    0  0.47477100152E+02 -0.34166750110E+02  0.52645447974E+02  0.78695521119E+02  0.00000000000E+00 0. -1.
         11    1    1    2    0    0  0.15285403480E+01  0.32782082443E+02  0.10183238371E+03  0.10698988614E+03  0.00000000000E+00 0.  1.
</event>
<event>
 7    1  0.2594791E-009  0.6868745E+02  0.7561462E-02  0.1364614E+00
          2   -1    0    0  501    0  0.00000000000E+00  0.00000000000E+00  0.64932681873E+02  0.64932681873E+02  0.00000000000E+00 0. -1.
         -2   -1    0    0    0  501 -0.00000000000E+00 -0.00000000000E+00 -0.28252301576E+03  0.28252301576E+03  0.00000000000E+00 0.  1.
         25    2    1    2    0    0  0.36263804969E+02 -0.24158086575E+02 -0.30833217953E+02  0.13600710936E+03  0.12509424355E+03 0.  0.
          5    1    3    3  502    0  0.35067797183E+02 -0.29111494982E+02  0.42452697667E+02  0.62425423335E+02  0.41800000000E+01 0.  1.
         -5    1    3    3    0  502  0.11960077853E+01  0.49534084073E+01 -0.73285915620E+02  0.73581686021E+02  0.41800000000E+01 0.  1.
        -11    1    1    2    0    0 -0.52737264456E+02  0.36752071686E+02 -0.17742332263E+03  0.18870868885E+03  0.00000000000E+00 0.  1.
         11    1    1    2    0    0  0.16473459488E+02 -0.12593985111E+02 -0.93337933102E+01  0.22739899429E+02  0.00000000000E+00 0. -1.
</event>
<event>
 7    1  0.2594791E-009  0.3947429E+02  0.7561462E-02  0.1512116E+00
          2   -1    0    0  501    0  0.00000000000E+00  0.00000000000E+00  0.11532655897E+03  0.11532655897E+03  0.00000000000E+00 0. -1.
         -2   -1    0    0    0  501 -0.00000000000E+00 -0.00000000000E+00 -0.10696042566E+03  0.10696042566E+03  0.00000000000E+00 0.  1.
         25    2    1    2    0    0 -0.87945270319E+01 -0.36518566257E+01  0.26889449757E+02  0.12830141592E+03  0.12509009176E+03 0.  0.
          5    1    3    3  502    0 -0.52953740994E+01 -0.26623428376E+01 -0.50346900536E+02  0.50866608398E+02  0.41800000000E+01 0. -1.
         -5    1    3    3    0  502 -0.34991529324E+01 -0.98951378815E+00  0.77236350293E+02  0.77434807518E+02  0.41800000000E+01 0. -1.
        -11    1    1    2    0    0  0.26775779321E+02  0.26101215009E+02  0.22682095750E+02  0.43734348638E+02  0.00000000000E+00 0.  1.
         11    1    1    2    0    0 -0.17981252289E+02 -0.22449358383E+02 -0.41205412192E+02  0.50251220081E+02  0.00000000000E+00 0. -1.
</event>
<event>
 7    1  0.2594791E-009  0.1394225E+03  0.7561462E-02  0.1214108E+00
         -1   -1    0    0    0  501 -0.00000000000E+00  0.00000000000E+00  0.61807422138E+02  0.61807422138E+02  0.00000000000E+00 0.  1.
          1   -1    0    0  501    0  0.00000000000E+00 -0.00000000000E+00 -0.36399935830E+03  0.36399935830E+03  0.00000000000E+00 0. -1.
         25    2    1    2    0    0 -0.57087402302E+02 -0.85802878962E+02 -0.13458476737E+03  0.21067235453E+03  0.12509466741E+03 0.  0.
          5    1    3    3  502    0 -0.70994860099E+02 -0.11157959809E+03 -0.11370165630E+03  0.17445863670E+03  0.41800000000E+01 0.  1.
         -5    1    3    3    0  502  0.13907457797E+02  0.25776719132E+02 -0.20883111068E+02  0.36213717835E+02  0.41800000000E+01 0.  1.
        -11    1    1    2    0    0  0.62033310010E+02  0.47005853469E+02 -0.53328594051E+02  0.94348400912E+02  0.00000000000E+00 0.  1.
         11    1    1    2    0    0 -0.49459077076E+01  0.38797025493E+02 -0.11427857474E+03  0.12078602500E+03  0.00000000000E+00 0. -1.
</event>
<event>
 7    1  0.2594791E-009  0.1180578E+03  0.7561462E-02  0.1246336E+00
         -1   -1    0    0    0  501 -0.00000000000E+00  0.00000000000E+00  0.10005048396E+04  0.10005048396E+04  0.00000000000E+00 0.  1.
          1   -1    0    0  501    0  0.00000000000E+00 -0.00000000000E+00 -0.14142318185E+02  0.14142318185E+02  0.00000000000E+00 0. -1.
         25    2    1    2    0    0 -0.25293497028E+02  0.39155060671E+02  0.49995611606E+03  0.51747173988E+03  0.12509198145E+03 0.  0.
          5    1    3    3  502    0  0.44490367810E+02 -0.12409639775E+02  0.18933983457E+03  0.19493700865E+03  0.41800000000E+01 0. -1.
         -5    1    3    3    0  502 -0.69783864839E+02  0.51564700446E+02  0.31061628149E+03  0.32253473124E+03  0.41800000000E+01 0. -1.
        -11    1    1    2    0    0  0.49740868325E+02 -0.54672029686E+02  0.34248521287E+03  0.35037024110E+03  0.00000000000E+00 0. -1.
         11    1    1    2    0    0 -0.24447371296E+02  0.15516969015E+02  0.14392119252E+03  0.14680517684E+03  0.00000000000E+00 0.  1.
</event>
<event>
 7    1  0.2594791E-009  0.1258027E+03  0.7561462E-02  0.1233820E+00
          2   -1    0    0  501    0  0.00000000000E+00  0.00000000000E+00  0.93103611193E+03  0.93103611193E+03  0.00000000000E+00 0. -1.
         -2   -1    0    0    0  501 -0.00000000000E+00 -0.00000000000E+00 -0.18565909136E+02  0.18565909136E+02  0.00000000000E+00 0.  1.
         25    2    1    2    0    0 -0.31159697749E+02  0.67217782917E+02  0.56337010745E+03  0.58182445980E+03  0.12507864305E+03 0.  0.
          5    1    3    3  502    0  0.33311841618E+02 -0.10919113465E+02  0.24949812956E+03  0.25198352105E+03  0.41800000000E+01 0. -1.
         -5    1    3    3    0  502 -0.64471539367E+02  0.78136896382E+02  0.31387197789E+03  0.32984093874E+03  0.41800000000E+01 0. -1.
        -11    1    1    2    0    0 -0.23659223998E+02 -0.53360815824E+02  0.15571808592E+03  0.16629870062E+03  0.00000000000E+00 0. -1.
         11    1    1    2    0    0  0.54818921746E+02 -0.13856967093E+02  0.19338200942E+03  0.20147886065E+03  0.00000000000E+00 0.  1.
</event>
<event>
 7    1  0.3030630E-009  0.9762685E+02  0.7561462E-02  0.1285367E+00
          1   -1    0    0  501    0  0.00000000000E+00  0.00000000000E+00  0.55726006609E+02  0.55726006609E+02  0.00000000000E+00 0. -1.
         -1   -1    0    0    0  501 -0.00000000000E+00 -0.00000000000E+00 -0.24466254131E+03  0.24466254131E+03  0.00000000000E+00 0.  1.
         25    2    1    2    0    0  0.28247441891E+02 -0.26539639649E+02 -0.81560742488E+02  0.15427962526E+03  0.12509107726E+03 0.  0.
          5    1    3    3  502    0  0.20506152421E+02  0.49837525454E+02 -0.35088549281E+02  0.64443462982E+02  0.41800000000E+01 0.  1.
         -5    1    3    3    0  502  0.77412894696E+01 -0.76377165102E+02 -0.46472193206E+02  0.89836162280E+02  0.41800000000E+01 0.  1.
        -11    1    1    2    0    0 -0.38378287693E+02  0.27681137991E+01 -0.30142203980E+01  0.38595866940E+02  0.00000000000E+00 0. -1.
         11    1    1    2    0    0  0.10130845802E+02  0.23771525850E+02 -0.10436157182E+03  0.10751305572E+03  0.00000000000E+00 0.  1.
</event>
<event>
 7    1  0.2594791E-009  0.1656470E+03  0.7561462E-02  0.1182465E+00
         -1   -1    0    0    0  501 -0.00000000000E+00  0.00000000000E+00  0.30431344719E+03  0.30431344719E+03  0.00000000000E+00 0.  1.
          1   -1    0    0  501    0  0.00000000000E+00 -0.00000000000E+00 -0.11218580511E+03  0.11218580511E+03  0.00000000000E+00 0. -1.
         25    2    1    2    0    0 -0.52142409423E+00 -0.14213103385E+03  0.15229031678E+03  0.24298603564E+03  0.12509344613E+03 0.  0.
          5    1    3    3  502    0 -0.38237081656E+02 -0.50003971085E+02  0.25650851018E+01  0.63138923014E+02  0.41800000000E+01 0. -1.
         -5    1    3    3    0  502  0.37715657562E+02 -0.92127062764E+02  0.14972523168E+03  0.17984711263E+03  0.41800000000E+01 0. -1.
        -11    1    1    2    0    0  0.45576347258E+02  0.70556183834E+02  0.25079176423E+02  0.87660387842E+02  0.00000000000E+00 0. -1.
         11    1    1    2    0    0 -0.45054923163E+02  0.71574850015E+02  0.14758148874E+02  0.85852828807E+02  0.00000000000E+00 0.  1.
</event>
<event>
 7    1  0.2594791E-009  0.9209510E+02  0.7561462E-02  0.1297856E+00
         -1   -1    0    0    0  501 -0.00000000000E+00  0.00000000000E+00  0.14788364439E+04  0.14788364439E+04  0.00000000000E+00 0.  1.
          1   -1    0    0  501    0  0.00000000000E+00 -0.00000000000E+00 -0.12982255493E+02  0.12982255493E+02  0.00000000000E+00 0. -1.
         25    2    1    2    0    0  0.22693897428E+02  0.35305447530E+00  0.12464130590E+04  0.12528795968E+04  0.12508650040E+03 0.  0.
          5    1    3    3  502    0 -0.37027951727E+01  0.46724820279E+02  0.21549307712E+03  0.22057120893E+03  0.41800000000E+01 0. -1.
         -5    1    3    3    0  502  0.26396692601E+02 -0.46371765804E+02  0.10309199819E+04  0.10323083878E+04  0.41800000000E+01 0. -1.
        -11    1    1    2    0    0 -0.30671368182E+02  0.35480638988E+02  0.17561119904E+03  0.18176606338E+03  0.00000000000E+00 0.  1.
         11    1    1    2    0    0  0.79774707533E+01 -0.35833693463E+02  0.43829930371E+02  0.57173039304E+02  0.00000000000E+00 0. -1.
</event>
<event>
 7    1  0.2594791E-009  0.1778299E+03  0.7561462E-02  0.1169920E+00
         -2   -1    0    0    0  501 -0.00000000000E+00  0.00000000000E+00  0.48188534876E+02  0.48188534876E+02  0.00000000000E+00 0.  1.
          2   -1    0    0  501    0  0.00000000000E+00 -0.00000000000E+00 -0.90668826009E+03  0.90668826009E+03  0.00000000000E+00 0. -1.
         25    2    1    2    0    0 -0.69115690248E+02 -0.16247864279E+03 -0.49869351231E+03  0.54361835547E+03  0.12509759865E+03 0.  0.
          5    1    3    3  502    0 -0.57894087917E+02 -0.14895304780E+03 -0.50054999026E+03  0.52545837229E+03  0.41800000000E+01 0.  1.
         -5    1    3    3    0  502 -0.11221602331E+02 -0.13525594992E+02  0.18564779498E+01  0.18159983181E+02  0.41800000000E+01 0.  1.
        -11    1    1    2    0    0  0.46740249294E+02  0.13117535611E+03 -0.18105690792E+03  0.22841459862E+03  0.00000000000E+00 0.  1.
         11    1    1    2    0    0  0.22375440954E+02  0.31303286680E+02 -0.17874930498E+03  0.18284384087E+03  0.00000000000E+00 0. -1.
</event>
<event>
 7    1  0.2594791E-009  0.8878837E+02  0.7561462E-02  0.1305813E+00
          1   -1    0    0  501    0  0.00000000000E+00  0.00000000000E+00  0.10663995190E+03  0.10663995190E+03  0.00000000000E+00 0. -1.
         -1   -1    0    0    0  501 -0.00000000000E+00 -0.00000000000E+00 -0.19256827541E+03  0.19256827541E+03  0.00000000000E+00 0.  1.
         25    2    1    2    0    0  0.12576488341E+02  0.22344073979E+02 -0.13985551841E+03  0.18937551668E+03  0.12508434989E+03 0.  0.
          5    1    3    3  502    0 -0.12550398109E+02  0.54880138345E+02 -0.13674306734E+03  0.14793742239E+03  0.41800000000E+01 0.  1.
         -5    1    3    3    0  502  0.25126886451E+02 -0.32536064365E+02 -0.31124510698E+01  0.41438094294E+02  0.41800000000E+01 0.  1.
        -11    1    1    2    0    0  0.77737027378E+01  0.26113783546E+02  0.50231860601E+02  0.57145428206E+02  0.00000000000E+00 0. -1.
         11    1    1    2    0    0 -0.20350191079E+02 -0.48457857526E+02  0.36953342964E+01  0.52687282417E+02  0.00000000000E+00 0.  1.
</event>
<event>
 7    1  0.2594791E-009  0.1249404E+03  0.7561462E-02  0.1235162E+00
          2   -1    0    0  501    0  0.00000000000E+00  0.00000000000E+00  0.66839004704E+03  0.66839004704E+03  0.00000000000E+00 0. -1.
         -2   -1    0    0    0  501 -0.00000000000E+00 -0.00000000000E+00 -0.28478518369E+02  0.28478518369E+02  0.00000000000E+00 0.  1.
         25    2    1    2    0    0 -0.77898323947E+02  0.32461580573E+02  0.28976007045E+03  0.32669982337E+03  0.12509985243E+03 0.  0.
          5    1    3    3  502    0  0.13696292931E+02  0.42091885442E+02  0.16911012235E+03  0.17485714496E+03  0.41800000000E+01 0. -1.
         -5    1    3    3    0  502 -0.91594616878E+02 -0.96303048688E+01  0.12064994809E+03  0.15184267841E+03  0.41800000000E+01 0. -1.
        -11    1    1    2    0    0  0.56467553295E+02  0.17289317910E+02  0.24337240576E+03  0.25043488770E+03  0.00000000000E+00 0. -1.
         11    1    1    2    0    0  0.21430770652E+02 -0.49750898483E+02  0.10677905246E+03  0.11973385434E+03  0.00000000000E+00 0.  1.
</event>
<event>
 7    1  0.2594791E-009  0.1084721E+03  0.7561462E-02  0.1263426E+00
          1   -1    0    0  501    0  0.00000000000E+00  0.00000000000E+00  0.39897197939E+03  0.39897197939E+03  0.00000000000E+00 0. -1.
         -1   -1    0    0    0  501 -0.00000000000E+00 -0.00000000000E+00 -0.61312385574E+02  0.61312385574E+02  0.00000000000E+00 0.  1.
         25    2    1    2    0    0  0.43547646566E+01  0.94470946586E+02  0.26622766452E+03  0.30897704933E+03  0.12508366773E+03 0.  0.
          5    1    3    3  502    0  0.29326841859E+01  0.75483754589E+02  0.47390471052E+02  0.89273327427E+02  0.41800000000E+01 0. -1.
         -5    1    3    3    0  502  0.14220804707E+01  0.18987191997E+02  0.21883719347E+03  0.21970372190E+03  0.41800000000E+01 0. -1.
        -11    1    1    2    0    0 -0.32004936330E+02 -0.87656667479E+02  0.24613318576E+02  0.96508148642E+02  0.00000000000E+00 0.  1.
         11    1    1    2    0    0  0.27650171673E+02 -0.68142791064E+01  0.46818610723E+02  0.54799166995E+02  0.00000000000E+00 0. -1.
</event>
<event>
 7    1  0.2594791E-009  0.1034169E+03  0.7561462E-02  0.1273271E+00
          1   -1    0    0  501    0  0.00000000000E+00  0.00000000000E+00  0.37995451272E+03  0.37995451272E+03  0.00000000000E+00 0. -1.
         -1   -1    0    0    0  501 -0.00000000000E+00 -0.00000000000E+00 -0.44835432403E+02  0.44835432403E+02  0.00000000000E+00 0.  1.
         25    2    1    2    0    0  0.33312212993E+02 -0.50383014627E+02  0.11939664929E+03  0.18316426915E+03  0.12508172502E+03 0.  0.
          5    1    3    3  502    0  0.41222650224E+02  0.12722505187E+02  0.11064248200E+03  0.11882929038E+03  0.41800000000E+01 0. -1.
         -5    1    3    3    0  502 -0.79104372314E+01 -0.63105519814E+02  0.87541672951E+01  0.64334978769E+02  0.41800000000E+01 0. -1.
        -11    1    1    2    0    0 -0.55938457079E+02  0.15275263802E+02  0.17038378805E+03  0.17998077646E+03  0.00000000000E+00 0. -1.
         11    1    1    2    0    0  0.22626244086E+02  0.35107750825E+02  0.45338642977E+02  0.61644899517E+02  0.00000000000E+00 0.  1.
</event>
<event>
 7    1  0.2594791E-009  0.1332072E+03  0.7561462E-02  0.1222773E+00
         -4   -1    0    0    0  501 -0.00000000000E+00  0.00000000000E+00  0.52221362351E+02  0.52221362351E+02  0.00000000000E+00 0.  1.
          4   -1    0    0  501    0  0.00000000000E+00 -0.00000000000E+00 -0.52014582364E+03  0.52014582364E+03  0.00000000000E+00 0. -1.
         25    2    1    2    0    0 -0.10373861623E+03  0.51743983267E+01 -0.36778198279E+03  0.40211906259E+03  0.12509068206E+03 0.  0.
          5    1    3    3  502    0 -0.12553069234E+03 -0.15460715371E+01 -0.22695361385E+03  0.25939498895E+03  0.41800000000E+01 0. -1.
         -5    1    3    3    0  502  0.21792076108E+02  0.67204698638E+01 -0.14082836894E+03  0.14272407364E+03  0.41800000000E+01 0. -1.
        -11    1    1    2    0    0  0.54466076987E+01 -0.17712823455E+02  0.10838938119E+02  0.21468400726E+02  0.00000000000E+00 0.  1.
         11    1    1    2    0    0  0.98292008529E+02  0.12538425128E+02 -0.11098141662E+03  0.14877972268E+03  0.00000000000E+00 0. -1.
</event>
<event>
 7    1  0.2594791E-009  0.1182623E+03  0.7561462E-02  0.1245992E+00
         -2   -1    0    0    0  501 -0.00000000000E+00  0.00000000000E+00  0.13048819231E+04  0.13048819231E+04  0.00000000000E+00 0.  1.
          2   -1    0    0  501    0  0.00000000000E+00 -0.00000000000E+00 -0.23428621824E+02  0.23428621824E+02  0.00000000000E+00 0. -1.
         25    2    1    2    0    0 -0.38733371295E+00 -0.10154484019E+03  0.10267079819E+04  0.10392731091E+04  0.12509120948E+03 0.  0.
          5    1    3    3  502    0 -0.21239860489E+01 -0.59500856380E+02  0.14847104426E+03  0.16001870706E+03  0.41800000000E+01 0. -1.
         -5    1    3    3    0  502  0.17366523360E+01 -0.42043983809E+02  0.87823693765E+03  0.87925440208E+03  0.41800000000E+01 0. -1.
        -11    1    1    2    0    0 -0.30573475333E+02  0.98855022075E+02  0.17299822302E+03  0.20158233541E+03  0.00000000000E+00 0.  1.
         11    1    1    2    0    0  0.30960809046E+02  0.26898181136E+01  0.81747096399E+02  0.87455100411E+02  0.00000000000E+00 0. -1.
</event>
<event>
 7    1  0.2594791E-009  0.1291494E+03  0.7561462E-02  0.1228723E+00
         -2   -1    0    0    0  501 -0.00000000000E+00  0.00000000000E+00  0.42020743647E+02  0.42020743647E+02  0.00000000000E+00 0.  1.
          2   -1    0    0  501    0  0.00000000000E+00 -0.00000000000E+00 -0.51172097801E+03  0.51172097801E+03  0.00000000000E+00 0. -1.
         25    2    1    2    0    0 -0.94648908694E+01 -0.91085380808E+02 -0.32353813576E+03  0.35876257295E+03  0.12509007837E+03 0.  0.
          5    1    3    3  502    0  0.37198242735E+02 -0.74309041948E+02 -0.28175622255E+03  0.29378492869E+03  0.41800000000E+01 0.  1.
         -5    1    3    3    0  502 -0.46663133604E+02 -0.16776338860E+02 -0.41781913207E+02  0.64977644267E+02  0.41800000000E+01 0.  1.
        -11    1    1    2    0    0 -0.36851751254E+02  0.24619162459E+02 -0.75171909006E+02  0.87263799105E+02  0.00000000000E+00 0.  1.
         11    1    1    2    0    0  0.46316642123E+02  0.66466218349E+02 -0.70990189594E+02  0.10771534959E+03  0.00000000000E+00 0. -1.
</event>
<event>
 7    1  0.2594791E-009  0.1455697E+03  0.7561462E-02  0.1206025E+00
         -1   -1    0    0    0  501 -0.00000000000E+00  0.00000000000E+00  0.82062917343E+03  0.82062917343E+03  0.00000000000E+00 0.  1.
          1   -1    0    0  501    0  0.00000000000E+00 -0.00000000000E+00 -0.29094673131E+02  0.29094673131E+02  0.00000000000E+00 0. -1.
         25    2    1    2    0    0  0.10673629395E+03  0.13743569856E+01  0.50319707903E+03  0.52938566558E+03  0.12508939711E+03 0.  0.
          5    1    3    3  502    0  0.57594021446E+01 -0.47632332613E+02  0.10261119256E+03  0.11335139638E+03  0.41800000000E+01 0.  1.
         -5    1    3    3    0  502  0.10097689180E+03  0.49006689599E+02  0.40058588647E+03  0.41603426919E+03  0.41800000000E+01 0.  1.
        -11    1    1    2    0    0 -0.58021520886E+02 -0.38307961473E+02  0.96094358637E+02  0.11860911668E+03  0.00000000000E+00 0.  1.
         11    1    1    2    0    0 -0.48714773061E+02  0.36933604487E+02  0.19224306263E+03  0.20172906430E+03  0.00000000000E+00 0. -1.
</event>
<event>
 7    1  0.2594791E-009  0.1105588E+03  0.7561462E-02  0.1259539E+00
          2   -1    0    0  501    0  0.00000000000E+00  0.00000000000E+00  0.26241603597E+03  0.26241603597E+03  0.00000000000E+00 0.  1.
         -2   -1    0    0    0  501 -0.00000000000E+00 -0.00000000000E+00 -0.67428968714E+02  0.67428968714E+02  0.00000000000E+00 0. -1.
         25    2    1    2    0    0  0.73066644459E+02  0.10192409291E+02  0.10112720089E+03  0.17697640812E+03  0.12510522984E+03 0.  0.
          5    1    3    3  502    0  0.78509430594E+02 -0.21921755640E+02  0.11525389463E+03  0.14122757057E+03  0.41800000000E+01 0.  1.
         -5    1    3    3    0  502 -0.54427861352E+01  0.32114164931E+02 -0.14126693740E+02  0.35748837550E+02  0.41800000000E+01 0.  1.
        -11    1    1    2    0    0 -0.62675518688E+02 -0.40498052565E+02  0.95009652167E+02  0.12081037583E+03  0.00000000000E+00 0.  1.
         11    1    1    2    0    0 -0.10391125770E+02  0.30305643275E+02 -0.11497857971E+01  0.32058220731E+02  0.00000000000E+00 0. -1.
</event>
<event>
 7    1  0.2594791E-009  0.8961993E+02  0.7561462E-02  0.1303775E+00
          1   -1    0    0  501    0  0.00000000000E+00  0.00000000000E+00  0.13686785289E+04  0.13686785289E+04  0.00000000000E+00 0. -1.
         -1   -1    0    0    0  501 -0.00000000000E+00 -0.00000000000E+00 -0.30314355835E+02  0.30314355835E+02  0.00000000000E+00 0.  1.
         25    2    1    2    0    0 -0.29710345581E+02 -0.58754746135E+02  0.12446550389E+04  0.12526562556E+04  0.12508678645E+03 0.  0.
          5    1    3    3  502    0 -0.84937441732E+01 -0.40897708236E+02  0.11128715022E+03  0.11894144960E+03  0.41800000000E+01 0.  1.
         -5    1    3    3    0  502 -0.21216601408E+02 -0.17857037899E+02  0.11333678886E+04  0.11337148060E+04  0.41800000000E+01 0.  1.
        -11    1    1    2    0    0  0.60742526077E+02  0.34721173501E+02  0.75920799561E+02  0.10324331537E+03  0.00000000000E+00 0. -1.
         11    1    1    2    0    0 -0.31032180496E+02  0.24033572634E+02  0.17788334638E+02  0.43093313740E+02  0.00000000000E+00 0.  1.
</event>
<event>
 7    1  0.2594791E-009  0.1398993E+03  0.7561462E-02  0.1213464E+00
         -2   -1    0    0    0  501 -0.00000000000E+00  0.00000000000E+00  0.56897722469E+02  0.56897722469E+02  0.00000000000E+00 0.  1.
          2   -1    0    0  501    0  0.00000000000E+00 -0.00000000000E+00 -0.49312857728E+03  0.49312857728E+03  0.00000000000E+00 0. -1.
         25    2    1    2    0    0  0.51331741598E+01 -0.12306728821E+03 -0.28863021709E+03  0.33782293369E+03  0.12508007596E+03 0.  0.
          5    1    3    3  502    0  0.35213189643E+02 -0.46737967461E+02 -0.28877326490E+02  0.65389438844E+02  0.41800000000E+01 0. -1.
         -5    1    3    3    0  502 -0.30080015483E+02 -0.76329320754E+02 -0.25975289060E+03  0.27243349484E+03  0.41800000000E+01 0. -1.
        -11    1    1    2    0    0 -0.34125071216E+02  0.51655601008E+02 -0.23707957346E+02  0.66293957813E+02  0.00000000000E+00 0. -1.
         11    1    1    2    0    0  0.28991897056E+02  0.71411687206E+02 -0.12389268037E+03  0.14590940825E+03  0.00000000000E+00 0.  1.
</event>
<event>
 7    1  0.2594791E-009  0.1475740E+03  0.7561462E-02  0.1203486E+00
          1   -1    0    0  501    0  0.00000000000E+00  0.00000000000E+00  0.31502026777E+03  0.31502026777E+03  0.00000000000E+00 0. -1.
         -1   -1    0    0    0  501 -0.00000000000E+00 -0.00000000000E+00 -0.99431728365E+02  0.99431728365E+02  0.00000000000E+00 0.  1.
         25    2    1    2    0    0  0.80655827674E+02  0.89015443430E+02  0.19634764827E+03  0.26196055109E+03  0.12506726047E+03 0.  0.
          5    1    3    3  502    0  0.96159502095E+02  0.70037776895E+02  0.81038800566E+02  0.14400242926E+03  0.41800000000E+01 0. -1.
         -5    1    3    3    0  502 -0.15503674422E+02  0.18977666534E+02  0.11530884770E+03  0.11795812183E+03  0.41800000000E+01 0. -1.
        -11    1    1    2    0    0  0.19583869128E+02 -0.27092814890E+02  0.52649190835E+01  0.33841807305E+02  0.00000000000E+00 0.  1.
         11    1    1    2    0    0 -0.10023969680E+03 -0.61922628539E+02  0.13975972052E+02  0.11864963774E+03  0.00000000000E+00 0. -1.
</event>
<event>
 7    1  0.2594791E-009  0.8022886E+02  0.7561462E-02  0.1328403E+00
          2   -1    0    0  501    0  0.00000000000E+00  0.00000000000E+00  0.41853349631E+02  0.41853349631E+02  0.00000000000E+00 0.  1.
         -2   -1    0    0    0  501 -0.00000000000E+00 -0.00000000000E+00 -0.32920116250E+03  0.32920116250E+03  0.00000000000E+00 0. -1.
         25    2    1    2    0    0 -0.26357459550E+02  0.35469584492E+02 -0.17082922717E+03  0.21629315032E+03  0.12508914790E+03 0.  0.
          5    1    3    3  502    0 -0.41893529047E+01  0.59628297025E+02 -0.17308388616E+03  0.18316273784E+03  0.41800000000E+01 0. -1.
         -5    1    3    3    0  502 -0.22168106646E+02 -0.24158712533E+02  0.22546589991E+01  0.33130412474E+02  0.41800000000E+01 0. -1.
        -11    1    1    2    0    0  0.41842572990E+02 -0.24266249597E+02 -0.13828634011E+02  0.50307881118E+02  0.00000000000E+00 0.  1.
         11    1    1    2    0    0 -0.15485113440E+02 -0.11203334895E+02 -0.10268995169E+03  0.10445348070E+03  0.00000000000E+00 0. -1.
</event>
<event>
 7    1  0.2594791E-009  0.9145992E+02  0.7561462E-02  0.1299354E+00
         -2   -1    0    0    0  501 -0.00000000000E+00  0.00000000000E+00  0.13940797844E+02  0.13940797844E+02  0.00000000000E+00 0.  1.
          2   -1    0    0  501    0  0.00000000000E+00 -0.00000000000E+00 -0.10117757084E+04  0.10117757084E+04  0.00000000000E+00 0. -1.
         25    2    1    2    0    0 -0.37254257531E+02  0.28658068783E+02 -0.62326736963E+03  0.63743140480E+03  0.12508963655E+03 0.  0.
          5    1    3    3  502    0 -0.43028489931E+02  0.45257187653E+02 -0.61390003465E+03  0.61708215735E+03  0.41800000000E+01 0. -1.
         -5    1    3    3    0  502  0.57742324000E+01 -0.16599118871E+02 -0.93673349777E+01  0.20349247448E+02  0.41800000000E+01 0. -1.
        -11    1    1    2    0    0  0.61289068794E+02 -0.42452445946E+02 -0.26896658965E+03  0.27910855678E+03  0.00000000000E+00 0. -1.
         11    1    1    2    0    0 -0.24034811263E+02  0.13794377163E+02 -0.10560095131E+03  0.10917654470E+03  0.00000000000E+00 0.  1.
</event>
<event>
 7    1  0.2594791E-009  0.1506395E+03  0.7561462E-02  0.1199689E+00
         -1   -1    0    0    0  501 -0.00000000000E+00  0.00000000000E+00  0.58252360261E+02  0.58252360261E+02  0.00000000000E+00 0.  1.
          1   -1    0    0  501    0  0.00000000000E+00 -0.00000000000E+00 -0.44562695643E+03  0.44562695643E+03  0.00000000000E+00 0. -1.
         25    2    1    2    0    0  0.39211272153E+02 -0.11127265821E+03 -0.21996089344E+03  0.27919125567E+03  0.12508330933E+03 0.  0.
          5    1    3    3  502    0  0.33185594040E+02  0.18071684634E+02 -0.79409521247E+02  0.88040978538E+02  0.41800000000E+01 0.  1.
         -5    1    3    3    0  502  0.60256781122E+01 -0.12934434285E+03 -0.14055137219E+03  0.19115027713E+03  0.41800000000E+01 0.  1.
        -11    1    1    2    0    0 -0.53299521333E+02  0.58726054425E+02 -0.14614337145E+03  0.16627529420E+03  0.00000000000E+00 0.  1.
         11    1    1    2    0    0  0.14088249180E+02  0.52546603788E+02 -0.21270331281E+02  0.58412766819E+02  0.00000000000E+00 0. -1.
</event>
<event>
 7    1  0.2594791E-009  0.1138661E+03  0.7561462E-02  0.1253573E+00
         -2   -1    0    0    0  501 -0.00000000000E+00  0.00000000000E+00  0.12617076834E+03  0.12617076834E+03  0.00000000000E+00 0.  1.
          2   -1    0    0  501    0  0.00000000000E+00 -0.00000000000E+00 -0.22203415610E+03  0.22203415610E+03  0.00000000000E+00 0. -1.
         25    2    1    2    0    0 -0.31364009922E+02 -0.63047817957E+02 -0.16412861496E+03  0.21804291832E+03  0.12508310642E+03 0.  0.
          5    1    3    3  502    0  0.32770637592E+02  0.30380977581E+01 -0.10101346221E+03  0.10632185417E+03  0.41800000000E+01 0.  1.
         -5    1    3    3    0  502 -0.64134647514E+02 -0.66085915715E+02 -0.63115152756E+02  0.11172106415E+03  0.41800000000E+01 0.  1.
        -11    1    1    2    0    0  0.54177115608E+02  0.57276113890E+02  0.28265102453E+02  0.83753382586E+02  0.00000000000E+00 0. -1.
         11    1    1    2    0    0 -0.22813105686E+02  0.57717040665E+01  0.40000124751E+02  0.46408623541E+02  0.00000000000E+00 0.  1.
</event>
<event>
 7    1  0.2594791E-009  0.1112505E+03  0.7561462E-02  0.1258272E+00
         -1   -1    0    0    0  501 -0.00000000000E+00  0.00000000000E+00  0.40969211309E+02  0.40969211309E+02  0.00000000000E+00 0.  1.
          1   -1    0    0  501    0  0.00000000000E+00 -0.00000000000E+00 -0.33018226926E+03  0.33018226926E+03  0.00000000000E+00 0. -1.
         25    2    1    2    0    0  0.26564478263E+01  0.31510937002E+02 -0.14964503251E+03  0.19758787442E+03  0.12508931407E+03 0.  0.
          5    1    3    3  502    0 -0.24663478339E+01  0.76507333333E+02 -0.61045415499E+02  0.97997296283E+02  0.41800000000E+01 0. -1.
         -5    1    3    3    0  502  0.51227956602E+01 -0.44996396331E+02 -0.88599617016E+02  0.99590578136E+02  0.41800000000E+01 0. -1.
        -11    1    1    2    0    0  0.42843849826E+02 -0.34142152622E+02 -0.95893940389E+02  0.11043971141E+03  0.00000000000E+00 0.  1.
         11    1    1    2    0    0 -0.45500297652E+02  0.26312156203E+01 -0.43674085048E+02  0.63123894737E+02  0.00000000000E+00 0. -1.
</event>
<event>
 7    1  0.2594791E-009  0.2155656E+03  0.7561462E-02  0.1137233E+00
         -2   -1    0    0    0  501 -0.00000000000E+00  0.00000000000E+00  0.62306552572E+03  0.62306552572E+03  0.00000000000E+00 0.  1.
          2   -1    0    0  501    0  0.00000000000E+00 -0.00000000000E+00 -0.17536647313E+03  0.17536647313E+03  0.00000000000E+00 0. -1.
         25    2    1    2    0    0 -0.13598207801E+03  0.15462304154E+03  0.51094306738E+03  0.56489880165E+03  0.12509367484E+03 0.  0.
          5    1    3    3  502    0 -0.61651726991E+02  0.62527122990E+02  0.37242128420E+03  0.38265606212E+03  0.41800000000E+01 0.  1.
         -5    1    3    3    0  502 -0.74330351019E+02  0.92095918549E+02  0.13852178318E+03  0.18224273953E+03  0.41800000000E+01 0.  1.
        -11    1    1    2    0    0  0.10877153723E+03 -0.55704806005E+02 -0.33395796850E+02  0.12668682635E+03  0.00000000000E+00 0. -1.
         11    1    1    2    0    0  0.27210540780E+02 -0.98918235534E+02 -0.29848217930E+02  0.10684637085E+03  0.00000000000E+00 0.  1.
</event>
<event>
 6    1  0.2612046E-009  0.1724591E+03  0.7561462E-02  0.1175307E+00
         -2   -1    0    0    0  501 -0.00000000000E+00  0.00000000000E+00  0.95412807006E+02  0.95412807006E+02  0.00000000000E+00 0. -1.
          2   -1    0    0  501    0  0.00000000000E+00 -0.00000000000E+00 -0.42369693849E+03  0.42369693849E+03  0.00000000000E+00 0.  1.
          5    1    1    2  502    0 -0.71778712678E+02 -0.47412570635E+02 -0.15588221170E+03  0.17809231250E+03  0.41800000000E+01 0. -1.
         -5    1    1    2    0  502 -0.88851063411E+02 -0.46540694415E+01 -0.99152544723E+01  0.89621183338E+02  0.41800000000E+01 0. -1.
        -11    1    1    2    0    0  0.83924318678E+02  0.36166825583E+02 -0.27687025941E+02  0.95487705720E+02  0.00000000000E+00 0. -1.
         11    1    1    2    0    0  0.76705457412E+02  0.15899814494E+02 -0.13479963937E+03  0.15590854393E+03  0.00000000000E+00 0.  1.
</event>
<event>
 7    1  0.2594791E-009  0.1036263E+03  0.7561462E-02  0.1272850E+00
          1   -1    0    0  501    0  0.00000000000E+00  0.00000000000E+00  0.47144524189E+02  0.47144524189E+02  0.00000000000E+00 0. -1.
         -1   -1    0    0    0  501 -0.00000000000E+00 -0.00000000000E+00 -0.31430520561E+03  0.31430520561E+03  0.00000000000E+00 0.  1.
         25    2    1    2    0    0  0.33539070727E+02 -0.41477256765E+02 -0.12646580918E+03  0.18570209181E+03  0.12508570629E+03 0.  0.
          5    1    3    3  502    0  0.72284197053E+02  0.72498071044E+01 -0.78199249089E+02  0.10681834957E+03  0.41800000000E+01 0. -1.
         -5    1    3    3    0  502 -0.38745126326E+02 -0.48727063870E+02 -0.48266560091E+02  0.78883742244E+02  0.41800000000E+01 0. -1.
        -11    1    1    2    0    0 -0.43783270472E+02  0.19670972293E+02 -0.14366617998E+03  0.15147241727E+03  0.00000000000E+00 0.  1.
         11    1    1    2    0    0  0.10244199745E+02  0.21806284472E+02  0.29713077408E+01  0.24275220711E+02  0.00000000000E+00 0. -1.
</event>
<event>
 7    1  0.2594791E-009  0.1311632E+03  0.7561462E-02  0.1225740E+00
          1   -1    0    0  501    0  0.00000000000E+00  0.00000000000E+00  0.18686116327E+03  0.18686116327E+03  0.00000000000E+00 0. -1.
         -1   -1    0    0    0  501 -0.00000000000E+00 -0.00000000000E+00 -0.10256205858E+03  0.10256205858E+03  0.00000000000E+00 0.  1.
         25    2    1    2    0    0 -0.83852880229E+02  0.98538879506E+00  0.26076132402E+02  0.15283037963E+03  0.12507950969E+03 0.  0.
          5    1    3    3  502    0 -0.61652105773E+02 -0.58947684593E+02  0.24159839036E+02  0.88752362714E+02  0.41800000000E+01 0. -1.
         -5    1    3    3    0  502 -0.22200774456E+02  0.59933073388E+02  0.19162933659E+01  0.64078016921E+02  0.41800000000E+01 0. -1.
        -11    1    1    2    0    0  0.20191367629E+02  0.34513824558E+02 -0.47501790248E+01  0.40267351702E+02  0.00000000000E+00 0.  1.
         11    1    1    2    0    0  0.63661512600E+02 -0.35499213353E+02  0.62973151313E+02  0.96325490507E+02  0.00000000000E+00 0. -1.
</event>
<event>
 7    1  0.2594791E-009  0.1079458E+03  0.7561462E-02  0.1264422E+00
         -2   -1    0    0    0  501 -0.00000000000E+00  0.00000000000E+00  0.23329764010E+02  0.23329764010E+02  0.00000000000E+00 0.  1.
          2   -1    0    0  501    0  0.00000000000E+00 -0.00000000000E+00 -0.72797620108E+03  0.72797620108E+03  0.00000000000E+00 0. -1.
         25    2    1    2    0    0 -0.12316996052E+02  0.69567821285E+02 -0.43920800278E+03  0.46210572356E+03  0.12508652961E+03 0.  0.
          5    1    3    3  502    0  0.29995427625E+02  0.19939534719E+02 -0.28200892672E+02  0.45935536034E+02  0.41800000000E+01 0.  1.
         -5    1    3    3    0  502 -0.42312423677E+02  0.49628286566E+02 -0.41100711011E+03  0.41617018753E+03  0.41800000000E+01 0.  1.
        -11    1    1    2    0    0  0.13919789994E+02  0.20181746807E+02 -0.46315421247E+02  0.52404023729E+02  0.00000000000E+00 0.  1.
         11    1    1    2    0    0 -0.16027939414E+01 -0.89749568091E+02 -0.21912301305E+03  0.23679621781E+03  0.00000000000E+00 0. -1.
</event>
<event>
 7    1  0.2594791E-009  0.1006166E+03  0.7561462E-02  0.1279005E+00
          1   -1    0    0  501    0  0.00000000000E+00  0.00000000000E+00  0.36323023126E+03  0.36323023126E+03  0.00000000000E+00 0. -1.
         -1   -1    0    0    0  501 -0.00000000000E+00 -0.00000000000E+00 -0.33233061185E+02  0.33233061185E+02  0.00000000000E+00 0.  1.
         25    2    1    2    0    0 -0.55227212221E+01 -0.12879207783E+02  0.22452130234E+03  0.25739954713E+03  0.12509331404E+03 0.  0.
          5    1    3    3  502    0  0.56819101634E+02  0.56397246606E+01  0.75501188202E+02  0.94752934649E+02  0.41800000000E+01 0. -1.
         -5    1    3    3    0  502 -0.62341822856E+02 -0.18518932443E+02  0.14902011414E+03  0.16264661249E+03  0.41800000000E+01 0. -1.
        -11    1    1    2    0    0  0.34537576489E+02 -0.15833164527E+02  0.16996723433E+02  0.41622372544E+02  0.00000000000E+00 0.  1.
         11    1    1    2    0    0 -0.29014855267E+02  0.28712372310E+02  0.88479144302E+02  0.97441372764E+02  0.00000000000E+00 0. -1.
</event>
<event>
 7    1  0.2636704E-009  0.6207958E+02  0.7561462E-02  0.1389306E+00
         -1   -1    0    0    0  501 -0.00000000000E+00  0.00000000000E+00  0.17856128772E+03  0.17856128772E+03  0.00000000000E+00 0.  1.
          1   -1    0    0  501    0  0.00000000000E+00 -0.00000000000E+00 -0.89138649459E+02  0.89138649459E+02  0.00000000000E+00 0. -1.
         25    2    1    2    0    0 -0.52431667857E+01  0.51196566205E+02  0.90593216302E+02  0.16280104444E+03  0.12509384494E+03 0.  0.
          5    1    3    3  502    0 -0.29533388384E+01  0.27165397257E+02 -0.29386823529E+02  0.40345245266E+02  0.41800000000E+01 0. -1.
         -5    1    3    3    0  502 -0.22898279473E+01  0.24031168947E+02  0.11998003983E+03  0.12245579917E+03  0.41800000000E+01 0. -1.
        -11    1    1    2    0    0  0.13488781313E+01  0.10304472241E+02  0.32886792068E+02  0.34489747939E+02  0.00000000000E+00 0.  1.
         11    1    1    2    0    0  0.38942886545E+01 -0.61501038445E+02 -0.34057370104E+02  0.70409144806E+02  0.00000000000E+00 0. -1.
</event>
<event>
 7    1  0.2594791E-009  0.9535211E+02  0.7561462E-02  0.1290385E+00
         -1   -1    0    0    0  501 -0.00000000000E+00  0.00000000000E+00  0.25655682458E+03  0.25655682458E+03  0.00000000000E+00 0.  1.
          1   -1    0    0  501    0  0.00000000000E+00 -0.00000000000E+00 -0.71937057301E+02  0.71937057301E+02  0.00000000000E+00 0. -1.
         25    2    1    2    0    0  0.12549952689E+02  0.67582088405E+02  0.15746848452E+03  0.21253101039E+03  0.12509303248E+03 0.  0.
          5    1    3    3  502    0  0.22549080636E+02  0.83452366861E+02  0.16917577841E+03  0.19002808996E+03  0.41800000000E+01 0.  1.
         -5    1    3    3    0  502 -0.99991279470E+01 -0.15870278456E+02 -0.11707293889E+02  0.22502920437E+02  0.41800000000E+01 0.  1.
        -11    1    1    2    0    0 -0.31090342854E+02 -0.52608343440E+02 -0.19023143396E+02  0.64000993766E+02  0.00000000000E+00 0. -1.
         11    1    1    2    0    0  0.18540390165E+02 -0.14973744964E+02  0.46174426152E+02  0.51961877720E+02  0.00000000000E+00 0.  1.
</event>
<event>
 7    1  0.2594791E-009  0.7801740E+02  0.7561462E-02  0.1334774E+00
          4   -1    0    0  501    0  0.00000000000E+00  0.00000000000E+00  0.19192662468E+03  0.19192662468E+03  0.00000000000E+00 0.  1.
         -4   -1    0    0    0  501 -0.00000000000E+00 -0.00000000000E+00 -0.76433233950E+02  0.76433233950E+02  0.00000000000E+00 0. -1.
         25    2    1    2    0    0 -0.11863268151E+02 -0.99540246842E+01  0.82972553369E+02  0.15090208924E+03  0.12508867329E+03 0.  0.
          5    1    3    3  502    0 -0.14941052163E+02 -0.23796733473E+02 -0.27444755871E+02  0.39499450484E+02  0.41800000000E+01 0. -1.
         -5    1    3    3    0  502  0.30777840118E+01  0.13842708789E+02  0.11041730924E+03  0.11140263875E+03  0.41800000000E+01 0. -1.
        -11    1    1    2    0    0 -0.44814898575E+02  0.28615834171E+02  0.14147627615E+02  0.55021781748E+02  0.00000000000E+00 0.  1.
         11    1    1    2    0    0  0.56678166726E+02 -0.18661809487E+02  0.18373209744E+02  0.62435987644E+02  0.00000000000E+00 0. -1.
</event>
<event>
 7    1  0.2594791E-009  0.1302190E+03  0.7561462E-02  0.1227131E+00
         -2   -1    0    0    0  501 -0.00000000000E+00  0.00000000000E+00  0.62360285681E+02  0.62360285681E+02  0.00000000000E+00 0.  1.
          2   -1    0    0  501    0  0.00000000000E+00 -0.00000000000E+00 -0.52044046481E+03  0.52044046481E+03  0.00000000000E+00 0. -1.
         25    2    1    2    0    0 -0.74262461831E+02 -0.99068009999E+02 -0.34844829484E+03  0.39037595100E+03  0.12509110719E+03 0.  0.
          5    1    3    3  502    0 -0.69861948010E+02 -0.91830379253E+02 -0.13892960247E+03  0.18064444961E+03  0.41800000000E+01 0.  1.
         -5    1    3    3    0  502 -0.44005138217E+01 -0.72376307466E+01 -0.20951869237E+03  0.20973150139E+03  0.41800000000E+01 0.  1.
        -11    1    1    2    0    0  0.81845547445E+02  0.77680268199E+02 -0.40867277972E+02  0.12001271646E+03  0.00000000000E+00 0.  1.
         11    1    1    2    0    0 -0.75830856133E+01  0.21387741800E+02 -0.68764606322E+02  0.72412083034E+02  0.00000000000E+00 0. -1.
</event>
<event>
 7    1  0.2594791E-009  0.8598102E+02  0.7561462E-02  0.1312887E+00
         -1   -1    0    0    0  501 -0.00000000000E+00  0.00000000000E+00  0.83381876218E+02  0.83381876218E+02  0.00000000000E+00 0.  1.
          1   -1    0    0  501    0  0.00000000000E+00 -0.00000000000E+00 -0.18525363773E+03  0.18525363773E+03  0.00000000000E+00 0. -1.
         25    2    1    2    0    0  0.45086185684E+02 -0.42010218901E+01 -0.18807664468E+02  0.13435630454E+03  0.12508987010E+03 0.  0.
          5    1    3    3  502    0 -0.17781718122E+02 -0.19304433399E+02  0.39221231146E+02  0.47377505431E+02  0.41800000000E+01 0.  1.
         -5    1    3    3    0  502  0.62867903806E+02  0.15103411509E+02 -0.58028895614E+02  0.86978799109E+02  0.41800000000E+01 0.  1.
        -11    1    1    2    0    0 -0.11251573839E+02  0.33809881521E+02  0.44318017555E+01  0.35907476508E+02  0.00000000000E+00 0.  1.
         11    1    1    2    0    0 -0.33834611845E+02 -0.29608859631E+02 -0.87495898802E+02  0.98371732904E+02  0.00000000000E+00 0. -1.
</event>
<event>
 7    1  0.2594791E-009  0.1798339E+03  0.7561462E-02  0.1167964E+00
         -2   -1    0    0    0  501 -0.00000000000E+00  0.00000000000E+00  0.72595034499E+02  0.72595034499E+02  0.00000000000E+00 0.  1.
          2   -1    0    0  501    0  0.00000000000E+00 -0.00000000000E+00 -0.64566189062E+03  0.64566189062E+03  0.00000000000E+00 0. -1.
         25    2    1    2    0    0  0.12663527553E+03 -0.83297266717E+02 -0.47338378580E+03  0.51255520423E+03  0.12508277687E+03 0.  0.
          5    1    3    3  502    0  0.99734779300E+02  0.67643649421E+01 -0.28356713270E+03  0.30070013965E+03  0.41800000000E+01 0. -1.
         -5    1    3    3    0  502  0.26900496231E+02 -0.90061631659E+02 -0.18981665310E+03  0.21185506458E+03  0.41800000000E+01 0. -1.
        -11    1    1    2    0    0 -0.18261271702E+02  0.48314095611E+02  0.38497873968E+01  0.51793307887E+02  0.00000000000E+00 0.  1.
         11    1    1    2    0    0 -0.10837400383E+03  0.34983171105E+02 -0.10353285772E+03  0.15390841300E+03  0.00000000000E+00 0. -1.
</event>
<event>
 7    1  0.2594791E-009  0.1166106E+03  0.7561462E-02  0.1248796E+00
         -1   -1    0    0    0  501 -0.00000000000E+00  0.00000000000E+00  0.21461132713E+03  0.21461132713E+03  0.00000000000E+00 0.  1.
          1   -1    0    0  501    0  0.00000000000E+00 -0.00000000000E+00 -0.29968523002E+03  0.29968523002E+03  0.00000000000E+00 0. -1.
         25    2    1    2    0    0  0.77928373321E+02 -0.75924729479E+02  0.16077061805E+03  0.23093654329E+03  0.12508836669E+03 0.  0.
          5    1    3    3  502    0  0.44121675814E+02 -0.80785559217E+01 -0.81128609539E+01  0.45774187653E+02  0.41800000000E+01 0.  1.
         -5    1    3    3    0  502  0.33806697508E+02 -0.67846173557E+02  0.16888347901E+03  0.18516235564E+03  0.41800000000E+01 0.  1.
        -11    1    1    2    0    0 -0.18992480790E+02  0.37101787896E+02 -0.19029386217E+02  0.45818932020E+02  0.00000000000E+00 0.  1.
         11    1    1    2    0    0 -0.58935892531E+02  0.38822941583E+02 -0.22681513473E+03  0.23754108185E+03  0.00000000000E+00 0. -1.
</event>
<event>
 7    1  0.2594791E-009  0.1265343E+03  0.7561462E-02  0.1232691E+00
          1   -1    0    0  501    0  0.00000000000E+00  0.00000000000E+00  0.23511138885E+03  0.23511138885E+03  0.00000000000E+00 0. -1.
         -1   -1    0    0    0  501 -0.00000000000E+00 -0.00000000000E+00 -0.99219740559E+02  0.99219740559E+02  0.00000000000E+00 0.  1.
         25    2    1    2    0    0  0.37998889569E+02 -0.58345893044E+02 -0.16594027107E+02  0.14411943102E+03  0.12508752863E+03 0.  0.
          5    1    3    3  502    0 -0.31995806657E+02 -0.64986828739E+02 -0.11939781140E+02  0.73532648033E+02  0.41800000000E+01 0.  1.
         -5    1    3    3    0  502  0.69994696226E+02  0.66409356945E+01 -0.46542459666E+01  0.70586782985E+02  0.41800000000E+01 0.  1.
        -11    1    1    2    0    0  0.15601335958E+02  0.54106661114E+02  0.54075442683E+02  0.78071031516E+02  0.00000000000E+00 0.  1.
         11    1    1    2    0    0 -0.53600225527E+02  0.42392319303E+01  0.98410232710E+02  0.11214066687E+03  0.00000000000E+00 0. -1.
</event>
<event>
 7    1  0.2594791E-009  0.1984528E+03  0.7561462E-02  0.1151051E+00
         -1   -1    0    0    0  501 -0.00000000000E+00  0.00000000000E+00  0.12060645763E+03  0.12060645763E+03  0.00000000000E+00 0.  1.
          1   -1    0    0  501    0  0.00000000000E+00 -0.00000000000E+00 -0.35930931669E+03  0.35930931669E+03  0.00000000000E+00 0. -1.
         25    2    1    2    0    0  0.20446997405E+02 -0.16765023363E+03 -0.64793148317E+02  0.21993108391E+03  0.12508736573E+03 0.  0.
          5    1    3    3  502    0  0.39339975429E+02 -0.18187516040E+03 -0.58486496215E+02  0.19510087205E+03  0.41800000000E+01 0. -1.
         -5    1    3    3    0  502 -0.18892978024E+02  0.14224926772E+02 -0.63066521018E+01  0.24830211860E+02  0.41800000000E+01 0. -1.
        -11    1    1    2    0    0 -0.50638347208E+02  0.87258746735E+02 -0.60170719992E+02  0.11746849209E+03  0.00000000000E+00 0.  1.
         11    1    1    2    0    0  0.30191349803E+02  0.80391486891E+02 -0.11373899075E+03  0.14251619832E+03  0.00000000000E+00 0. -1.
</event>
<event>
 7    1  0.2594791E-009  0.1019287E+03  0.7561462E-02  0.1276292E+00
          2   -1    0    0  501    0  0.00000000000E+00  0.00000000000E+00  0.29270817378E+02  0.29270817378E+02  0.00000000000E+00 0. -1.
         -2   -1    0    0    0  501 -0.00000000000E+00 -0.00000000000E+00 -0.50320225133E+03  0.50320225133E+03  0.00000000000E+00 0.  1.
         25    2    1    2    0    0  0.67662127189E+02  0.32969235667E+01 -0.25714881746E+03  0.29387389949E+03  0.12508925342E+03 0.  0.
          5    1    3    3  502    0  0.52471784736E+02 -0.50551883312E+02 -0.20371908903E+03  0.21639713661E+03  0.41800000000E+01 0. -1.
         -5    1    3    3    0  502  0.15190342453E+02  0.53848806878E+02 -0.53429728430E+02  0.77476762879E+02  0.41800000000E+01 0. -1.
        -11    1    1    2    0    0 -0.58479899115E+02 -0.14533534044E+02 -0.21579941878E+03  0.22405470618E+03  0.00000000000E+00 0.  1.
         11    1    1    2    0    0 -0.91822280742E+01  0.11236610477E+02 -0.98319771132E+00  0.14544463042E+02  0.00000000000E+00 0. -1.
</event>
<event>
 7    1  0.2594791E-009  0.9163233E+02  0.7561462E-02  0.1298946E+00
          2   -1    0    0  501    0  0.00000000000E+00  0.00000000000E+00  0.40586618263E+03  0.40586618263E+03  0.00000000000E+00 0.  1.
         -2   -1    0    0    0  501 -0.00000000000E+00 -0.00000000000E+00 -0.49025774150E+02  0.49025774150E+02  0.00000000000E+00 0. -1.
         25    2    1    2    0    0 -0.18086865837E+02  0.40342995851E+02  0.67432002988E+02  0.14882798347E+03  0.12509197259E+03 0.  0.
          5    1    3    3  502    0  0.36111124376E+02  0.10161203413E+02 -0.19077505125E+02  0.42292871270E+02  0.41800000000E+01 0.  1.
         -5    1    3    3    0  502 -0.54197990213E+02  0.30181792438E+02  0.86509508112E+02  0.10653511220E+03  0.41800000000E+01 0.  1.
        -11    1    1    2    0    0  0.41482682652E+02 -0.43058778469E+02  0.26679538504E+03  0.27341296393E+03  0.00000000000E+00 0.  1.
         11    1    1    2    0    0 -0.23395816815E+02  0.27157826179E+01  0.22613020444E+02  0.32651009376E+02  0.00000000000E+00 0. -1.
</event>
<event>
 7    1  0.2594791E-009  0.1198807E+03  0.7561462E-02  0.1243294E+00
         -2   -1    0    0    0  501 -0.00000000000E+00  0.00000000000E+00  0.23194171153E+02  0.23194171153E+02  0.00000000000E+00 0.  1.
          2   -1    0    0  501    0  0.00000000000E+00 -0.00000000000E+00 -0.10423213093E+04  0.10423213093E+04  0.00000000000E+00 0. -1.
         25    2    1    2    0    0 -0.27718854839E+01 -0.86100875523E+02 -0.79598630893E+03  0.81034404925E+03  0.12506890117E+03 0.  0.
          5    1    3    3  502    0 -0.11133628425E+02  0.26791473727E+02 -0.30755930403E+03  0.30895297157E+03  0.41800000000E+01 0.  1.
         -5    1    3    3    0  502  0.83617429407E+01 -0.11289234925E+03 -0.48842700490E+03  0.50139107768E+03  0.41800000000E+01 0.  1.
        -11    1    1    2    0    0 -0.18162624273E+02  0.16673574380E+02 -0.48191595622E+01  0.25121968513E+02  0.00000000000E+00 0.  1.
         11    1    1    2    0    0  0.20934509757E+02  0.69427301142E+02 -0.21832166967E+03  0.23004946271E+03  0.00000000000E+00 0. -1.
</event>
<event>
 7    1  0.2594791E-009  0.3727789E+02  0.7561462E-02  0.1529255E+00
         -1   -1    0    0    0  501 -0.00000000000E+00  0.00000000000E+00  0.34446281944E+02  0.34446281944E+02  0.00000000000E+00 0.  1.
          1   -1    0    0  501    0  0.00000000000E+00 -0.00000000000E+00 -0.19410728717E+03  0.19410728717E+03  0.00000000000E+00 0. -1.
         25    2    1    2    0    0  0.14907042026E+02  0.16447731241E+02 -0.14386681878E+03  0.19193487813E+03  0.12509431696E+03 0.  0.
          5    1    3    3  502    0  0.26330917074E+02  0.11749824227E+02 -0.16475454321E+03  0.16731081098E+03  0.41800000000E+01 0.  1.
         -5    1    3    3    0  502 -0.11423875048E+02  0.46979070138E+01  0.20887724430E+02  0.24624067156E+02  0.41800000000E+01 0.  1.
        -11    1    1    2    0    0  0.18465358747E+01 -0.15489938626E+02 -0.39896860145E+01  0.16101723133E+02  0.00000000000E+00 0.  1.
         11    1    1    2    0    0 -0.16753577901E+02 -0.95779261536E+00 -0.11804500439E+02  0.20516967850E+02  0.00000000000E+00 0. -1.
</event>
<event>
 7    1  0.2594791E-009  0.1209517E+03  0.7561462E-02  0.1241535E+00
         -2   -1    0    0    0  501 -0.00000000000E+00  0.00000000000E+00  0.23540569318E+02  0.23540569318E+02  0.00000000000E+00 0.  1.
          2   -1    0    0  501    0  0.00000000000E+00 -0.00000000000E+00 -0.86778838429E+03  0.86778838429E+03  0.00000000000E+00 0. -1.
         25    2    1    2    0    0 -0.74025607220E+02  0.50371030510E+02 -0.39210085510E+03  0.42119956553E+03  0.12509581204E+03 0.  0.
          5    1    3    3  502    0 -0.56831625949E+02  0.71791427976E+02 -0.13851069932E+03  0.16609192956E+03  0.41800000000E+01 0.  1.
         -5    1    3    3    0  502 -0.17193981272E+02 -0.21420397466E+02 -0.25359015578E+03  0.25510763597E+03  0.41800000000E+01 0.  1.
        -11    1    1    2    0    0  0.43685295402E+02 -0.72682164211E+02 -0.37245548595E+03  0.38198716083E+03  0.00000000000E+00 0. -1.
         11    1    1    2    0    0  0.30340311818E+02  0.22311133700E+02 -0.79691473920E+02  0.88142227245E+02  0.00000000000E+00 0.  1.
</event>
<event>
 7    1  0.3134608E-009  0.7771817E+02  0.7561462E-02  0.1335655E+00
          4   -1    0    0  501    0  0.00000000000E+00  0.00000000000E+00  0.39571820918E+02  0.39571820918E+02  0.00000000000E+00 0.  1.
         -4   -1    0    0    0  501 -0.00000000000E+00 -0.00000000000E+00 -0.35703093428E+03  0.35703093428E+03  0.00000000000E+00 0. -1.
         25    2    1    2    0    0  0.21941974429E+02 -0.35230079688E+01 -0.25112001897E+03  0.28142748526E+03  0.12508518578E+03 0.  0.
          5    1    3    3  502    0  0.14332233078E+02 -0.49541386248E+02 -0.40621170639E+02  0.65782321033E+02  0.41800000000E+01 0. -1.
         -5    1    3    3    0  502  0.76097413502E+01  0.46018378279E+02 -0.21049884833E+03  0.21564516422E+03  0.41800000000E+01 0. -1.
        -11    1    1    2    0    0  0.16806375976E+02  0.64586921248E+01 -0.73490000536E+02  0.75663393766E+02  0.00000000000E+00 0. -1.
         11    1    1    2    0    0 -0.38748350405E+02 -0.29356841560E+01  0.71509061443E+01  0.39511876180E+02  0.00000000000E+00 0.  1.
</event>
<event>
 7    1  0.2594791E-009  0.1280584E+03  0.7561462E-02  0.1230365E+00
          2   -1    0    0  501    0  0.00000000000E+00  0.00000000000E+00  0.62880822520E+02  0.62880822520E+02  0.00000000000E+00 0.  1.
         -2   -1    0    0    0  501 -0.00000000000E+00 -0.00000000000E+00 -0.31836684462E+03  0.31836684462E+03  0.00000000000E+00 0. -1.
         25    2    1    2    0    0 -0.43411311839E+02 -0.66291381118E+02 -0.81139561378E+02  0.16884367144E+03  0.12508184424E+03 0.  0.
          5    1    3    3  502    0  0.36358918748E+02 -0.81756211946E+01  0.49310161018E+01  0.37823261021E+02  0.41800000000E+01 0. -1.
         -5    1    3    3    0  502 -0.79770230587E+02 -0.58115759924E+02 -0.86070577480E+02  0.13102041042E+03  0.41800000000E+01 0. -1.
        -11    1    1    2    0    0  0.71011053577E+02  0.55778895454E+02 -0.11594560301E+03  0.14695998695E+03  0.00000000000E+00 0. -1.
         11    1    1    2    0    0 -0.27599741738E+02  0.10512485665E+02 -0.58400857712E+02  0.65444008743E+02  0.00000000000E+00 0.  1.
</event>
<event>
 7    1  0.2594791E-009  0.5343187E+02  0.7561462E-02  0.1427664E+00
         -1   -1    0    0    0  501 -0.00000000000E+00  0.00000000000E+00  0.13552633475E+03  0.13552633475E+03  0.00000000000E+00 0.  1.
          1   -1    0    0  501    0  0.00000000000E+00 -0.00000000000E+00 -0.11237861740E+03  0.11237861740E+03  0.00000000000E+00 0. -1.
         25    2    1    2    0    0  0.27643786872E+02  0.14073326629E+02  0.62665398323E+02  0.14330462928E+03  0.12508807757E+03 0.  0.
          5    1    3    3  502    0  0.36173715176E+02  0.16343933489E+02 -0.30121964678E+02  0.50004669658E+02  0.41800000000E+01 0. -1.
         -5    1    3    3    0  502 -0.85299283040E+01 -0.22706068597E+01  0.92787363001E+02  0.93299959619E+02  0.41800000000E+01 0. -1.
        -11    1    1    2    0    0 -0.40859583091E+02 -0.15894658739E+02 -0.63495549222E+02  0.77161068408E+02  0.00000000000E+00 0. -1.
         11    1    1    2    0    0  0.13215796218E+02  0.18213321100E+01  0.23977868247E+02  0.27439254472E+02  0.00000000000E+00 0.  1.
</event>
<event>
 7    1  0.2594791E-009  0.9583997E+02  0.7561462E-02  0.1289295E+00
         -1   -1    0    0    0  501 -0.00000000000E+00  0.00000000000E+00  0.29961002519E+02  0.29961002519E+02  0.00000000000E+00 0.  1.
          1   -1    0    0  501    0  0.00000000000E+00 -0.00000000000E+00 -0.50627428844E+03  0.50627428844E+03  0.00000000000E+00 0. -1.
         25    2    1    2    0    0 -0.53540966804E+02 -0.48500418211E+01 -0.31188166659E+03  0.34030343037E+03  0.12508434250E+03 0.  0.
          5    1    3    3  502    0 -0.94825995961E+01  0.49174889672E+02 -0.21548265055E+03  0.22126530355E+03  0.41800000000E+01 0.  1.
         -5    1    3    3    0  502 -0.44058367208E+02 -0.54024931493E+02 -0.96399016041E+02  0.11903812682E+03  0.41800000000E+01 0.  1.
        -11    1    1    2    0    0  0.41829717136E+02 -0.18289115539E+02 -0.21136316758E+02  0.50308656004E+02  0.00000000000E+00 0.  1.
         11    1    1    2    0    0  0.11711249669E+02  0.23139157360E+02 -0.14329530258E+03  0.14562320459E+03  0.00000000000E+00 0. -1.
</event>
<event>
 7    1  0.2594791E-009  0.1069850E+03  0.7561462E-02  0.1266257E+00
         -2   -1    0    0    0  501 -0.00000000000E+00  0.00000000000E+00  0.15120014847E+02  0.15120014847E+02  0.00000000000E+00 0. -1.
          2   -1    0    0  501    0  0.00000000000E+00 -0.00000000000E+00 -0.93578605334E+03  0.93578605334E+03  0.00000000000E+00 0.  1.
         25    2    1    2    0    0 -0.21409186881E+02  0.38018369386E+02 -0.52463416162E+03  0.54110289169E+03  0.12509031202E+03 0.  0.
          5    1    3    3  502    0 -0.52238711769E+02  0.54510315170E+02 -0.18807245278E+03  0.20270416217E+03  0.41800000000E+01 0. -1.
         -5    1    3    3    0  502  0.30829524888E+02 -0.16491945784E+02 -0.33656170884E+03  0.33839872952E+03  0.41800000000E+01 0. -1.
        -11    1    1    2    0    0 -0.24353973385E+02 -0.50190854187E+02 -0.25508159911E+03  0.26111081952E+03  0.00000000000E+00 0.  1.
         11    1    1    2    0    0  0.45763160266E+02  0.12172484801E+02 -0.14095027775E+03  0.14869235698E+03  0.00000000000E+00 0. -1.
</event>
<event>
 7    1  0.2594791E-009  0.7996852E+02  0.7561462E-02  0.1329141E+00
         -3   -1    0    0    0  501 -0.00000000000E+00  0.00000000000E+00  0.13571492455E+03  0.13571492455E+03  0.00000000000E+00 0.  1.
          3   -1    0    0  501    0  0.00000000000E+00 -0.00000000000E+00 -0.93409797031E+02  0.93409797031E+02  0.00000000000E+00 0. -1.
         25    2    1    2    0    0  0.30304761478E+02  0.19381028122E+01  0.18299494119E+02  0.13002075452E+03  0.12509352625E+03 0.  0.
          5    1    3    3  502    0 -0.71581741319E+00 -0.32048714186E+02  0.59758542527E+02  0.67942536607E+02  0.41800000000E+01 0.  1.
         -5    1    3    3    0  502  0.31020578891E+02  0.33986816998E+02 -0.41459048408E+02  0.62078217914E+02  0.41800000000E+01 0.  1.
        -11    1    1    2    0    0 -0.88500065738E+01 -0.38232282671E+02  0.38053922376E+02  0.54663800295E+02  0.00000000000E+00 0.  1.
         11    1    1    2    0    0 -0.21454754904E+02  0.36294179859E+02 -0.14048288971E+02  0.44440166771E+02  0.00000000000E+00 0. -1.
</event>
<event>
 7    1  0.2594791E-009  0.1083411E+03  0.7561462E-02  0.1263673E+00
          3   -1    0    0  501    0  0.00000000000E+00  0.00000000000E+00  0.33327490560E+03  0.33327490560E+03  0.00000000000E+00 0.  1.
         -3   -1    0    0    0  501 -0.00000000000E+00 -0.00000000000E+00 -0.46807425060E+02  0.46807425060E+02  0.00000000000E+00 0. -1.
         25    2    1    2    0    0  0.58154921839E+02 -0.17756040556E+02  0.12998513021E+03  0.19037157978E+03  0.12509169597E+03 0.  0.
          5    1    3    3  502    0  0.75353780053E+02  0.16545573403E+02  0.29455424878E+02  0.82686411352E+02  0.41800000000E+01 0.  1.
         -5    1    3    3    0  502 -0.17198858214E+02 -0.34301613959E+02  0.10052970533E+03  0.10768516842E+03  0.41800000000E+01 0.  1.
        -11    1    1    2    0    0  0.37440979544E+01 -0.25200503346E+02  0.72691464549E+02  0.77026830758E+02  0.00000000000E+00 0.  1.
         11    1    1    2    0    0 -0.61899019793E+02  0.42956543902E+02  0.83790885784E+02  0.11268392013E+03  0.00000000000E+00 0. -1.
</event>
<event>
 7    1  0.2594791E-009  0.9807449E+02  0.7561462E-02  0.1284398E+00
         -1   -1    0    0    0  501 -0.00000000000E+00  0.00000000000E+00  0.36223049856E+03  0.36223049856E+03  0.00000000000E+00 0.  1.
          1   -1    0    0  501    0  0.00000000000E+00 -0.00000000000E+00 -0.30982104598E+02  0.30982104598E+02  0.00000000000E+00 0. -1.
         25    2    1    2    0    0  0.19032870606E+02 -0.12133524360E+02  0.17983905182E+03  0.22022515096E+03  0.12509020736E+03 0.  0.
          5    1    3    3  502    0 -0.40528636506E+02 -0.43512243646E+02  0.81322511583E+02  0.10083009974E+03  0.41800000000E+01 0.  1.
         -5    1    3    3    0  502  0.59561507112E+02  0.31378719285E+02  0.98516540241E+02  0.11939505121E+03  0.41800000000E+01 0.  1.
        -11    1    1    2    0    0 -0.89351663425E+00  0.37716174321E+02  0.31818703150E+02  0.49353196933E+02  0.00000000000E+00 0. -1.
         11    1    1    2    0    0 -0.18139353972E+02 -0.25582649961E+02  0.11959063899E+03  0.12363425527E+03  0.00000000000E+00 0.  1.
</event>
<event>
 7    1  0.2594791E-009  0.9763152E+02  0.7561462E-02  0.1285357E+00
          1   -1    0    0  501    0  0.00000000000E+00  0.00000000000E+00  0.37111051393E+03  0.37111051393E+03  0.00000000000E+00 0. -1.
         -1   -1    0    0    0  501 -0.00000000000E+00 -0.00000000000E+00 -0.79404880919E+02  0.79404880919E+02  0.00000000000E+00 0.  1.
         25    2    1    2    0    0  0.16116491567E+02 -0.34632259775E+02  0.32108189196E+03  0.34669860804E+03  0.12508880348E+03 0.  0.
          5    1    3    3  502    0 -0.38270021684E+02 -0.52529175876E+00  0.24061775038E+03  0.24367856838E+03  0.41800000000E+01 0.  1.
         -5    1    3    3    0  502  0.54386513251E+02 -0.34106968016E+02  0.80464141577E+02  0.10302003966E+03  0.41800000000E+01 0.  1.
        -11    1    1    2    0    0  0.22209871557E+02 -0.17111749530E+02 -0.27684994270E+02  0.39402401885E+02  0.00000000000E+00 0.  1.
         11    1    1    2    0    0 -0.38326363124E+02  0.51744009305E+02 -0.16912646756E+01  0.64414384926E+02  0.00000000000E+00 0. -1.
</event>
<event>
 7    1  0.2594791E-009  0.8707969E+02  0.7561462E-02  0.1310082E+00
          4   -1    0    0  501    0  0.00000000000E+00  0.00000000000E+00  0.27063078735E+03  0.27063078735E+03  0.00000000000E+00 0. -1.
         -4   -1    0    0    0  501 -0.00000000000E+00 -0.00000000000E+00 -0.53499839967E+02  0.53499839967E+02  0.00000000000E+00 0.  1.
         25    2    1    2    0    0 -0.71381831648E+02 -0.17211719176E+02  0.14887267408E+03  0.20785169489E+03  0.12509054646E+03 0.  0.
          5    1    3    3  502    0 -0.58446112535E+02 -0.25850032475E+02  0.62789033956E+01  0.64351140450E+02  0.41800000000E+01 0. -1.
         -5    1    3    3    0  502 -0.12935719113E+02  0.86383132989E+01  0.14259377068E+03  0.14350055444E+03  0.41800000000E+01 0. -1.
        -11    1    1    2    0    0  0.73138336406E+02 -0.35004705107E+01  0.55625858049E+02  0.91954910852E+02  0.00000000000E+00 0.  1.
         11    1    1    2    0    0 -0.17565047576E+01  0.20712189687E+02  0.12632415251E+02  0.24324021577E+02  0.00000000000E+00 0. -1.
</event>
<event>
 7    1  0.2594791E-009  0.1108783E+03  0.7561462E-02  0.1258952E+00
          2   -1    0    0  501    0  0.00000000000E+00  0.00000000000E+00  0.81203405824E+02  0.81203405824E+02  0.00000000000E+00 0. -1.
         -2   -1    0    0    0  501 -0.00000000000E+00 -0.00000000000E+00 -0.19338390499E+03  0.19338390499E+03  0.00000000000E+00 0.  1.
         25    2    1    2    0    0 -0.29552294697E+02  0.54112762634E+02 -0.70079507047E+02  0.15607617464E+03  0.12508839187E+03 0.  0.
          5    1    3    3  502    0 -0.51932160995E+02 -0.19749028534E+02 -0.53045728877E+02  0.76930457075E+02  0.41800000000E+01 0. -1.
         -5    1    3    3    0  502  0.22379866298E+02  0.73861791167E+02 -0.17033778169E+02  0.79145717564E+02  0.41800000000E+01 0. -1.
        -11    1    1    2    0    0  0.40565009624E+02 -0.80099647656E+01 -0.55541438314E+02  0.69242551306E+02  0.00000000000E+00 0.  1.
         11    1    1    2    0    0 -0.11012714928E+02 -0.46102797868E+02  0.13440446194E+02  0.49268584871E+02  0.00000000000E+00 0. -1.
</event>
<event>
 7    1  0.2594791E-009  0.1232564E+03  0.7561462E-02  0.1237820E+00
          2   -1    0    0  501    0  0.00000000000E+00  0.00000000000E+00  0.58939606194E+03  0.58939606194E+03  0.00000000000E+00 0. -1.
         -2   -1    0    0    0  501 -0.00000000000E+00 -0.00000000000E+00 -0.31665642396E+02  0.31665642396E+02  0.00000000000E+00 0.  1.
         25    2    1    2    0    0 -0.63431750856E+02  0.54838911381E+02  0.33911052682E+03  0.37103425260E+03  0.12505828235E+03 0.  0.
          5    1    3    3  502    0 -0.10041751774E+03  0.35043823909E+02  0.26804924918E+03  0.28840877215E+03  0.41800000000E+01 0. -1.
         -5    1    3    3    0  502  0.36985766889E+02  0.19795087473E+02  0.71061277637E+02  0.82625480451E+02  0.41800000000E+01 0. -1.
        -11    1    1    2    0    0  0.54023168301E+02 -0.13724560145E+02  0.19252301950E+03  0.20042948711E+03  0.00000000000E+00 0. -1.
         11    1    1    2    0    0  0.94085825546E+01 -0.41114351236E+02  0.26096873218E+02  0.49597964625E+02  0.00000000000E+00 0.  1.
</event>
<event>
 7    1  0.2594791E-009  0.1787633E+03  0.7561462E-02  0.1169005E+00
          4   -1    0    0  501    0  0.00000000000E+00  0.00000000000E+00  0.10143080267E+03  0.10143080267E+03  0.00000000000E+00 0.  1.
         -4   -1    0    0    0  501 -0.00000000000E+00 -0.00000000000E+00 -0.38998765860E+03  0.38998765860E+03  0.00000000000E+00 0. -1.
         25    2    1    2    0    0  0.35184285041E+02 -0.16107025908E+03 -0.12296705707E+03  0.24072957441E+03  0.12509303976E+03 0.  0.
          5    1    3    3  502    0 -0.22509594803E+02 -0.11881646304E+03 -0.32414116904E+02  0.12526843625E+03  0.41800000000E+01 0.  1.
         -5    1    3    3    0  502  0.57693879844E+02 -0.42253796038E+02 -0.90552940165E+02  0.11546113815E+03  0.41800000000E+01 0.  1.
        -11    1    1    2    0    0 -0.37018938390E+01  0.13424998449E+02  0.11445948865E+02  0.18026212768E+02  0.00000000000E+00 0.  1.
         11    1    1    2    0    0 -0.31482391202E+02  0.14764526063E+03 -0.17703574773E+03  0.23266267409E+03  0.00000000000E+00 0. -1.
</event>
<event>
 7    1  0.2594791E-009  0.1099995E+03  0.7561462E-02  0.1260571E+00
         -4   -1    0    0    0  501 -0.00000000000E+00  0.00000000000E+00  0.21231246921E+03  0.21231246921E+03  0.00000000000E+00 0.  1.
          4   -1    0    0  501    0  0.00000000000E+00 -0.00000000000E+00 -0.80752580120E+02  0.80752580120E+02  0.00000000000E+00 0. -1.
         25    2    1    2    0    0  0.24262414056E+02 -0.52429125110E+02  0.22054675915E+02  0.13953878110E+03  0.12508870774E+03 0.  0.
          5    1    3    3  502    0 -0.68089666867E+01 -0.75457711694E+02 -0.23688962401E+02  0.79491305317E+02  0.41800000000E+01 0. -1.
         -5    1    3    3    0  502  0.31071380743E+02  0.23028586584E+02  0.45743638316E+02  0.60047475781E+02  0.41800000000E+01 0. -1.
        -11    1    1    2    0    0  0.33467514488E+02  0.20526571770E+02  0.57042556030E+02  0.69247872697E+02  0.00000000000E+00 0. -1.
         11    1    1    2    0    0 -0.57729928544E+02  0.31902553341E+02  0.52462657148E+02  0.84278395537E+02  0.00000000000E+00 0.  1.
</event>
<event>
 7    1  0.2594791E-009  0.2778947E+03  0.7561462E-02  0.1096844E+00
          2   -1    0    0  501    0  0.00000000000E+00  0.00000000000E+00  0.70307931179E+03  0.70307931179E+03  0.00000000000E+00 0. -1.
         -2   -1    0    0    0  501 -0.00000000000E+00 -0.00000000000E+00 -0.12722784890E+03  0.12722784890E+03  0.00000000000E+00 0.  1.
         25    2    1    2    0    0  0.21200480300E+03 -0.16196690706E+03  0.18209944296E+03  0.34639140014E+03  0.12508988562E+03 0.  0.
          5    1    3    3  502    0  0.43069197380E+02 -0.70680917047E+02  0.11743034110E+03  0.14372927749E+03  0.41800000000E+01 0. -1.
         -5    1    3    3    0  502  0.16893560562E+03 -0.91285990016E+02  0.64669101860E+02  0.20266212265E+03  0.41800000000E+01 0. -1.
        -11    1    1    2    0    0 -0.54873467907E+02 -0.43134229205E+00  0.66349543899E+02  0.86101948363E+02  0.00000000000E+00 0. -1.
         11    1    1    2    0    0 -0.15713133510E+03  0.16239824936E+03  0.32740247603E+03  0.39781381220E+03  0.00000000000E+00 0.  1.
</event>
<event>
 7    1  0.2594791E-009  0.1610387E+03  0.7561462E-02  0.1187529E+00
         -2   -1    0    0    0  501 -0.00000000000E+00  0.00000000000E+00  0.14994342544E+03  0.14994342544E+03  0.00000000000E+00 0.  1.
          2   -1    0    0  501    0  0.00000000000E+00 -0.00000000000E+00 -0.23928009651E+03  0.23928009651E+03  0.00000000000E+00 0. -1.
         25    2    1    2    0    0 -0.14630855111E+03  0.22995101588E+02 -0.91214777415E+02  0.21424668462E+03  0.12508612802E+03 0.  0.
          5    1    3    3  502    0 -0.58374436004E+02  0.54977138202E+02 -0.89949228174E+02  0.12057527339E+03  0.41800000000E+01 0. -1.
         -5    1    3    3    0  502 -0.87934115111E+02 -0.31982036614E+02 -0.12655492413E+01  0.93671411227E+02  0.41800000000E+01 0. -1.
        -11    1    1    2    0    0  0.10199307871E+03 -0.15103527353E+02  0.45132127688E+02  0.11255049353E+03  0.00000000000E+00 0.  1.
         11    1    1    2    0    0  0.44315472404E+02 -0.78915742355E+01 -0.43254021345E+02  0.62426343805E+02  0.00000000000E+00 0. -1.
</event>
<event>
 7    1  0.2594791E-009  0.7678972E+02  0.7561462E-02  0.1338417E+00
          1   -1    0    0  501    0  0.00000000000E+00  0.00000000000E+00  0.21607366868E+03  0.21607366868E+03  0.00000000000E+00 0. -1.
         -1   -1    0    0    0  501 -0.00000000000E+00 -0.00000000000E+00 -0.64676767212E+02  0.64676767212E+02  0.00000000000E+00 0.  1.
         25    2    1    2    0    0 -0.48100401077E+02 -0.81749980307E+00  0.10743494754E+03  0.17176721776E+03  0.12508953695E+03 0.  0.
          5    1    3    3  502    0  0.13443977539E+02 -0.21039000716E+02 -0.17636253956E+02  0.30852713605E+02  0.41800000000E+01 0.  1.
         -5    1    3    3    0  502 -0.61544378616E+02  0.20221500913E+02  0.12507120149E+03  0.14091450416E+03  0.41800000000E+01 0.  1.
        -11    1    1    2    0    0  0.36935464900E+02 -0.18291577969E+02 -0.16653421320E+02  0.44453873100E+02  0.00000000000E+00 0.  1.
         11    1    1    2    0    0  0.11164936177E+02  0.19109077772E+02  0.60615375246E+02  0.64529345025E+02  0.00000000000E+00 0. -1.
</event>
<event>
 7    1  0.2594791E-009  0.1940878E+03  0.7561462E-02  0.1154825E+00
          1   -1    0    0  501    0  0.00000000000E+00  0.00000000000E+00  0.18888142356E+03  0.18888142356E+03  0.00000000000E+00 0. -1.
         -1   -1    0    0    0  501 -0.00000000000E+00 -0.00000000000E+00 -0.26286013937E+03  0.26286013937E+03  0.00000000000E+00 0.  1.
         25    2    1    2    0    0 -0.11643671906E+03 -0.15416744425E+03 -0.63026907880E+02  0.23863087688E+03  0.12508874398E+03 0.  0.
          5    1    3    3  502    0 -0.51377183846E+02 -0.60273854032E+02  0.36276977524E+02  0.87212636688E+02  0.41800000000E+01 0. -1.
         -5    1    3    3    0  502 -0.65059535211E+02 -0.93893590221E+02 -0.99303885404E+02  0.15141824019E+03  0.41800000000E+01 0. -1.
        -11    1    1    2    0    0  0.88265636950E+02  0.99137446935E+02 -0.47869753623E+02  0.14110481694E+03  0.00000000000E+00 0.  1.
         11    1    1    2    0    0  0.28171082106E+02  0.55029997318E+02  0.36917945697E+02  0.72005869110E+02  0.00000000000E+00 0. -1.
</event>
<event>
 7    1  0.2594791E-009  0.7522096E+02  0.7561462E-02  0.1343188E+00
         -2   -1    0    0    0  501 -0.00000000000E+00  0.00000000000E+00  0.66700921546E+02  0.66700921546E+02  0.00000000000E+00 0.  1.
          2   -1    0    0  501    0  0.00000000000E+00 -0.00000000000E+00 -0.21373688918E+03  0.21373688918E+03  0.00000000000E+00 0. -1.
         25    2    1    2    0    0  0.33264199494E+02 -0.86589029616E+01 -0.12798548352E+03  0.18223296683E+03  0.12508831536E+03 0.  0.
          5    1    3    3  502    0  0.49338804206E+02 -0.59979510467E+01  0.31937586408E+01  0.49979650974E+02  0.41800000000E+01 0. -1.
         -5    1    3    3    0  502 -0.16074604713E+02 -0.26609519149E+01 -0.13117924216E+03  0.13225331586E+03  0.41800000000E+01 0. -1.
        -11    1    1    2    0    0 -0.53198885642E+02 -0.12526399232E+02  0.11681952039E+02  0.55888282446E+02  0.00000000000E+00 0.  1.
         11    1    1    2    0    0  0.19934686149E+02  0.21185302193E+02 -0.30732436150E+02  0.42316561446E+02  0.00000000000E+00 0. -1.
</event>
<event>
 7    1  0.2594791E-009  0.1233428E+03  0.7561462E-02  0.1237682E+00
          2   -1    0    0  501    0  0.00000000000E+00  0.00000000000E+00  0.56848602304E+02  0.56848602304E+02  0.00000000000E+00 0. -1.
         -2   -1    0    0    0  501 -0.00000000000E+00 -0.00000000000E+00 -0.27321337243E+03  0.27321337243E+03  0.00000000000E+00 0.  1.
         25    2    1    2    0    0 -0.36612364869E+02  0.47901327376E+02 -0.14216597671E+03  0.19873088614E+03  0.12509115775E+03 0.  0.
          5    1    3    3  502    0 -0.74451791100E+02  0.63059349699E+02 -0.10525184379E+03  0.14357915518E+03  0.41800000000E+01 0. -1.
         -5    1    3    3    0  502  0.37839426231E+02 -0.15158022322E+02 -0.36914132921E+02  0.55151730957E+02  0.41800000000E+01 0. -1.
        -11    1    1    2    0    0  0.64997366691E+02 -0.45950558868E+02 -0.58940857760E+02  0.99046131931E+02  0.00000000000E+00 0. -1.
         11    1    1    2    0    0 -0.28385001823E+02 -0.19507685084E+01 -0.15257935660E+02  0.32284956665E+02  0.00000000000E+00 0.  1.
</event>
<event>
 6    1  0.2594791E-009  0.8711379E+02  0.7561462E-02  0.1309996E+00
          1   -1    0    0  501    0  0.00000000000E+00  0.00000000000E+00  0.80583725052E+02  0.80583725052E+02  0.00000000000E+00 0. -1.
         -1   -1    0    0    0  501 -0.00000000000E+00 -0.00000000000E+00 -0.28951339843E+03  0.28951339843E+03  0.00000000000E+00 0.  1.
          5    1    1    2  502    0 -0.21603223734E+02 -0.30374846056E+01  0.52453224762E+01  0.22823483439E+02  0.41800000000E+01 0. -1.
         -5    1    1    2    0  502  0.46847644306E+02  0.55312495717E+02 -0.22730222361E+03  0.23861673708E+03  0.41800000000E+01 0. -1.
        -11    1    1    2    0    0 -0.75931865641E+01 -0.59756941962E+02  0.42401001286E+02  0.73664058434E+02  0.00000000000E+00 0. -1.
         11    1    1    2    0    0 -0.17651234009E+02  0.74819308503E+01 -0.29273773539E+02  0.34992844533E+02  0.00000000000E+00 0.  1.
</event>
<event>
 7    1  0.2594791E-009  0.9290520E+02  0.7561462E-02  0.1295965E+00
         -2   -1    0    0    0  501 -0.00000000000E+00  0.00000000000E+00  0.55529940767E+02  0.55529940767E+02  0.00000000000E+00 0.  1.
          2   -1    0    0  501    0  0.00000000000E+00 -0.00000000000E+00 -0.25189185881E+03  0.25189185881E+03  0.00000000000E+00 0. -1.
         25    2    1    2    0    0 -0.20704660628E+02 -0.15883421918E+02 -0.16024517867E+03  0.20495499235E+03  0.12508823102E+03 0.  0.
          5    1    3    3  502    0 -0.44031097336E+02  0.44082638917E+02 -0.90699730444E+02  0.11011780096E+03  0.41800000000E+01 0.  1.
         -5    1    3    3    0  502  0.23326436708E+02 -0.59966060836E+02 -0.69545448223E+02  0.94837191387E+02  0.41800000000E+01 0.  1.
        -11    1    1    2    0    0 -0.51330314458E+01  0.29317981199E+02  0.22301648144E+02  0.37192143570E+02  0.00000000000E+00 0.  1.
         11    1    1    2    0    0  0.25837692073E+02 -0.13434559280E+02 -0.58418387518E+02  0.65274663652E+02  0.00000000000E+00 0. -1.
</event>
<event>
 7    1  0.2594791E-009  0.1156277E+03  0.7561462E-02  0.1250489E+00
         -2   -1    0    0    0  501 -0.00000000000E+00  0.00000000000E+00  0.10553353769E+03  0.10553353769E+03  0.00000000000E+00 0.  1.
          2   -1    0    0  501    0  0.00000000000E+00 -0.00000000000E+00 -0.26705947557E+03  0.26705947557E+03  0.00000000000E+00 0. -1.
         25    2    1    2    0    0 -0.52874281707E+02  0.11801720522E+02 -0.21401690420E+03  0.25374023413E+03  0.12508357550E+03 0.  0.
          5    1    3    3  502    0  0.29048856782E+02  0.31602828878E+02 -0.11944755663E+03  0.12699514187E+03  0.41800000000E+01 0. -1.
         -5    1    3    3    0  502 -0.81923138489E+02 -0.19801108356E+02 -0.94569347567E+02  0.12674509226E+03  0.41800000000E+01 0. -1.
        -11    1    1    2    0    0 -0.92857800834E+01 -0.35894056467E+02  0.32366395303E+02  0.49215775381E+02  0.00000000000E+00 0.  1.
         11    1    1    2    0    0  0.62160061790E+02  0.24092335945E+02  0.20124571020E+02  0.69637003753E+02  0.00000000000E+00 0. -1.
</event>
<event>
 7    1  0.2594791E-009  0.1228167E+03  0.7561462E-02  0.1238521E+00
          1   -1    0    0  501    0  0.00000000000E+00  0.00000000000E+00  0.98962132594E+03  0.98962132594E+03  0.00000000000E+00 0. -1.
         -1   -1    0    0    0  501 -0.00000000000E+00 -0.00000000000E+00 -0.21462074484E+02  0.21462074484E+02  0.00000000000E+00 0.  1.
         25    2    1    2    0    0  0.25739222582E+02 -0.67096127592E+02  0.75650075697E+03  0.77013313217E+03  0.12508896055E+03 0.  0.
          5    1    3    3  502    0  0.40489073588E+02  0.20846446341E+02  0.14200837055E+03  0.14919044578E+03  0.41800000000E+01 0.  1.
         -5    1    3    3    0  502 -0.14749851006E+02 -0.87942573934E+02  0.61449238642E+03  0.62094268639E+03  0.41800000000E+01 0.  1.
        -11    1    1    2    0    0 -0.52131310755E+02  0.18471301143E+02  0.72426393001E+02  0.91128727249E+02  0.00000000000E+00 0.  1.
         11    1    1    2    0    0  0.26392088173E+02  0.48624826449E+02  0.13923210148E+03  0.14982154100E+03  0.00000000000E+00 0. -1.
</event>
<event>
 7    1  0.2594791E-009  0.1083081E+03  0.7561462E-02  0.1263735E+00
          2   -1    0    0  501    0  0.00000000000E+00  0.00000000000E+00  0.15621551930E+03  0.15621551930E+03  0.00000000000E+00 0. -1.
         -2   -1    0    0    0  501 -0.00000000000E+00 -0.00000000000E+00 -0.10162622338E+03  0.10162622338E+03  0.00000000000E+00 0.  1.
         25    2    1    2    0    0  0.68361688718E+01  0.46483073376E+02  0.72506020310E+02  0.15202149575E+03  0.12508398328E+03 0.  0.
          5    1    3    3  502    0  0.60230784382E+02  0.91127442328E+01  0.59848656973E+02  0.85499261027E+02  0.41800000000E+01 0. -1.
         -5    1    3    3    0  502 -0.53394615510E+02  0.37370329143E+02  0.12657363338E+02  0.66522234722E+02  0.41800000000E+01 0. -1.
        -11    1    1    2    0    0 -0.54016577310E+01  0.21542373411E+02 -0.29370616533E+02  0.36822342049E+02  0.00000000000E+00 0.  1.
         11    1    1    2    0    0 -0.14345111408E+01 -0.68025446786E+02  0.11453892151E+02  0.68997904882E+02  0.00000000000E+00 0. -1.
</event>
<event>
 7    1  0.2594791E-009  0.1018936E+03  0.7561462E-02  0.1276364E+00
          1   -1    0    0  501    0  0.00000000000E+00  0.00000000000E+00  0.43606953818E+03  0.43606953818E+03  0.00000000000E+00 0. -1.
         -1   -1    0    0    0  501 -0.00000000000E+00 -0.00000000000E+00 -0.42376582692E+02  0.42376582692E+02  0.00000000000E+00 0.  1.
         25    2    1    2    0    0 -0.78981576773E+02 -0.21539776614E+02  0.19909503335E+03  0.24897628443E+03  0.12509319109E+03 0.  0.
          5    1    3    3  502    0 -0.34535751454E+02 -0.74270523866E+01  0.19900237619E+03  0.20215661593E+03  0.41800000000E+01 0. -1.
         -5    1    3    3    0  502 -0.44445825319E+02 -0.14112724228E+02  0.92657168763E-01  0.46819668504E+02  0.41800000000E+01 0. -1.
        -11    1    1    2    0    0  0.34700046534E+01 -0.29853435333E+02  0.42521902927E+02  0.52070920502E+02  0.00000000000E+00 0.  1.
         11    1    1    2    0    0  0.75511572120E+02  0.51393211947E+02  0.15207601921E+03  0.17739891594E+03  0.00000000000E+00 0. -1.
</event>
<event>
 7    1  0.2594791E-009  0.1010506E+03  0.7561462E-02  0.1278102E+00
          1   -1    0    0  501    0  0.00000000000E+00  0.00000000000E+00  0.47061691786E+02  0.47061691786E+02  0.00000000000E+00 0. -1.
         -1   -1    0    0    0  501 -0.00000000000E+00 -0.00000000000E+00 -0.28934095858E+03  0.28934095858E+03  0.00000000000E+00 0.  1.
         25    2    1    2    0    0  0.69994524693E+01  0.40793051662E+02 -0.12064824370E+03  0.17864941417E+03  0.12508616662E+03 0.  0.
          5    1    3    3  502    0  0.64794752089E+01  0.79506366299E+02 -0.11391364276E+03  0.13912956655E+03  0.41800000000E+01 0. -1.
         -5    1    3    3    0  502  0.51997726037E+00 -0.38713314638E+02 -0.67346009361E+01  0.39519847626E+02  0.41800000000E+01 0. -1.
        -11    1    1    2    0    0  0.32654997808E+02 -0.14702286180E+02 -0.98780102011E+02  0.10507147403E+03  0.00000000000E+00 0.  1.
         11    1    1    2    0    0 -0.39654450278E+02 -0.26090765482E+02 -0.22850921086E+02  0.52681762164E+02  0.00000000000E+00 0. -1.
</event>
<event>
 7    1  0.2594791E-009  0.8484237E+02  0.7561462E-02  0.1315845E+00
          3   -1    0    0  501    0  0.00000000000E+00  0.00000000000E+00  0.11915909393E+03  0.11915909393E+03  0.00000000000E+00 0. -1.
         -3   -1    0    0    0  501 -0.00000000000E+00 -0.00000000000E+00 -0.10652367024E+03  0.10652367024E+03  0.00000000000E+00 0.  1.
         25    2    1    2    0    0 -0.26603083340E+01 -0.37470637447E+02  0.19624734869E+02  0.13206827123E+03  0.12508306095E+03 0.  0.
          5    1    3    3  502    0 -0.20248121757E+02 -0.50671256778E+02 -0.40388299163E+02  0.68016540690E+02  0.41800000000E+01 0.  1.
         -5    1    3    3    0  502  0.17587813423E+02  0.13200619331E+02  0.60013034033E+02  0.64051730543E+02  0.41800000000E+01 0.  1.
        -11    1    1    2    0    0 -0.40821046793E+02  0.13954507402E+02 -0.92844939796E+01  0.44128085915E+02  0.00000000000E+00 0.  1.
         11    1    1    2    0    0  0.43481355127E+02  0.23516130046E+02  0.22951827995E+01  0.49486407023E+02  0.00000000000E+00 0. -1.
</event>
<event>
 7    1  0.2594791E-009  0.1177495E+03  0.7561462E-02  0.1246856E+00
          2   -1    0    0  501    0  0.00000000000E+00  0.00000000000E+00  0.84411020149E+02  0.84411020149E+02  0.00000000000E+00 0. -1.
         -2   -1    0    0    0  501 -0.00000000000E+00 -0.00000000000E+00 -0.27797259009E+03  0.27797259009E+03  0.00000000000E+00 0.  1.
         25    2    1    2    0    0  0.16889624344E+02  0.88190298061E+02 -0.39781881670E+02  0.15903908027E+03  0.12509213749E+03 0.  0.
          5    1    3    3  502    0 -0.41814950372E+01  0.11242457521E+03 -0.52534344483E+02  0.12423405235E+03  0.41800000000E+01 0.  1.
         -5    1    3    3    0  502  0.21071119381E+02 -0.24234277153E+02  0.12752462813E+02  0.34805027926E+02  0.41800000000E+01 0.  1.
        -11    1    1    2    0    0 -0.37477805335E+01 -0.50115988471E+02 -0.15510558598E+03  0.16304416874E+03  0.00000000000E+00 0.  1.
         11    1    1    2    0    0 -0.13141843811E+02 -0.38074309590E+02  0.13258977110E+01  0.40300361217E+02  0.00000000000E+00 0. -1.
</event>
<event>
 7    1  0.2594791E-009  0.8920335E+02  0.7561462E-02  0.1304792E+00
          3   -1    0    0  501    0  0.00000000000E+00  0.00000000000E+00  0.10823561806E+03  0.10823561806E+03  0.00000000000E+00 0. -1.
         -3   -1    0    0    0  501 -0.00000000000E+00 -0.00000000000E+00 -0.13898808690E+03  0.13898808690E+03  0.00000000000E+00 0.  1.
         25    2    1    2    0    0  0.30468538972E+02 -0.84029597622E+00  0.28588410307E+02  0.13188492797E+03  0.12508916443E+03 0.  0.
          5    1    3    3  502    0 -0.11317709032E+02 -0.28623160984E+02 -0.37567648225E+02  0.48746040615E+02  0.41800000000E+01 0.  1.
         -5    1    3    3    0  502  0.41786248004E+02  0.27782865008E+02  0.66156058532E+02  0.83138887356E+02  0.41800000000E+01 0.  1.
        -11    1    1    2    0    0 -0.45234194414E+02  0.36674962892E+02 -0.46461310563E+02  0.74497239055E+02  0.00000000000E+00 0. -1.
         11    1    1    2    0    0  0.14765655442E+02 -0.35834666916E+02 -0.12879568591E+02  0.40841537933E+02  0.00000000000E+00 0.  1.
</event>
<event>
 7    1  0.2990200E-009  0.1803161E+03  0.7561462E-02  0.1167497E+00
          2   -1    0    0  501    0  0.00000000000E+00  0.00000000000E+00  0.43280527942E+03  0.43280527942E+03  0.00000000000E+00 0. -1.
         -2   -1    0    0    0  501 -0.00000000000E+00 -0.00000000000E+00 -0.90651417278E+02  0.90651417278E+02  0.00000000000E+00 0.  1.
         25    2    1    2    0    0 -0.34159349829E+02 -0.16159191486E+03  0.17556838084E+03  0.27157596000E+03  0.12510170891E+03 0.  0.
          5    1    3    3  502    0 -0.45275060956E+02 -0.10415610730E+03  0.17987279841E+03  0.21276753004E+03  0.41800000000E+01 0.  1.
         -5    1    3    3    0  502  0.11115711128E+02 -0.57435807557E+02 -0.43044175689E+01  0.58808429959E+02  0.41800000000E+01 0.  1.
        -11    1    1    2    0    0 -0.29817775949E+02  0.31575938653E+02  0.47102235400E+02  0.64068402852E+02  0.00000000000E+00 0. -1.
         11    1    1    2    0    0  0.63977125778E+02  0.13001597621E+03  0.11948324590E+03  0.18781233384E+03  0.00000000000E+00 0.  1.
</event>
<event>
 7    1  0.2594791E-009  0.1108521E+03  0.7561462E-02  0.1259000E+00
          1   -1    0    0  501    0  0.00000000000E+00  0.00000000000E+00  0.45614138851E+03  0.45614138851E+03  0.00000000000E+00 0.  1.
         -1   -1    0    0    0  501 -0.00000000000E+00 -0.00000000000E+00 -0.44672579047E+02  0.44672579047E+02  0.00000000000E+00 0. -1.
         25    2    1    2    0    0  0.52468842324E+02  0.17011749707E+01  0.89478403919E+02  0.16251026167E+03  0.12508927600E+03 0.  0.
          5    1    3    3  502    0 -0.35171798592E+02  0.22824637656E+02  0.45847637857E+02  0.62269557550E+02  0.41800000000E+01 0. -1.
         -5    1    3    3    0  502  0.87640640916E+02 -0.21123462685E+02  0.43630766061E+02  0.10024070412E+03  0.41800000000E+01 0. -1.
        -11    1    1    2    0    0 -0.58169875539E+02 -0.26466199688E+02  0.29238225511E+03  0.29928511030E+03  0.00000000000E+00 0.  1.
         11    1    1    2    0    0  0.57010332147E+01  0.24765024718E+02  0.29608150439E+02  0.39018595585E+02  0.00000000000E+00 0. -1.
</event>
<event>
 7    1  0.2594791E-009  0.1415005E+03  0.7561462E-02  0.1211324E+00
         -2   -1    0    0    0  501 -0.00000000000E+00  0.00000000000E+00  0.19875969086E+03  0.19875969086E+03  0.00000000000E+00 0.  1.
          2   -1    0    0  501    0  0.00000000000E+00 -0.00000000000E+00 -0.12400804021E+03  0.12400804021E+03  0.00000000000E+00 0. -1.
         25    2    1    2    0    0 -0.16305992608E+02 -0.10565237389E+03  0.79748105748E+02  0.18285669630E+03  0.12509397071E+03 0.  0.
          5    1    3    3  502    0  0.49404621660E+02 -0.68923201533E+02  0.21504780846E+02  0.87585114889E+02  0.41800000000E+01 0.  1.
         -5    1    3    3    0  502 -0.65710614268E+02 -0.36729172359E+02  0.58243324902E+02  0.95271581415E+02  0.41800000000E+01 0.  1.
        -11    1    1    2    0    0 -0.22945953292E+02  0.43791927503E+02  0.30926132156E+02  0.58315309628E+02  0.00000000000E+00 0.  1.
         11    1    1    2    0    0  0.39251945900E+02  0.61860446389E+02 -0.35922587253E+02  0.81595725129E+02  0.00000000000E+00 0. -1.
</event>
<event>
 6    1  0.2594791E-009  0.1203956E+03  0.7561462E-02  0.1242446E+00
          4   -1    0    0  501    0  0.00000000000E+00  0.00000000000E+00  0.16969815454E+02  0.16969815454E+02  0.00000000000E+00 0. -1.
         -4   -1    0    0    0  501 -0.00000000000E+00 -0.00000000000E+00 -0.98068083731E+03  0.98068083731E+03  0.00000000000E+00 0.  1.
          5    1    1    2  502    0 -0.81300433642E+02 -0.55432806557E+02 -0.45100741234E+03  0.46163591167E+03  0.41800000000E+01 0. -1.
         -5    1    1    2    0  502  0.37058727045E+02  0.13841212987E+02 -0.23409884519E+03  0.23745456438E+03  0.41800000000E+01 0. -1.
        -11    1    1    2    0    0  0.38406153236E+02 -0.18162879262E+02 -0.16107174474E+03  0.16658040023E+03  0.00000000000E+00 0.  1.
         11    1    1    2    0    0  0.58355533604E+01  0.59754472833E+02 -0.11753301959E+03  0.13197977648E+03  0.00000000000E+00 0. -1.
</event>
<event>
 7    1  0.2594791E-009  0.1569208E+03  0.7561462E-02  0.1192218E+00
          1   -1    0    0  501    0  0.00000000000E+00  0.00000000000E+00  0.80670250903E+03  0.80670250903E+03  0.00000000000E+00 0. -1.
         -1   -1    0    0    0  501 -0.00000000000E+00 -0.00000000000E+00 -0.33245507361E+02  0.33245507361E+02  0.00000000000E+00 0.  1.
         25    2    1    2    0    0  0.98603085663E+02 -0.57683493958E+02  0.30257844290E+03  0.34677419228E+03  0.12509465357E+03 0.  0.
          5    1    3    3  502    0  0.21201962410E+02  0.38254819571E+02  0.57054228369E+02  0.72011192222E+02  0.41800000000E+01 0. -1.
         -5    1    3    3    0  502  0.77401123253E+02 -0.95938313529E+02  0.24552421453E+03  0.27476300006E+03  0.41800000000E+01 0. -1.
        -11    1    1    2    0    0  0.15544724988E+02 -0.50129178674E+01  0.56289978267E+02  0.58611683766E+02  0.00000000000E+00 0.  1.
         11    1    1    2    0    0 -0.11414781065E+03  0.62696411825E+02  0.41458858051E+03  0.43456214034E+03  0.00000000000E+00 0. -1.
</event>
<event>
 7    1  0.2594791E-009  0.1832298E+03  0.7561462E-02  0.1164713E+00
         -1   -1    0    0    0  501 -0.00000000000E+00  0.00000000000E+00  0.87268606297E+02  0.87268606297E+02  0.00000000000E+00 0.  1.
          1   -1    0    0  501    0  0.00000000000E+00 -0.00000000000E+00 -0.51248452281E+03  0.51248452281E+03  0.00000000000E+00 0. -1.
         25    2    1    2    0    0 -0.12518435446E+03 -0.12971898982E+03 -0.19193652752E+03  0.29151702367E+03  0.12507759819E+03 0.  0.
          5    1    3    3  502    0 -0.41895943316E+02 -0.36998669954E+02  0.72458622236E+01  0.56516781261E+02  0.41800000000E+01 0. -1.
         -5    1    3    3    0  502 -0.83288411147E+02 -0.92720319870E+02 -0.19918238974E+03  0.23500024241E+03  0.41800000000E+01 0. -1.
        -11    1    1    2    0    0  0.23254294515E+02  0.53790088568E+02 -0.13629205908E+03  0.14835653410E+03  0.00000000000E+00 0. -1.
         11    1    1    2    0    0  0.10193005995E+03  0.75928901257E+02 -0.96987329908E+02  0.15987957133E+03  0.00000000000E+00 0.  1.
</event>
<event>
 7    1  0.2594791E-009  0.1206618E+03  0.7561462E-02  0.1242009E+00
          2   -1    0    0  501    0  0.00000000000E+00  0.00000000000E+00  0.99195272272E+03  0.99195272272E+03  0.00000000000E+00 0. -1.
         -2   -1    0    0    0  501 -0.00000000000E+00 -0.00000000000E+00 -0.31833276739E+02  0.31833276739E+02  0.00000000000E+00 0.  1.
         25    2    1    2    0    0 -0.29035640731E+02  0.88820398890E+02  0.81294581581E+03  0.82780526827E+03  0.12509408873E+03 0.  0.
          5    1    3    3  502    0 -0.64837433520E+02  0.64003515904E+02  0.71151852872E+03  0.71733983016E+03  0.41800000000E+01 0. -1.
         -5    1    3    3    0  502  0.35801792789E+02  0.24816882986E+02  0.10142728710E+03  0.11046543811E+03  0.41800000000E+01 0. -1.
        -11    1    1    2    0    0 -0.28254861468E+01 -0.68525374852E+02  0.33762226593E+02  0.76443432126E+02  0.00000000000E+00 0. -1.
         11    1    1    2    0    0  0.31861126878E+02 -0.20295024038E+02  0.11341140358E+03  0.11953729907E+03  0.00000000000E+00 0.  1.
</event>
<event>
 7    1  0.2594791E-009  0.1398578E+03  0.7561462E-02  0.1213520E+00
         -2   -1    0    0    0  501 -0.00000000000E+00  0.00000000000E+00  0.31547652459E+02  0.31547652459E+02  0.00000000000E+00 0.  1.
          2   -1    0    0  501    0  0.00000000000E+00 -0.00000000000E+00 -0.16431038077E+04  0.16431038077E+04  0.00000000000E+00 0. -1.
         25    2    1    2    0    0  0.48798512778E+02  0.92580540261E+02 -0.14616793320E+04  0.14707503377E+04  0.12509050610E+03 0.  0.
          5    1    3    3  502    0  0.29723518456E+02 -0.13996019388E+02 -0.11375054209E+03  0.11847377066E+03  0.41800000000E+01 0. -1.
         -5    1    3    3    0  502  0.19074994322E+02  0.10657655965E+03 -0.13479287899E+04  0.13522765670E+04  0.41800000000E+01 0. -1.
        -11    1    1    2    0    0  0.73268967265E+01 -0.80503350417E+02 -0.88197663837E+02  0.11963820774E+03  0.00000000000E+00 0.  1.
         11    1    1    2    0    0 -0.56125409505E+02 -0.12077189844E+02 -0.61679159393E+02  0.84262914797E+02  0.00000000000E+00 0. -1.
</event>
<event>
 7    1  0.2594791E-009  0.1137097E+03  0.7561462E-02  0.1253850E+00
         -2   -1    0    0    0  501 -0.00000000000E+00  0.00000000000E+00  0.25491713716E+03  0.25491713716E+03  0.00000000000E+00 0.  1.
          2   -1    0    0  501    0  0.00000000000E+00 -0.00000000000E+00 -0.60555313457E+02  0.60555313457E+02  0.00000000000E+00 0. -1.
         25    2    1    2    0    0 -0.58403577778E+02 -0.44773241262E+01  0.88083168615E+02  0.16382437368E+03  0.12509498987E+03 0.  0.
          5    1    3    3  502    0  0.27853306205E+02  0.19377341962E+02 -0.50910832931E+01  0.34564137154E+02  0.41800000000E+01 0. -1.
         -5    1    3    3    0  502 -0.86256883984E+02 -0.23854666088E+02  0.93174251908E+02  0.12926023653E+03  0.41800000000E+01 0. -1.
        -11    1    1    2    0    0  0.55743620151E+02  0.39624828160E+02  0.48057241414E+02  0.83588136996E+02  0.00000000000E+00 0. -1.
         11    1    1    2    0    0  0.26599576277E+01 -0.35147504034E+02  0.58221413677E+02  0.68059939942E+02  0.00000000000E+00 0.  1.
</event>
<event>
 7    1  0.2594791E-009  0.1175253E+03  0.7561462E-02  0.1247236E+00
          1   -1    0    0  501    0  0.00000000000E+00  0.00000000000E+00  0.45546722433E+03  0.45546722433E+03  0.00000000000E+00 0. -1.
         -1   -1    0    0    0  501 -0.00000000000E+00 -0.00000000000E+00 -0.36058616627E+02  0.36058616627E+02  0.00000000000E+00 0.  1.
         25    2    1    2    0    0  0.56926986306E+02 -0.37941240714E+01  0.30536409906E+03  0.33489370345E+03  0.12510588502E+03 0.  0.
          5    1    3    3  502    0 -0.38996217392E+02  0.55913313727E+01  0.68396272540E+02  0.79041068153E+02  0.41800000000E+01 0.  1.
         -5    1    3    3    0  502  0.95923203698E+02 -0.93854554441E+01  0.23696782652E+03  0.25585263529E+03  0.41800000000E+01 0.  1.
        -11    1    1    2    0    0 -0.33161399287E+02  0.42278110184E+02  0.30905888134E+02  0.61986215603E+02  0.00000000000E+00 0.  1.
         11    1    1    2    0    0 -0.23765587019E+02 -0.38483986112E+02  0.83138620515E+02  0.94645921912E+02  0.00000000000E+00 0. -1.
</event>
<event>
 7    1  0.2689677E-009  0.1120370E+03  0.7561462E-02  0.1256844E+00
         -3   -1    0    0    0  501 -0.00000000000E+00  0.00000000000E+00  0.11378126106E+03  0.11378126106E+03  0.00000000000E+00 0.  1.
          3   -1    0    0  501    0  0.00000000000E+00 -0.00000000000E+00 -0.21247490743E+03  0.21247490743E+03  0.00000000000E+00 0. -1.
         25    2    1    2    0    0  0.10452038044E+03 -0.19547162547E+01 -0.14731267561E+02  0.16368453483E+03  0.12508911166E+03 0.  0.
          5    1    3    3  502    0  0.38791042357E+02  0.22826043862E+02  0.50469097091E+02  0.67752309235E+02  0.41800000000E+01 0. -1.
         -5    1    3    3    0  502  0.65729338079E+02 -0.24780760117E+02 -0.65200364652E+02  0.95932225592E+02  0.41800000000E+01 0. -1.
        -11    1    1    2    0    0 -0.61168552656E+02 -0.13201790134E+02  0.46666669810E+01  0.62750752007E+02  0.00000000000E+00 0.  1.
         11    1    1    2    0    0 -0.43351827780E+02  0.15156506389E+02 -0.88629045784E+02  0.99820881655E+02  0.00000000000E+00 0. -1.
</event>
<event>
 7    1  0.2594791E-009  0.7725560E+02  0.7561462E-02  0.1337025E+00
         -2   -1    0    0    0  501 -0.00000000000E+00  0.00000000000E+00  0.40123983499E+02  0.40123983499E+02  0.00000000000E+00 0.  1.
          2   -1    0    0  501    0  0.00000000000E+00 -0.00000000000E+00 -0.42059415536E+03  0.42059415536E+03  0.00000000000E+00 0. -1.
         25    2    1    2    0    0  0.63589766667E+02 -0.30710500776E+02 -0.19168030267E+03  0.23953208202E+03  0.12508991408E+03 0.  0.
          5    1    3    3  502    0  0.40081782749E+02 -0.26009580813E+02 -0.16940475251E+01  0.47993643324E+02  0.41800000000E+01 0.  1.
         -5    1    3    3    0  502  0.23507983918E+02 -0.47009199626E+01 -0.18998625514E+03  0.19153843870E+03  0.41800000000E+01 0.  1.
        -11    1    1    2    0    0 -0.35766302344E+02 -0.58784001960E+01 -0.16594230682E+03  0.16985474137E+03  0.00000000000E+00 0. -1.
         11    1    1    2    0    0 -0.27823464323E+02  0.36588900972E+02 -0.22847562374E+02  0.51331315469E+02  0.00000000000E+00 0.  1.
</event>
<event>
 7    1  0.2594791E-009  0.1099312E+03  0.7561462E-02  0.1260697E+00
         -3   -1    0    0    0  501 -0.00000000000E+00  0.00000000000E+00  0.21944436258E+02  0.21944436258E+02  0.00000000000E+00 0.  1.
          3   -1    0    0  501    0  0.00000000000E+00 -0.00000000000E+00 -0.11613136863E+04  0.11613136863E+04  0.00000000000E+00 0. -1.
         25    2    1    2    0    0  0.19013281000E+01  0.70462628840E+02 -0.96304613109E+03  0.97368787486E+03  0.12506650197E+03 0.  0.
          5    1    3    3  502    0 -0.20211199415E+02 -0.32267916747E+02 -0.24196090886E+03  0.24497400851E+03  0.41800000000E+01 0.  1.
         -5    1    3    3    0  502  0.22112527515E+02  0.10273054559E+03 -0.72108522224E+03  0.72871386634E+03  0.41800000000E+01 0.  1.
        -11    1    1    2    0    0 -0.15676355555E+02 -0.39868213419E+02 -0.15930231530E+02  0.45705523094E+02  0.00000000000E+00 0.  1.
         11    1    1    2    0    0  0.13775027455E+02 -0.30594415421E+02 -0.16039288745E+03  0.16386472464E+03  0.00000000000E+00 0. -1.
</event>
<event>
 7    1  0.2594791E-009  0.1441888E+03  0.7561462E-02  0.1207801E+00
          2   -1    0    0  501    0  0.00000000000E+00  0.00000000000E+00  0.12533694715E+04  0.12533694715E+04  0.00000000000E+00 0. -1.
         -2   -1    0    0    0  501 -0.00000000000E+00 -0.00000000000E+00 -0.17464272569E+02  0.17464272569E+02  0.00000000000E+00 0.  1.
         25    2    1    2    0    0  0.98562099582E+02 -0.15173624726E+02  0.65571567474E+03  0.67494848691E+03  0.12509071715E+03 0.  0.
          5    1    3    3  502    0  0.91209011785E+02 -0.58803678927E+02  0.54366540722E+03  0.55440644287E+03  0.41800000000E+01 0.  1.
         -5    1    3    3    0  502  0.73530877978E+01  0.43630054201E+02  0.11205026752E+03  0.12054204404E+03  0.41800000000E+01 0.  1.
        -11    1    1    2    0    0 -0.57809463225E+02 -0.37371178684E+02  0.32141118248E+03  0.32869999583E+03  0.00000000000E+00 0.  1.
         11    1    1    2    0    0 -0.40752636357E+02  0.52544803410E+02  0.25877834174E+03  0.26718526136E+03  0.00000000000E+00 0. -1.
</event>
<event>
 7    1  0.2594791E-009  0.1166741E+03  0.7561462E-02  0.1248687E+00
         -1   -1    0    0    0  501 -0.00000000000E+00  0.00000000000E+00  0.76431262162E+02  0.76431262162E+02  0.00000000000E+00 0.  1.
          1   -1    0    0  501    0  0.00000000000E+00 -0.00000000000E+00 -0.18803635793E+03  0.18803635793E+03  0.00000000000E+00 0. -1.
         25    2    1    2    0    0 -0.46619888660E+02 -0.15695114069E+02 -0.61552131532E+02  0.14783935355E+03  0.12509220175E+03 0.  0.
          5    1    3    3  502    0 -0.56909365047E+02  0.45024538414E+02 -0.33765185578E+02  0.80146397589E+02  0.41800000000E+01 0. -1.
         -5    1    3    3    0  502  0.10289476387E+02 -0.60719652482E+02 -0.27786945954E+02  0.67692955966E+02  0.41800000000E+01 0. -1.
        -11    1    1    2    0    0 -0.16634224047E+02 -0.20229864628E+02  0.33258331146E+01  0.26400871167E+02  0.00000000000E+00 0.  1.
         11    1    1    2    0    0  0.63254112707E+02  0.35924978696E+02 -0.53378797351E+02  0.90227395370E+02  0.00000000000E+00 0. -1.
</event>
<event>
 6    1  0.2594791E-009  0.1152657E+03  0.7561462E-02  0.1251118E+00
          2   -1    0    0  501    0  0.00000000000E+00  0.00000000000E+00  0.83770212739E+03  0.83770212739E+03  0.00000000000E+00 0. -1.
         -2   -1    0    0    0  501 -0.00000000000E+00 -0.00000000000E+00 -0.17474689913E+02  0.17474689913E+02  0.00000000000E+00 0.  1.
          5    1    1    2  502    0 -0.45826701461E+01  0.78001032863E+02  0.18745950226E+03  0.20313468286E+03  0.41800000000E+01 0. -1.
         -5    1    1    2    0  502 -0.24333626525E+02 -0.47430988193E+02  0.14958732425E+03  0.15885736998E+03  0.41800000000E+01 0. -1.
        -11    1    1    2    0    0  0.88502636437E+01 -0.61395760618E+02  0.30808990378E+03  0.31427242227E+03  0.00000000000E+00 0.  1.
         11    1    1    2    0    0  0.20066033027E+02  0.30825715948E+02  0.17509070720E+03  0.17891234220E+03  0.00000000000E+00 0. -1.
</event>
<event>
 7    1  0.2594791E-009  0.3114381E+03  0.7561462E-02  0.1079659E+00
          3   -1    0    0  501    0  0.00000000000E+00  0.00000000000E+00  0.19071710184E+03  0.19071710184E+03  0.00000000000E+00 0. -1.
         -3   -1    0    0    0  501 -0.00000000000E+00 -0.00000000000E+00 -0.74359655220E+03  0.74359655220E+03  0.00000000000E+00 0.  1.
         25    2    1    2    0    0  0.30366456502E+02 -0.30978620060E+03 -0.50498863051E+03  0.60626001855E+03  0.12509229149E+03 0.  0.
          5    1    3    3  502    0  0.98442164310E+01 -0.66871165123E+02 -0.33709842917E+02  0.75647123088E+02  0.41800000000E+01 0.  1.
         -5    1    3    3    0  502  0.20522240071E+02 -0.24291503548E+03 -0.47127878759E+03  0.53061289547E+03  0.41800000000E+01 0.  1.
        -11    1    1    2    0    0 -0.21074939034E+02  0.18220100397E+03 -0.73496131247E+02  0.19759311783E+03  0.00000000000E+00 0.  1.
         11    1    1    2    0    0 -0.92915174680E+01  0.12758519663E+03  0.25605311402E+02  0.13046051766E+03  0.00000000000E+00 0. -1.
</event>
<event>
 7    1  0.2594791E-009  0.1083602E+03  0.7561462E-02  0.1263637E+00
          3   -1    0    0  501    0  0.00000000000E+00  0.00000000000E+00  0.70367605569E+02  0.70367605569E+02  0.00000000000E+00 0. -1.
         -3   -1    0    0    0  501 -0.00000000000E+00 -0.00000000000E+00 -0.23175634070E+03  0.23175634070E+03  0.00000000000E+00 0.  1.
         25    2    1    2    0    0 -0.42687695920E+02  0.45975426129E+02 -0.58037493125E+02  0.15150561324E+03  0.12509844541E+03 0.  0.
          5    1    3    3  502    0 -0.53845881549E+02  0.65615579012E+02 -0.82152536467E+02  0.11820023188E+03  0.41800000000E+01 0. -1.
         -5    1    3    3    0  502  0.11158185629E+02 -0.19640152883E+02  0.24115043342E+02  0.33305381355E+02  0.41800000000E+01 0. -1.
        -11    1    1    2    0    0  0.20081567832E+01 -0.64170041158E+02 -0.51933066052E+02  0.82576450792E+02  0.00000000000E+00 0. -1.
         11    1    1    2    0    0  0.40679539137E+02  0.18194615028E+02 -0.51418175951E+02  0.68041882238E+02  0.00000000000E+00 0.  1.
</event>
<event>
 7    1  0.2594791E-009  0.9271033E+02  0.7561462E-02  0.1296418E+00
          2   -1    0    0  501    0  0.00000000000E+00  0.00000000000E+00  0.77291406176E+03  0.77291406176E+03  0.00000000000E+00 0. -1.
         -2   -1    0    0    0  501 -0.00000000000E+00 -0.00000000000E+00 -0.19319792333E+02  0.19319792333E+02  0.00000000000E+00 0.  1.
         25    2    1    2    0    0  0.31846695566E+02 -0.25525667636E+02  0.55289557152E+03  0.56834305845E+03  0.12511813362E+03 0.  0.
          5    1    3    3  502    0  0.57935496788E+02 -0.34048930315E+02  0.14913753279E+03  0.16363168253E+03  0.41800000000E+01 0.  1.
         -5    1    3    3    0  502 -0.26088801223E+02  0.85232626790E+01  0.40375803873E+03  0.40471137592E+03  0.41800000000E+01 0.  1.
        -11    1    1    2    0    0 -0.57858662487E+02  0.67563592246E+01  0.16914981263E+03  0.17889922395E+03  0.00000000000E+00 0. -1.
         11    1    1    2    0    0  0.26011966921E+02  0.18769308411E+02  0.31548885272E+02  0.44991571691E+02  0.00000000000E+00 0.  1.
</event>
<event>
 7    1  0.2594791E-009  0.1243836E+03  0.7561462E-02  0.1236036E+00
          3   -1    0    0  501    0  0.00000000000E+00  0.00000000000E+00  0.29399383494E+03  0.29399383494E+03  0.00000000000E+00 0. -1.
         -3   -1    0    0    0  501 -0.00000000000E+00 -0.00000000000E+00 -0.72028015772E+02  0.72028015772E+02  0.00000000000E+00 0.  1.
         25    2    1    2    0    0  0.83510346954E+01 -0.91649019759E+02  0.16438178782E+03  0.22614049588E+03  0.12509543998E+03 0.  0.
          5    1    3    3  502    0  0.52517256439E+02 -0.33435344056E+02  0.22205495537E+02  0.66230966233E+02  0.41800000000E+01 0. -1.
         -5    1    3    3    0  502 -0.44166221744E+02 -0.58213675703E+02  0.14217629229E+03  0.15990952964E+03  0.41800000000E+01 0. -1.
        -11    1    1    2    0    0 -0.37052958659E+02  0.59375020853E+02  0.26986275307E+01  0.70039970282E+02  0.00000000000E+00 0.  1.
         11    1    1    2    0    0  0.28701923963E+02  0.32273998907E+02  0.54885403810E+02  0.69841384551E+02  0.00000000000E+00 0. -1.
</event>
<event>
 7    1  0.2594791E-009  0.2017780E+03  0.7561462E-02  0.1148248E+00
         -4   -1    0    0    0  501 -0.00000000000E+00  0.00000000000E+00  0.90080839476E+03  0.90080839476E+03  0.00000000000E+00 0.  1.
          4   -1    0    0  501    0  0.00000000000E+00 -0.00000000000E+00 -0.49955318247E+02  0.49955318247E+02  0.00000000000E+00 0. -1.
         25    2    1    2    0    0 -0.97148674369E+02  0.15402593672E+03  0.42006058770E+03  0.47461651650E+03  0.12509231106E+03 0.  0.
          5    1    3    3  502    0 -0.75880827529E+02  0.41214279242E+02  0.28231946032E+03  0.29525966008E+03  0.41800000000E+01 0. -1.
         -5    1    3    3    0  502 -0.21267846840E+02  0.11281165748E+03  0.13774112738E+03  0.17935685642E+03  0.41800000000E+01 0. -1.
        -11    1    1    2    0    0  0.13404554259E+02  0.10888491873E+02  0.27643495144E+02  0.32594541781E+02  0.00000000000E+00 0. -1.
         11    1    1    2    0    0  0.83744120110E+02 -0.16491442859E+03  0.40314899367E+03  0.44355265472E+03  0.00000000000E+00 0.  1.
</event>
<event>
 7    1  0.2594791E-009  0.9500127E+02  0.7561462E-02  0.1291173E+00
         -2   -1    0    0    0  501 -0.00000000000E+00  0.00000000000E+00  0.23452758845E+02  0.23452758845E+02  0.00000000000E+00 0. -1.
          2   -1    0    0  501    0  0.00000000000E+00 -0.00000000000E+00 -0.62887735292E+03  0.62887735292E+03  0.00000000000E+00 0.  1.
         25    2    1    2    0    0  0.52676273267E+02  0.33167636349E+01 -0.37950540611E+03  0.40306110208E+03  0.12509239806E+03 0.  0.
          5    1    3    3  502    0  0.37500161272E+02  0.37709692688E+02 -0.35267639179E+03  0.35668808887E+03  0.41800000000E+01 0. -1.
         -5    1    3    3    0  502  0.15176111995E+02 -0.34392929053E+02 -0.26829014324E+02  0.46373013205E+02  0.41800000000E+01 0. -1.
        -11    1    1    2    0    0 -0.56165259452E+02 -0.35511239500E+02 -0.10644154638E+03  0.12548062518E+03  0.00000000000E+00 0.  1.
         11    1    1    2    0    0  0.34889861855E+01  0.32194475865E+02 -0.11947764158E+03  0.12378838450E+03  0.00000000000E+00 0. -1.
</event>
<event>
 7    1  0.2594791E-009  0.9515757E+02  0.7561462E-02  0.1290822E+00
          2   -1    0    0  501    0  0.00000000000E+00  0.00000000000E+00  0.10802549935E+03  0.10802549935E+03  0.00000000000E+00 0. -1.
         -2   -1    0    0    0  501 -0.00000000000E+00 -0.00000000000E+00 -0.12247968629E+03  0.12247968629E+03  0.00000000000E+00 0.  1.
         25    2    1    2    0    0  0.36467587148E+02  0.17048880272E+02 -0.27678617855E+02  0.13431039801E+03  0.12511046277E+03 0.  0.
          5    1    3    3  502    0 -0.27650762103E+02 -0.20280969013E+01 -0.55153426167E+02  0.61871242430E+02  0.41800000000E+01 0.  1.
         -5    1    3    3    0  502  0.64118349251E+02  0.19076977173E+02  0.27474808312E+02  0.72439155576E+02  0.41800000000E+01 0.  1.
        -11    1    1    2    0    0  0.23188877556E+02  0.14913779661E+02  0.49475099296E+01  0.28011117803E+02  0.00000000000E+00 0. -1.
         11    1    1    2    0    0 -0.59656464704E+02 -0.31962659933E+02  0.82769209774E+01  0.68183669832E+02  0.00000000000E+00 0.  1.
</event>
<event>
 7    1  0.2594791E-009  0.9508419E+02  0.7561462E-02  0.1290987E+00
          2   -1    0    0  501    0  0.00000000000E+00  0.00000000000E+00  0.41251362101E+03  0.41251362101E+03  0.00000000000E+00 0. -1.
         -2   -1    0    0    0  501 -0.00000000000E+00 -0.00000000000E+00 -0.34076990499E+02  0.34076990499E+02  0.00000000000E+00 0.  1.
         25    2    1    2    0    0  0.99351535861E+01 -0.42820904904E+02  0.17726537678E+03  0.22136396738E+03  0.12508659031E+03 0.  0.
          5    1    3    3  502    0 -0.50537962220E+02 -0.12652458947E+02  0.12608195170E+03  0.13648553508E+03  0.41800000000E+01 0.  1.
         -5    1    3    3    0  502  0.60473115806E+02 -0.30168445958E+02  0.51183425087E+02  0.84878432304E+02  0.41800000000E+01 0.  1.
        -11    1    1    2    0    0 -0.27958521041E+02  0.51442107335E+01  0.10933132044E+02  0.30457760573E+02  0.00000000000E+00 0.  1.
         11    1    1    2    0    0  0.18023367455E+02  0.37676694171E+02  0.19023812169E+03  0.19476888355E+03  0.00000000000E+00 0. -1.
</event>
<event>
 7    1  0.2594791E-009  0.8657874E+02  0.7561462E-02  0.1311355E+00
          2   -1    0    0  501    0  0.00000000000E+00  0.00000000000E+00  0.14951166759E+03  0.14951166759E+03  0.00000000000E+00 0. -1.
         -2   -1    0    0    0  501 -0.00000000000E+00 -0.00000000000E+00 -0.90518490635E+02  0.90518490635E+02  0.00000000000E+00 0.  1.
         25    2    1    2    0    0  0.11940490921E+02  0.32684681785E+02  0.67879276167E+02  0.14651665031E+03  0.12509463993E+03 0.  0.
          5    1    3    3  502    0  0.38340262743E+02 -0.55889980246E+01 -0.22351260688E+02  0.44925092103E+02  0.41800000000E+01 0.  1.
         -5    1    3    3    0  502 -0.26399771822E+02  0.38273679810E+02  0.90230536855E+02  0.10159155821E+03  0.41800000000E+01 0.  1.
        -11    1    1    2    0    0 -0.14595941100E+02  0.25434203174E+02 -0.18315918059E+02  0.34574745726E+02  0.00000000000E+00 0.  1.
         11    1    1    2    0    0  0.26554501794E+01 -0.58118884959E+02  0.94298188472E+01  0.58938762186E+02  0.00000000000E+00 0. -1.
</event>
<event>
 7    1  0.2594791E-009  0.8589437E+02  0.7561462E-02  0.1313110E+00
         -1   -1    0    0    0  501 -0.00000000000E+00  0.00000000000E+00  0.29145467533E+02  0.29145467533E+02  0.00000000000E+00 0.  1.
          1   -1    0    0  501    0  0.00000000000E+00 -0.00000000000E+00 -0.40874494593E+03  0.40874494593E+03  0.00000000000E+00 0. -1.
         25    2    1    2    0    0  0.62893407367E+01  0.12471237655E+02 -0.18350394352E+03  0.22252312094E+03  0.12509098485E+03 0.  0.
          5    1    3    3  502    0 -0.47797473738E+02  0.12728727600E+02 -0.26204064323E+02  0.56131491955E+02  0.41800000000E+01 0.  1.
         -5    1    3    3    0  502  0.54086814475E+02 -0.25748994520E+00 -0.15729987919E+03  0.16639162898E+03  0.41800000000E+01 0.  1.
        -11    1    1    2    0    0  0.29479755548E+02  0.14557108950E+01 -0.21279378809E+02  0.36386632764E+02  0.00000000000E+00 0.  1.
         11    1    1    2    0    0 -0.35769096285E+02 -0.13926948550E+02 -0.17481615607E+03  0.17898065976E+03  0.00000000000E+00 0. -1.
</event>
<event>
 7    1  0.2594791E-009  0.1094698E+03  0.7561462E-02  0.1261555E+00
         -2   -1    0    0    0  501 -0.00000000000E+00  0.00000000000E+00  0.71126936581E+02  0.71126936581E+02  0.00000000000E+00 0.  1.
          2   -1    0    0  501    0  0.00000000000E+00 -0.00000000000E+00 -0.20096121041E+03  0.20096121041E+03  0.00000000000E+00 0. -1.
         25    2    1    2    0    0  0.14379778073E+02 -0.37481511949E+02 -0.37764645800E+02  0.13670260219E+03  0.12509912556E+03 0.  0.
          5    1    3    3  502    0  0.63790497553E+02 -0.13742025942E+02  0.70605765213E+01  0.65767735219E+02  0.41800000000E+01 0.  1.
         -5    1    3    3    0  502 -0.49410719480E+02 -0.23739486007E+02 -0.44825222321E+02  0.70934866966E+02  0.41800000000E+01 0.  1.
        -11    1    1    2    0    0 -0.37126302384E+02 -0.16022825743E+02 -0.30073375644E+02  0.50393463823E+02  0.00000000000E+00 0.  1.
         11    1    1    2    0    0  0.22746524311E+02  0.53504337692E+02 -0.61996252388E+02  0.84992080985E+02  0.00000000000E+00 0. -1.
</event>
<event>
 7    1  0.2594791E-009  0.1271309E+03  0.7561462E-02  0.1231776E+00
         -2   -1    0    0    0  501 -0.00000000000E+00  0.00000000000E+00  0.71511202299E+03  0.71511202299E+03  0.00000000000E+00 0. -1.
          2   -1    0    0  501    0  0.00000000000E+00 -0.00000000000E+00 -0.27006524480E+02  0.27006524480E+02  0.00000000000E+00 0.  1.
         25    2    1    2    0    0 -0.22609903818E+00 -0.77457855553E+02  0.27637264578E+03  0.31308231480E+03  0.12505569158E+03 0.  0.
          5    1    3    3  502    0  0.24119951489E+02 -0.10099056553E+03  0.15207776745E+03  0.18419008154E+03  0.41800000000E+01 0.  1.
         -5    1    3    3    0  502 -0.24346050527E+02  0.23532709976E+02  0.12429487833E+03  0.12889223326E+03  0.41800000000E+01 0.  1.
        -11    1    1    2    0    0  0.33796332130E+02  0.75362925796E+02  0.33877906619E+03  0.34870190470E+03  0.00000000000E+00 0. -1.
         11    1    1    2    0    0 -0.33570233091E+02  0.20949297564E+01  0.72953786540E+02  0.80334327974E+02  0.00000000000E+00 0.  1.
</event>
<event>
 7    1  0.2594791E-009  0.1135281E+03  0.7561462E-02  0.1254172E+00
          2   -1    0    0  501    0  0.00000000000E+00  0.00000000000E+00  0.24599824163E+03  0.24599824163E+03  0.00000000000E+00 0. -1.
         -2   -1    0    0    0  501 -0.00000000000E+00 -0.00000000000E+00 -0.64159210558E+02  0.64159210558E+02  0.00000000000E+00 0.  1.
         25    2    1    2    0    0  0.55760306310E+02  0.29373687026E+02  0.10381784920E+03  0.17434942019E+03  0.12509016451E+03 0.  0.
          5    1    3    3  502    0  0.85472601030E+02  0.50854305642E+02  0.56903228775E+02  0.11466113454E+03  0.41800000000E+01 0. -1.
         -5    1    3    3    0  502 -0.29712294720E+02 -0.21480618617E+02  0.46914620427E+02  0.59688285648E+02  0.41800000000E+01 0. -1.
        -11    1    1    2    0    0 -0.37966137112E+01  0.19144094366E+02  0.59101554619E+02  0.62240697161E+02  0.00000000000E+00 0. -1.
         11    1    1    2    0    0 -0.51963692599E+02 -0.48517781392E+02  0.18919627250E+02  0.73567334836E+02  0.00000000000E+00 0.  1.
</event>
<event>
 7    1  0.2594791E-009  0.1217842E+03  0.7561462E-02  0.1240182E+00
          2   -1    0    0  501    0  0.00000000000E+00  0.00000000000E+00  0.12969505509E+04  0.12969505509E+04  0.00000000000E+00 0. -1.
         -2   -1    0    0    0  501 -0.00000000000E+00 -0.00000000000E+00 -0.14398687198E+02  0.14398687198E+02  0.00000000000E+00 0.  1.
         25    2    1    2    0    0 -0.13432152023E+02 -0.76624495172E+02  0.84139570288E+03  0.85419331536E+03  0.12509098771E+03 0.  0.
          5    1    3    3  502    0 -0.21846287615E+02 -0.98380743899E+02  0.80125974371E+03  0.80758323432E+03  0.41800000000E+01 0.  1.
         -5    1    3    3    0  502  0.84141355914E+01  0.21756248727E+02  0.40135959171E+02  0.46610081045E+02  0.41800000000E+01 0.  1.
        -11    1    1    2    0    0 -0.19602013642E+01 -0.20538478786E+02  0.99634921412E+02  0.10174865633E+03  0.00000000000E+00 0. -1.
         11    1    1    2    0    0  0.15392353388E+02  0.97162973957E+02  0.34152123945E+03  0.35540726645E+03  0.00000000000E+00 0.  1.
</event>
<event>
 7    1  0.2594791E-009  0.8083318E+02  0.7561462E-02  0.1326703E+00
         -1   -1    0    0    0  501 -0.00000000000E+00  0.00000000000E+00  0.87462299761E+02  0.87462299761E+02  0.00000000000E+00 0.  1.
          1   -1    0    0  501    0  0.00000000000E+00 -0.00000000000E+00 -0.17122987597E+03  0.17122987597E+03  0.00000000000E+00 0. -1.
         25    2    1    2    0    0 -0.20201391329E+02  0.23178547605E+02 -0.95983195769E+02  0.16064102723E+03  0.12508966575E+03 0.  0.
          5    1    3    3  502    0  0.20848116662E+02  0.69534124113E+01 -0.11145793805E+03  0.11368086148E+03  0.41800000000E+01 0.  1.
         -5    1    3    3    0  502 -0.41049507991E+02  0.16225135194E+02  0.15474742282E+02  0.46960165748E+02  0.41800000000E+01 0.  1.
        -11    1    1    2    0    0  0.12053703605E+02 -0.57977874512E+02 -0.28018586208E+01  0.59283860496E+02  0.00000000000E+00 0. -1.
         11    1    1    2    0    0  0.81476877243E+01  0.34799326907E+02  0.15017478181E+02  0.38767288006E+02  0.00000000000E+00 0.  1.
</event>
<event>
 7    1  0.2594791E-009  0.1580166E+03  0.7561462E-02  0.1190954E+00
          1   -1    0    0  501    0  0.00000000000E+00  0.00000000000E+00  0.46852679760E+03  0.46852679760E+03  0.00000000000E+00 0. -1.
         -1   -1    0    0    0  501 -0.00000000000E+00 -0.00000000000E+00 -0.72481933650E+02  0.72481933650E+02  0.00000000000E+00 0.  1.
         25    2    1    2    0    0  0.14025876082E+03  0.48778715121E+02  0.23551492978E+03  0.30523104502E+03  0.12508727217E+03 0.  0.
          5    1    3    3  502    0  0.10944616095E+03  0.17841835113E+02  0.63800779886E+02  0.12800314504E+03  0.41800000000E+01 0.  1.
         -5    1    3    3    0  502  0.30812599872E+02  0.30936880009E+02  0.17171414990E+03  0.17722789998E+03  0.41800000000E+01 0.  1.
        -11    1    1    2    0    0 -0.84111323541E+02  0.39107481029E+01  0.12563359524E+03  0.15124089708E+03  0.00000000000E+00 0. -1.
         11    1    1    2    0    0 -0.56147437282E+02 -0.52689463224E+02  0.34896338929E+02  0.84536789144E+02  0.00000000000E+00 0.  1.
</event>
<event>
 7    1  0.2594791E-009  0.9256648E+02  0.7561462E-02  0.1296753E+00
          3   -1    0    0  501    0  0.00000000000E+00  0.00000000000E+00  0.11246267146E+03  0.11246267146E+03  0.00000000000E+00 0. -1.
         -3   -1    0    0    0  501 -0.00000000000E+00 -0.00000000000E+00 -0.13404936853E+03  0.13404936853E+03  0.00000000000E+00 0.  1.
         25    2    1    2    0    0 -0.50764911315E+02 -0.17830435869E+02  0.10513876849E+02  0.13657653711E+03  0.12509040018E+03 0.  0.
          5    1    3    3  502    0 -0.22633600715E+02 -0.64993195264E+02  0.33793207592E+02  0.76784429354E+02  0.41800000000E+01 0.  1.
         -5    1    3    3    0  502 -0.28131310600E+02  0.47162759395E+02 -0.23279330743E+02  0.59792107754E+02  0.41800000000E+01 0.  1.
        -11    1    1    2    0    0  0.81984108421E+01 -0.78886512464E+01 -0.54295382327E+02  0.55474618529E+02  0.00000000000E+00 0.  1.
         11    1    1    2    0    0  0.42566500473E+02  0.25719087116E+02  0.22194808402E+02  0.54460884354E+02  0.00000000000E+00 0. -1.
</event>
<event>
 7    1  0.2594791E-009  0.1310625E+03  0.7561462E-02  0.1225888E+00
         -1   -1    0    0    0  501 -0.00000000000E+00  0.00000000000E+00  0.55877098992E+02  0.55877098992E+02  0.00000000000E+00 0.  1.
          1   -1    0    0  501    0  0.00000000000E+00 -0.00000000000E+00 -0.47972424607E+03  0.47972424607E+03  0.00000000000E+00 0. -1.
         25    2    1    2    0    0 -0.11816448959E+03  0.47875286551E+01 -0.27372021943E+03  0.32335217845E+03  0.12509238886E+03 0.  0.
          5    1    3    3  502    0 -0.65097424366E+02  0.39017703339E+02 -0.50311753541E+02  0.91152623535E+02  0.41800000000E+01 0.  1.
         -5    1    3    3    0  502 -0.53067065221E+02 -0.34230174684E+02 -0.22340846589E+03  0.23219955491E+03  0.41800000000E+01 0.  1.
        -11    1    1    2    0    0  0.48187080359E+02  0.14353883014E+02 -0.12621623023E+03  0.13586230325E+03  0.00000000000E+00 0.  1.
         11    1    1    2    0    0  0.69977409228E+02 -0.19141411669E+02 -0.23910697408E+02  0.76386863357E+02  0.00000000000E+00 0. -1.
</event>
<event>
 7    1  0.2594791E-009  0.9424673E+02  0.7561462E-02  0.1292882E+00
         -1   -1    0    0    0  501 -0.00000000000E+00  0.00000000000E+00  0.26154976233E+02  0.26154976233E+02  0.00000000000E+00 0.  1.
          1   -1    0    0  501    0  0.00000000000E+00 -0.00000000000E+00 -0.61842335302E+03  0.61842335302E+03  0.00000000000E+00 0. -1.
         25    2    1    2    0    0 -0.32015888858E+02  0.59929168141E+02 -0.33158644078E+03  0.36085157065E+03  0.12509103085E+03 0.  0.
          5    1    3    3  502    0  0.12314405094E+02  0.54168232171E+02 -0.30196949839E+03  0.30706496431E+03  0.41800000000E+01 0. -1.
         -5    1    3    3    0  502 -0.44330293952E+02  0.57609359705E+01 -0.29616942394E+02  0.53786606343E+02  0.41800000000E+01 0. -1.
        -11    1    1    2    0    0  0.38361289198E+02 -0.12958826166E+02 -0.21181305740E+03  0.21564853575E+03  0.00000000000E+00 0. -1.
         11    1    1    2    0    0 -0.63454003399E+01 -0.46970341975E+02 -0.48868878601E+02  0.68078222850E+02  0.00000000000E+00 0.  1.
</event>
<event>
 7    1  0.2594791E-009  0.1231804E+03  0.7561462E-02  0.1237941E+00
          1   -1    0    0  501    0  0.00000000000E+00  0.00000000000E+00  0.15297474491E+04  0.15297474491E+04  0.00000000000E+00 0. -1.
         -1   -1    0    0    0  501 -0.00000000000E+00 -0.00000000000E+00 -0.13127272858E+02  0.13127272858E+02  0.00000000000E+00 0.  1.
         25    2    1    2    0    0  0.65783701301E+02 -0.36301123451E+02  0.11071931829E+04  0.11167671646E+04  0.12508752439E+03 0.  0.
          5    1    3    3  502    0  0.98036617268E+00 -0.65900289736E+02  0.72237582722E+03  0.72538825291E+03  0.41800000000E+01 0. -1.
         -5    1    3    3    0  502  0.64803335128E+02  0.29599166284E+02  0.38481735564E+03  0.39137891166E+03  0.41800000000E+01 0. -1.
        -11    1    1    2    0    0  0.15382905930E+02  0.21521644002E+02  0.42823151829E+02  0.50335248961E+02  0.00000000000E+00 0. -1.
         11    1    1    2    0    0 -0.81166607231E+02  0.14779479450E+02  0.36660384153E+03  0.37577230841E+03  0.00000000000E+00 0.  1.
</event>
<event>
 7    1  0.2594791E-009  0.1045239E+03  0.7561462E-02  0.1271061E+00
         -2   -1    0    0    0  501 -0.00000000000E+00  0.00000000000E+00  0.10816235240E+02  0.10816235240E+02  0.00000000000E+00 0.  1.
          2   -1    0    0  501    0  0.00000000000E+00 -0.00000000000E+00 -0.14662765093E+04  0.14662765093E+04  0.00000000000E+00 0. -1.
         25    2    1    2    0    0 -0.43495433421E+02 -0.51242781925E+02 -0.97833128145E+03  0.98858334633E+03  0.12508901209E+03 0.  0.
          5    1    3    3  502    0 -0.67552791839E+01 -0.64468039654E+02 -0.22393054359E+03  0.23316115175E+03  0.41800000000E+01 0. -1.
         -5    1    3    3    0  502 -0.36740154237E+02  0.13225257729E+02 -0.75440073786E+03  0.75542219458E+03  0.41800000000E+01 0. -1.
        -11    1    1    2    0    0  0.49775322232E+02 -0.33313935535E+01 -0.22385536986E+03  0.22934669717E+03  0.00000000000E+00 0.  1.
         11    1    1    2    0    0 -0.62798888102E+01  0.54574175478E+02 -0.25327362279E+03  0.25916270109E+03  0.00000000000E+00 0. -1.
</event>
<event>
 7    1  0.2594791E-009  0.1088106E+03  0.7561462E-02  0.1262788E+00
         -1   -1    0    0    0  501 -0.00000000000E+00  0.00000000000E+00  0.63849888402E+02  0.63849888402E+02  0.00000000000E+00 0.  1.
          1   -1    0    0  501    0  0.00000000000E+00 -0.00000000000E+00 -0.25455985164E+03  0.25455985164E+03  0.00000000000E+00 0. -1.
         25    2    1    2    0    0 -0.58707589499E+02  0.17991197599E+02 -0.14136963765E+03  0.19850236102E+03  0.12509016199E+03 0.  0.
          5    1    3    3  502    0 -0.44312373277E+01 -0.33128613888E+02  0.51254150789E+01  0.34071736119E+02  0.41800000000E+01 0. -1.
         -5    1    3    3    0  502 -0.54276352171E+02  0.51119811488E+02 -0.14649505273E+03  0.16443062490E+03  0.41800000000E+01 0. -1.
        -11    1    1    2    0    0 -0.45019494485E+01 -0.41557440462E+02 -0.20129706788E+02  0.46394972809E+02  0.00000000000E+00 0. -1.
         11    1    1    2    0    0  0.63209538947E+02  0.23566242863E+02 -0.29210618800E+02  0.73512406213E+02  0.00000000000E+00 0.  1.
</event>
<event>
 7    1  0.2594791E-009  0.1197250E+03  0.7561462E-02  0.1243551E+00
         -2   -1    0    0    0  501 -0.00000000000E+00  0.00000000000E+00  0.21201777121E+02  0.21201777121E+02  0.00000000000E+00 0.  1.
          2   -1    0    0  501    0  0.00000000000E+00 -0.00000000000E+00 -0.71063445462E+03  0.71063445462E+03  0.00000000000E+00 0. -1.
         25    2    1    2    0    0  0.36607219407E+02  0.39895398502E+02 -0.45181010748E+03  0.47192325913E+03  0.12508979955E+03 0.  0.
          5    1    3    3  502    0  0.77674077135E+02  0.49892539223E+02 -0.27618939971E+03  0.29123973740E+03  0.41800000000E+01 0.  1.
         -5    1    3    3    0  502 -0.41066857729E+02 -0.99971407211E+01 -0.17562070777E+03  0.18068352173E+03  0.41800000000E+01 0.  1.
        -11    1    1    2    0    0 -0.63087131648E+02 -0.45137538998E+02 -0.16193778019E+03  0.17955842575E+03  0.00000000000E+00 0. -1.
         11    1    1    2    0    0  0.26479912242E+02  0.52421404962E+01 -0.75684789829E+02  0.80354546858E+02  0.00000000000E+00 0.  1.
</event>
<event>
 7    1  0.2594791E-009  0.1150342E+03  0.7561462E-02  0.1251521E+00
         -2   -1    0    0    0  501 -0.00000000000E+00  0.00000000000E+00  0.22271444905E+02  0.22271444905E+02  0.00000000000E+00 0.  1.
          2   -1    0    0  501    0  0.00000000000E+00 -0.00000000000E+00 -0.11023893661E+04  0.11023893661E+04  0.00000000000E+00 0. -1.
         25    2    1    2    0    0 -0.51403864852E+02  0.53269840134E+01 -0.94076370939E+03  0.95044845473E+03  0.12508067046E+03 0.  0.
          5    1    3    3  502    0  0.26106302848E+02  0.34051694708E+02 -0.17530485048E+03  0.18052789248E+03  0.41800000000E+01 0.  1.
         -5    1    3    3    0  502 -0.77510167700E+02 -0.28724710695E+02 -0.76545885891E+03  0.76992056225E+03  0.41800000000E+01 0.  1.
        -11    1    1    2    0    0  0.54306963916E+02  0.34447209538E+02 -0.78903550600E+02  0.10179207667E+03  0.00000000000E+00 0.  1.
         11    1    1    2    0    0 -0.29030990643E+01 -0.39774193552E+02 -0.60450661168E+02  0.72420279567E+02  0.00000000000E+00 0. -1.
</event>
<event>
 7    1  0.2594791E-009  0.2084866E+03  0.7561462E-02  0.1142770E+00
          2   -1    0    0  501    0  0.00000000000E+00  0.00000000000E+00  0.17897424085E+04  0.17897424085E+04  0.00000000000E+00 0. -1.
         -2   -1    0    0    0  501 -0.00000000000E+00 -0.00000000000E+00 -0.27808856975E+02  0.27808856975E+02  0.00000000000E+00 0.  1.
         25    2    1    2    0    0  0.18729979174E+03 -0.64986013257E+01  0.69828310153E+03  0.73374042226E+03  0.12510904672E+03 0.  0.
          5    1    3    3  502    0 -0.93546417981E+01  0.69535285089E+01  0.56823677607E+01  0.13624337975E+02  0.41800000000E+01 0.  1.
         -5    1    3    3    0  502  0.19665443354E+03 -0.13452129835E+02  0.69260073377E+03  0.72011608429E+03  0.41800000000E+01 0.  1.
        -11    1    1    2    0    0 -0.68559478896E+02 -0.40614647976E+02  0.36806926390E+03  0.37659651459E+03  0.00000000000E+00 0.  1.
         11    1    1    2    0    0 -0.11874031285E+03  0.47113249302E+02  0.69558118605E+03  0.70721432858E+03  0.00000000000E+00 0. -1.
</event>
<event>
 7    1  0.2594791E-009  0.1044901E+03  0.7561462E-02  0.1271128E+00
          3   -1    0    0  501    0  0.00000000000E+00  0.00000000000E+00  0.17098685679E+02  0.17098685679E+02  0.00000000000E+00 0. -1.
         -3   -1    0    0    0  501 -0.00000000000E+00 -0.00000000000E+00 -0.13013885216E+04  0.13013885216E+04  0.00000000000E+00 0.  1.
         25    2    1    2    0    0  0.78574618761E+02  0.49486594344E+02 -0.89035551679E+03  0.90388313953E+03  0.12509552314E+03 0.  0.
          5    1    3    3  502    0  0.62462881227E+02 -0.95654910817E+00 -0.76732870287E+03  0.76987878082E+03  0.41800000000E+01 0. -1.
         -5    1    3    3    0  502  0.16111737535E+02  0.50443143452E+02 -0.12302681393E+03  0.13400435871E+03  0.41800000000E+01 0. -1.
        -11    1    1    2    0    0 -0.10897705772E+02 -0.35660242623E+01  0.79233822704E+00  0.11493664342E+02  0.00000000000E+00 0. -1.
         11    1    1    2    0    0 -0.67676912989E+02 -0.45920570081E+02 -0.39472665736E+03  0.40311040341E+03  0.00000000000E+00 0.  1.
</event>
<event>
 7    1  0.2594791E-009  0.2530319E+03  0.7561462E-02  0.1111404E+00
          1   -1    0    0  501    0  0.00000000000E+00  0.00000000000E+00  0.23283679359E+04  0.23283679359E+04  0.00000000000E+00 0. -1.
         -1   -1    0    0    0  501 -0.00000000000E+00 -0.00000000000E+00 -0.34271785897E+02  0.34271785897E+02  0.00000000000E+00 0.  1.
         25    2    1    2    0    0 -0.22659362956E+03 -0.87857651336E+02  0.15335806558E+04  0.15577488735E+04  0.12509310535E+03 0.  0.
          5    1    3    3  502    0 -0.12728818541E+03 -0.68826751135E+02  0.54138698894E+03  0.56040766235E+03  0.41800000000E+01 0.  1.
         -5    1    3    3    0  502 -0.99305444148E+02 -0.19030900202E+02  0.99219366687E+03  0.99734121111E+03  0.41800000000E+01 0.  1.
        -11    1    1    2    0    0  0.15080397544E+02  0.40685372498E+02  0.18247288794E+03  0.18756085082E+03  0.00000000000E+00 0. -1.
         11    1    1    2    0    0  0.21151323202E+03  0.47172278839E+02  0.57804260627E+03  0.61732999755E+03  0.00000000000E+00 0.  1.
</event>
<event>
 7    1  0.2594791E-009  0.1774565E+03  0.7561462E-02  0.1170288E+00
         -1   -1    0    0    0  501 -0.00000000000E+00  0.00000000000E+00  0.39879130110E+03  0.39879130110E+03  0.00000000000E+00 0.  1.
          1   -1    0    0  501    0  0.00000000000E+00 -0.00000000000E+00 -0.92479655428E+02  0.92479655428E+02  0.00000000000E+00 0. -1.
         25    2    1    2    0    0  0.79217400695E+02 -0.13064268691E+03  0.22150748745E+03  0.29674231682E+03  0.12509007708E+03 0.  0.
          5    1    3    3  502    0  0.35933522615E+02  0.18021158589E+02  0.29449347831E+02  0.50007166407E+02  0.41800000000E+01 0. -1.
         -5    1    3    3    0  502  0.43283878080E+02 -0.14866384549E+03  0.19205813961E+03  0.24673515042E+03  0.41800000000E+01 0. -1.
        -11    1    1    2    0    0 -0.34543741196E+02  0.99014848207E+02  0.15173648403E+02  0.10595966132E+03  0.00000000000E+00 0.  1.
         11    1    1    2    0    0 -0.44673659499E+02  0.31627838698E+02  0.69630509828E+02  0.88568978388E+02  0.00000000000E+00 0. -1.
</event>
<event>
 7    1  0.2594791E-009  0.1086456E+03  0.7561462E-02  0.1263099E+00
          1   -1    0    0  501    0  0.00000000000E+00  0.00000000000E+00  0.52885950813E+03  0.52885950813E+03  0.00000000000E+00 0. -1.
         -1   -1    0    0    0  501 -0.00000000000E+00 -0.00000000000E+00 -0.35927039359E+02  0.35927039359E+02  0.00000000000E+00 0.  1.
         25    2    1    2    0    0  0.56334178362E+02  0.15501898389E+02  0.14313905269E+03  0.19887387493E+03  0.12509269051E+03 0.  0.
          5    1    3    3  502    0 -0.21699389298E+02 -0.33628853972E+02  0.19880274547E+02  0.44882747593E+02  0.41800000000E+01 0.  1.
         -5    1    3    3    0  502  0.78033567660E+02  0.49130752361E+02  0.12325877814E+03  0.15399112734E+03  0.41800000000E+01 0.  1.
        -11    1    1    2    0    0 -0.68404332469E+02 -0.20894959753E+02  0.34420856656E+03  0.35156121705E+03  0.00000000000E+00 0. -1.
         11    1    1    2    0    0  0.12070154106E+02  0.53930613644E+01  0.55848495275E+01  0.14351455511E+02  0.00000000000E+00 0.  1.
</event>
<event>
 7    1  0.2594791E-009  0.1507624E+03  0.7561462E-02  0.1199539E+00
         -3   -1    0    0    0  501 -0.00000000000E+00  0.00000000000E+00  0.47617092645E+03  0.47617092645E+03  0.00000000000E+00 0.  1.
          3   -1    0    0  501    0  0.00000000000E+00 -0.00000000000E+00 -0.54294823878E+02  0.54294823878E+02  0.00000000000E+00 0. -1.
         25    2    1    2    0    0  0.76357799092E+02 -0.83810566525E+02  0.17274265568E+03  0.24154196029E+03  0.12509104263E+03 0.  0.
          5    1    3    3  502    0  0.97041481633E+02 -0.18098082307E+02  0.11447782153E+03  0.15121915805E+03  0.41800000000E+01 0.  1.
         -5    1    3    3    0  502 -0.20683682541E+02 -0.65712484217E+02  0.58264834156E+02  0.90322802241E+02  0.41800000000E+01 0.  1.
        -11    1    1    2    0    0 -0.66949556955E+02  0.20960775603E+02  0.18832604115E+03  0.20096839320E+03  0.00000000000E+00 0.  1.
         11    1    1    2    0    0 -0.94082421369E+01  0.62849790921E+02  0.60807405735E+02  0.87955396828E+02  0.00000000000E+00 0. -1.
</event>
<event>
 7    1  0.2594791E-009  0.1177529E+03  0.7561462E-02  0.1246851E+00
          1   -1    0    0  501    0  0.00000000000E+00  0.00000000000E+00  0.38427983929E+03  0.38427983929E+03  0.00000000000E+00 0. -1.
         -1   -1    0    0    0  501 -0.00000000000E+00 -0.00000000000E+00 -0.38420765637E+02  0.38420765637E+02  0.00000000000E+00 0.  1.
         25    2    1    2    0    0  0.49500513178E+02  0.17602763593E+02  0.23216016888E+03  0.26889773814E+03  0.12508993354E+03 0.  0.
          5    1    3    3  502    0  0.87052459314E+02  0.33294961068E+02  0.17859527439E+03  0.20149548267E+03  0.41800000000E+01 0.  1.
         -5    1    3    3    0  502 -0.37551946136E+02 -0.15692197474E+02  0.53564894494E+02  0.67402255469E+02  0.41800000000E+01 0.  1.
        -11    1    1    2    0    0 -0.23796396638E+02  0.35246947585E+02  0.63974904134E+02  0.76820597277E+02  0.00000000000E+00 0. -1.
         11    1    1    2    0    0 -0.25704116539E+02 -0.52849711178E+02  0.49724000634E+02  0.76982269503E+02  0.00000000000E+00 0.  1.
</event>
<event>
 7    1  0.2594791E-009  0.1138739E+03  0.7561462E-02  0.1253560E+00
          1   -1    0    0  501    0  0.00000000000E+00  0.00000000000E+00  0.53314915833E+03  0.53314915833E+03  0.00000000000E+00 0. -1.
         -1   -1    0    0    0  501 -0.00000000000E+00 -0.00000000000E+00 -0.27539821929E+02  0.27539821929E+02  0.00000000000E+00 0.  1.
         25    2    1    2    0    0  0.81161049804E+00 -0.53874416506E+02  0.25380051701E+03  0.28803836526E+03  0.12509310918E+03 0.  0.
          5    1    3    3  502    0  0.44705952416E+02  0.18505549456E+02  0.12232749227E+03  0.13161521686E+03  0.41800000000E+01 0. -1.
         -5    1    3    3    0  502 -0.43894341918E+02 -0.72379965962E+02  0.13147302473E+03  0.15642314841E+03  0.41800000000E+01 0. -1.
        -11    1    1    2    0    0  0.14644349157E+02 -0.16683559338E+02  0.20108197732E+02  0.29952257518E+02  0.00000000000E+00 0.  1.
         11    1    1    2    0    0 -0.15455959655E+02  0.70557975844E+02  0.23170062166E+03  0.24269835748E+03  0.00000000000E+00 0. -1.
</event>
<event>
 7    1  0.2594791E-009  0.1328617E+03  0.7561462E-02  0.1223270E+00
          3   -1    0    0  501    0  0.00000000000E+00  0.00000000000E+00  0.84714647931E+03  0.84714647931E+03  0.00000000000E+00 0. -1.
         -3   -1    0    0    0  501 -0.00000000000E+00 -0.00000000000E+00 -0.23895020964E+02  0.23895020964E+02  0.00000000000E+00 0.  1.
         25    2    1    2    0    0 -0.15731704380E+02  0.77900984856E+02  0.58563519858E+03  0.60409616652E+03  0.12509013800E+03 0.  0.
          5    1    3    3  502    0  0.40935168063E+02 -0.73575284866E+01  0.23930363090E+03  0.24292698774E+03  0.41800000000E+01 0. -1.
         -5    1    3    3    0  502 -0.56666872443E+02  0.85258513343E+02  0.34633156768E+03  0.36116917878E+03  0.41800000000E+01 0. -1.
        -11    1    1    2    0    0  0.46839582919E+02 -0.11638843560E+02  0.10166313993E+03  0.11253800793E+03  0.00000000000E+00 0.  1.
         11    1    1    2    0    0 -0.31107878539E+02 -0.66262141296E+02  0.13595311984E+03  0.15440732584E+03  0.00000000000E+00 0. -1.
</event>
<event>
 7    1  0.2594791E-009  0.1401496E+03  0.7561462E-02  0.1213128E+00
          1   -1    0    0  501    0  0.00000000000E+00  0.00000000000E+00  0.31591394238E+03  0.31591394238E+03  0.00000000000E+00 0. -1.
         -1   -1    0    0    0  501 -0.00000000000E+00 -0.00000000000E+00 -0.89078999339E+02  0.89078999339E+02  0.00000000000E+00 0.  1.
         25    2    1    2    0    0  0.75939433395E+02 -0.76297236473E+02  0.20410818300E+03  0.26248014505E+03  0.12509040866E+03 0.  0.
          5    1    3    3  502    0 -0.23272339154E+02 -0.19914553529E+02  0.28001747961E+01  0.31040370340E+02  0.41800000000E+01 0. -1.
         -5    1    3    3    0  502  0.99211772549E+02 -0.56382682944E+02  0.20130800820E+03  0.23143977470E+03  0.41800000000E+01 0. -1.
        -11    1    1    2    0    0 -0.68777321329E+02  0.11173953237E+02 -0.80231582410E+01  0.70139491218E+02  0.00000000000E+00 0. -1.
         11    1    1    2    0    0 -0.71621120657E+01  0.65123283236E+02  0.30749918285E+02  0.72373305460E+02  0.00000000000E+00 0.  1.
</event>
<event>
 7    1  0.2594791E-009  0.1118688E+03  0.7561462E-02  0.1257148E+00
         -1   -1    0    0    0  501 -0.00000000000E+00  0.00000000000E+00  0.81487680945E+01  0.81487680945E+01  0.00000000000E+00 0.  1.
          1   -1    0    0  501    0  0.00000000000E+00 -0.00000000000E+00 -0.19356126264E+04  0.19356126264E+04  0.00000000000E+00 0. -1.
         25    2    1    2    0    0 -0.40328254444E+02  0.26140795051E+02 -0.14123394873E+04  0.14186823224E+04  0.12508795089E+03 0.  0.
          5    1    3    3  502    0  0.36202302452E+02 -0.10728337865E+02 -0.21535746393E+03  0.21868244924E+03  0.41800000000E+01 0. -1.
         -5    1    3    3    0  502 -0.76530556896E+02  0.36869132916E+02 -0.11969820233E+04  0.11999998732E+04  0.41800000000E+01 0. -1.
        -11    1    1    2    0    0  0.37299629577E+02  0.27894853837E+02 -0.20094066451E+03  0.20626811652E+03  0.00000000000E+00 0.  1.
         11    1    1    2    0    0  0.30286248665E+01 -0.54035648888E+02 -0.31418370656E+03  0.31881095556E+03  0.00000000000E+00 0. -1.
</event>
<event>
 7    1  0.2594791E-009  0.1101144E+03  0.7561462E-02  0.1260358E+00
          1   -1    0    0  501    0  0.00000000000E+00  0.00000000000E+00  0.69106493723E+02  0.69106493723E+02  0.00000000000E+00 0. -1.
         -1   -1    0    0    0  501 -0.00000000000E+00 -0.00000000000E+00 -0.20737204064E+03  0.20737204064E+03  0.00000000000E+00 0.  1.
         25    2    1    2    0    0  0.46534507414E+02 -0.79480734854E+01 -0.87225279935E+02  0.15964233532E+03  0.12509513785E+03 0.  0.
          5    1    3    3  502    0 -0.37853338648E+02  0.16423991737E+02 -0.10123597012E+02  0.42691713104E+02  0.41800000000E+01 0.  1.
         -5    1    3    3    0  502  0.84387846062E+02 -0.24372065222E+02 -0.77101682923E+02  0.11695062221E+03  0.41800000000E+01 0.  1.
        -11    1    1    2    0    0  0.54256363885E+01 -0.27427692490E+02  0.95344453152E+01  0.29540167451E+02  0.00000000000E+00 0. -1.
         11    1    1    2    0    0 -0.51960143803E+02  0.35375765976E+02 -0.60574712297E+02  0.87296031595E+02  0.00000000000E+00 0.  1.
</event>
<event>
 7    1  0.2594791E-009  0.1128168E+03  0.7561462E-02  0.1255441E+00
          4   -1    0    0  501    0  0.00000000000E+00  0.00000000000E+00  0.91714468956E+02  0.91714468956E+02  0.00000000000E+00 0. -1.
         -4   -1    0    0    0  501 -0.00000000000E+00 -0.00000000000E+00 -0.15279640813E+03  0.15279640813E+03  0.00000000000E+00 0.  1.
         25    2    1    2    0    0  0.45097357188E+02 -0.14195256568E+02 -0.34970493704E+02  0.13822980960E+03  0.12509703393E+03 0.  0.
          5    1    3    3  502    0 -0.29540890566E+02  0.33380273456E+02 -0.16506798274E+02  0.47716387759E+02  0.41800000000E+01 0.  1.
         -5    1    3    3    0  502  0.74638247754E+02 -0.47575530024E+02 -0.18463695430E+02  0.90513421843E+02  0.41800000000E+01 0.  1.
        -11    1    1    2    0    0 -0.41126978696E+02  0.45133545211E+02 -0.39084591483E+02  0.72498762550E+02  0.00000000000E+00 0.  1.
         11    1    1    2    0    0 -0.39703784917E+01 -0.30938288643E+02  0.12973146009E+02  0.33782304938E+02  0.00000000000E+00 0. -1.
</event>
<event>
 7    1  0.2594791E-009  0.1229386E+03  0.7561462E-02  0.1238327E+00
          2   -1    0    0  501    0  0.00000000000E+00  0.00000000000E+00  0.58667525636E+03  0.58667525636E+03  0.00000000000E+00 0. -1.
         -2   -1    0    0    0  501 -0.00000000000E+00 -0.00000000000E+00 -0.37346570619E+02  0.37346570619E+02  0.00000000000E+00 0.  1.
         25    2    1    2    0    0 -0.64959856622E+02  0.74591985066E+02  0.34430826515E+03  0.37944679741E+03  0.12509173995E+03 0.  0.
          5    1    3    3  502    0 -0.64018800404E+02  0.82742577382E+01  0.62640265879E+02  0.90045241161E+02  0.41800000000E+01 0.  1.
         -5    1    3    3    0  502 -0.94105621764E+00  0.66317727327E+02  0.28166799927E+03  0.28940155625E+03  0.41800000000E+01 0.  1.
        -11    1    1    2    0    0 -0.18296341679E+01 -0.39020326323E+02  0.18366860548E+02  0.43165669159E+02  0.00000000000E+00 0.  1.
         11    1    1    2    0    0  0.66789490790E+02 -0.35571658743E+02  0.18665356004E+03  0.20140936041E+03  0.00000000000E+00 0. -1.
</event>
<event>
 7    1  0.2594791E-009  0.8808349E+02  0.7561462E-02  0.1307560E+00
          2   -1    0    0  501    0  0.00000000000E+00  0.00000000000E+00  0.20635014805E+03  0.20635014805E+03  0.00000000000E+00 0. -1.
         -2   -1    0    0    0  501 -0.00000000000E+00 -0.00000000000E+00 -0.10829871207E+03  0.10829871207E+03  0.00000000000E+00 0.  1.
         25    2    1    2    0    0 -0.17511974150E+02  0.22242554245E+02  0.15764997761E+03  0.20323005415E+03  0.12509012355E+03 0.  0.
          5    1    3    3  502    0  0.61222932083E+01 -0.27293207979E+02 -0.74077598323E+01  0.29236090396E+02  0.41800000000E+01 0.  1.
         -5    1    3    3    0  502 -0.23634267358E+02  0.49535762224E+02  0.16505773745E+03  0.17399396376E+03  0.41800000000E+01 0.  1.
        -11    1    1    2    0    0  0.17682672166E+02  0.33084569259E+02 -0.33291279297E+02  0.50155507128E+02  0.00000000000E+00 0.  1.
         11    1    1    2    0    0 -0.17069801606E+00 -0.55327123505E+02 -0.26307262333E+02  0.61263298839E+02  0.00000000000E+00 0. -1.
</event>
<event>
 7    1  0.2594791E-009  0.1097951E+03  0.7561462E-02  0.1260950E+00
          2   -1    0    0  501    0  0.00000000000E+00  0.00000000000E+00  0.32639954553E+02  0.32639954553E+02  0.00000000000E+00 0. -1.
         -2   -1    0    0    0  501 -0.00000000000E+00 -0.00000000000E+00 -0.50600752837E+03  0.50600752837E+03  0.00000000000E+00 0.  1.
         25    2    1    2    0    0  0.59261846943E+02 -0.12811158215E+02 -0.33121460519E+03  0.35920153248E+03  0.12508610623E+03 0.  0.
          5    1    3    3  502    0 -0.22363326938E+02  0.29419962182E+02 -0.43995607542E+02  0.57608492860E+02  0.41800000000E+01 0.  1.
         -5    1    3    3    0  502  0.81625173881E+02 -0.42231120397E+02 -0.28721899764E+03  0.30159303962E+03  0.41800000000E+01 0.  1.
        -11    1    1    2    0    0 -0.16113001803E+02 -0.27162779735E+02 -0.74330277696E+01  0.32445266709E+02  0.00000000000E+00 0.  1.
         11    1    1    2    0    0 -0.43148845140E+02  0.39973937950E+02 -0.13471994087E+03  0.14700068374E+03  0.00000000000E+00 0. -1.
</event>
<event>
 7    1  0.2594791E-009  0.7909454E+02  0.7561462E-02  0.1331641E+00
         -2   -1    0    0    0  501 -0.00000000000E+00  0.00000000000E+00  0.30706753417E+02  0.30706753417E+02  0.00000000000E+00 0. -1.
          2   -1    0    0  501    0  0.00000000000E+00 -0.00000000000E+00 -0.45563912590E+03  0.45563912590E+03  0.00000000000E+00 0.  1.
         25    2    1    2    0    0  0.92966616922E+01  0.42232123124E+02 -0.28150354436E+03  0.31106569840E+03  0.12509053957E+03 0.  0.
          5    1    3    3  502    0  0.59586781350E+01  0.56109059742E+02 -0.40444402912E+02  0.69548217498E+02  0.41800000000E+01 0.  1.
         -5    1    3    3    0  502  0.33379835573E+01 -0.13876936618E+02 -0.24105914145E+03  0.24151748090E+03  0.41800000000E+01 0.  1.
        -11    1    1    2    0    0 -0.44950414191E+01 -0.64146291403E+02 -0.56812239539E+02  0.85805493178E+02  0.00000000000E+00 0. -1.
         11    1    1    2    0    0 -0.48016202731E+01  0.21914168279E+02 -0.86616588580E+02  0.89474687738E+02  0.00000000000E+00 0.  1.
</event>
<event>
 7    1  0.2594791E-009  0.9916601E+02  0.7561462E-02  0.1282060E+00
         -3   -1    0    0    0  501 -0.00000000000E+00  0.00000000000E+00  0.27588485199E+03  0.27588485199E+03  0.00000000000E+00 0.  1.
          3   -1    0    0  501    0  0.00000000000E+00 -0.00000000000E+00 -0.44189488669E+02  0.44189488669E+02  0.00000000000E+00 0. -1.
         25    2    1    2    0    0  0.60526287572E+01 -0.69116751358E+01  0.17232186298E+03  0.21313536191E+03  0.12508977763E+03 0.  0.
          5    1    3    3  502    0  0.57655777432E+02 -0.14049277243E+02  0.13889224941E+03  0.15109632758E+03  0.41800000000E+01 0.  1.
         -5    1    3    3    0  502 -0.51603148675E+02  0.71376021073E+01  0.33429613576E+02  0.62039034332E+02  0.41800000000E+01 0.  1.
        -11    1    1    2    0    0 -0.46087157893E+02  0.89251492191E+00  0.19293643321E+02  0.49970665176E+02  0.00000000000E+00 0. -1.
         11    1    1    2    0    0  0.40034529136E+02  0.60191602138E+01  0.40079857015E+02  0.56968313571E+02  0.00000000000E+00 0.  1.
</event>
<event>
 7    1  0.2594791E-009  0.1461579E+03  0.7561462E-02  0.1205275E+00
         -1   -1    0    0    0  501 -0.00000000000E+00  0.00000000000E+00  0.90607433144E+03  0.90607433144E+03  0.00000000000E+00 0.  1.
          1   -1    0    0  501    0  0.00000000000E+00 -0.00000000000E+00 -0.24752369276E+02  0.24752369276E+02  0.00000000000E+00 0. -1.
         25    2    1    2    0    0 -0.96960090010E+02  0.34230485962E+02  0.46269152402E+03  0.49020798183E+03  0.12508970310E+03 0.  0.
          5    1    3    3  502    0 -0.25249839307E+01  0.57886483135E+02  0.11120071266E+03  0.12546031790E+03  0.41800000000E+01 0.  1.
         -5    1    3    3    0  502 -0.94435106079E+02 -0.23655997174E+02  0.35149081136E+03  0.36474766392E+03  0.41800000000E+01 0.  1.
        -11    1    1    2    0    0  0.10944820477E+03 -0.10481515312E+02  0.35259893308E+03  0.36934371431E+03  0.00000000000E+00 0.  1.
         11    1    1    2    0    0 -0.12488114758E+02 -0.23748970649E+02  0.66031505066E+02  0.71275004583E+02  0.00000000000E+00 0. -1.
</event>
<event>
 7    1  0.2594791E-009  0.9041925E+02  0.7561462E-02  0.1301840E+00
          1   -1    0    0  501    0  0.00000000000E+00  0.00000000000E+00  0.31871525618E+03  0.31871525618E+03  0.00000000000E+00 0. -1.
         -1   -1    0    0    0  501 -0.00000000000E+00 -0.00000000000E+00 -0.43018786203E+02  0.43018786203E+02  0.00000000000E+00 0.  1.
         25    2    1    2    0    0 -0.38742131620E+01  0.15435335592E+01  0.14608452342E+03  0.19236579312E+03  0.12508604380E+03 0.  0.
          5    1    3    3  502    0 -0.67882483605E+01 -0.54096442418E+02  0.11751175825E+03  0.12961092209E+03  0.41800000000E+01 0.  1.
         -5    1    3    3    0  502  0.29140351986E+01  0.55639975977E+02  0.28572765175E+02  0.62754871027E+02  0.41800000000E+01 0.  1.
        -11    1    1    2    0    0 -0.33162350294E+02 -0.22854808374E+01  0.12804686150E+03  0.13229120772E+03  0.00000000000E+00 0. -1.
         11    1    1    2    0    0  0.37036563456E+02  0.74194727812E+00  0.15650850482E+01  0.37077041543E+02  0.00000000000E+00 0.  1.
</event>
<event>
 7    1  0.2594791E-009  0.1179371E+03  0.7561462E-02  0.1246539E+00
          1   -1    0    0  501    0  0.00000000000E+00  0.00000000000E+00  0.75676814931E+03  0.75676814931E+03  0.00000000000E+00 0. -1.
         -1   -1    0    0    0  501 -0.00000000000E+00 -0.00000000000E+00 -0.46325071271E+02  0.46325071271E+02  0.00000000000E+00 0.  1.
         25    2    1    2    0    0  0.68750714133E+02 -0.50108450972E+02  0.64566373741E+03  0.66314835904E+03  0.12508623721E+03 0.  0.
          5    1    3    3  502    0  0.95601548682E+02 -0.23457086798E+02  0.56997705925E+03  0.57842995384E+03  0.41800000000E+01 0. -1.
         -5    1    3    3    0  502 -0.26850834549E+02 -0.26651364173E+02  0.75686678155E+02  0.84718405193E+02  0.41800000000E+01 0. -1.
        -11    1    1    2    0    0 -0.46722658782E+02  0.59233502554E+02  0.81320059013E+02  0.11092595128E+03  0.00000000000E+00 0.  1.
         11    1    1    2    0    0 -0.22028055352E+02 -0.91250515827E+01 -0.16540718377E+02  0.29018910272E+02  0.00000000000E+00 0. -1.
</event>
<event>
 7    1  0.2594791E-009  0.1670255E+03  0.7561462E-02  0.1180986E+00
         -2   -1    0    0    0  501 -0.00000000000E+00  0.00000000000E+00  0.15446773598E+04  0.15446773598E+04  0.00000000000E+00 0. -1.
          2   -1    0    0  501    0  0.00000000000E+00 -0.00000000000E+00 -0.25178483004E+02  0.25178483004E+02  0.00000000000E+00 0.  1.
         25    2    1    2    0    0  0.15717737036E+03 -0.46569945819E+02  0.80283472557E+03  0.82889749847E+03  0.12511586943E+03 0.  0.
          5    1    3    3  502    0  0.10066547733E+02 -0.75153316415E+00 -0.47258339676E+00  0.10935991973E+02  0.41800000000E+01 0. -1.
         -5    1    3    3    0  502  0.14711082262E+03 -0.45818412655E+02  0.80330730897E+03  0.81796150650E+03  0.41800000000E+01 0. -1.
        -11    1    1    2    0    0 -0.52779195480E+02  0.36360234001E+02  0.12943299633E+03  0.14443202772E+03  0.00000000000E+00 0.  1.
         11    1    1    2    0    0 -0.10439817488E+03  0.10209711818E+02  0.58723115490E+03  0.59652631662E+03  0.00000000000E+00 0. -1.
</event>
<event>
 7    1  0.2594791E-009  0.1430839E+03  0.7561462E-02  0.1209239E+00
         -1   -1    0    0    0  501 -0.00000000000E+00  0.00000000000E+00  0.95488343414E+02  0.95488343414E+02  0.00000000000E+00 0.  1.
          1   -1    0    0  501    0  0.00000000000E+00 -0.00000000000E+00 -0.24539753988E+03  0.24539753988E+03  0.00000000000E+00 0. -1.
         25    2    1    2    0    0 -0.10281068566E+03  0.21517307169E+02 -0.54183772311E+02  0.17209452347E+03  0.12509041622E+03 0.  0.
          5    1    3    3  502    0  0.22892377083E+02 -0.20186626463E+02 -0.11502434464E+02  0.32883722646E+02  0.41800000000E+01 0. -1.
         -5    1    3    3    0  502 -0.12570306275E+03  0.41703933632E+02 -0.42681337847E+02  0.13921080082E+03  0.41800000000E+01 0. -1.
        -11    1    1    2    0    0  0.63776091380E+02 -0.44305530769E+02 -0.19328335275E+02  0.80024711389E+02  0.00000000000E+00 0.  1.
         11    1    1    2    0    0  0.39034594283E+02  0.22788223600E+02 -0.76397088879E+02  0.88766648438E+02  0.00000000000E+00 0. -1.
</event>
<event>
 7    1  0.2594791E-009  0.1008907E+03  0.7561462E-02  0.1278434E+00
         -2   -1    0    0    0  501 -0.00000000000E+00  0.00000000000E+00  0.46189904574E+03  0.46189904574E+03  0.00000000000E+00 0.  1.
          2   -1    0    0  501    0  0.00000000000E+00 -0.00000000000E+00 -0.47170522557E+02  0.47170522557E+02  0.00000000000E+00 0. -1.
         25    2    1    2    0    0  0.93598648759E+02 -0.25649337019E+02  0.17706858530E+03  0.23754856942E+03  0.12512970629E+03 0.  0.
          5    1    3    3  502    0  0.83487418425E+02 -0.18682458233E+02  0.19640197424E+03  0.21426710239E+03  0.41800000000E+01 0. -1.
         -5    1    3    3    0  502  0.10111230335E+02 -0.69668787860E+01 -0.19333388947E+02  0.23281467030E+02  0.41800000000E+01 0. -1.
        -11    1    1    2    0    0 -0.57128682350E+02 -0.23509478987E+01  0.21048284676E+03  0.21811061891E+03  0.00000000000E+00 0.  1.
         11    1    1    2    0    0 -0.36469966409E+02  0.28000284918E+02  0.27177091126E+02  0.53410379960E+02  0.00000000000E+00 0. -1.
</event>
<event>
 7    1  0.2594791E-009  0.1062729E+03  0.7561462E-02  0.1267632E+00
         -2   -1    0    0    0  501 -0.00000000000E+00  0.00000000000E+00  0.55787798066E+02  0.55787798066E+02  0.00000000000E+00 0.  1.
          2   -1    0    0  501    0  0.00000000000E+00 -0.00000000000E+00 -0.44984566483E+03  0.44984566483E+03  0.00000000000E+00 0. -1.
         25    2    1    2    0    0 -0.75525650300E+02  0.68486281596E+02 -0.12406921197E+03  0.20355691576E+03  0.12509098279E+03 0.  0.
          5    1    3    3  502    0 -0.28073684181E+00  0.35512310870E+01 -0.10137454729E+03  0.10152320569E+03  0.41800000000E+01 0.  1.
         -5    1    3    3    0  502 -0.75244913459E+02  0.64935050509E+02 -0.22694664681E+02  0.10203371007E+03  0.41800000000E+01 0.  1.
        -11    1    1    2    0    0  0.31495536682E+02 -0.51531446362E+02 -0.54066255118E+02  0.81059353178E+02  0.00000000000E+00 0.  1.
         11    1    1    2    0    0  0.44030113618E+02 -0.16954835234E+02 -0.21592239967E+03  0.22101719395E+03  0.00000000000E+00 0. -1.
</event>
<event>
 7    1  0.2594791E-009  0.1712941E+03  0.7561462E-02  0.1176505E+00
          2   -1    0    0  501    0  0.00000000000E+00  0.00000000000E+00  0.80203507001E+03  0.80203507001E+03  0.00000000000E+00 0. -1.
         -2   -1    0    0    0  501 -0.00000000000E+00 -0.00000000000E+00 -0.43341371458E+02  0.43341371458E+02  0.00000000000E+00 0.  1.
         25    2    1    2    0    0  0.85046574075E+02  0.11107842121E+03  0.52963139827E+03  0.56189898116E+03  0.12509880727E+03 0.  0.
          5    1    3    3  502    0  0.11157060181E+03  0.55923356264E+02  0.38664109151E+03  0.40630558328E+03  0.41800000000E+01 0. -1.
         -5    1    3    3    0  502 -0.26524027740E+02  0.55155064942E+02  0.14299030676E+03  0.15559339788E+03  0.41800000000E+01 0. -1.
        -11    1    1    2    0    0  0.29468871410E+01 -0.48037233122E+02  0.12235099076E+03  0.13147632810E+03  0.00000000000E+00 0.  1.
         11    1    1    2    0    0 -0.87993461216E+02 -0.63041188084E+02  0.10671130952E+03  0.15200113220E+03  0.00000000000E+00 0. -1.
</event>
<event>
 7    1  0.2594791E-009  0.7026182E+02  0.7561462E-02  0.1359205E+00
         -1   -1    0    0    0  501 -0.00000000000E+00  0.00000000000E+00  0.22192484822E+03  0.22192484822E+03  0.00000000000E+00 0.  1.
          1   -1    0    0  501    0  0.00000000000E+00 -0.00000000000E+00 -0.56467500840E+02  0.56467500840E+02  0.00000000000E+00 0. -1.
         25    2    1    2    0    0 -0.26463937259E+02 -0.78704263590E+01  0.94724630067E+02  0.15931858523E+03  0.12508945787E+03 0.  0.
          5    1    3    3  502    0  0.16858738089E+02  0.24250114399E+02  0.10057965887E+03  0.10490960527E+03  0.41800000000E+01 0.  1.
         -5    1    3    3    0  502 -0.43322675348E+02 -0.32120540758E+02 -0.58550288052E+01  0.54408979959E+02  0.41800000000E+01 0.  1.
        -11    1    1    2    0    0 -0.27401101059E+01  0.23376465311E+02  0.81080137976E+02  0.84427223738E+02  0.00000000000E+00 0.  1.
         11    1    1    2    0    0  0.29204047365E+02 -0.15506038952E+02 -0.10347420662E+02  0.34646540099E+02  0.00000000000E+00 0. -1.
</event>
<event>
 7    1  0.2594791E-009  0.8995068E+02  0.7561462E-02  0.1302971E+00
         -2   -1    0    0    0  501 -0.00000000000E+00  0.00000000000E+00  0.32341058185E+02  0.32341058185E+02  0.00000000000E+00 0.  1.
          2   -1    0    0  501    0  0.00000000000E+00 -0.00000000000E+00 -0.38733846744E+03  0.38733846744E+03  0.00000000000E+00 0. -1.
         25    2    1    2    0    0 -0.98580736231E+01 -0.20454312876E+02 -0.16660043852E+03  0.20956770934E+03  0.12508940063E+03 0.  0.
          5    1    3    3  502    0  0.47104560662E+02 -0.28518770795E+02 -0.13002665344E+03  0.14126769952E+03  0.41800000000E+01 0.  1.
         -5    1    3    3    0  502 -0.56962634286E+02  0.80644579190E+01 -0.36573785085E+02  0.68300009822E+02  0.41800000000E+01 0.  1.
        -11    1    1    2    0    0 -0.82113183356E+01 -0.20580725471E+02 -0.69732995824E+01  0.23229699025E+02  0.00000000000E+00 0.  1.
         11    1    1    2    0    0  0.18069391959E+02  0.41035038347E+02 -0.18142367115E+03  0.18688211726E+03  0.00000000000E+00 0. -1.
</event>
<event>
 7    1  0.2594791E-009  0.1460212E+03  0.7561462E-02  0.1205449E+00
          2   -1    0    0  501    0  0.00000000000E+00  0.00000000000E+00  0.31737310545E+02  0.31737310545E+02  0.00000000000E+00 0.  1.
         -2   -1    0    0    0  501 -0.00000000000E+00 -0.00000000000E+00 -0.87454329950E+03  0.87454329950E+03  0.00000000000E+00 0. -1.
         25    2    1    2    0    0 -0.97564782471E+02  0.78355157203E+02 -0.40629580896E+03  0.44315016408E+03  0.12508943242E+03 0.  0.
          5    1    3    3  502    0  0.77361095173E+01  0.36566474285E+02 -0.24515405221E+02  0.44893562180E+02  0.41800000000E+01 0.  1.
         -5    1    3    3    0  502 -0.10530089199E+03  0.41788682918E+02 -0.38178040374E+03  0.39825660190E+03  0.41800000000E+01 0.  1.
        -11    1    1    2    0    0  0.36623074201E+02 -0.70730742176E+02 -0.14714465300E+03  0.16731896593E+03  0.00000000000E+00 0. -1.
         11    1    1    2    0    0  0.60941708270E+02 -0.76244150269E+01 -0.28936552700E+03  0.29581148005E+03  0.00000000000E+00 0.  1.
</event>
<event>
 7    1  0.2594791E-009  0.1235520E+03  0.7561462E-02  0.1237350E+00
         -2   -1    0    0    0  501 -0.00000000000E+00  0.00000000000E+00  0.45614602563E+02  0.45614602563E+02  0.00000000000E+00 0.  1.
          2   -1    0    0  501    0  0.00000000000E+00 -0.00000000000E+00 -0.36561423598E+03  0.36561423598E+03  0.00000000000E+00 0. -1.
         25    2    1    2    0    0 -0.52124217561E+02  0.48611117630E+02 -0.17757379611E+03  0.22860747313E+03  0.12509575888E+03 0.  0.
          5    1    3    3  502    0  0.26544525524E+02 -0.24554486485E+02 -0.42083683050E+02  0.55642101155E+02  0.41800000000E+01 0. -1.
         -5    1    3    3    0  502 -0.78668743085E+02  0.73165604115E+02 -0.13549011306E+03  0.17296537197E+03  0.41800000000E+01 0. -1.
        -11    1    1    2    0    0 -0.14286762848E+02 -0.31530462237E+02 -0.14610281722E+02  0.37573154959E+02  0.00000000000E+00 0.  1.
         11    1    1    2    0    0  0.66410980409E+02 -0.17080655393E+02 -0.12781555558E+03  0.14504821045E+03  0.00000000000E+00 0. -1.
</event>
<event>
 7    1  0.2594791E-009  0.2568613E+03  0.7561462E-02  0.1109044E+00
          3   -1    0    0  501    0  0.00000000000E+00  0.00000000000E+00  0.18085096347E+03  0.18085096347E+03  0.00000000000E+00 0. -1.
         -3   -1    0    0    0  501 -0.00000000000E+00 -0.00000000000E+00 -0.54320153264E+03  0.54320153264E+03  0.00000000000E+00 0.  1.
         25    2    1    2    0    0  0.23591884425E+03  0.53584216573E+02  0.80379441273E+01  0.27247077697E+03  0.12508695544E+03 0.  0.
          5    1    3    3  502    0  0.61995394330E+02  0.73997092399E+02 -0.54959339127E+01  0.96781590662E+02  0.41800000000E+01 0.  1.
         -5    1    3    3    0  502  0.17392344992E+03 -0.20412875825E+02  0.13533878040E+02  0.17568918631E+03  0.41800000000E+01 0.  1.
        -11    1    1    2    0    0 -0.70600097685E+02 -0.16542619504E+02 -0.46734819938E+02  0.86268044187E+02  0.00000000000E+00 0. -1.
         11    1    1    2    0    0 -0.16531874656E+03 -0.37041597069E+02 -0.32365369337E+03  0.36531367495E+03  0.00000000000E+00 0.  1.
</event>
<event>
 7    1  0.2594791E-009  0.1660000E+03  0.7561462E-02  0.1182085E+00
         -1   -1    0    0    0  501 -0.00000000000E+00  0.00000000000E+00  0.42279300562E+03  0.42279300562E+03  0.00000000000E+00 0.  1.
          1   -1    0    0  501    0  0.00000000000E+00 -0.00000000000E+00 -0.81923708222E+02  0.81923708222E+02  0.00000000000E+00 0. -1.
         25    2    1    2    0    0  0.10325869760E+03  0.10616686446E+03  0.21826092606E+03  0.29192064900E+03  0.12508425851E+03 0.  0.
          5    1    3    3  502    0  0.98956119705E+02  0.61563625006E+02  0.67848404090E+02  0.13491950151E+03  0.41800000000E+01 0.  1.
         -5    1    3    3    0  502  0.43025778926E+01  0.44603239453E+02  0.15041252197E+03  0.15700114748E+03  0.41800000000E+01 0.  1.
        -11    1    1    2    0    0 -0.83607553075E+02 -0.25586983414E+02  0.41485374297E+02  0.96777853520E+02  0.00000000000E+00 0. -1.
         11    1    1    2    0    0 -0.19651144523E+02 -0.80579881045E+02  0.81122997047E+02  0.11601821133E+03  0.00000000000E+00 0.  1.
</event>
<event>
 7    1  0.2594791E-009  0.3024017E+03  0.7561462E-02  0.1084046E+00
         -2   -1    0    0    0  501 -0.00000000000E+00  0.00000000000E+00  0.97584271048E+03  0.97584271048E+03  0.00000000000E+00 0. -1.
          2   -1    0    0  501    0  0.00000000000E+00 -0.00000000000E+00 -0.10453434167E+03  0.10453434167E+03  0.00000000000E+00 0.  1.
         25    2    1    2    0    0  0.12429347595E+03  0.25871625092E+03  0.59067779149E+03  0.66852849176E+03  0.12508846586E+03 0.  0.
          5    1    3    3  502    0  0.85107445277E+02  0.25919964114E+03  0.49863849630E+03  0.56840615197E+03  0.41800000000E+01 0. -1.
         -5    1    3    3    0  502  0.39186030676E+02 -0.48339022607E+00  0.92039295189E+02  0.10012233979E+03  0.41800000000E+01 0. -1.
        -11    1    1    2    0    0  0.34432293561E+01 -0.33100477050E+02  0.53663349503E+01  0.33708974475E+02  0.00000000000E+00 0.  1.
         11    1    1    2    0    0 -0.12773670531E+03 -0.22561577387E+03  0.27526424237E+03  0.37813958591E+03  0.00000000000E+00 0. -1.
</event>
<event>
 7    1  0.2922552E-009  0.1054655E+03  0.7561462E-02  0.1269205E+00
         -2   -1    0    0    0  501 -0.00000000000E+00  0.00000000000E+00  0.23303825243E+02  0.23303825243E+02  0.00000000000E+00 0.  1.
          2   -1    0    0  501    0  0.00000000000E+00 -0.00000000000E+00 -0.95575761493E+03  0.95575761493E+03  0.00000000000E+00 0. -1.
         25    2    1    2    0    0  0.29433537874E+02  0.48762191904E+02 -0.78248265059E+03  0.79446293599E+03  0.12509266036E+03 0.  0.
          5    1    3    3  502    0  0.55224648739E+02  0.78004135882E+02 -0.47921837748E+03  0.48867385111E+03  0.41800000000E+01 0. -1.
         -5    1    3    3    0  502 -0.25791110865E+02 -0.29241943978E+02 -0.30326427312E+03  0.30578908489E+03  0.41800000000E+01 0. -1.
        -11    1    1    2    0    0  0.12463911743E+02 -0.98068387587E+00  0.76442276056E+01  0.14654182081E+02  0.00000000000E+00 0.  1.
         11    1    1    2    0    0 -0.41897449616E+02 -0.47781508028E+02 -0.15761536670E+03  0.16994432210E+03  0.00000000000E+00 0. -1.
</event>
<event>
 7    1  0.2594791E-009  0.1056760E+03  0.7561462E-02  0.1268793E+00
         -1   -1    0    0    0  501 -0.00000000000E+00  0.00000000000E+00  0.33770260967E+03  0.33770260967E+03  0.00000000000E+00 0.  1.
          1   -1    0    0  501    0  0.00000000000E+00 -0.00000000000E+00 -0.46949565566E+02  0.46949565566E+02  0.00000000000E+00 0. -1.
         25    2    1    2    0    0  0.30843203575E+02  0.53204853113E+02  0.19009591864E+03  0.23572271000E+03  0.12508668244E+03 0.  0.
          5    1    3    3  502    0  0.75247784489E+02  0.32469799706E+02  0.77586708439E+02  0.11293222166E+03  0.41800000000E+01 0. -1.
         -5    1    3    3    0  502 -0.44404580914E+02  0.20735053407E+02  0.11250921021E+03  0.12279048834E+03  0.41800000000E+01 0. -1.
        -11    1    1    2    0    0 -0.35093155767E+02 -0.97205899576E+01  0.98689943661E+02  0.10519374711E+03  0.00000000000E+00 0.  1.
         11    1    1    2    0    0  0.42499521917E+01 -0.43484263156E+02  0.19671818023E+01  0.43735718127E+02  0.00000000000E+00 0. -1.
</event>
<event>
 7    1  0.2594791E-009  0.1316873E+03  0.7561462E-02  0.1224973E+00
         -1   -1    0    0    0  501 -0.00000000000E+00  0.00000000000E+00  0.91206718556E+02  0.91206718556E+02  0.00000000000E+00 0.  1.
          1   -1    0    0  501    0  0.00000000000E+00 -0.00000000000E+00 -0.30103225642E+03  0.30103225642E+03  0.00000000000E+00 0. -1.
         25    2    1    2    0    0  0.24301907340E+02  0.11753709002E+03 -0.15508279612E+03  0.23260148210E+03  0.12508887078E+03 0.  0.
          5    1    3    3  502    0 -0.80254128607E+01  0.30795905553E+02  0.17615299992E+02  0.36613743925E+02  0.41800000000E+01 0. -1.
         -5    1    3    3    0  502  0.32327320201E+02  0.86741184464E+02 -0.17269809611E+03  0.19598773817E+03  0.41800000000E+01 0. -1.
        -11    1    1    2    0    0  0.37090133140E+01 -0.10937413008E+03 -0.15187136715E+02  0.11048577389E+03  0.00000000000E+00 0.  1.
         11    1    1    2    0    0 -0.28010920654E+02 -0.81629599408E+01 -0.39555605034E+02  0.49151718998E+02  0.00000000000E+00 0. -1.
</event>
<event>
 7    1  0.2594791E-009  0.1310033E+03  0.7561462E-02  0.1225975E+00
          2   -1    0    0  501    0  0.00000000000E+00  0.00000000000E+00  0.20798165511E+03  0.20798165511E+03  0.00000000000E+00 0. -1.
         -2   -1    0    0    0  501 -0.00000000000E+00 -0.00000000000E+00 -0.14642659537E+03  0.14642659537E+03  0.00000000000E+00 0.  1.
         25    2    1    2    0    0 -0.74558766648E+02  0.19708928392E+02 -0.81459346771E+02  0.16801914442E+03  0.12508939272E+03 0.  0.
          5    1    3    3  502    0  0.19675780644E+02  0.41303662362E+02 -0.45853822480E+02  0.64908969368E+02  0.41800000000E+01 0. -1.
         -5    1    3    3    0  502 -0.94234547292E+02 -0.21594733970E+02 -0.35605524291E+02  0.10311017505E+03  0.41800000000E+01 0. -1.
        -11    1    1    2    0    0  0.38508662165E+02 -0.56118545723E+02  0.75783722683E+02  0.10185961349E+03  0.00000000000E+00 0.  1.
         11    1    1    2    0    0  0.36050104483E+02  0.36409617330E+02  0.67230683830E+02  0.84529492579E+02  0.00000000000E+00 0. -1.
</event>
<event>
 7    1  0.2594791E-009  0.2837288E+03  0.7561462E-02  0.1093670E+00
         -2   -1    0    0    0  501 -0.00000000000E+00  0.00000000000E+00  0.48546555008E+02  0.48546555008E+02  0.00000000000E+00 0. -1.
          2   -1    0    0  501    0  0.00000000000E+00 -0.00000000000E+00 -0.17458139404E+04  0.17458139404E+04  0.00000000000E+00 0.  1.
         25    2    1    2    0    0 -0.23218546540E+03  0.13681087571E+03 -0.81405159040E+03  0.86657725111E+03  0.12509530073E+03 0.  0.
          5    1    3    3  502    0 -0.41039139980E+02 -0.22593300903E+02 -0.15950746986E+03  0.16629724471E+03  0.41800000000E+01 0.  1.
         -5    1    3    3    0  502 -0.19114632542E+03  0.15940417661E+03 -0.65454412053E+03  0.70028000640E+03  0.41800000000E+01 0.  1.
        -11    1    1    2    0    0  0.99710919588E+02 -0.40070449908E+02 -0.49144546554E+03  0.50305720752E+03  0.00000000000E+00 0.  1.
         11    1    1    2    0    0  0.13247454581E+03 -0.96740425800E+02 -0.39177032948E+03  0.42472603679E+03  0.00000000000E+00 0. -1.
</event>
<event>
 7    1  0.2594791E-009  0.1758629E+03  0.7561462E-02  0.1171868E+00
         -2   -1    0    0    0  501 -0.00000000000E+00  0.00000000000E+00  0.40532588277E+02  0.40532588277E+02  0.00000000000E+00 0.  1.
          2   -1    0    0  501    0  0.00000000000E+00 -0.00000000000E+00 -0.82816009581E+03  0.82816009581E+03  0.00000000000E+00 0. -1.
         25    2    1    2    0    0 -0.14445964770E+03  0.19507450736E+02 -0.42319085884E+03  0.46474215469E+03  0.12508252033E+03 0.  0.
          5    1    3    3  502    0 -0.16618223971E+03  0.12472160109E+02 -0.39101055364E+03  0.42506330944E+03  0.41800000000E+01 0. -1.
         -5    1    3    3    0  502  0.21722592007E+02  0.70352906279E+01 -0.32180305198E+02  0.39678845249E+02  0.41800000000E+01 0. -1.
        -11    1    1    2    0    0  0.72707912131E+02  0.25571431066E+02 -0.24963743165E+03  0.26126458974E+03  0.00000000000E+00 0.  1.
         11    1    1    2    0    0  0.71751735569E+02 -0.45078881803E+02 -0.11479921704E+03  0.14268593966E+03  0.00000000000E+00 0. -1.
</event>
<event>
 7    1  0.2594791E-009  0.1579925E+03  0.7561462E-02  0.1190982E+00
          2   -1    0    0  501    0  0.00000000000E+00  0.00000000000E+00  0.18766006340E+04  0.18766006340E+04  0.00000000000E+00 0. -1.
         -2   -1    0    0    0  501 -0.00000000000E+00 -0.00000000000E+00 -0.14438012198E+02  0.14438012198E+02  0.00000000000E+00 0.  1.
         25    2    1    2    0    0 -0.64013146283E+02 -0.10455700364E+03  0.11234057776E+04  0.11369773601E+04  0.12508847397E+03 0.  0.
          5    1    3    3  502    0  0.21566041049E+02  0.13299623710E+02  0.27033166570E+03  0.27154862548E+03  0.41800000000E+01 0. -1.
         -5    1    3    3    0  502 -0.85579187332E+02 -0.11785662735E+03  0.85307411189E+03  0.86542873461E+03  0.41800000000E+01 0. -1.
        -11    1    1    2    0    0  0.40105787355E+02  0.29508896806E+01  0.11992194079E+03  0.12648499442E+03  0.00000000000E+00 0.  1.
         11    1    1    2    0    0  0.23907358928E+02  0.10160611396E+03  0.61883490339E+03  0.62757629167E+03  0.00000000000E+00 0. -1.
</event>
<event>
 7    1  0.2594791E-009  0.1213731E+03  0.7561462E-02  0.1240849E+00
         -3   -1    0    0    0  501 -0.00000000000E+00  0.00000000000E+00  0.24837401697E+03  0.24837401697E+03  0.00000000000E+00 0.  1.
          3   -1    0    0  501    0  0.00000000000E+00 -0.00000000000E+00 -0.13016277562E+03  0.13016277562E+03  0.00000000000E+00 0. -1.
         25    2    1    2    0    0 -0.70231009847E+02 -0.69770864617E+02  0.17134247006E+03  0.23410181558E+03  0.12508017317E+03 0.  0.
          5    1    3    3  502    0 -0.92295568691E+02 -0.47162421881E+02  0.63441845652E+02  0.12159402213E+03  0.41800000000E+01 0. -1.
         -5    1    3    3    0  502  0.22064558845E+02 -0.22608442735E+02  0.10790062441E+03  0.11250779345E+03  0.41800000000E+01 0. -1.
        -11    1    1    2    0    0  0.74534964037E+02  0.57476038153E+02 -0.74072014694E+02  0.11977319895E+03  0.00000000000E+00 0. -1.
         11    1    1    2    0    0 -0.43039541904E+01  0.12294826463E+02  0.20940785986E+02  0.24661778061E+02  0.00000000000E+00 0.  1.
</event>
<event>
 7    1  0.2594791E-009  0.1788927E+03  0.7561462E-02  0.1168879E+00
         -1   -1    0    0    0  501 -0.00000000000E+00  0.00000000000E+00  0.17832193998E+03  0.17832193998E+03  0.00000000000E+00 0.  1.
          1   -1    0    0  501    0  0.00000000000E+00 -0.00000000000E+00 -0.23265270405E+03  0.23265270405E+03  0.00000000000E+00 0. -1.
         25    2    1    2    0    0  0.13548424412E+03 -0.91513198922E+02  0.24071747960E+02  0.20726710396E+03  0.12509819084E+03 0.  0.
          5    1    3    3  502    0  0.11307711688E+03 -0.44337892192E+02  0.67675209057E+02  0.13910316088E+03  0.41800000000E+01 0.  1.
         -5    1    3    3    0  502  0.22407127243E+02 -0.47175306730E+02 -0.43603461096E+02  0.68163943078E+02  0.41800000000E+01 0.  1.
        -11    1    1    2    0    0 -0.57475464765E+02 -0.73323761990E+01 -0.54886467775E+01  0.58200670393E+02  0.00000000000E+00 0.  1.
         11    1    1    2    0    0 -0.78008779357E+02  0.98845575121E+02 -0.72913865249E+02  0.14550686968E+03  0.00000000000E+00 0. -1.
</event>
<event>
 7    1  0.2594791E-009  0.1592309E+03  0.7561462E-02  0.1189568E+00
          1   -1    0    0  501    0  0.00000000000E+00  0.00000000000E+00  0.57654755803E+02  0.57654755803E+02  0.00000000000E+00 0. -1.
         -1   -1    0    0    0  501 -0.00000000000E+00 -0.00000000000E+00 -0.56897723253E+03  0.56897723253E+03  0.00000000000E+00 0.  1.
         25    2    1    2    0    0 -0.80533614442E+02 -0.11475414228E+03 -0.33232986663E+03  0.38176627215E+03  0.12509264596E+03 0.  0.
          5    1    3    3  502    0 -0.29198676425E+02 -0.12252948433E+03 -0.17230409975E+03  0.21347649151E+03  0.41800000000E+01 0. -1.
         -5    1    3    3    0  502 -0.51334938017E+02  0.77753420470E+01 -0.16002576688E+03  0.16828978065E+03  0.41800000000E+01 0. -1.
        -11    1    1    2    0    0  0.82656260616E+01  0.86320343009E+01  0.10543078095E+02  0.15937035046E+02  0.00000000000E+00 0. -1.
         11    1    1    2    0    0  0.72267988380E+02  0.10612210798E+03 -0.18953568819E+03  0.22892868113E+03  0.00000000000E+00 0.  1.
</event>
<event>
 7    1  0.2594791E-009  0.1219830E+03  0.7561462E-02  0.1239861E+00
          1   -1    0    0  501    0  0.00000000000E+00  0.00000000000E+00  0.21479067118E+03  0.21479067118E+03  0.00000000000E+00 0. -1.
         -1   -1    0    0    0  501 -0.00000000000E+00 -0.00000000000E+00 -0.73421565577E+02  0.73421565577E+02  0.00000000000E+00 0.  1.
         25    2    1    2    0    0  0.48813916812E+02 -0.39285572743E+02  0.80307429774E+02  0.16131536600E+03  0.12508880577E+03 0.  0.
          5    1    3    3  502    0  0.76610427758E+02 -0.65923321756E+02  0.56755835386E+02  0.11599025495E+03  0.41800000000E+01 0. -1.
         -5    1    3    3    0  502 -0.27796510947E+02  0.26637749013E+02  0.23551594389E+02  0.45325111049E+02  0.41800000000E+01 0. -1.
        -11    1    1    2    0    0  0.23015271210E+02  0.18610823576E+01  0.34777130440E+02  0.41744642027E+02  0.00000000000E+00 0. -1.
         11    1    1    2    0    0 -0.71829188021E+02  0.37424490385E+02  0.26284545394E+02  0.85152228737E+02  0.00000000000E+00 0.  1.
</event>
<event>
 7    1  0.2594791E-009  0.3830782E+03  0.7561462E-02  0.1049802E+00
         -1   -1    0    0    0  501 -0.00000000000E+00  0.00000000000E+00  0.22995027311E+03  0.22995027311E+03  0.00000000000E+00 0.  1.
          1   -1    0    0  501    0  0.00000000000E+00 -0.00000000000E+00 -0.67808290273E+03  0.67808290273E+03  0.00000000000E+00 0. -1.
         25    2    1    2    0    0 -0.19643490979E+03  0.32462464480E+03 -0.21995202659E+03  0.45606399074E+03  0.12509051066E+03 0.  0.
          5    1    3    3  502    0 -0.11581986288E+03  0.21302610843E+03 -0.20495016647E+03  0.31751599431E+03  0.41800000000E+01 0. -1.
         -5    1    3    3    0  502 -0.80615046909E+02  0.11159853637E+03 -0.15001860124E+02  0.13854799643E+03  0.41800000000E+01 0. -1.
        -11    1    1    2    0    0  0.74374659726E+02 -0.64000889285E+02 -0.88224478220E+02  0.13195174268E+03  0.00000000000E+00 0. -1.
         11    1    1    2    0    0  0.12206025006E+03 -0.26062375551E+03 -0.13995612480E+03  0.32001744242E+03  0.00000000000E+00 0.  1.
</event>
<event>
 7    1  0.2594791E-009  0.1028221E+03  0.7561462E-02  0.1274471E+00
         -3   -1    0    0    0  501 -0.00000000000E+00  0.00000000000E+00  0.19278442494E+03  0.19278442494E+03  0.00000000000E+00 0.  1.
          3   -1    0    0  501    0  0.00000000000E+00 -0.00000000000E+00 -0.98297227382E+02  0.98297227382E+02  0.00000000000E+00 0. -1.
         25    2    1    2    0    0 -0.75844755271E+02  0.31947235688E+02  0.32870470351E+02  0.15330086180E+03  0.12509050179E+03 0.  0.
          5    1    3    3  502    0 -0.70524925526E+02  0.15694808905E+02 -0.36976108851E+02  0.81269903241E+02  0.41800000000E+01 0. -1.
         -5    1    3    3    0  502 -0.53198297446E+01  0.16252426783E+02  0.69846579202E+02  0.72030958560E+02  0.41800000000E+01 0. -1.
        -11    1    1    2    0    0  0.55374841167E+02  0.20750492883E+02  0.76567249174E+01  0.59628696327E+02  0.00000000000E+00 0. -1.
         11    1    1    2    0    0  0.20469914104E+02 -0.52697728571E+02  0.53960002292E+02  0.78152094197E+02  0.00000000000E+00 0.  1.
</event>
<event>
 7    1  0.2594791E-009  0.1112781E+03  0.7561462E-02  0.1258221E+00
         -2   -1    0    0    0  501 -0.00000000000E+00  0.00000000000E+00  0.13165006297E+03  0.13165006297E+03  0.00000000000E+00 0.  1.
          2   -1    0    0  501    0  0.00000000000E+00 -0.00000000000E+00 -0.21275359870E+03  0.21275359870E+03  0.00000000000E+00 0. -1.
         25    2    1    2    0    0  0.37674085035E+02 -0.12841701404E+02 -0.16742989995E+03  0.21275639158E+03  0.12509302452E+03 0.  0.
          5    1    3    3  502    0 -0.17219770438E+02  0.43877671480E+02 -0.92204173303E+02  0.10363808433E+03  0.41800000000E+01 0.  1.
         -5    1    3    3    0  502  0.54893855473E+02 -0.56719372885E+02 -0.75225726647E+02  0.10911830726E+03  0.41800000000E+01 0.  1.
        -11    1    1    2    0    0 -0.17816972901E+02  0.50537303994E+02  0.64244739578E+02  0.83659130893E+02  0.00000000000E+00 0.  1.
         11    1    1    2    0    0 -0.19857112134E+02 -0.37695602589E+02  0.22081624639E+02  0.47988139197E+02  0.00000000000E+00 0. -1.
</event>
<event>
 7    1  0.2594791E-009  0.1062686E+03  0.7561462E-02  0.1267640E+00
          1   -1    0    0  501    0  0.00000000000E+00  0.00000000000E+00  0.31665279100E+03  0.31665279100E+03  0.00000000000E+00 0. -1.
         -1   -1    0    0    0  501 -0.00000000000E+00 -0.00000000000E+00 -0.37505200342E+02  0.37505200342E+02  0.00000000000E+00 0.  1.
         25    2    1    2    0    0 -0.10456354434E+02  0.13800719153E+02  0.15634628475E+03  0.20097821044E+03  0.12509310580E+03 0.  0.
          5    1    3    3  502    0  0.28467136124E+02 -0.46000447240E+02  0.58256014773E+02  0.79609387905E+02  0.41800000000E+01 0.  1.
         -5    1    3    3    0  502 -0.38923490558E+02  0.59801166393E+02  0.98090269981E+02  0.12136882254E+03  0.41800000000E+01 0.  1.
        -11    1    1    2    0    0  0.44563985100E+02  0.94121983981E+01  0.39783732572E+02  0.60475479527E+02  0.00000000000E+00 0.  1.
         11    1    1    2    0    0 -0.34107630666E+02 -0.23212917551E+02  0.83017573337E+02  0.92704301376E+02  0.00000000000E+00 0. -1.
</event>
<event>
 7    1  0.2594791E-009  0.8497564E+02  0.7561462E-02  0.1315496E+00
          2   -1    0    0  501    0  0.00000000000E+00  0.00000000000E+00  0.10328348221E+03  0.10328348221E+03  0.00000000000E+00 0. -1.
         -2   -1    0    0    0  501 -0.00000000000E+00 -0.00000000000E+00 -0.17040549292E+03  0.17040549292E+03  0.00000000000E+00 0.  1.
         25    2    1    2    0    0  0.64125038409E+02  0.84854918704E+01  0.14085248952E+01  0.14083362263E+03  0.12509237066E+03 0.  0.
          5    1    3    3  502    0  0.29438071749E+02  0.38279224643E+02 -0.51538386549E+02  0.70750101029E+02  0.41800000000E+01 0.  1.
         -5    1    3    3    0  502  0.34686966660E+02 -0.29793732773E+02  0.52946911444E+02  0.70083521602E+02  0.41800000000E+01 0.  1.
        -11    1    1    2    0    0 -0.10735202744E+02 -0.18360969336E+02  0.19873692887E+02  0.29108992457E+02  0.00000000000E+00 0. -1.
         11    1    1    2    0    0 -0.53389835665E+02  0.98754774657E+01 -0.88404228485E+02  0.10374636004E+03  0.00000000000E+00 0.  1.
</event>
<event>
 7    1  0.2594791E-009  0.1407326E+03  0.7561462E-02  0.1212347E+00
         -3   -1    0    0    0  501 -0.00000000000E+00  0.00000000000E+00  0.30685785627E+02  0.30685785627E+02  0.00000000000E+00 0.  1.
          3   -1    0    0  501    0  0.00000000000E+00 -0.00000000000E+00 -0.94887519551E+03  0.94887519551E+03  0.00000000000E+00 0. -1.
         25    2    1    2    0    0  0.69351788442E+02 -0.79948068565E+02 -0.71414019294E+03  0.73269762989E+03  0.12509291528E+03 0.  0.
          5    1    3    3  502    0  0.90119632123E+02 -0.19787345494E+02 -0.52580818178E+03  0.53385841153E+03  0.41800000000E+01 0. -1.
         -5    1    3    3    0  502 -0.20767843680E+02 -0.60160723071E+02 -0.18833201116E+03  0.19883921837E+03  0.41800000000E+01 0. -1.
        -11    1    1    2    0    0 -0.17392079885E+02  0.70370218877E+02 -0.62277528945E+02  0.95566431130E+02  0.00000000000E+00 0.  1.
         11    1    1    2    0    0 -0.51959708557E+02  0.95778496873E+01 -0.14177168800E+03  0.15129692011E+03  0.00000000000E+00 0. -1.
</event>
<event>
 7    1  0.2594791E-009  0.2436484E+03  0.7561462E-02  0.1117386E+00
          2   -1    0    0  501    0  0.00000000000E+00  0.00000000000E+00  0.20307104016E+04  0.20307104016E+04  0.00000000000E+00 0. -1.
         -2   -1    0    0    0  501 -0.00000000000E+00 -0.00000000000E+00 -0.31619189446E+02  0.31619189446E+02  0.00000000000E+00 0.  1.
         25    2    1    2    0    0 -0.37628482658E+02  0.22067856216E+03  0.12235418581E+04  0.12501268260E+04  0.12508985589E+03 0.  0.
          5    1    3    3  502    0 -0.66149412885E+02  0.86547581613E+02  0.72100297306E+03  0.72919749607E+03  0.41800000000E+01 0. -1.
         -5    1    3    3    0  502  0.28520930227E+02  0.13413098055E+03  0.50253888506E+03  0.52092932995E+03  0.41800000000E+01 0. -1.
        -11    1    1    2    0    0  0.34152848846E+02 -0.18422016103E+02  0.13563472518E+03  0.14107645599E+03  0.00000000000E+00 0.  1.
         11    1    1    2    0    0  0.34756338120E+01 -0.20225654606E+03  0.63991462884E+03  0.67112630902E+03  0.00000000000E+00 0. -1.
</event>
<event>
 7    1  0.2594791E-009  0.2264446E+03  0.7561462E-02  0.1129168E+00
          2   -1    0    0  501    0  0.00000000000E+00  0.00000000000E+00  0.20833259874E+03  0.20833259874E+03  0.00000000000E+00 0. -1.
         -2   -1    0    0    0  501 -0.00000000000E+00 -0.00000000000E+00 -0.31784565180E+03  0.31784565180E+03  0.00000000000E+00 0.  1.
         25    2    1    2    0    0  0.15089176802E+03  0.16044250096E+03 -0.13408672275E+03  0.28659213104E+03  0.12508268699E+03 0.  0.
          5    1    3    3  502    0  0.43912345390E+02  0.31660293920E+02  0.21119236445E+02  0.58259444185E+02  0.41800000000E+01 0.  1.
         -5    1    3    3    0  502  0.10697942263E+03  0.12878220704E+03 -0.15520595920E+03  0.22833268686E+03  0.41800000000E+01 0.  1.
        -11    1    1    2    0    0 -0.54524910200E+02 -0.10901319007E+03 -0.16266728158E+02  0.12296929652E+03  0.00000000000E+00 0.  1.
         11    1    1    2    0    0 -0.96366857823E+02 -0.51429310896E+02  0.40840397855E+02  0.11661682298E+03  0.00000000000E+00 0. -1.
</event>
<event>
 7    1  0.2594791E-009  0.1451436E+03  0.7561462E-02  0.1206571E+00
         -2   -1    0    0    0  501 -0.00000000000E+00  0.00000000000E+00  0.25748633047E+02  0.25748633047E+02  0.00000000000E+00 0. -1.
          2   -1    0    0  501    0  0.00000000000E+00 -0.00000000000E+00 -0.94824784960E+03  0.94824784960E+03  0.00000000000E+00 0.  1.
         25    2    1    2    0    0  0.58081960169E+02  0.93173703043E+02 -0.49859392447E+03  0.52564086418E+03  0.12509022158E+03 0.  0.
          5    1    3    3  502    0  0.88929436697E+02  0.54797064019E+02 -0.41990727634E+03  0.43272480408E+03  0.41800000000E+01 0. -1.
         -5    1    3    3    0  502 -0.30847476528E+02  0.38376639024E+02 -0.78686648130E+02  0.92916060102E+02  0.41800000000E+01 0. -1.
        -11    1    1    2    0    0 -0.57695774892E+02 -0.16986600450E+02 -0.27008934723E+03  0.27670490152E+03  0.00000000000E+00 0.  1.
         11    1    1    2    0    0 -0.38618527658E+00 -0.76187102593E+02 -0.15381594484E+03  0.17165071695E+03  0.00000000000E+00 0. -1.
</event>
<event>
 7    1  0.2594791E-009  0.1104646E+03  0.7561462E-02  0.1259712E+00
          2   -1    0    0  501    0  0.00000000000E+00  0.00000000000E+00  0.11672373618E+04  0.11672373618E+04  0.00000000000E+00 0. -1.
         -2   -1    0    0    0  501 -0.00000000000E+00 -0.00000000000E+00 -0.11167624159E+02  0.11167624159E+02  0.00000000000E+00 0.  1.
         25    2    1    2    0    0  0.30084308547E+02 -0.30169638334E+02  0.78190104509E+03  0.79299182718E+03  0.12510603883E+03 0.  0.
          5    1    3    3  502    0  0.25931792522E+02  0.47494900155E+02  0.32129668849E+03  0.32584851977E+03  0.41800000000E+01 0. -1.
         -5    1    3    3    0  502  0.41525160251E+01 -0.77664538489E+02  0.46060435661E+03  0.46714330740E+03  0.41800000000E+01 0. -1.
        -11    1    1    2    0    0  0.21697175798E+02 -0.93519958291E+01  0.58453818207E+02  0.63048204785E+02  0.00000000000E+00 0.  1.
         11    1    1    2    0    0 -0.51781484345E+02  0.39521634163E+02  0.31571487439E+03  0.32236495405E+03  0.00000000000E+00 0. -1.
</event>
<event>
 7    1  0.2594791E-009  0.1201398E+03  0.7561462E-02  0.1242867E+00
         -2   -1    0    0    0  501 -0.00000000000E+00  0.00000000000E+00  0.42798922566E+02  0.42798922566E+02  0.00000000000E+00 0.  1.
          2   -1    0    0  501    0  0.00000000000E+00 -0.00000000000E+00 -0.49495498514E+03  0.49495498514E+03  0.00000000000E+00 0. -1.
         25    2    1    2    0    0 -0.10563799885E+03 -0.70554420449E+01 -0.25777615462E+03  0.30545781704E+03  0.12508703384E+03 0.  0.
          5    1    3    3  502    0 -0.80659205726E+02  0.14320531349E+02 -0.52201451845E+02  0.97228848914E+02  0.41800000000E+01 0.  1.
         -5    1    3    3    0  502 -0.24978793128E+02 -0.21375973394E+02 -0.20557470278E+03  0.20822896812E+03  0.41800000000E+01 0.  1.
        -11    1    1    2    0    0  0.36914179276E+02 -0.29514790753E+02 -0.94513652716E+02  0.10567218203E+03  0.00000000000E+00 0.  1.
         11    1    1    2    0    0  0.68723819579E+02  0.36570232798E+02 -0.99866255239E+02  0.12662390864E+03  0.00000000000E+00 0. -1.
</event>
<event>
 7    1  0.2594791E-009  0.9099231E+02  0.7561462E-02  0.1300466E+00
          1   -1    0    0  501    0  0.00000000000E+00  0.00000000000E+00  0.37298011472E+03  0.37298011472E+03  0.00000000000E+00 0. -1.
         -1   -1    0    0    0  501 -0.00000000000E+00 -0.00000000000E+00 -0.53573957883E+02  0.53573957883E+02  0.00000000000E+00 0.  1.
         25    2    1    2    0    0 -0.69733100393E+02 -0.11250882109E+02  0.87840326971E+02  0.16838337755E+03  0.12509097151E+03 0.  0.
          5    1    3    3  502    0 -0.51418918331E+02  0.66279543493E+01 -0.21299513056E+02  0.56204773797E+02  0.41800000000E+01 0.  1.
         -5    1    3    3    0  502 -0.18314182062E+02 -0.17878836459E+02  0.10913984003E+03  0.11217860375E+03  0.41800000000E+01 0.  1.
        -11    1    1    2    0    0  0.68787303742E+02 -0.20885800395E+02  0.10273632568E+03  0.12539004118E+03  0.00000000000E+00 0.  1.
         11    1    1    2    0    0  0.94579665087E+00  0.32136682504E+02  0.12882950419E+03  0.13278065388E+03  0.00000000000E+00 0. -1.
</event>
<event>
 7    1  0.2594791E-009  0.8413597E+02  0.7561462E-02  0.1317708E+00
          1   -1    0    0  501    0  0.00000000000E+00  0.00000000000E+00  0.17992382620E+03  0.17992382620E+03  0.00000000000E+00 0. -1.
         -1   -1    0    0    0  501 -0.00000000000E+00 -0.00000000000E+00 -0.99867901939E+02  0.99867901939E+02  0.00000000000E+00 0.  1.
         25    2    1    2    0    0  0.19130198665E+02  0.32686592186E+02  0.11502117437E+03  0.17410160447E+03  0.12508844997E+03 0.  0.
          5    1    3    3  502    0  0.54531822993E+01  0.74548077258E+02  0.10463972374E+03  0.12866272656E+03  0.41800000000E+01 0.  1.
         -5    1    3    3    0  502  0.13677016366E+02 -0.41861485072E+02  0.10381450625E+02  0.45438877915E+02  0.41800000000E+01 0.  1.
        -11    1    1    2    0    0  0.16842187273E+01 -0.27721262746E+02  0.27849468509E+02  0.39330622894E+02  0.00000000000E+00 0. -1.
         11    1    1    2    0    0 -0.20814417393E+02 -0.49653294395E+01 -0.62814718617E+02  0.66359500773E+02  0.00000000000E+00 0.  1.
</event>
<event>
 7    1  0.2594791E-009  0.1024940E+03  0.7561462E-02  0.1275137E+00
         -1   -1    0    0    0  501 -0.00000000000E+00  0.00000000000E+00  0.28078516192E+02  0.28078516192E+02  0.00000000000E+00 0.  1.
          1   -1    0    0  501    0  0.00000000000E+00 -0.00000000000E+00 -0.54022300622E+03  0.54022300622E+03  0.00000000000E+00 0. -1.
         25    2    1    2    0    0 -0.48553945083E+02  0.26513490756E+02 -0.31693947514E+03  0.34519392508E+03  0.12509102381E+03 0.  0.
          5    1    3    3  502    0 -0.27605815602E+02 -0.27362791304E+02 -0.26342351426E+03  0.26630851220E+03  0.41800000000E+01 0.  1.
         -5    1    3    3    0  502 -0.20948129481E+02  0.53876282060E+02 -0.53515960874E+02  0.78885412882E+02  0.41800000000E+01 0.  1.
        -11    1    1    2    0    0 -0.24902015359E+02  0.88309666839E+01 -0.51972615096E+02  0.58303079348E+02  0.00000000000E+00 0.  1.
         11    1    1    2    0    0  0.73455960442E+02 -0.35344457440E+02 -0.14323239979E+03  0.16480451798E+03  0.00000000000E+00 0. -1.
</event>
<event>
 7    1  0.2594791E-009  0.1321530E+03  0.7561462E-02  0.1224296E+00
         -2   -1    0    0    0  501 -0.00000000000E+00  0.00000000000E+00  0.85091617753E+02  0.85091617753E+02  0.00000000000E+00 0.  1.
          2   -1    0    0  501    0  0.00000000000E+00 -0.00000000000E+00 -0.24785335554E+03  0.24785335554E+03  0.00000000000E+00 0. -1.
         25    2    1    2    0    0  0.39399529165E+02  0.85774467264E+02 -0.67356762476E+02  0.17056693205E+03  0.12508622116E+03 0.  0.
          5    1    3    3  502    0  0.58484233905E+02  0.11040566559E+03 -0.49845792378E+02  0.13458042958E+03  0.41800000000E+01 0. -1.
         -5    1    3    3    0  502 -0.19084704740E+02 -0.24631198324E+02 -0.17510970098E+02  0.35986502465E+02  0.41800000000E+01 0. -1.
        -11    1    1    2    0    0 -0.36846910524E+02 -0.19791642973E+02  0.50857905738E+01  0.42133943709E+02  0.00000000000E+00 0. -1.
         11    1    1    2    0    0 -0.25526186409E+01 -0.65982824291E+02 -0.10049076588E+03  0.12024409753E+03  0.00000000000E+00 0.  1.
</event>
<event>
 7    1  0.2594791E-009  0.9438749E+02  0.7561462E-02  0.1292562E+00
          1   -1    0    0  501    0  0.00000000000E+00  0.00000000000E+00  0.29013661472E+03  0.29013661472E+03  0.00000000000E+00 0.  1.
         -1   -1    0    0    0  501 -0.00000000000E+00 -0.00000000000E+00 -0.48876831620E+02  0.48876831620E+02  0.00000000000E+00 0. -1.
         25    2    1    2    0    0  0.13970489003E+02 -0.53351836044E+02  0.16213670681E+03  0.21207855246E+03  0.12508959888E+03 0.  0.
          5    1    3    3  502    0 -0.36874266687E+02  0.80734027976E+01  0.84801321559E+01  0.38913704755E+02  0.41800000000E+01 0. -1.
         -5    1    3    3    0  502  0.50844755690E+02 -0.61425238842E+02  0.15365657465E+03  0.17316484771E+03  0.41800000000E+01 0. -1.
        -11    1    1    2    0    0  0.14761366637E+02  0.31710935959E+02  0.83661838206E+02  0.90679570888E+02  0.00000000000E+00 0.  1.
         11    1    1    2    0    0 -0.28731855640E+02  0.21640900085E+02 -0.45387619171E+01  0.36255322985E+02  0.00000000000E+00 0. -1.
</event>
<event>
 7    1  0.2594791E-009  0.2182145E+03  0.7561462E-02  0.1135221E+00
          1   -1    0    0  501    0  0.00000000000E+00  0.00000000000E+00  0.35918650808E+03  0.35918650808E+03  0.00000000000E+00 0. -1.
         -1   -1    0    0    0  501 -0.00000000000E+00 -0.00000000000E+00 -0.15187608952E+03  0.15187608952E+03  0.00000000000E+00 0.  1.
         25    2    1    2    0    0 -0.16676180331E+03  0.11473828316E+03  0.56952965447E+02  0.24467580943E+03  0.12509292059E+03 0.  0.
          5    1    3    3  502    0 -0.17852539441E+03  0.12144508871E+03  0.68322032404E+02  0.22650739178E+03  0.41800000000E+01 0.  1.
         -5    1    3    3    0  502  0.11763591100E+02 -0.67068055514E+01 -0.11369066957E+02  0.18168417646E+02  0.41800000000E+01 0.  1.
        -11    1    1    2    0    0  0.14696636784E+03 -0.82693345104E+02  0.80146283558E+02  0.18671028190E+03  0.00000000000E+00 0. -1.
         11    1    1    2    0    0  0.19795435469E+02 -0.32044938057E+02  0.70211169561E+02  0.79676506271E+02  0.00000000000E+00 0.  1.
</event>
<event>
 7    1  0.2594791E-009  0.8503477E+02  0.7561462E-02  0.1315342E+00
         -2   -1    0    0    0  501 -0.00000000000E+00  0.00000000000E+00  0.12939561484E+03  0.12939561484E+03  0.00000000000E+00 0. -1.
          2   -1    0    0  501    0  0.00000000000E+00 -0.00000000000E+00 -0.14262906052E+03  0.14262906052E+03  0.00000000000E+00 0.  1.
         25    2    1    2    0    0 -0.34005242206E+02  0.40776687268E+02  0.53210454416E+02  0.14593969412E+03  0.12509175488E+03 0.  0.
          5    1    3    3  502    0 -0.60005604570E+01 -0.31392250905E+02  0.60008595858E+02  0.68117428897E+02  0.41800000000E+01 0.  1.
         -5    1    3    3    0  502 -0.28004681749E+02  0.72168938173E+02 -0.67981414424E+01  0.77822265220E+02  0.41800000000E+01 0.  1.
        -11    1    1    2    0    0  0.20076184612E+02 -0.41773440923E+02  0.10799925092E+02  0.47588989662E+02  0.00000000000E+00 0. -1.
         11    1    1    2    0    0  0.13929057594E+02  0.99675365410E+00 -0.77243825190E+02  0.78495991575E+02  0.00000000000E+00 0.  1.
</event>
<event>
 7    1  0.2594791E-009  0.1184145E+03  0.7561462E-02  0.1245736E+00
         -2   -1    0    0    0  501 -0.00000000000E+00  0.00000000000E+00  0.20580989184E+03  0.20580989184E+03  0.00000000000E+00 0.  1.
          2   -1    0    0  501    0  0.00000000000E+00 -0.00000000000E+00 -0.15572785925E+03  0.15572785925E+03  0.00000000000E+00 0. -1.
         25    2    1    2    0    0 -0.63290387744E+02 -0.10400980472E+02  0.15759047890E+03  0.21117813442E+03  0.12509033473E+03 0.  0.
          5    1    3    3  502    0  0.14129169496E+02  0.43337620057E+02  0.59731330382E+02  0.75253484784E+02  0.41800000000E+01 0.  1.
         -5    1    3    3    0  502 -0.77419557241E+02 -0.53738600529E+02  0.97859148514E+02  0.13592464963E+03  0.41800000000E+01 0.  1.
        -11    1    1    2    0    0  0.77960899606E+02 -0.12733143217E+01 -0.10594735233E+03  0.13154605529E+03  0.00000000000E+00 0.  1.
         11    1    1    2    0    0 -0.14670511862E+02  0.11674294794E+02 -0.15610939775E+01  0.18813561375E+02  0.00000000000E+00 0. -1.
</event>
<event>
 7    1  0.2594791E-009  0.9386570E+02  0.7561462E-02  0.1293751E+00
          2   -1    0    0  501    0  0.00000000000E+00  0.00000000000E+00  0.23937940644E+02  0.23937940644E+02  0.00000000000E+00 0. -1.
         -2   -1    0    0    0  501 -0.00000000000E+00 -0.00000000000E+00 -0.54899970104E+03  0.54899970104E+03  0.00000000000E+00 0.  1.
         25    2    1    2    0    0 -0.15126539747E+02  0.26362959061E+02 -0.24277456629E+03  0.27479051980E+03  0.12508605806E+03 0.  0.
          5    1    3    3  502    0  0.44686573722E+02  0.67037723466E+01 -0.34041678654E+02  0.56728641093E+02  0.41800000000E+01 0. -1.
         -5    1    3    3    0  502 -0.59813113469E+02  0.19659186715E+02 -0.20873288763E+03  0.21806187870E+03  0.41800000000E+01 0. -1.
        -11    1    1    2    0    0 -0.29034585445E+02 -0.27235827559E+01 -0.33710182490E+02  0.44573551109E+02  0.00000000000E+00 0. -1.
         11    1    1    2    0    0  0.44161125192E+02 -0.23639376305E+02 -0.24857701162E+03  0.25357357078E+03  0.00000000000E+00 0.  1.
</event>
<event>
 7    1  0.2594791E-009  0.1752548E+03  0.7561462E-02  0.1172476E+00
          2   -1    0    0  501    0  0.00000000000E+00  0.00000000000E+00  0.17472113500E+04  0.17472113500E+04  0.00000000000E+00 0. -1.
         -2   -1    0    0    0  501 -0.00000000000E+00 -0.00000000000E+00 -0.21361871522E+02  0.21361871522E+02  0.00000000000E+00 0.  1.
         25    2    1    2    0    0 -0.96412052207E+02 -0.11633125204E+03  0.11529392720E+04  0.11695040295E+04  0.12506984529E+03 0.  0.
          5    1    3    3  502    0 -0.36433079872E+02 -0.12076277661E+03  0.59012160833E+03  0.60346665404E+03  0.41800000000E+01 0. -1.
         -5    1    3    3    0  502 -0.59978972335E+02  0.44315245687E+01  0.56281766366E+03  0.56603737550E+03  0.41800000000E+01 0. -1.
        -11    1    1    2    0    0  0.63253246472E+02  0.11449351887E+03  0.52307791195E+03  0.53918479302E+03  0.00000000000E+00 0. -1.
         11    1    1    2    0    0  0.33158805735E+02  0.18377331686E+01  0.49832294573E+02  0.59884398999E+02  0.00000000000E+00 0.  1.
</event>
<event>
 7    1  0.2594791E-009  0.1427365E+03  0.7561462E-02  0.1209693E+00
         -2   -1    0    0    0  501 -0.00000000000E+00  0.00000000000E+00  0.75792252886E+02  0.75792252886E+02  0.00000000000E+00 0. -1.
          2   -1    0    0  501    0  0.00000000000E+00 -0.00000000000E+00 -0.41115177604E+03  0.41115177604E+03  0.00000000000E+00 0.  1.
         25    2    1    2    0    0  0.46713520835E+02 -0.11143814136E+03 -0.90291476363E+02  0.19596045144E+03  0.12508930988E+03 0.  0.
          5    1    3    3  502    0  0.29542101587E+02  0.13038477949E+02 -0.57419579952E+02  0.66009228410E+02  0.41800000000E+01 0. -1.
         -5    1    3    3    0  502  0.17171419248E+02 -0.12447661930E+03 -0.32871896411E+02  0.12995122303E+03  0.41800000000E+01 0. -1.
        -11    1    1    2    0    0 -0.26514083334E+02  0.19129956275E+02 -0.16169758633E+03  0.16496987988E+03  0.00000000000E+00 0.  1.
         11    1    1    2    0    0 -0.20199437500E+02  0.92308185081E+02 -0.83370460463E+02  0.12601369761E+03  0.00000000000E+00 0. -1.
</event>
<event>
 7    1  0.2594791E-009  0.8656429E+02  0.7561462E-02  0.1311392E+00
         -2   -1    0    0    0  501 -0.00000000000E+00  0.00000000000E+00  0.10015197074E+03  0.10015197074E+03  0.00000000000E+00 0.  1.
          2   -1    0    0  501    0  0.00000000000E+00 -0.00000000000E+00 -0.22195429467E+03  0.22195429467E+03  0.00000000000E+00 0. -1.
         25    2    1    2    0    0 -0.16459326474E+02 -0.70938138906E+01 -0.17445476854E+03  0.21541403358E+03  0.12508999951E+03 0.  0.
          5    1    3    3  502    0  0.41976625518E+02  0.51231665805E+00 -0.14032855695E+02  0.44460015713E+02  0.41800000000E+01 0.  1.
         -5    1    3    3    0  502 -0.58435951991E+02 -0.76061305486E+01 -0.16042191284E+03  0.17095401787E+03  0.41800000000E+01 0.  1.
        -11    1    1    2    0    0 -0.27510403880E+02  0.37960209165E+01  0.55963195478E+02  0.62474885711E+02  0.00000000000E+00 0.  1.
         11    1    1    2    0    0  0.43969730354E+02  0.32977929740E+01 -0.33107508654E+01  0.44217346112E+02  0.00000000000E+00 0. -1.
</event>
<event>
 7    1  0.2594791E-009  0.1672016E+03  0.7561462E-02  0.1180798E+00
         -2   -1    0    0    0  501 -0.00000000000E+00  0.00000000000E+00  0.38900801126E+02  0.38900801126E+02  0.00000000000E+00 0. -1.
          2   -1    0    0  501    0  0.00000000000E+00 -0.00000000000E+00 -0.88715845965E+03  0.88715845965E+03  0.00000000000E+00 0.  1.
         25    2    1    2    0    0 -0.10000425329E+03 -0.11053835289E+03 -0.39984312852E+03  0.44468089936E+03  0.12508795584E+03 0.  0.
          5    1    3    3  502    0 -0.19119158153E+02 -0.76078821918E+02 -0.30640260954E+03  0.31631244187E+03  0.41800000000E+01 0.  1.
         -5    1    3    3    0  502 -0.80885095139E+02 -0.34459530969E+02 -0.93440518984E+02  0.12836845749E+03  0.41800000000E+01 0.  1.
        -11    1    1    2    0    0  0.69685262542E+02  0.11760191498E+03 -0.29915943528E+03  0.32891125542E+03  0.00000000000E+00 0. -1.
         11    1    1    2    0    0  0.30318990751E+02 -0.70635620972E+01 -0.14925509473E+03  0.15246710600E+03  0.00000000000E+00 0.  1.
</event>
<event>
 7    1  0.2594791E-009  0.1040854E+03  0.7561462E-02  0.1271932E+00
          1   -1    0    0  501    0  0.00000000000E+00  0.00000000000E+00  0.50197728919E+03  0.50197728919E+03  0.00000000000E+00 0. -1.
         -1   -1    0    0    0  501 -0.00000000000E+00 -0.00000000000E+00 -0.30461003054E+02  0.30461003054E+02  0.00000000000E+00 0.  1.
         25    2    1    2    0    0 -0.46124782580E+02  0.22216086541E+02  0.32999655801E+03  0.35660375894E+03  0.12508981781E+03 0.  0.
          5    1    3    3  502    0  0.29525777070E+02  0.10578322955E+02  0.22156726454E+03  0.22381509677E+03  0.41800000000E+01 0.  1.
         -5    1    3    3    0  502 -0.75650559649E+02  0.11637763586E+02  0.10842929347E+03  0.13278866217E+03  0.41800000000E+01 0.  1.
        -11    1    1    2    0    0 -0.24522061134E+02 -0.15270197997E+02  0.66755420690E+02  0.72737862359E+02  0.00000000000E+00 0.  1.
         11    1    1    2    0    0  0.70646843713E+02 -0.69458885440E+01  0.74764307437E+02  0.10309667095E+03  0.00000000000E+00 0. -1.
</event>
<event>
 7    1  0.2594791E-009  0.1178700E+03  0.7561462E-02  0.1246653E+00
         -2   -1    0    0    0  501 -0.00000000000E+00  0.00000000000E+00  0.79424657274E+02  0.79424657274E+02  0.00000000000E+00 0.  1.
          2   -1    0    0  501    0  0.00000000000E+00 -0.00000000000E+00 -0.19055484458E+03  0.19055484458E+03  0.00000000000E+00 0. -1.
         25    2    1    2    0    0  0.40299498612E+02  0.17606356626E+02 -0.31363702149E+02  0.13625745736E+03  0.12509348301E+03 0.  0.
          5    1    3    3  502    0 -0.44973618401E+02  0.11241354761E+02 -0.16381865581E+02  0.49344020193E+02  0.41800000000E+01 0.  1.
         -5    1    3    3    0  502  0.85273117012E+02  0.63650018648E+01 -0.14981836568E+02  0.86913437170E+02  0.41800000000E+01 0.  1.
        -11    1    1    2    0    0 -0.16818537207E+02 -0.56058726105E+02 -0.62082303915E+02  0.85320902631E+02  0.00000000000E+00 0. -1.
         11    1    1    2    0    0 -0.23480961405E+02  0.38452369479E+02 -0.17684181240E+02  0.48401141859E+02  0.00000000000E+00 0.  1.
</event>
<event>
 7    1  0.2594791E-009  0.1077403E+03  0.7561462E-02  0.1264813E+00
         -1   -1    0    0    0  501 -0.00000000000E+00  0.00000000000E+00  0.19768092179E+02  0.19768092179E+02  0.00000000000E+00 0.  1.
          1   -1    0    0  501    0  0.00000000000E+00 -0.00000000000E+00 -0.65644387171E+03  0.65644387171E+03  0.00000000000E+00 0. -1.
         25    2    1    2    0    0  0.68406589396E+01 -0.18784538383E+02 -0.37058566866E+03  0.39163760490E+03  0.12508645914E+03 0.  0.
          5    1    3    3  502    0 -0.27963983481E+02 -0.56459840224E+02 -0.11769215755E+03  0.13356127537E+03  0.41800000000E+01 0. -1.
         -5    1    3    3    0  502  0.34804642421E+02  0.37675301841E+02 -0.25289351111E+03  0.25807632953E+03  0.41800000000E+01 0. -1.
        -11    1    1    2    0    0 -0.35588303275E+01  0.59711265858E+02 -0.15546614188E+03  0.16657677453E+03  0.00000000000E+00 0. -1.
         11    1    1    2    0    0 -0.32818286121E+01 -0.40926727476E+02 -0.11062396900E+03  0.11799758446E+03  0.00000000000E+00 0.  1.
</event>
<event>
 7    1  0.2594791E-009  0.1021763E+03  0.7561462E-02  0.1275785E+00
         -3   -1    0    0    0  501 -0.00000000000E+00  0.00000000000E+00  0.15896656630E+03  0.15896656630E+03  0.00000000000E+00 0.  1.
          3   -1    0    0  501    0  0.00000000000E+00 -0.00000000000E+00 -0.15771307722E+03  0.15771307722E+03  0.00000000000E+00 0. -1.
         25    2    1    2    0    0  0.34345086535E+02  0.92889887120E+01 -0.10941930063E+03  0.16996102721E+03  0.12509315385E+03 0.  0.
          5    1    3    3  502    0  0.70801352523E+02  0.30065911460E+02 -0.35413465265E+02  0.84784293787E+02  0.41800000000E+01 0. -1.
         -5    1    3    3    0  502 -0.36456265988E+02 -0.20776922748E+02 -0.74005835365E+02  0.85176733423E+02  0.41800000000E+01 0. -1.
        -11    1    1    2    0    0 -0.57669957611E+02  0.48506660335E+01  0.38359027620E+02  0.69431750458E+02  0.00000000000E+00 0. -1.
         11    1    1    2    0    0  0.23324871075E+02 -0.14139654746E+02  0.72313762088E+02  0.77286865859E+02  0.00000000000E+00 0.  1.
</event>
<event>
 7    1  0.2594791E-009  0.1225450E+03  0.7561462E-02  0.1238957E+00
          2   -1    0    0  501    0  0.00000000000E+00  0.00000000000E+00  0.34543883625E+02  0.34543883625E+02  0.00000000000E+00 0.  1.
         -2   -1    0    0    0  501 -0.00000000000E+00 -0.00000000000E+00 -0.82904700477E+03  0.82904700477E+03  0.00000000000E+00 0. -1.
         25    2    1    2    0    0  0.87524630092E+02  0.71884990188E+02 -0.59237161149E+03  0.61593532520E+03  0.12507672062E+03 0.  0.
          5    1    3    3  502    0  0.30142838501E+02  0.67528740914E+02 -0.51009011128E+03  0.51543973031E+03  0.41800000000E+01 0.  1.
         -5    1    3    3    0  502  0.57381791591E+02  0.43562492744E+01 -0.82281500213E+02  0.10049559488E+03  0.41800000000E+01 0.  1.
        -11    1    1    2    0    0 -0.55791219940E+02 -0.43476346937E+02 -0.42672268625E+02  0.82606146715E+02  0.00000000000E+00 0.  1.
         11    1    1    2    0    0 -0.31733410152E+02 -0.28408643251E+02 -0.15945924104E+03  0.16504941649E+03  0.00000000000E+00 0. -1.
</event>
<event>
 7    1  0.2594791E-009  0.1071426E+03  0.7561462E-02  0.1265955E+00
         -1   -1    0    0    0  501 -0.00000000000E+00  0.00000000000E+00  0.21798418055E+02  0.21798418055E+02  0.00000000000E+00 0.  1.
          1   -1    0    0  501    0  0.00000000000E+00 -0.00000000000E+00 -0.12579983704E+04  0.12579983704E+04  0.00000000000E+00 0. -1.
         25    2    1    2    0    0  0.15947239014E+02  0.68988826931E+02 -0.10558236999E+04  0.10655634360E+04  0.12509187933E+03 0.  0.
          5    1    3    3  502    0  0.69069743429E+02  0.54825426416E+02 -0.61470063388E+03  0.62100788927E+03  0.41800000000E+01 0.  1.
         -5    1    3    3    0  502 -0.53122504415E+02  0.14163400514E+02 -0.44112306600E+03  0.44455554675E+03  0.41800000000E+01 0.  1.
        -11    1    1    2    0    0 -0.44620137211E+01 -0.25374339386E+02  0.24934458959E+01  0.25884047948E+02  0.00000000000E+00 0.  1.
         11    1    1    2    0    0 -0.11485225293E+02 -0.43614487545E+02 -0.18286969839E+03  0.18834930452E+03  0.00000000000E+00 0. -1.
</event>
<event>
 7    1  0.2594791E-009  0.1673305E+03  0.7561462E-02  0.1180661E+00
          2   -1    0    0  501    0  0.00000000000E+00  0.00000000000E+00  0.27249222230E+03  0.27249222230E+03  0.00000000000E+00 0. -1.
         -2   -1    0    0    0  501 -0.00000000000E+00 -0.00000000000E+00 -0.12981010277E+03  0.12981010277E+03  0.00000000000E+00 0.  1.
         25    2    1    2    0    0  0.13715721565E+03 -0.75753255111E+01  0.16399312596E+01  0.18579381855E+03  0.12508863368E+03 0.  0.
          5    1    3    3  502    0  0.15529758220E+03 -0.21584593108E+02  0.17186434452E+02  0.15778491571E+03  0.41800000000E+01 0.  1.
         -5    1    3    3    0  502 -0.18140366544E+02  0.14009267597E+02 -0.15546503192E+02  0.28008902843E+02  0.41800000000E+01 0.  1.
        -11    1    1    2    0    0 -0.59319425074E+02  0.38546745602E+02  0.28637208038E+02  0.76319954611E+02  0.00000000000E+00 0.  1.
         11    1    1    2    0    0 -0.77837790580E+02 -0.30971420091E+02  0.11240498023E+03  0.14018855191E+03  0.00000000000E+00 0. -1.
</event>
<event>
 7    1  0.2594791E-009  0.2887590E+03  0.7561462E-02  0.1090999E+00
          2   -1    0    0  501    0  0.00000000000E+00  0.00000000000E+00  0.18176344959E+03  0.18176344959E+03  0.00000000000E+00 0. -1.
         -2   -1    0    0    0  501 -0.00000000000E+00 -0.00000000000E+00 -0.54198226265E+03  0.54198226265E+03  0.00000000000E+00 0.  1.
         25    2    1    2    0    0 -0.24446964958E+02  0.28207076364E+03 -0.27595453967E+03  0.41468066893E+03  0.12509028510E+03 0.  0.
          5    1    3    3  502    0  0.40663898930E+00  0.54580465039E+02  0.18001663887E+01  0.54771393246E+02  0.41800000000E+01 0.  1.
         -5    1    3    3    0  502 -0.24853603947E+02  0.22749029860E+03 -0.27775470606E+03  0.35990927568E+03  0.41800000000E+01 0.  1.
        -11    1    1    2    0    0 -0.12460184198E+02 -0.22850563031E+03 -0.84694150094E+02  0.24401470926E+03  0.00000000000E+00 0.  1.
         11    1    1    2    0    0  0.36907149156E+02 -0.53565133322E+02  0.42987669511E+00  0.65050334055E+02  0.00000000000E+00 0. -1.
</event>
<event>
 7    1  0.3172964E-009  0.1037773E+03  0.7561462E-02  0.1272547E+00
         -4   -1    0    0    0  501 -0.00000000000E+00  0.00000000000E+00  0.60752567015E+02  0.60752567015E+02  0.00000000000E+00 0.  1.
          4   -1    0    0  501    0  0.00000000000E+00 -0.00000000000E+00 -0.31352954982E+03  0.31352954982E+03  0.00000000000E+00 0. -1.
         25    2    1    2    0    0 -0.58394443376E+02  0.59585851573E+02 -0.11659571143E+03  0.19027100674E+03  0.12509241126E+03 0.  0.
          5    1    3    3  502    0 -0.30893773902E+02 -0.19320858075E+02 -0.97895409928E+02  0.10454044436E+03  0.41800000000E+01 0.  1.
         -5    1    3    3    0  502 -0.27500669474E+02  0.78906709648E+02 -0.18700301507E+02  0.85730562376E+02  0.41800000000E+01 0.  1.
        -11    1    1    2    0    0  0.11456447892E+02 -0.29017794670E+02  0.54822544968E+01  0.31675506628E+02  0.00000000000E+00 0.  1.
         11    1    1    2    0    0  0.46937995484E+02 -0.30568056903E+02 -0.14166352587E+03  0.15233560347E+03  0.00000000000E+00 0. -1.
</event>
<event>
 7    1  0.2594791E-009  0.1290700E+03  0.7561462E-02  0.1228842E+00
          2   -1    0    0  501    0  0.00000000000E+00  0.00000000000E+00  0.13799329201E+04  0.13799329201E+04  0.00000000000E+00 0. -1.
         -2   -1    0    0    0  501 -0.00000000000E+00 -0.00000000000E+00 -0.40803730574E+02  0.40803730574E+02  0.00000000000E+00 0.  1.
         25    2    1    2    0    0  0.22743490000E+02  0.93120356464E+02  0.12524300784E+04  0.12623060869E+04  0.12508752426E+03 0.  0.
          5    1    3    3  502    0 -0.33534706692E+02  0.38841165008E+02  0.89126243616E+03  0.89274823728E+03  0.41800000000E+01 0. -1.
         -5    1    3    3    0  502  0.56278196691E+02  0.54279191455E+02  0.36116764224E+03  0.36955784966E+03  0.41800000000E+01 0. -1.
        -11    1    1    2    0    0  0.30271227046E+02 -0.14587495932E+02  0.41648143229E+02  0.53513643670E+02  0.00000000000E+00 0.  1.
         11    1    1    2    0    0 -0.53014717045E+02 -0.78532860532E+02  0.45050967896E+02  0.10491692006E+03  0.00000000000E+00 0. -1.
</event>
<event>
 7    1  0.2594791E-009  0.9762765E+02  0.7561462E-02  0.1285365E+00
          2   -1    0    0  501    0  0.00000000000E+00  0.00000000000E+00  0.97170871587E+03  0.97170871587E+03  0.00000000000E+00 0. -1.
         -2   -1    0    0    0  501 -0.00000000000E+00 -0.00000000000E+00 -0.14890886510E+02  0.14890886510E+02  0.00000000000E+00 0.  1.
         25    2    1    2    0    0 -0.29560570543E+02 -0.32234327760E+02  0.64471554335E+03  0.65819334776E+03  0.12508985563E+03 0.  0.
          5    1    3    3  502    0  0.84701915569E+01  0.38290015529E+02  0.98260764578E+02  0.10587974164E+03  0.41800000000E+01 0.  1.
         -5    1    3    3    0  502 -0.38030762100E+02 -0.70524343289E+02  0.54645477877E+03  0.55231360612E+03  0.41800000000E+01 0.  1.
        -11    1    1    2    0    0  0.48181865901E+02  0.30169737327E+02  0.30163481310E+03  0.30694505327E+03  0.00000000000E+00 0. -1.
         11    1    1    2    0    0 -0.18621295358E+02  0.20645904328E+01  0.10467472913E+02  0.21461201356E+02  0.00000000000E+00 0.  1.
</event>
<event>
 7    1  0.2594791E-009  0.6611294E+02  0.7561462E-02  0.1373833E+00
         -2   -1    0    0    0  501 -0.00000000000E+00  0.00000000000E+00  0.84596928239E+02  0.84596928239E+02  0.00000000000E+00 0.  1.
          2   -1    0    0  501    0  0.00000000000E+00 -0.00000000000E+00 -0.22026180251E+03  0.22026180251E+03  0.00000000000E+00 0. -1.
         25    2    1    2    0    0  0.32859664952E+02 -0.92377024642E+01 -0.16188074015E+03  0.20740802856E+03  0.12509046147E+03 0.  0.
          5    1    3    3  502    0 -0.21333811065E+02  0.11537813343E+02  0.95280503090E+01  0.26391452670E+02  0.41800000000E+01 0.  1.
         -5    1    3    3    0  502  0.54193476017E+02 -0.20775515808E+02 -0.17140879046E+03  0.18101657589E+03  0.41800000000E+01 0.  1.
        -11    1    1    2    0    0 -0.29230853184E+02 -0.91913781540E+01 -0.27110334417E+02  0.40913255095E+02  0.00000000000E+00 0. -1.
         11    1    1    2    0    0 -0.36288117682E+01  0.18429080618E+02  0.53326200290E+02  0.56537447101E+02  0.00000000000E+00 0.  1.
</event>
<event>
 7    1  0.2594791E-009  0.1048313E+03  0.7561462E-02  0.1270452E+00
         -1   -1    0    0    0  501 -0.00000000000E+00  0.00000000000E+00  0.11747162810E+04  0.11747162810E+04  0.00000000000E+00 0.  1.
          1   -1    0    0  501    0  0.00000000000E+00 -0.00000000000E+00 -0.15255968065E+02  0.15255968065E+02  0.00000000000E+00 0. -1.
         25    2    1    2    0    0 -0.62187168707E+01  0.38437887503E+02  0.94857832018E+03  0.95758298522E+03  0.12509276725E+03 0.  0.
          5    1    3    3  502    0 -0.62156352642E+02  0.39541263561E+02  0.47579205404E+03  0.48147946455E+03  0.41800000000E+01 0.  1.
         -5    1    3    3    0  502  0.55937635771E+02 -0.11033760581E+01  0.47278626614E+03  0.47610352066E+03  0.41800000000E+01 0.  1.
        -11    1    1    2    0    0  0.38055213905E+02 -0.20290192128E+02  0.44304881679E+02  0.61828907014E+02  0.00000000000E+00 0. -1.
         11    1    1    2    0    0 -0.31836497034E+02 -0.18147695376E+02  0.16657711108E+03  0.17056035684E+03  0.00000000000E+00 0.  1.
</event>
<event>
 7    1  0.2594791E-009  0.5271378E+02  0.7561462E-02  0.1431231E+00
         -2   -1    0    0    0  501 -0.00000000000E+00  0.00000000000E+00  0.21468960901E+02  0.21468960901E+02  0.00000000000E+00 0.  1.
          2   -1    0    0  501    0  0.00000000000E+00 -0.00000000000E+00 -0.61295366721E+03  0.61295366721E+03  0.00000000000E+00 0. -1.
         25    2    1    2    0    0  0.65976498680E+01 -0.15441990594E+02 -0.42416125184E+03  0.44254062948E+03  0.12508979624E+03 0.  0.
          5    1    3    3  502    0 -0.72474166295E+00 -0.13568544349E+02  0.36217988100E+01  0.14670394434E+02  0.41800000000E+01 0. -1.
         -5    1    3    3    0  502  0.73223915310E+01 -0.18734462453E+01 -0.42778305065E+03  0.42787023505E+03  0.41800000000E+01 0. -1.
        -11    1    1    2    0    0 -0.39493271281E+01 -0.33413927429E+02 -0.11680291616E+03  0.12155249465E+03  0.00000000000E+00 0. -1.
         11    1    1    2    0    0 -0.26483227399E+01  0.48855918023E+02 -0.50520538304E+02  0.70329503978E+02  0.00000000000E+00 0.  1.
</event>
<event>
 7    1  0.2594791E-009  0.1027228E+03  0.7561462E-02  0.1274672E+00
         -2   -1    0    0    0  501 -0.00000000000E+00  0.00000000000E+00  0.13547134225E+03  0.13547134225E+03  0.00000000000E+00 0. -1.
          2   -1    0    0  501    0  0.00000000000E+00 -0.00000000000E+00 -0.98768771484E+02  0.98768771484E+02  0.00000000000E+00 0.  1.
         25    2    1    2    0    0  0.29312282289E+02  0.24867606421E+02  0.19614447499E+02  0.13232111923E+03  0.12508614752E+03 0.  0.
          5    1    3    3  502    0 -0.30320552429E+02 -0.18712778279E+02  0.41803834010E+02  0.55086630942E+02  0.41800000000E+01 0.  1.
         -5    1    3    3    0  502  0.59632834719E+02  0.43580384700E+02 -0.22189386511E+02  0.77234488287E+02  0.41800000000E+01 0.  1.
        -11    1    1    2    0    0 -0.28326629618E+02 -0.56891684650E+02  0.25995501754E+02  0.68664603977E+02  0.00000000000E+00 0. -1.
         11    1    1    2    0    0 -0.98565267157E+00  0.32024078229E+02 -0.89073784916E+01  0.33254390526E+02  0.00000000000E+00 0.  1.
</event>
<event>
 7    1  0.2594791E-009  0.6764335E+02  0.7561462E-02  0.1368295E+00
          1   -1    0    0  501    0  0.00000000000E+00  0.00000000000E+00  0.97481610188E+02  0.97481610188E+02  0.00000000000E+00 0. -1.
         -1   -1    0    0    0  501 -0.00000000000E+00 -0.00000000000E+00 -0.16072824961E+03  0.16072824961E+03  0.00000000000E+00 0.  1.
         25    2    1    2    0    0  0.46295132001E+02  0.29794281439E+02 -0.71032756609E+02  0.15402385926E+03  0.12508700275E+03 0.  0.
          5    1    3    3  502    0  0.33569323592E+01 -0.15696138639E+02 -0.87617242738E+02  0.89173378247E+02  0.41800000000E+01 0.  1.
         -5    1    3    3    0  502  0.42938199642E+02  0.45490420078E+02  0.16584486129E+02  0.64850481013E+02  0.41800000000E+01 0.  1.
        -11    1    1    2    0    0 -0.12892843191E+02 -0.31325303726E+01 -0.38776052507E+02  0.40983172158E+02  0.00000000000E+00 0.  1.
         11    1    1    2    0    0 -0.33402288810E+02 -0.26661751067E+02  0.46562169698E+02  0.63202828376E+02  0.00000000000E+00 0. -1.
</event>
<event>
 7    1  0.2594791E-009  0.1095504E+03  0.7561462E-02  0.1261405E+00
         -1   -1    0    0    0  501 -0.00000000000E+00  0.00000000000E+00  0.10727511739E+02  0.10727511739E+02  0.00000000000E+00 0.  1.
          1   -1    0    0  501    0  0.00000000000E+00 -0.00000000000E+00 -0.12368387778E+04  0.12368387778E+04  0.00000000000E+00 0. -1.
         25    2    1    2    0    0  0.20794200367E+02  0.23873722236E+02 -0.82578341239E+03  0.83580351697E+03  0.12508765496E+03 0.  0.
          5    1    3    3  502    0 -0.48140171490E+02  0.29175910755E+02 -0.46667554303E+03  0.47007684983E+03  0.41800000000E+01 0.  1.
         -5    1    3    3    0  502  0.68934371857E+02 -0.53021885192E+01 -0.35910786935E+03  0.36572666714E+03  0.41800000000E+01 0.  1.
        -11    1    1    2    0    0 -0.55070462402E+02 -0.21199409964E+02 -0.20067171109E+03  0.20916812961E+03  0.00000000000E+00 0.  1.
         11    1    1    2    0    0  0.34276262034E+02 -0.26743122718E+01 -0.19965614261E+03  0.20259464299E+03  0.00000000000E+00 0. -1.
</event>
<event>
 7    1  0.2594791E-009  0.2628279E+03  0.7561462E-02  0.1105456E+00
          2   -1    0    0  501    0  0.00000000000E+00  0.00000000000E+00  0.25989589379E+03  0.25989589379E+03  0.00000000000E+00 0. -1.
         -2   -1    0    0    0  501 -0.00000000000E+00 -0.00000000000E+00 -0.30874573543E+03  0.30874573543E+03  0.00000000000E+00 0.  1.
         25    2    1    2    0    0 -0.17931655105E+03 -0.17201981371E+03 -0.10757310673E+03  0.29826698192E+03  0.12508388154E+03 0.  0.
          5    1    3    3  502    0 -0.22642047403E+02  0.74112515675E+01 -0.46351830325E+02  0.52283396359E+02  0.41800000000E+01 0. -1.
         -5    1    3    3    0  502 -0.15667450365E+03 -0.17943106528E+03 -0.61221276405E+02  0.24598358556E+03  0.41800000000E+01 0. -1.
        -11    1    1    2    0    0  0.11165786978E+03  0.47154378734E+02  0.17270628480E+02  0.12243075563E+03  0.00000000000E+00 0.  1.
         11    1    1    2    0    0  0.67658681272E+02  0.12486543497E+03  0.41452636611E+02  0.14794389168E+03  0.00000000000E+00 0. -1.
</event>
<event>
 7    1  0.2594791E-009  0.1048419E+03  0.7561462E-02  0.1270431E+00
          2   -1    0    0  501    0  0.00000000000E+00  0.00000000000E+00  0.34550255010E+03  0.34550255010E+03  0.00000000000E+00 0. -1.
         -2   -1    0    0    0  501 -0.00000000000E+00 -0.00000000000E+00 -0.98036134080E+02  0.98036134080E+02  0.00000000000E+00 0.  1.
         25    2    1    2    0    0  0.81659190501E+02  0.25055801832E+02  0.27680263259E+03  0.31553436257E+03  0.12508485103E+03 0.  0.
          5    1    3    3  502    0  0.72727606071E+02  0.49616844593E+02  0.86825859824E+02  0.12372282848E+03  0.41800000000E+01 0. -1.
         -5    1    3    3    0  502  0.89315844306E+01 -0.24561042760E+02  0.18997677277E+03  0.19181153410E+03  0.41800000000E+01 0. -1.
        -11    1    1    2    0    0 -0.11984660497E+01 -0.13778000255E+02 -0.43398699504E+02  0.45549058504E+02  0.00000000000E+00 0.  1.
         11    1    1    2    0    0 -0.80460724452E+02 -0.11277801577E+02  0.14062482939E+02  0.82455263107E+02  0.00000000000E+00 0. -1.
</event>
<event>
 7    1  0.2594791E-009  0.1047828E+03  0.7561462E-02  0.1270548E+00
         -1   -1    0    0    0  501 -0.00000000000E+00  0.00000000000E+00  0.31281378171E+03  0.31281378171E+03  0.00000000000E+00 0.  1.
          1   -1    0    0  501    0  0.00000000000E+00 -0.00000000000E+00 -0.47918293433E+02  0.47918293433E+02  0.00000000000E+00 0. -1.
         25    2    1    2    0    0 -0.59505448143E+02  0.38524872219E+01  0.14084358491E+03  0.19758519832E+03  0.12508898899E+03 0.  0.
          5    1    3    3  502    0 -0.14373583463E+02 -0.42659615061E+02  0.12177988790E+03  0.12990094747E+03  0.41800000000E+01 0.  1.
         -5    1    3    3    0  502 -0.45131864680E+02  0.46512102283E+02  0.19063697018E+02  0.67684250843E+02  0.41800000000E+01 0.  1.
        -11    1    1    2    0    0 -0.17530989977E+02 -0.13012843411E+02  0.55424383581E+02  0.59569555971E+02  0.00000000000E+00 0.  1.
         11    1    1    2    0    0  0.77036438119E+02  0.91603561895E+01  0.68627519780E+02  0.10357732085E+03  0.00000000000E+00 0. -1.
</event>
<event>
 7    1  0.2594791E-009  0.9825372E+02  0.7561462E-02  0.1284012E+00
         -1   -1    0    0    0  501 -0.00000000000E+00  0.00000000000E+00  0.53725455796E+02  0.53725455796E+02  0.00000000000E+00 0.  1.
          1   -1    0    0  501    0  0.00000000000E+00 -0.00000000000E+00 -0.23634649068E+03  0.23634649068E+03  0.00000000000E+00 0. -1.
         25    2    1    2    0    0 -0.36504624222E+01 -0.30550436206E+02 -0.10361884612E+03  0.16532015506E+03  0.12508890187E+03 0.  0.
          5    1    3    3  502    0  0.34228031372E+01  0.47459576440E+02 -0.23643950868E+02  0.53297615236E+02  0.41800000000E+01 0.  1.
         -5    1    3    3    0  502 -0.70732655593E+01 -0.78010012646E+02 -0.79974895249E+02  0.11202253982E+03  0.41800000000E+01 0.  1.
        -11    1    1    2    0    0  0.27230343641E+02  0.36919219652E+02 -0.42046539471E+01  0.46067336686E+02  0.00000000000E+00 0.  1.
         11    1    1    2    0    0 -0.23579881219E+02 -0.63687834467E+01 -0.74797534818E+02  0.78684454728E+02  0.00000000000E+00 0. -1.
</event>
<event>
 7    1  0.2594791E-009  0.1463756E+03  0.7561462E-02  0.1204999E+00
          1   -1    0    0  501    0  0.00000000000E+00  0.00000000000E+00  0.44282861221E+03  0.44282861221E+03  0.00000000000E+00 0. -1.
         -1   -1    0    0    0  501 -0.00000000000E+00 -0.00000000000E+00 -0.53948020530E+02  0.53948020530E+02  0.00000000000E+00 0.  1.
         25    2    1    2    0    0 -0.95741272261E+02 -0.49567432716E+02  0.24238911995E+03  0.29329713847E+03  0.12508958537E+03 0.  0.
          5    1    3    3  502    0 -0.31718878157E+02 -0.75963191767E+02  0.72443087160E+02  0.10973589664E+03  0.41800000000E+01 0. -1.
         -5    1    3    3    0  502 -0.64022394104E+02  0.26395759051E+02  0.16994603279E+03  0.18356124183E+03  0.41800000000E+01 0. -1.
        -11    1    1    2    0    0  0.80716895132E+02 -0.83195027854E+01  0.90557663893E+02  0.12159408611E+03  0.00000000000E+00 0. -1.
         11    1    1    2    0    0  0.15024377129E+02  0.57886935502E+02  0.55933807843E+02  0.81885408161E+02  0.00000000000E+00 0.  1.
</event>
<event>
 7    1  0.2629571E-009  0.1712495E+03  0.7561462E-02  0.1176551E+00
          2   -1    0    0  501    0  0.00000000000E+00  0.00000000000E+00  0.68728106860E+03  0.68728106860E+03  0.00000000000E+00 0. -1.
         -2   -1    0    0    0  501 -0.00000000000E+00 -0.00000000000E+00 -0.55733528705E+02  0.55733528705E+02  0.00000000000E+00 0.  1.
         25    2    1    2    0    0 -0.15136109041E+03  0.19542086415E+02  0.22524099195E+03  0.29945591807E+03  0.12509304371E+03 0.  0.
          5    1    3    3  502    0 -0.10912139545E+03 -0.37179590716E+02  0.88292941615E+02  0.14526843033E+03  0.41800000000E+01 0. -1.
         -5    1    3    3    0  502 -0.42239694951E+02  0.56721677131E+02  0.13694805033E+03  0.15418748774E+03  0.41800000000E+01 0. -1.
        -11    1    1    2    0    0  0.95752390662E+02  0.41712763262E+01  0.13477622877E+03  0.16538002208E+03  0.00000000000E+00 0.  1.
         11    1    1    2    0    0  0.55608699743E+02 -0.23713362741E+02  0.27153031919E+03  0.27817865715E+03  0.00000000000E+00 0. -1.
</event>
<event>
 7    1  0.2594791E-009  0.3288618E+03  0.7561462E-02  0.1071642E+00
         -1   -1    0    0    0  501 -0.00000000000E+00  0.00000000000E+00  0.42533676746E+03  0.42533676746E+03  0.00000000000E+00 0.  1.
          1   -1    0    0  501    0  0.00000000000E+00 -0.00000000000E+00 -0.25867974249E+03  0.25867974249E+03  0.00000000000E+00 0. -1.
         25    2    1    2    0    0  0.19586895222E+03  0.24151183937E+03  0.79872742634E+02  0.34455734648E+03  0.12508994764E+03 0.  0.
          5    1    3    3  502    0 -0.11453660830E+02  0.42115517457E+02  0.28591930320E+02  0.52343806095E+02  0.41800000000E+01 0.  1.
         -5    1    3    3    0  502  0.20732261305E+03  0.19939632192E+03  0.51280812314E+02  0.29221354039E+03  0.41800000000E+01 0.  1.
        -11    1    1    2    0    0 -0.18636376013E+03 -0.16442610090E+03  0.81734841730E+02  0.26162564496E+03  0.00000000000E+00 0.  1.
         11    1    1    2    0    0 -0.95051920843E+01 -0.77085738470E+02  0.50494406019E+01  0.77833518502E+02  0.00000000000E+00 0. -1.
</event>
<event>
 7    1  0.2594791E-009  0.1692752E+03  0.7561462E-02  0.1178606E+00
          1   -1    0    0  501    0  0.00000000000E+00  0.00000000000E+00  0.28458019071E+03  0.28458019071E+03  0.00000000000E+00 0. -1.
         -1   -1    0    0    0  501 -0.00000000000E+00 -0.00000000000E+00 -0.18141799635E+03  0.18141799635E+03  0.00000000000E+00 0.  1.
         25    2    1    2    0    0 -0.14236251899E+03  0.53758769863E+02 -0.78646195540E+02  0.21210820197E+03  0.12509025988E+03 0.  0.
          5    1    3    3  502    0 -0.52175606186E+02  0.63883179911E+02 -0.88112307027E+02  0.12076674048E+03  0.41800000000E+01 0.  1.
         -5    1    3    3    0  502 -0.90186912803E+02 -0.10124410048E+02  0.94661114870E+01  0.91341461486E+02  0.41800000000E+01 0.  1.
        -11    1    1    2    0    0  0.94396853306E+01  0.13238938322E+02  0.58129005253E+02  0.60360238558E+02  0.00000000000E+00 0. -1.
         11    1    1    2    0    0  0.13292283366E+03 -0.66997708185E+02  0.12367938464E+03  0.19352974654E+03  0.00000000000E+00 0.  1.
</event>
<event>
 7    1  0.2594791E-009  0.1381576E+03  0.7561462E-02  0.1215830E+00
          2   -1    0    0  501    0  0.00000000000E+00  0.00000000000E+00  0.13859507140E+03  0.13859507140E+03  0.00000000000E+00 0. -1.
         -2   -1    0    0    0  501 -0.00000000000E+00 -0.00000000000E+00 -0.14849096941E+03  0.14849096941E+03  0.00000000000E+00 0.  1.
         25    2    1    2    0    0 -0.77180935188E+02  0.55043723370E+02 -0.56613328848E+01  0.15705258708E+03  0.12508699445E+03 0.  0.
          5    1    3    3  502    0  0.21138590524E+01  0.66034347376E+02 -0.30837267748E+02  0.73030219195E+02  0.41800000000E+01 0.  1.
         -5    1    3    3    0  502 -0.79294794240E+02 -0.10990624006E+02  0.25175934863E+02  0.84022367890E+02  0.41800000000E+01 0.  1.
        -11    1    1    2    0    0  0.77169123525E+02 -0.22940022678E+01 -0.33669407943E+01  0.77276596473E+02  0.00000000000E+00 0.  1.
         11    1    1    2    0    0  0.11811662769E-01 -0.52749721103E+02 -0.86762433335E+00  0.52756857259E+02  0.00000000000E+00 0. -1.
</event>
<event>
 7    1  0.2594791E-009  0.8365522E+02  0.7561462E-02  0.1318987E+00
         -2   -1    0    0    0  501 -0.00000000000E+00  0.00000000000E+00  0.47153996023E+02  0.47153996023E+02  0.00000000000E+00 0.  1.
          2   -1    0    0  501    0  0.00000000000E+00 -0.00000000000E+00 -0.32035027772E+03  0.32035027772E+03  0.00000000000E+00 0. -1.
         25    2    1    2    0    0  0.56467363143E+02 -0.59761409528E+01 -0.16072617792E+03  0.21143349203E+03  0.12508772890E+03 0.  0.
          5    1    3    3  502    0  0.14631735077E+02  0.38562830298E+02 -0.22323002961E+01  0.41516684798E+02  0.41800000000E+01 0.  1.
         -5    1    3    3    0  502  0.41835628066E+02 -0.44538971251E+02 -0.15849387762E+03  0.16991680723E+03  0.41800000000E+01 0.  1.
        -11    1    1    2    0    0 -0.41524714690E+02 -0.10018747607E+02 -0.12412707433E+03  0.13127150420E+03  0.00000000000E+00 0. -1.
         11    1    1    2    0    0 -0.14942648453E+02  0.15994888560E+02  0.11656970549E+02  0.24799277514E+02  0.00000000000E+00 0.  1.
</event>
<event>
 7    1  0.2594791E-009  0.1458178E+03  0.7561462E-02  0.1205708E+00
          1   -1    0    0  501    0  0.00000000000E+00  0.00000000000E+00  0.97173125661E+03  0.97173125661E+03  0.00000000000E+00 0. -1.
         -1   -1    0    0    0  501 -0.00000000000E+00 -0.00000000000E+00 -0.22839257947E+02  0.22839257947E+02  0.00000000000E+00 0.  1.
         25    2    1    2    0    0 -0.91426243892E+01  0.10074159191E+03  0.60387153187E+03  0.62493045098E+03  0.12507911748E+03 0.  0.
          5    1    3    3  502    0  0.46075385606E+02  0.26305429676E+01  0.13567816542E+03  0.14337328163E+03  0.41800000000E+01 0. -1.
         -5    1    3    3    0  502 -0.55218009995E+02  0.98111048946E+02  0.46819336646E+03  0.48155716934E+03  0.41800000000E+01 0. -1.
        -11    1    1    2    0    0  0.31988729716E+02 -0.28515553002E+01  0.85355706464E+02  0.91197625092E+02  0.00000000000E+00 0. -1.
         11    1    1    2    0    0 -0.22846105326E+02 -0.97890036613E+02  0.25966476032E+03  0.27844243849E+03  0.00000000000E+00 0.  1.
</event>
<event>
 7    1  0.2594791E-009  0.1150045E+03  0.7561462E-02  0.1251573E+00
          4   -1    0    0  501    0  0.00000000000E+00  0.00000000000E+00  0.56025682866E+02  0.56025682866E+02  0.00000000000E+00 0. -1.
         -4   -1    0    0    0  501 -0.00000000000E+00 -0.00000000000E+00 -0.36603718972E+03  0.36603718972E+03  0.00000000000E+00 0.  1.
         25    2    1    2    0    0 -0.21443671674E+02  0.85341402982E+02 -0.11621902783E+03  0.19208768009E+03  0.12509127985E+03 0.  0.
          5    1    3    3  502    0  0.22918775739E+02  0.82826953558E+02 -0.23509266115E+02  0.89194913029E+02  0.41800000000E+01 0.  1.
         -5    1    3    3    0  502 -0.44362447413E+02  0.25144494239E+01 -0.92709761716E+02  0.10289276706E+03  0.41800000000E+01 0.  1.
        -11    1    1    2    0    0 -0.14513785950E+02 -0.19374350284E+02 -0.23540630756E+01  0.24321945738E+02  0.00000000000E+00 0. -1.
         11    1    1    2    0    0  0.35957457624E+02 -0.65967052698E+02 -0.19143841595E+03  0.20565324676E+03  0.00000000000E+00 0.  1.
</event>
<event>
 7    1  0.2594791E-009  0.9882973E+02  0.7561462E-02  0.1282776E+00
          2   -1    0    0  501    0  0.00000000000E+00  0.00000000000E+00  0.31518399829E+03  0.31518399829E+03  0.00000000000E+00 0. -1.
         -2   -1    0    0    0  501 -0.00000000000E+00 -0.00000000000E+00 -0.59107243163E+02  0.59107243163E+02  0.00000000000E+00 0.  1.
         25    2    1    2    0    0  0.15613148645E+02 -0.41733245092E+01  0.25049973305E+03  0.28046187395E+03  0.12509020518E+03 0.  0.
          5    1    3    3  502    0 -0.86408229327E+01 -0.56366117438E+02  0.18265933023E+03  0.19139933735E+03  0.41800000000E+01 0. -1.
         -5    1    3    3    0  502  0.24253971578E+02  0.52192792929E+02  0.67840402820E+02  0.89062536601E+02  0.41800000000E+01 0. -1.
        -11    1    1    2    0    0  0.15738620931E+02 -0.31543770639E+02  0.24228361198E+02  0.42775309949E+02  0.00000000000E+00 0. -1.
         11    1    1    2    0    0 -0.31351769576E+02  0.35717095148E+02 -0.18651339128E+02  0.51054057553E+02  0.00000000000E+00 0.  1.
</event>
<event>
 7    1  0.2594791E-009  0.1445290E+03  0.7561462E-02  0.1207362E+00
          1   -1    0    0  501    0  0.00000000000E+00  0.00000000000E+00  0.73928206346E+02  0.73928206346E+02  0.00000000000E+00 0. -1.
         -1   -1    0    0    0  501 -0.00000000000E+00 -0.00000000000E+00 -0.40816165418E+03  0.40816165418E+03  0.00000000000E+00 0.  1.
         25    2    1    2    0    0  0.65482152355E+02 -0.10497836385E+03 -0.94688210551E+02  0.19984113237E+03  0.12514891856E+03 0.  0.
          5    1    3    3  502    0  0.35032220648E+02 -0.55026970054E+01  0.23181931721E+02  0.42572414968E+02  0.41800000000E+01 0. -1.
         -5    1    3    3    0  502  0.30449931707E+02 -0.99475666840E+02 -0.11787014227E+03  0.15726871740E+03  0.41800000000E+01 0. -1.
        -11    1    1    2    0    0 -0.20688732337E+02  0.10228967483E+03 -0.16456977812E+03  0.19487024681E+03  0.00000000000E+00 0.  1.
         11    1    1    2    0    0 -0.44793420018E+02  0.26886890199E+01 -0.74975459160E+02  0.87378481343E+02  0.00000000000E+00 0. -1.
</event>
<event>
 7    1  0.2594791E-009  0.1275056E+03  0.7561462E-02  0.1231205E+00
         -2   -1    0    0    0  501 -0.00000000000E+00  0.00000000000E+00  0.40804980550E+02  0.40804980550E+02  0.00000000000E+00 0.  1.
          2   -1    0    0  501    0  0.00000000000E+00 -0.00000000000E+00 -0.68888635902E+03  0.68888635902E+03  0.00000000000E+00 0. -1.
         25    2    1    2    0    0  0.73058745926E+02 -0.90398971692E+02 -0.45758752251E+03  0.48840950454E+03  0.12509176207E+03 0.  0.
          5    1    3    3  502    0  0.10014615098E+02 -0.40914559186E+02 -0.26554979955E+02  0.49969320882E+02  0.41800000000E+01 0.  1.
         -5    1    3    3    0  502  0.63044130828E+02 -0.49484412506E+02 -0.43103254255E+03  0.43844018366E+03  0.41800000000E+01 0.  1.
        -11    1    1    2    0    0 -0.42885943120E+02  0.66363929618E+01 -0.12036059670E+03  0.12794498453E+03  0.00000000000E+00 0. -1.
         11    1    1    2    0    0 -0.30172802806E+02  0.83762578731E+02 -0.70133259268E+02  0.11333685050E+03  0.00000000000E+00 0.  1.
</event>
<event>
 7    1  0.2683039E-009  0.1550363E+03  0.7561462E-02  0.1194418E+00
         -2   -1    0    0    0  501 -0.00000000000E+00  0.00000000000E+00  0.97873982574E+02  0.97873982574E+02  0.00000000000E+00 0.  1.
          2   -1    0    0  501    0  0.00000000000E+00 -0.00000000000E+00 -0.31649445934E+03  0.31649445934E+03  0.00000000000E+00 0. -1.
         25    2    1    2    0    0 -0.10385208328E+03 -0.80792404517E+02 -0.16428212974E+03  0.24484949653E+03  0.12509991995E+03 0.  0.
          5    1    3    3  502    0 -0.63995198139E+02  0.46294921394E+01 -0.12895773078E+03  0.14409852987E+03  0.41800000000E+01 0.  1.
         -5    1    3    3    0  502 -0.39856885136E+02 -0.85421896657E+02 -0.35324398960E+02  0.10075096666E+03  0.41800000000E+01 0.  1.
        -11    1    1    2    0    0  0.89023092671E+02  0.23267977293E+02 -0.59995406023E+02  0.10984515711E+03  0.00000000000E+00 0. -1.
         11    1    1    2    0    0  0.14828990604E+02  0.57524427225E+02  0.56570590052E+01  0.59673788270E+02  0.00000000000E+00 0.  1.
</event>
<event>
 7    1  0.2594791E-009  0.1889428E+03  0.7561462E-02  0.1159418E+00
          4   -1    0    0  501    0  0.00000000000E+00  0.00000000000E+00  0.33178282664E+02  0.33178282664E+02  0.00000000000E+00 0.  1.
         -4   -1    0    0    0  501 -0.00000000000E+00 -0.00000000000E+00 -0.17037351314E+04  0.17037351314E+04  0.00000000000E+00 0. -1.
         25    2    1    2    0    0 -0.13114336611E+03 -0.11878961724E+03 -0.12846555711E+04  0.13028035622E+04  0.12509048620E+03 0.  0.
          5    1    3    3  502    0 -0.11301760609E+03 -0.12244081603E+03 -0.12632991065E+04  0.12742475574E+04  0.41800000000E+01 0.  1.
         -5    1    3    3    0  502 -0.18125760023E+02  0.36511987815E+01 -0.21356464536E+02  0.28556004735E+02  0.41800000000E+01 0.  1.
        -11    1    1    2    0    0  0.10288527961E+03  0.43266309373E+02 -0.27670318753E+03  0.29836556148E+03  0.00000000000E+00 0. -1.
         11    1    1    2    0    0  0.28258086499E+02  0.75523307872E+02 -0.10919809012E+03  0.13574429038E+03  0.00000000000E+00 0.  1.
</event>
<event>
 7    1  0.2594791E-009  0.1800123E+03  0.7561462E-02  0.1167791E+00
         -2   -1    0    0    0  501 -0.00000000000E+00  0.00000000000E+00  0.14047702637E+03  0.14047702637E+03  0.00000000000E+00 0.  1.
          2   -1    0    0  501    0  0.00000000000E+00 -0.00000000000E+00 -0.27791243007E+03  0.27791243007E+03  0.00000000000E+00 0. -1.
         25    2    1    2    0    0  0.13876633669E+03  0.59112286677E+02 -0.14346670992E+03  0.24285922330E+03  0.12509015490E+03 0.  0.
          5    1    3    3  502    0  0.10110943437E+03  0.92704337912E+02 -0.71175027582E+02  0.15459808840E+03  0.41800000000E+01 0. -1.
         -5    1    3    3    0  502  0.37656902317E+02 -0.33592051235E+02 -0.72291682338E+02  0.88261134898E+02  0.41800000000E+01 0. -1.
        -11    1    1    2    0    0 -0.19267831740E+02 -0.48492682842E+02 -0.13700364351E+02  0.53948953767E+02  0.00000000000E+00 0.  1.
         11    1    1    2    0    0 -0.11949850495E+03 -0.10619603835E+02  0.19731670566E+02  0.12158127937E+03  0.00000000000E+00 0. -1.
</event>
<event>
 7    1  0.2594791E-009  0.9895786E+02  0.7561462E-02  0.1282503E+00
         -1   -1    0    0    0  501 -0.00000000000E+00  0.00000000000E+00  0.33884971518E+02  0.33884971518E+02  0.00000000000E+00 0.  1.
          1   -1    0    0  501    0  0.00000000000E+00 -0.00000000000E+00 -0.54002242278E+03  0.54002242278E+03  0.00000000000E+00 0. -1.
         25    2    1    2    0    0  0.54708284634E+02  0.60329864344E+01 -0.15406976422E+03  0.20594062124E+03  0.12507859088E+03 0.  0.
          5    1    3    3  502    0  0.78613366651E+02  0.26683960673E+02 -0.15292325652E+03  0.17405484756E+03  0.41800000000E+01 0. -1.
         -5    1    3    3    0  502 -0.23905082017E+02 -0.20650974238E+02 -0.11465076991E+01  0.31885773679E+02  0.41800000000E+01 0. -1.
        -11    1    1    2    0    0 -0.51663546260E+02 -0.29345563391E+02 -0.33133578922E+03  0.33662098765E+03  0.00000000000E+00 0. -1.
         11    1    1    2    0    0 -0.30447383739E+01  0.23312576956E+02 -0.20731897817E+02  0.31345785414E+02  0.00000000000E+00 0.  1.
</event>
<event>
 7    1  0.2594791E-009  0.1333554E+03  0.7561462E-02  0.1222560E+00
          3   -1    0    0  501    0  0.00000000000E+00  0.00000000000E+00  0.32347576991E+03  0.32347576991E+03  0.00000000000E+00 0. -1.
         -3   -1    0    0    0  501 -0.00000000000E+00 -0.00000000000E+00 -0.65900583251E+02  0.65900583251E+02  0.00000000000E+00 0.  1.
         25    2    1    2    0    0 -0.73927352143E+02  0.53721690933E+02  0.17663055364E+03  0.23493969352E+03  0.12508810351E+03 0.  0.
          5    1    3    3  502    0 -0.73366915765E+02  0.83621273058E+02  0.89858097612E+02  0.14306352345E+03  0.41800000000E+01 0. -1.
         -5    1    3    3    0  502 -0.56043637884E+00 -0.29899582125E+02  0.86772456030E+02  0.91876170065E+02  0.41800000000E+01 0. -1.
        -11    1    1    2    0    0  0.32481192251E+02  0.21749154757E+02  0.45961032118E+01  0.39359595367E+02  0.00000000000E+00 0.  1.
         11    1    1    2    0    0  0.41446159893E+02 -0.75470845690E+02  0.76348529804E+02  0.11507706428E+03  0.00000000000E+00 0. -1.
</event>
<event>
 7    1  0.2594791E-009  0.1531203E+03  0.7561462E-02  0.1196690E+00
          2   -1    0    0  501    0  0.00000000000E+00  0.00000000000E+00  0.51397298173E+03  0.51397298173E+03  0.00000000000E+00 0. -1.
         -2   -1    0    0    0  501 -0.00000000000E+00 -0.00000000000E+00 -0.66503330156E+02  0.66503330156E+02  0.00000000000E+00 0.  1.
         25    2    1    2    0    0  0.74888849759E+02  0.88036775083E+02  0.88152090680E+02  0.19177747065E+03  0.12509593747E+03 0.  0.
          5    1    3    3  502    0  0.10839512690E+03  0.71618449359E+02  0.82112910769E+02  0.15374884825E+03  0.41800000000E+01 0.  1.
         -5    1    3    3    0  502 -0.33506277138E+02  0.16418325724E+02  0.60391799108E+01  0.38028622395E+02  0.41800000000E+01 0.  1.
        -11    1    1    2    0    0 -0.59336942328E+02 -0.11288579403E+02  0.22744262917E+03  0.23532627205E+03  0.00000000000E+00 0. -1.
         11    1    1    2    0    0 -0.15551907431E+02 -0.76748195680E+02  0.13187493172E+03  0.15337256920E+03  0.00000000000E+00 0.  1.
</event>
<event>
 7    1  0.2594791E-009  0.1287826E+03  0.7561462E-02  0.1229273E+00
         -2   -1    0    0    0  501 -0.00000000000E+00  0.00000000000E+00  0.48815062124E+03  0.48815062124E+03  0.00000000000E+00 0. -1.
          2   -1    0    0  501    0  0.00000000000E+00 -0.00000000000E+00 -0.39987214148E+02  0.39987214148E+02  0.00000000000E+00 0.  1.
         25    2    1    2    0    0 -0.32224306346E+02 -0.77053561350E+02  0.19750839520E+03  0.24825845947E+03  0.12508812609E+03 0.  0.
          5    1    3    3  502    0 -0.28307611153E+02 -0.10358588890E+03  0.19277420318E+03  0.22070505894E+03  0.41800000000E+01 0.  1.
         -5    1    3    3    0  502 -0.39166951926E+01  0.26532327554E+02  0.47341920164E+01  0.27553400529E+02  0.41800000000E+01 0.  1.
        -11    1    1    2    0    0 -0.30355852612E+02  0.40050706671E+02  0.81290105038E+02  0.95569964265E+02  0.00000000000E+00 0.  1.
         11    1    1    2    0    0  0.62580158958E+02  0.37002854679E+02  0.16936490685E+03  0.18430941165E+03  0.00000000000E+00 0. -1.
</event>
<event>
 7    1  0.2594791E-009  0.9406802E+02  0.7561462E-02  0.1293289E+00
         -1   -1    0    0    0  501 -0.00000000000E+00  0.00000000000E+00  0.17449355129E+03  0.17449355129E+03  0.00000000000E+00 0.  1.
          1   -1    0    0  501    0  0.00000000000E+00 -0.00000000000E+00 -0.71132155209E+02  0.71132155209E+02  0.00000000000E+00 0. -1.
         25    2    1    2    0    0 -0.14414364590E+02  0.19902955585E+02  0.55874302173E+02  0.13918201171E+03  0.12508314512E+03 0.  0.
          5    1    3    3  502    0  0.35935116781E+02  0.54952647182E+02  0.32696220306E+02  0.73468641424E+02  0.41800000000E+01 0. -1.
         -5    1    3    3    0  502 -0.50349481371E+02 -0.35049691597E+02  0.23178081868E+02  0.65713370287E+02  0.41800000000E+01 0. -1.
        -11    1    1    2    0    0  0.27237641737E+02 -0.32821637291E+02  0.67212403737E+02  0.79603116886E+02  0.00000000000E+00 0.  1.
         11    1    1    2    0    0 -0.12823277147E+02  0.12918681706E+02 -0.19725309834E+02  0.26840577897E+02  0.00000000000E+00 0. -1.
</event>
<event>
 7    1  0.2594791E-009  0.1131344E+03  0.7561462E-02  0.1254873E+00
         -3   -1    0    0    0  501 -0.00000000000E+00  0.00000000000E+00  0.49884807089E+02  0.49884807089E+02  0.00000000000E+00 0.  1.
          3   -1    0    0  501    0  0.00000000000E+00 -0.00000000000E+00 -0.30495652894E+03  0.30495652894E+03  0.00000000000E+00 0. -1.
         25    2    1    2    0    0  0.45019393898E+02 -0.22147723691E+02 -0.11852213669E+03  0.17947758516E+03  0.12508972458E+03 0.  0.
          5    1    3    3  502    0  0.22675560081E+02 -0.70377036850E+02 -0.96858319226E+02  0.12192667774E+03  0.41800000000E+01 0. -1.
         -5    1    3    3    0  502  0.22343833817E+02  0.48229313158E+02 -0.21663817469E+02  0.57550907419E+02  0.41800000000E+01 0. -1.
        -11    1    1    2    0    0 -0.15627951396E+02 -0.32937620632E+02 -0.91139102702E+02  0.98160357370E+02  0.00000000000E+00 0. -1.
         11    1    1    2    0    0 -0.29391442502E+02  0.55085344323E+02 -0.45410482452E+02  0.77203393501E+02  0.00000000000E+00 0.  1.
</event>
<event>
 7    1  0.2594791E-009  0.9146816E+02  0.7561462E-02  0.1299335E+00
         -2   -1    0    0    0  501 -0.00000000000E+00  0.00000000000E+00  0.33425758452E+03  0.33425758452E+03  0.00000000000E+00 0.  1.
          2   -1    0    0  501    0  0.00000000000E+00 -0.00000000000E+00 -0.51930792829E+02  0.51930792829E+02  0.00000000000E+00 0. -1.
         25    2    1    2    0    0  0.36111493762E+02 -0.64630300770E+02  0.19920458955E+03  0.24659912624E+03  0.12509014670E+03 0.  0.
          5    1    3    3  502    0  0.31423510683E+01 -0.36925752547E+02 -0.52095133774E+01  0.37656300947E+02  0.41800000000E+01 0.  1.
         -5    1    3    3    0  502  0.32969142694E+02 -0.27704548223E+02  0.20441410293E+03  0.20894282529E+03  0.41800000000E+01 0.  1.
        -11    1    1    2    0    0  0.77903604433E+01  0.57347138638E+02  0.74369404668E+02  0.94234772651E+02  0.00000000000E+00 0.  1.
         11    1    1    2    0    0 -0.43901854205E+02  0.72831621318E+01  0.87527974713E+01  0.45354478466E+02  0.00000000000E+00 0. -1.
</event>
<event>
 7    1  0.2594791E-009  0.1997353E+03  0.7561462E-02  0.1149963E+00
         -1   -1    0    0    0  501 -0.00000000000E+00  0.00000000000E+00  0.10303314589E+03  0.10303314589E+03  0.00000000000E+00 0.  1.
          1   -1    0    0  501    0  0.00000000000E+00 -0.00000000000E+00 -0.45321485475E+03  0.45321485475E+03  0.00000000000E+00 0. -1.
         25    2    1    2    0    0 -0.14113645436E+03 -0.11987935966E+03 -0.22686149211E+03  0.31844006604E+03  0.12508948571E+03 0.  0.
          5    1    3    3  502    0  0.15341428809E+02 -0.16476651724E+02  0.14439894313E+01  0.22943343162E+02  0.41800000000E+01 0. -1.
         -5    1    3    3    0  502 -0.15647788317E+03 -0.10340270794E+03 -0.22830548154E+03  0.29549672288E+03  0.41800000000E+01 0. -1.
        -11    1    1    2    0    0  0.93196625170E+02  0.54715783892E+02 -0.25814170629E+02  0.11111165265E+03  0.00000000000E+00 0.  1.
         11    1    1    2    0    0  0.47939829192E+02  0.65163575772E+02 -0.97506046115E+02  0.12669628195E+03  0.00000000000E+00 0. -1.
</event>
<event>
 7    1  0.2594791E-009  0.1126951E+03  0.7561462E-02  0.1255659E+00
          2   -1    0    0  501    0  0.00000000000E+00  0.00000000000E+00  0.40409905822E+03  0.40409905822E+03  0.00000000000E+00 0. -1.
         -2   -1    0    0    0  501 -0.00000000000E+00 -0.00000000000E+00 -0.55274440806E+02  0.55274440806E+02  0.00000000000E+00 0.  1.
         25    2    1    2    0    0 -0.57348320848E+01 -0.41967853448E+02  0.14327901266E+03  0.19485978144E+03  0.12508904801E+03 0.  0.
          5    1    3    3  502    0 -0.55800649453E+01  0.34829999870E+02  0.10106345570E+03  0.10712404256E+03  0.41800000000E+01 0. -1.
         -5    1    3    3    0  502 -0.15476713944E+00 -0.76797853318E+02  0.42215556953E+02  0.87735738875E+02  0.41800000000E+01 0. -1.
        -11    1    1    2    0    0  0.25675223456E+02 -0.29297019119E+02  0.18307736402E+03  0.18717599645E+03  0.00000000000E+00 0. -1.
         11    1    1    2    0    0 -0.19940391371E+02  0.71264872567E+02  0.22468240736E+02  0.77337721144E+02  0.00000000000E+00 0.  1.
</event>
<event>
 7    1  0.2594791E-009  0.1060304E+03  0.7561462E-02  0.1268103E+00
          2   -1    0    0  501    0  0.00000000000E+00  0.00000000000E+00  0.52995155123E+03  0.52995155123E+03  0.00000000000E+00 0. -1.
         -2   -1    0    0    0  501 -0.00000000000E+00 -0.00000000000E+00 -0.32346902164E+02  0.32346902164E+02  0.00000000000E+00 0.  1.
         25    2    1    2    0    0 -0.12598025591E+02  0.56721392656E+02  0.20183865490E+03  0.24445976222E+03  0.12508279698E+03 0.  0.
          5    1    3    3  502    0  0.36394985866E+02  0.56893710210E+02  0.48026035764E+02  0.82978682617E+02  0.41800000000E+01 0. -1.
         -5    1    3    3    0  502 -0.48993011457E+02 -0.17231755430E+00  0.15381261914E+03  0.16148107961E+03  0.41800000000E+01 0. -1.
        -11    1    1    2    0    0 -0.27501171011E+02 -0.46198716793E+02  0.25153361293E+03  0.25721546274E+03  0.00000000000E+00 0. -1.
         11    1    1    2    0    0  0.40099196602E+02 -0.10522675862E+02  0.44232381237E+02  0.60623228430E+02  0.00000000000E+00 0.  1.
</event>
<event>
 7    1  0.2594791E-009  0.1033571E+03  0.7561462E-02  0.1273391E+00
          2   -1    0    0  501    0  0.00000000000E+00  0.00000000000E+00  0.29150163537E+03  0.29150163537E+03  0.00000000000E+00 0. -1.
         -2   -1    0    0    0  501 -0.00000000000E+00 -0.00000000000E+00 -0.76726304861E+02  0.76726304861E+02  0.00000000000E+00 0.  1.
         25    2    1    2    0    0  0.39034848725E+02 -0.25943765402E+02  0.22740188789E+03  0.26373180706E+03  0.12508416791E+03 0.  0.
          5    1    3    3  502    0 -0.36370828879E+02  0.18827536306E+02  0.10758165448E+03  0.11518940098E+03  0.41800000000E+01 0.  1.
         -5    1    3    3    0  502  0.75405677604E+02 -0.44771301708E+02  0.11982023341E+03  0.14854240608E+03  0.41800000000E+01 0.  1.
        -11    1    1    2    0    0 -0.38351599912E+02  0.44748342822E+02 -0.40037580427E+02  0.71247928023E+02  0.00000000000E+00 0.  1.
         11    1    1    2    0    0 -0.68324881225E+00 -0.18804577420E+02  0.27411023042E+02  0.33248205141E+02  0.00000000000E+00 0. -1.
</event>
<event>
 7    1  0.2594791E-009  0.9510660E+02  0.7561462E-02  0.1290936E+00
          4   -1    0    0  501    0  0.00000000000E+00  0.00000000000E+00  0.49139180274E+02  0.49139180274E+02  0.00000000000E+00 0.  1.
         -4   -1    0    0    0  501 -0.00000000000E+00 -0.00000000000E+00 -0.26239576061E+03  0.26239576061E+03  0.00000000000E+00 0. -1.
         25    2    1    2    0    0  0.20444403003E+01  0.31236422415E+02 -0.10233958840E+03  0.16462609344E+03  0.12509382665E+03 0.  0.
          5    1    3    3  502    0  0.53762087587E+02  0.22856089363E+02 -0.94935932436E+02  0.11154849416E+03  0.41800000000E+01 0.  1.
         -5    1    3    3    0  502 -0.51717647287E+02  0.83803330523E+01 -0.74036559601E+01  0.53077599273E+02  0.41800000000E+01 0.  1.
        -11    1    1    2    0    0  0.34656722025E+02 -0.77474251976E+01 -0.98564584319E+01  0.36854589288E+02  0.00000000000E+00 0.  1.
         11    1    1    2    0    0 -0.36701162326E+02 -0.23488997218E+02 -0.10106053350E+03  0.11005425816E+03  0.00000000000E+00 0. -1.
</event>
<event>
 7    1  0.2594791E-009  0.1094150E+03  0.7561462E-02  0.1261657E+00
          1   -1    0    0  501    0  0.00000000000E+00  0.00000000000E+00  0.75020379079E+03  0.75020379079E+03  0.00000000000E+00 0. -1.
         -1   -1    0    0    0  501 -0.00000000000E+00 -0.00000000000E+00 -0.23006365025E+02  0.23006365025E+02  0.00000000000E+00 0.  1.
         25    2    1    2    0    0 -0.45964618381E+02  0.46430657937E+02  0.30167016848E+03  0.33304711783E+03  0.12508772922E+03 0.  0.
          5    1    3    3  502    0 -0.14824010757E+02 -0.34726437184E+02  0.31961702199E+02  0.49645740420E+02  0.41800000000E+01 0. -1.
         -5    1    3    3    0  502 -0.31140607624E+02  0.81157095121E+02  0.26970846629E+03  0.28340137741E+03  0.41800000000E+01 0. -1.
        -11    1    1    2    0    0 -0.11687012280E+02  0.82894758928E+01  0.10946493002E+02  0.18031288796E+02  0.00000000000E+00 0.  1.
         11    1    1    2    0    0  0.57651630661E+02 -0.54720133830E+02  0.41458076427E+03  0.42213174918E+03  0.00000000000E+00 0. -1.
</event>
<event>
 7    1  0.2594791E-009  0.8778588E+02  0.7561462E-02  0.1308304E+00
          3   -1    0    0  501    0  0.00000000000E+00  0.00000000000E+00  0.10672731606E+03  0.10672731606E+03  0.00000000000E+00 0. -1.
         -3   -1    0    0    0  501 -0.00000000000E+00 -0.00000000000E+00 -0.19782201628E+03  0.19782201628E+03  0.00000000000E+00 0.  1.
         25    2    1    2    0    0 -0.22237286579E+02 -0.19248775349E+02 -0.14587230653E+03  0.19439926519E+03  0.12508929701E+03 0.  0.
          5    1    3    3  502    0  0.36062471804E+02  0.13620914373E+02 -0.59377952377E+01  0.39227044157E+02  0.41800000000E+01 0.  1.
         -5    1    3    3    0  502 -0.58299758383E+02 -0.32869689722E+02 -0.13993451130E+03  0.15517222104E+03  0.41800000000E+01 0.  1.
        -11    1    1    2    0    0  0.18248833821E+02  0.42445297088E+02 -0.44512411677E+01  0.46415910296E+02  0.00000000000E+00 0.  1.
         11    1    1    2    0    0  0.39884527575E+01 -0.23196521739E+02  0.59228847481E+02  0.63734156855E+02  0.00000000000E+00 0. -1.
</event>
<event>
 7    1  0.2594791E-009  0.1213062E+03  0.7561462E-02  0.1240958E+00
          2   -1    0    0  501    0  0.00000000000E+00  0.00000000000E+00  0.20084531075E+04  0.20084531075E+04  0.00000000000E+00 0. -1.
         -2   -1    0    0    0  501 -0.00000000000E+00 -0.00000000000E+00 -0.32797626135E+02  0.32797626135E+02  0.00000000000E+00 0.  1.
         25    2    1    2    0    0 -0.14271851007E+02 -0.11315491439E+03  0.18235098192E+04  0.18313500387E+04  0.12508870103E+03 0.  0.
          5    1    3    3  502    0  0.12027673801E+02 -0.26999400858E+02  0.78072703138E+02  0.83584998409E+02  0.41800000000E+01 0. -1.
         -5    1    3    3    0  502 -0.26299524808E+02 -0.86155513528E+02  0.17454371160E+04  0.17477650403E+04  0.41800000000E+01 0. -1.
        -11    1    1    2    0    0 -0.10450224776E+02  0.82701407507E+02  0.42742836439E+02  0.93678599842E+02  0.00000000000E+00 0.  1.
         11    1    1    2    0    0  0.24722075783E+02  0.30453506879E+02  0.10940282570E+03  0.11622209507E+03  0.00000000000E+00 0. -1.
</event>
<event>
 7    1  0.2594791E-009  0.1189237E+03  0.7561462E-02  0.1244883E+00
          1   -1    0    0  501    0  0.00000000000E+00  0.00000000000E+00  0.64804206247E+03  0.64804206247E+03  0.00000000000E+00 0. -1.
         -1   -1    0    0    0  501 -0.00000000000E+00 -0.00000000000E+00 -0.28779343706E+02  0.28779343706E+02  0.00000000000E+00 0.  1.
         25    2    1    2    0    0  0.39423349996E+01  0.53512835351E+02  0.18734364527E+03  0.23157083682E+03  0.12509294741E+03 0.  0.
          5    1    3    3  502    0  0.46689857487E+02  0.70201335047E+02  0.87362062575E+02  0.12148157314E+03  0.41800000000E+01 0.  1.
         -5    1    3    3    0  502 -0.42747522488E+02 -0.16688499696E+02  0.99981582693E+02  0.11008926368E+03  0.41800000000E+01 0.  1.
        -11    1    1    2    0    0 -0.17971129638E+02 -0.77505228421E+02  0.29509449879E+03  0.30563178034E+03  0.00000000000E+00 0.  1.
         11    1    1    2    0    0  0.14028794639E+02  0.23992393070E+02  0.13682457471E+03  0.13961878902E+03  0.00000000000E+00 0. -1.
</event>
<event>
 7    1  0.2594791E-009  0.1571934E+03  0.7561462E-02  0.1191902E+00
         -4   -1    0    0    0  501 -0.00000000000E+00  0.00000000000E+00  0.16986723969E+03  0.16986723969E+03  0.00000000000E+00 0.  1.
          4   -1    0    0  501    0  0.00000000000E+00 -0.00000000000E+00 -0.15248724738E+03  0.15248724738E+03  0.00000000000E+00 0. -1.
         25    2    1    2    0    0 -0.10041574667E+03  0.65698659949E+02  0.50291487976E+01  0.17341319718E+03  0.12508880254E+03 0.  0.
          5    1    3    3  502    0 -0.11783366262E+02 -0.34762913270E+02 -0.10689804812E+02  0.38458447529E+02  0.41800000000E+01 0. -1.
         -5    1    3    3    0  502 -0.88632380406E+02  0.10046157322E+03  0.15718953610E+02  0.13495474965E+03  0.41800000000E+01 0. -1.
        -11    1    1    2    0    0  0.50986742438E+01 -0.45740210841E+02  0.22129447550E+02  0.51067365466E+02  0.00000000000E+00 0.  1.
         11    1    1    2    0    0  0.95317072424E+02 -0.19958449109E+02 -0.97786040360E+01  0.97873924429E+02  0.00000000000E+00 0. -1.
</event>
<event>
 7    1  0.2594791E-009  0.2132622E+03  0.7561462E-02  0.1139008E+00
          2   -1    0    0  501    0  0.00000000000E+00  0.00000000000E+00  0.23488111780E+03  0.23488111780E+03  0.00000000000E+00 0. -1.
         -2   -1    0    0    0  501 -0.00000000000E+00 -0.00000000000E+00 -0.23038408371E+03  0.23038408371E+03  0.00000000000E+00 0.  1.
         25    2    1    2    0    0  0.14644322953E+03 -0.13210795883E+03 -0.54362775283E+02  0.23979315394E+03  0.12508922047E+03 0.  0.
          5    1    3    3  502    0  0.16194313329E+02  0.18107727541E+02 -0.30933055488E+02  0.39553405703E+02  0.41800000000E+01 0.  1.
         -5    1    3    3    0  502  0.13024891620E+03 -0.15021568638E+03 -0.23429719795E+02  0.20023974824E+03  0.41800000000E+01 0.  1.
        -11    1    1    2    0    0 -0.96895009600E+02  0.11548149014E+03  0.55975143164E+01  0.15085075279E+03  0.00000000000E+00 0.  1.
         11    1    1    2    0    0 -0.49548219931E+02  0.16626468696E+02  0.53262295057E+02  0.74621294778E+02  0.00000000000E+00 0. -1.
</event>
<event>
 7    1  0.2594791E-009  0.8925071E+02  0.7561462E-02  0.1304676E+00
         -1   -1    0    0    0  501 -0.00000000000E+00  0.00000000000E+00  0.15188676949E+03  0.15188676949E+03  0.00000000000E+00 0.  1.
          1   -1    0    0  501    0  0.00000000000E+00 -0.00000000000E+00 -0.91967108304E+02  0.91967108304E+02  0.00000000000E+00 0. -1.
         25    2    1    2    0    0 -0.56310933229E+01 -0.68838053922E+01 -0.14537977273E+02  0.12624563426E+03  0.12509001318E+03 0.  0.
          5    1    3    3  502    0  0.13460446925E+02  0.48192448677E+02  0.24596174853E+02  0.55911894604E+02  0.41800000000E+01 0.  1.
         -5    1    3    3    0  502 -0.19091540248E+02 -0.55076254069E+02 -0.39134152125E+02  0.70333739655E+02  0.41800000000E+01 0.  1.
        -11    1    1    2    0    0 -0.21885828531E+02  0.27730914941E+02  0.75193047926E+02  0.83078201656E+02  0.00000000000E+00 0.  1.
         11    1    1    2    0    0  0.27516921854E+02 -0.20847109549E+02 -0.73540947073E+00  0.34530041876E+02  0.00000000000E+00 0. -1.
</event>
<event>
 7    1  0.2594791E-009  0.2327757E+03  0.7561462E-02  0.1124701E+00
         -2   -1    0    0    0  501 -0.00000000000E+00  0.00000000000E+00  0.13034357577E+03  0.13034357577E+03  0.00000000000E+00 0.  1.
          2   -1    0    0  501    0  0.00000000000E+00 -0.00000000000E+00 -0.14521685952E+04  0.14521685952E+04  0.00000000000E+00 0. -1.
         25    2    1    2    0    0  0.17531931637E+03 -0.12900230299E+03 -0.13246544758E+04  0.13482342826E+04  0.12509094188E+03 0.  0.
          5    1    3    3  502    0  0.13701515617E+03 -0.15055895815E+03 -0.11614681531E+04  0.11791806036E+04  0.41800000000E+01 0.  1.
         -5    1    3    3    0  502  0.38304160200E+02  0.21556655156E+02 -0.16318632272E+03  0.16905367903E+03  0.41800000000E+01 0.  1.
        -11    1    1    2    0    0 -0.13911712587E+03  0.10593146824E+03  0.37814116944E+02  0.17889929602E+03  0.00000000000E+00 0.  1.
         11    1    1    2    0    0 -0.36202190500E+02  0.23070834748E+02 -0.34984660598E+02  0.55378592345E+02  0.00000000000E+00 0. -1.
</event>
<event>
 7    1  0.2594791E-009  0.8194678E+02  0.7561462E-02  0.1323616E+00
          1   -1    0    0  501    0  0.00000000000E+00  0.00000000000E+00  0.74289107397E+03  0.74289107397E+03  0.00000000000E+00 0. -1.
         -1   -1    0    0    0  501 -0.00000000000E+00 -0.00000000000E+00 -0.21775513851E+02  0.21775513851E+02  0.00000000000E+00 0.  1.
         25    2    1    2    0    0 -0.21927665298E+00 -0.57462159185E+02  0.49506115617E+03  0.51384339417E+03  0.12509011777E+03 0.  0.
          5    1    3    3  502    0 -0.13640630364E+02 -0.58084413748E+02  0.87208590325E+02  0.10574817513E+03  0.41800000000E+01 0.  1.
         -5    1    3    3    0  502  0.13421353711E+02  0.62225456308E+00  0.40785256585E+03  0.40809521904E+03  0.41800000000E+01 0.  1.
        -11    1    1    2    0    0 -0.31517312126E+02  0.10284694650E+02  0.16119820010E+03  0.16457209856E+03  0.00000000000E+00 0. -1.
         11    1    1    2    0    0  0.31736588779E+02  0.47177464535E+02  0.64856203852E+02  0.86251095097E+02  0.00000000000E+00 0.  1.
</event>
<event>
 7    1  0.2594791E-009  0.2297719E+03  0.7561462E-02  0.1126800E+00
         -2   -1    0    0    0  501 -0.00000000000E+00  0.00000000000E+00  0.48676753262E+03  0.48676753262E+03  0.00000000000E+00 0.  1.
          2   -1    0    0  501    0  0.00000000000E+00 -0.00000000000E+00 -0.19557990934E+03  0.19557990934E+03  0.00000000000E+00 0. -1.
         25    2    1    2    0    0 -0.13377041265E+03  0.15890774517E+03 -0.73010706581E+02  0.25322634812E+03  0.12508727086E+03 0.  0.
          5    1    3    3  502    0 -0.14622772089E+03  0.98147551491E+02 -0.32797610439E+02  0.17918884974E+03  0.41800000000E+01 0.  1.
         -5    1    3    3    0  502  0.12457308243E+02  0.60760193677E+02 -0.40213096142E+02  0.74037498375E+02  0.41800000000E+01 0.  1.
        -11    1    1    2    0    0  0.12444634294E+03 -0.94816607166E+02  0.20998917439E+03  0.26186358019E+03  0.00000000000E+00 0. -1.
         11    1    1    2    0    0  0.93240697153E+01 -0.64091138002E+02  0.15420915547E+03  0.16725751366E+03  0.00000000000E+00 0.  1.
</event>
<event>
 7    1  0.2594791E-009  0.1038761E+03  0.7561462E-02  0.1272350E+00
          1   -1    0    0  501    0  0.00000000000E+00  0.00000000000E+00  0.11619553927E+03  0.11619553927E+03  0.00000000000E+00 0. -1.
         -1   -1    0    0    0  501 -0.00000000000E+00 -0.00000000000E+00 -0.14746426817E+03  0.14746426817E+03  0.00000000000E+00 0.  1.
         25    2    1    2    0    0  0.61551430617E+02  0.58781012181E+01  0.22450822718E+02  0.14132337229E+03  0.12508047581E+03 0.  0.
          5    1    3    3  502    0  0.90787673492E+02  0.21804708932E+02 -0.10799656739E+02  0.94084812671E+02  0.41800000000E+01 0. -1.
         -5    1    3    3    0  502 -0.29236242875E+02 -0.15926607714E+02  0.33250479457E+02  0.47238559618E+02  0.41800000000E+01 0. -1.
        -11    1    1    2    0    0 -0.46483796794E+02 -0.27778867356E+02  0.83706097387E+01  0.54794853256E+02  0.00000000000E+00 0. -1.
         11    1    1    2    0    0 -0.15067633823E+02  0.21900766138E+02 -0.62090161356E+02  0.67541581886E+02  0.00000000000E+00 0.  1.
</event>
<event>
 7    1  0.2594791E-009  0.1221340E+03  0.7561462E-02  0.1239618E+00
         -1   -1    0    0    0  501 -0.00000000000E+00  0.00000000000E+00  0.10624190763E+02  0.10624190763E+02  0.00000000000E+00 0.  1.
          1   -1    0    0  501    0  0.00000000000E+00 -0.00000000000E+00 -0.14316631748E+04  0.14316631748E+04  0.00000000000E+00 0. -1.
         25    2    1    2    0    0  0.41356786232E+02 -0.43060132073E+02 -0.82924699731E+03  0.84075141999E+03  0.12509120239E+03 0.  0.
          5    1    3    3  502    0  0.58352365645E+02 -0.78260581782E+02 -0.64484535799E+03  0.65220604517E+03  0.41800000000E+01 0. -1.
         -5    1    3    3    0  502 -0.16995579413E+02  0.35200449709E+02 -0.18440163933E+03  0.18854537482E+03  0.41800000000E+01 0. -1.
        -11    1    1    2    0    0  0.28156563439E+02  0.73630839519E+01 -0.13418849210E+03  0.13730826079E+03  0.00000000000E+00 0. -1.
         11    1    1    2    0    0 -0.69513349671E+02  0.35697048121E+02 -0.45760349464E+03  0.46422768480E+03  0.00000000000E+00 0.  1.
</event>
<event>
 7    1  0.2594791E-009  0.8623928E+02  0.7561462E-02  0.1312223E+00
         -1   -1    0    0    0  501 -0.00000000000E+00  0.00000000000E+00  0.17944263357E+02  0.17944263357E+02  0.00000000000E+00 0.  1.
          1   -1    0    0  501    0  0.00000000000E+00 -0.00000000000E+00 -0.77106173059E+03  0.77106173059E+03  0.00000000000E+00 0. -1.
         25    2    1    2    0    0  0.28563472017E+02  0.34381894326E+02 -0.37415784871E+03  0.39704571908E+03  0.12511283187E+03 0.  0.
          5    1    3    3  502    0  0.45616160525E+02  0.76888616688E+01 -0.39807723494E+02  0.61172542407E+02  0.41800000000E+01 0. -1.
         -5    1    3    3    0  502 -0.17052688508E+02  0.26693032657E+02 -0.33435012521E+03  0.33587317667E+03  0.41800000000E+01 0. -1.
        -11    1    1    2    0    0  0.25872885578E+02 -0.29781246203E+02 -0.22870201164E+03  0.23207959618E+03  0.00000000000E+00 0. -1.
         11    1    1    2    0    0 -0.54436357595E+02 -0.46006481229E+01 -0.15025760689E+03  0.15988067870E+03  0.00000000000E+00 0.  1.
</event>
<event>
 7    1  0.2594791E-009  0.1070978E+03  0.7561462E-02  0.1266041E+00
          2   -1    0    0  501    0  0.00000000000E+00  0.00000000000E+00  0.39260273065E+03  0.39260273065E+03  0.00000000000E+00 0.  1.
         -2   -1    0    0    0  501 -0.00000000000E+00 -0.00000000000E+00 -0.59741818326E+02  0.59741818326E+02  0.00000000000E+00 0. -1.
         25    2    1    2    0    0 -0.57899550587E+02 -0.21939130645E+02  0.41794799427E+02  0.14569844323E+03  0.12509015824E+03 0.  0.
          5    1    3    3  502    0 -0.83441799659E+02  0.42004575575E+01  0.61632658720E+02  0.10390493152E+03  0.41800000000E+01 0. -1.
         -5    1    3    3    0  502  0.25542249073E+02 -0.26139588203E+02 -0.19837859293E+02  0.41793511703E+02  0.41800000000E+01 0. -1.
        -11    1    1    2    0    0  0.59063186838E+02  0.42752437891E+02  0.19126819612E+03  0.20469429360E+03  0.00000000000E+00 0. -1.
         11    1    1    2    0    0 -0.11636362515E+01 -0.20813307246E+02  0.99797916783E+02  0.10195181216E+03  0.00000000000E+00 0.  1.
</event>
<event>
 7    1  0.2594791E-009  0.1192063E+03  0.7561462E-02  0.1244412E+00
          1   -1    0    0  501    0  0.00000000000E+00  0.00000000000E+00  0.14337997987E+03  0.14337997987E+03  0.00000000000E+00 0. -1.
         -1   -1    0    0    0  501 -0.00000000000E+00 -0.00000000000E+00 -0.13034374377E+03  0.13034374377E+03  0.00000000000E+00 0.  1.
         25    2    1    2    0    0 -0.73102557145E+02 -0.38208863886E+02  0.11174777413E+01  0.14984338658E+03  0.12509152891E+03 0.  0.
          5    1    3    3  502    0 -0.10385536149E+03 -0.45476426492E+02  0.16158698635E+02  0.11459763269E+03  0.41800000000E+01 0.  1.
         -5    1    3    3    0  502  0.30752804346E+02  0.72675626057E+01 -0.15041220894E+02  0.35245753892E+02  0.41800000000E+01 0.  1.
        -11    1    1    2    0    0  0.60452364940E+02  0.47916270547E+02  0.43458663681E+02  0.88538764725E+02  0.00000000000E+00 0. -1.
         11    1    1    2    0    0  0.12650192205E+02 -0.97074066612E+01 -0.31539905327E+02  0.35341572333E+02  0.00000000000E+00 0.  1.
</event>
<event>
 7    1  0.2594791E-009  0.1514408E+03  0.7561462E-02  0.1198714E+00
         -2   -1    0    0    0  501 -0.00000000000E+00  0.00000000000E+00  0.27094051981E+02  0.27094051981E+02  0.00000000000E+00 0.  1.
          2   -1    0    0  501    0  0.00000000000E+00 -0.00000000000E+00 -0.13349026561E+04  0.13349026561E+04  0.00000000000E+00 0. -1.
         25    2    1    2    0    0 -0.81982051017E+02  0.11016664594E+03 -0.92500291673E+03  0.94347004497E+03  0.12509030033E+03 0.  0.
          5    1    3    3  502    0 -0.32549141620E+02 -0.97400498868E+01 -0.44251037429E+03  0.44383242214E+03  0.41800000000E+01 0. -1.
         -5    1    3    3    0  502 -0.49432909397E+02  0.11990669583E+03 -0.48249254244E+03  0.49963762283E+03  0.41800000000E+01 0. -1.
        -11    1    1    2    0    0  0.20764116877E+02 -0.44523967885E+02 -0.37662751258E+02  0.61903272112E+02  0.00000000000E+00 0.  1.
         11    1    1    2    0    0  0.61217934140E+02 -0.65642678059E+02 -0.34514293609E+03  0.35662339096E+03  0.00000000000E+00 0. -1.
</event>
<event>
 7    1  0.2594791E-009  0.1119956E+03  0.7561462E-02  0.1256918E+00
         -1   -1    0    0    0  501 -0.00000000000E+00  0.00000000000E+00  0.13925278679E+03  0.13925278679E+03  0.00000000000E+00 0.  1.
          1   -1    0    0  501    0  0.00000000000E+00 -0.00000000000E+00 -0.99809272135E+02  0.99809272135E+02  0.00000000000E+00 0. -1.
         25    2    1    2    0    0  0.29526325056E+02  0.14231467079E+01 -0.11177306019E+02  0.12902002924E+03  0.12508959412E+03 0.  0.
          5    1    3    3  502    0 -0.17152798764E+02  0.54722529877E+02 -0.69873890512E+01  0.57922964248E+02  0.41800000000E+01 0.  1.
         -5    1    3    3    0  502  0.46679123820E+02 -0.53299383169E+02 -0.41899169674E+01  0.71097064996E+02  0.41800000000E+01 0.  1.
        -11    1    1    2    0    0 -0.15757128987E+02  0.44693282692E+02  0.13540147422E+02  0.49286024631E+02  0.00000000000E+00 0.  1.
         11    1    1    2    0    0 -0.13769196069E+02 -0.46116429400E+02  0.37080673255E+02  0.60756005054E+02  0.00000000000E+00 0. -1.
</event>
<event>
 7    1  0.2594791E-009  0.8824743E+02  0.7561462E-02  0.1307152E+00
         -1   -1    0    0    0  501 -0.00000000000E+00  0.00000000000E+00  0.21873848463E+02  0.21873848463E+02  0.00000000000E+00 0.  1.
          1   -1    0    0  501    0  0.00000000000E+00 -0.00000000000E+00 -0.10136847919E+04  0.10136847919E+04  0.00000000000E+00 0. -1.
         25    2    1    2    0    0  0.64489064763E+02 -0.40703588727E+02 -0.80381547522E+03  0.81705615886E+03  0.12508327988E+03 0.  0.
          5    1    3    3  502    0  0.23451605225E+02 -0.20630869994E+01 -0.68566975471E+03  0.68608652446E+03  0.41800000000E+01 0. -1.
         -5    1    3    3    0  502  0.41037459539E+02 -0.38640501727E+02 -0.11814572051E+03  0.13096963440E+03  0.41800000000E+01 0. -1.
        -11    1    1    2    0    0 -0.34391030903E+02 -0.11111040773E+02 -0.22695168734E+02  0.42676327367E+02  0.00000000000E+00 0.  1.
         11    1    1    2    0    0 -0.30098033860E+02  0.51814629499E+02 -0.16530029950E+03  0.17582615416E+03  0.00000000000E+00 0. -1.
</event>
<event>
 7    1  0.2594791E-009  0.9524687E+02  0.7561462E-02  0.1290621E+00
          1   -1    0    0  501    0  0.00000000000E+00  0.00000000000E+00  0.70832548216E+03  0.70832548216E+03  0.00000000000E+00 0. -1.
         -1   -1    0    0    0  501 -0.00000000000E+00 -0.00000000000E+00 -0.25554596645E+02  0.25554596645E+02  0.00000000000E+00 0.  1.
         25    2    1    2    0    0 -0.15184345704E+02  0.63027401103E+02  0.49252236658E+03  0.51227918200E+03  0.12509460856E+03 0.  0.
          5    1    3    3  502    0 -0.87848799353E+01 -0.21423574087E+02  0.16438370138E+02  0.28702544399E+02  0.41800000000E+01 0.  1.
         -5    1    3    3    0  502 -0.63994657684E+01  0.84450975190E+02  0.47608399644E+03  0.48357663761E+03  0.41800000000E+01 0.  1.
        -11    1    1    2    0    0  0.24042163667E+02 -0.64368531634E+01  0.21583641624E+01  0.24982338728E+02  0.00000000000E+00 0.  1.
         11    1    1    2    0    0 -0.88578179636E+01 -0.56590547940E+02  0.18809015478E+03  0.19661855807E+03  0.00000000000E+00 0. -1.
</event>
<event>
 7    1  0.2594791E-009  0.1383670E+03  0.7561462E-02  0.1215543E+00
         -2   -1    0    0    0  501 -0.00000000000E+00  0.00000000000E+00  0.13464211739E+03  0.13464211739E+03  0.00000000000E+00 0.  1.
          2   -1    0    0  501    0  0.00000000000E+00 -0.00000000000E+00 -0.21870572592E+03  0.21870572592E+03  0.00000000000E+00 0. -1.
         25    2    1    2    0    0  0.94560180549E+02 -0.39722000906E+02 -0.13143108915E+03  0.20842718820E+03  0.12509315123E+03 0.  0.
          5    1    3    3  502    0  0.20736744349E+02 -0.70804518990E+02 -0.31610903873E+02  0.80374213024E+02  0.41800000000E+01 0.  1.
         -5    1    3    3    0  502  0.73823436200E+02  0.31082518084E+02 -0.99820185273E+02  0.12805297517E+03  0.41800000000E+01 0.  1.
        -11    1    1    2    0    0 -0.10468797787E+03  0.40978432729E+02  0.18030327252E+02  0.11385911189E+03  0.00000000000E+00 0. -1.
         11    1    1    2    0    0  0.10127797325E+02 -0.12564318234E+01  0.29337153368E+02  0.31061543222E+02  0.00000000000E+00 0.  1.
</event>
<event>
 7    1  0.2594791E-009  0.1436182E+03  0.7561462E-02  0.1208542E+00
          1   -1    0    0  501    0  0.00000000000E+00  0.00000000000E+00  0.29211597460E+03  0.29211597460E+03  0.00000000000E+00 0. -1.
         -1   -1    0    0    0  501 -0.00000000000E+00 -0.00000000000E+00 -0.12242125840E+03  0.12242125840E+03  0.00000000000E+00 0.  1.
         25    2    1    2    0    0 -0.98886304215E+02 -0.92488684209E+01 -0.40084255658E+02  0.16467606941E+03  0.12508963809E+03 0.  0.
          5    1    3    3  502    0 -0.11819843570E+03 -0.36366521223E+02 -0.19369706190E+02  0.12524396986E+03  0.41800000000E+01 0.  1.
         -5    1    3    3    0  502  0.19312131484E+02  0.27117652802E+02 -0.20714549468E+02  0.39432099559E+02  0.41800000000E+01 0.  1.
        -11    1    1    2    0    0  0.12701603281E+01  0.30101218061E+02  0.84298946894E+02  0.89520998003E+02  0.00000000000E+00 0. -1.
         11    1    1    2    0    0  0.97616143887E+02 -0.20852349640E+02  0.12548002496E+03  0.16034016558E+03  0.00000000000E+00 0.  1.
</event>
<event>
 7    1  0.2594791E-009  0.1087311E+03  0.7561462E-02  0.1262938E+00
         -2   -1    0    0    0  501 -0.00000000000E+00  0.00000000000E+00  0.24144734630E+02  0.24144734630E+02  0.00000000000E+00 0.  1.
          2   -1    0    0  501    0  0.00000000000E+00 -0.00000000000E+00 -0.66116214464E+03  0.66116214464E+03  0.00000000000E+00 0. -1.
         25    2    1    2    0    0 -0.81448836936E+01 -0.19615223971E+02 -0.52510759654E+03  0.54021927368E+03  0.12509108512E+03 0.  0.
          5    1    3    3  502    0 -0.61420408683E+02  0.14799781330E+02 -0.26026692405E+03  0.26785788076E+03  0.41800000000E+01 0.  1.
         -5    1    3    3    0  502  0.53275524989E+02 -0.34415005302E+02 -0.26484067248E+03  0.27236139292E+03  0.41800000000E+01 0.  1.
        -11    1    1    2    0    0  0.28976147615E+02 -0.26949737570E+02 -0.63125719409E+02  0.74503435737E+02  0.00000000000E+00 0. -1.
         11    1    1    2    0    0 -0.20831263921E+02  0.46564961542E+02 -0.48784094068E+02  0.70584169854E+02  0.00000000000E+00 0.  1.
</event>
<event>
 7    1  0.2594791E-009  0.1505539E+03  0.7561462E-02  0.1199794E+00
         -2   -1    0    0    0  501 -0.00000000000E+00  0.00000000000E+00  0.33192604805E+02  0.33192604805E+02  0.00000000000E+00 0. -1.
          2   -1    0    0  501    0  0.00000000000E+00 -0.00000000000E+00 -0.10261671659E+04  0.10261671659E+04  0.00000000000E+00 0.  1.
         25    2    1    2    0    0 -0.64914762289E+02 -0.13151566148E+03 -0.48254257221E+03  0.51962055588E+03  0.12509153658E+03 0.  0.
          5    1    3    3  502    0 -0.40798009282E+02 -0.10232449429E+03 -0.15688496721E+03  0.19174239237E+03  0.41800000000E+01 0. -1.
         -5    1    3    3    0  502 -0.24116753008E+02 -0.29191167191E+02 -0.32565760500E+03  0.32787816351E+03  0.41800000000E+01 0. -1.
        -11    1    1    2    0    0  0.53553348322E+01  0.57608297236E+02 -0.78597180994E+02  0.97595657597E+02  0.00000000000E+00 0. -1.
         11    1    1    2    0    0  0.59559427457E+02  0.73907364248E+02 -0.43183480792E+03  0.44214355726E+03  0.00000000000E+00 0.  1.
</event>
<event>
 7    1  0.2594791E-009  0.1067661E+03  0.7561462E-02  0.1266678E+00
          2   -1    0    0  501    0  0.00000000000E+00  0.00000000000E+00  0.74785625276E+03  0.74785625276E+03  0.00000000000E+00 0. -1.
         -2   -1    0    0    0  501 -0.00000000000E+00 -0.00000000000E+00 -0.41600602065E+02  0.41600602065E+02  0.00000000000E+00 0.  1.
         25    2    1    2    0    0  0.97975341421E+02 -0.41403871843E+01  0.58342548516E+03  0.60468903367E+03  0.12508884993E+03 0.  0.
          5    1    3    3  502    0  0.75851832745E+02  0.65990119117E+01  0.57233048726E+03  0.57738783026E+03  0.41800000000E+01 0. -1.
         -5    1    3    3    0  502  0.22123508676E+02 -0.10739399096E+02  0.11094997898E+02  0.27301203406E+02  0.41800000000E+01 0. -1.
        -11    1    1    2    0    0  0.75536679353E+00 -0.12231925621E+02 -0.11801409257E+02  0.17013636996E+02  0.00000000000E+00 0.  1.
         11    1    1    2    0    0 -0.98730708215E+02  0.16372312805E+02  0.13463157479E+03  0.16775418416E+03  0.00000000000E+00 0. -1.
</event>
<event>
 7    1  0.2594791E-009  0.1057263E+03  0.7561462E-02  0.1268695E+00
          2   -1    0    0  501    0  0.00000000000E+00  0.00000000000E+00  0.27693832278E+02  0.27693832278E+02  0.00000000000E+00 0. -1.
         -2   -1    0    0    0  501 -0.00000000000E+00 -0.00000000000E+00 -0.43558748610E+03  0.43558748610E+03  0.00000000000E+00 0.  1.
         25    2    1    2    0    0 -0.16565772041E+01  0.16913445922E+02 -0.24780478121E+03  0.27810918427E+03  0.12509476362E+03 0.  0.
          5    1    3    3  502    0 -0.13272804489E+02 -0.49525964549E+02 -0.62992627057E+02  0.81329772944E+02  0.41800000000E+01 0.  1.
         -5    1    3    3    0  502  0.11616227285E+02  0.66439410472E+02 -0.18481215415E+03  0.19677941133E+03  0.41800000000E+01 0.  1.
        -11    1    1    2    0    0  0.40050150720E+02  0.14736222675E+02 -0.84703722689E+02  0.94846673472E+02  0.00000000000E+00 0.  1.
         11    1    1    2    0    0 -0.38393573516E+02 -0.31649668597E+02 -0.75385149922E+02  0.90325460632E+02  0.00000000000E+00 0. -1.
</event>
<event>
 7    1  0.2594791E-009  0.3494582E+03  0.7561462E-02  0.1062838E+00
         -1   -1    0    0    0  501 -0.00000000000E+00  0.00000000000E+00  0.11224243169E+03  0.11224243169E+03  0.00000000000E+00 0.  1.
          1   -1    0    0  501    0  0.00000000000E+00 -0.00000000000E+00 -0.11715722469E+04  0.11715722469E+04  0.00000000000E+00 0. -1.
         25    2    1    2    0    0 -0.22387679556E+02 -0.34185730965E+03 -0.61719069504E+03  0.71689492391E+03  0.12508536895E+03 0.  0.
          5    1    3    3  502    0 -0.45362629716E+02 -0.12884121587E+03 -0.15008598544E+03  0.20298054711E+03  0.41800000000E+01 0. -1.
         -5    1    3    3    0  502  0.22974950160E+02 -0.21301609378E+03 -0.46710470960E+03  0.51391437679E+03  0.41800000000E+01 0. -1.
        -11    1    1    2    0    0  0.27980967480E+02  0.61642131819E+02 -0.13565162821E+03  0.15160491810E+03  0.00000000000E+00 0. -1.
         11    1    1    2    0    0 -0.55932879238E+01  0.28021517783E+03 -0.30648749196E+03  0.41531483658E+03  0.00000000000E+00 0.  1.
</event>
<event>
 7    1  0.2594791E-009  0.8353936E+02  0.7561462E-02  0.1319297E+00
         -2   -1    0    0    0  501 -0.00000000000E+00  0.00000000000E+00  0.18608311437E+03  0.18608311437E+03  0.00000000000E+00 0.  1.
          2   -1    0    0  501    0  0.00000000000E+00 -0.00000000000E+00 -0.79014723215E+02  0.79014723215E+02  0.00000000000E+00 0. -1.
         25    2    1    2    0    0 -0.18606986196E+02  0.25102414536E+02  0.91729434358E+02  0.15823778933E+03  0.12509419528E+03 0.  0.
          5    1    3    3  502    0  0.57190909083E+01 -0.24928292941E+02 -0.20410279992E+02  0.32987569161E+02  0.41800000000E+01 0.  1.
         -5    1    3    3    0  502 -0.24326077104E+02  0.50030707478E+02  0.11213971435E+03  0.12525022017E+03  0.41800000000E+01 0.  1.
        -11    1    1    2    0    0 -0.17847946212E+02 -0.41670721604E+02  0.39470436365E+02  0.60107516750E+02  0.00000000000E+00 0.  1.
         11    1    1    2    0    0  0.36454932408E+02  0.16568307067E+02 -0.24131479569E+02  0.46752531505E+02  0.00000000000E+00 0. -1.
</event>
<event>
 7    1  0.2594791E-009  0.1161711E+03  0.7561462E-02  0.1249551E+00
          2   -1    0    0  501    0  0.00000000000E+00  0.00000000000E+00  0.78247021195E+02  0.78247021195E+02  0.00000000000E+00 0. -1.
         -2   -1    0    0    0  501 -0.00000000000E+00 -0.00000000000E+00 -0.25972191668E+03  0.25972191668E+03  0.00000000000E+00 0.  1.
         25    2    1    2    0    0 -0.87858940950E+02  0.14374462316E+02 -0.58572544646E+02  0.16432808814E+03  0.12508860417E+03 0.  0.
          5    1    3    3  502    0 -0.74742187274E+02  0.44798038192E+02 -0.84954900017E+02  0.12177054743E+03  0.41800000000E+01 0. -1.
         -5    1    3    3    0  502 -0.13116753675E+02 -0.30423575876E+02  0.26382355372E+02  0.42557540707E+02  0.41800000000E+01 0. -1.
        -11    1    1    2    0    0  0.31042832411E+02  0.27226780226E+02 -0.82998608206E+02  0.92702340692E+02  0.00000000000E+00 0. -1.
         11    1    1    2    0    0  0.56816108539E+02 -0.41601242542E+02 -0.39903742631E+02  0.80938509045E+02  0.00000000000E+00 0.  1.
</event>
<event>
 7    1  0.2594791E-009  0.1201665E+03  0.7561462E-02  0.1242823E+00
          2   -1    0    0  501    0  0.00000000000E+00  0.00000000000E+00  0.77529744372E+03  0.77529744372E+03  0.00000000000E+00 0. -1.
         -2   -1    0    0    0  501 -0.00000000000E+00 -0.00000000000E+00 -0.23342117934E+02  0.23342117934E+02  0.00000000000E+00 0.  1.
         25    2    1    2    0    0 -0.54687896252E+02  0.47779029912E+02  0.50523736049E+03  0.52553586710E+03  0.12509818338E+03 0.  0.
          5    1    3    3  502    0 -0.77497882792E+02  0.46426051899E+01  0.42080867227E+03  0.42793093681E+03  0.41800000000E+01 0. -1.
         -5    1    3    3    0  502  0.22809986540E+02  0.43136424722E+02  0.84428688217E+02  0.97604930295E+02  0.41800000000E+01 0. -1.
        -11    1    1    2    0    0  0.17191127844E+02  0.25813766307E+02  0.10042550524E+03  0.10510550657E+03  0.00000000000E+00 0.  1.
         11    1    1    2    0    0  0.37496768408E+02 -0.73592796219E+02  0.14629246005E+03  0.16799818798E+03  0.00000000000E+00 0. -1.
</event>
<event>
 7    1  0.2594791E-009  0.1730621E+03  0.7561462E-02  0.1174692E+00
          1   -1    0    0  501    0  0.00000000000E+00  0.00000000000E+00  0.15859934382E+03  0.15859934382E+03  0.00000000000E+00 0. -1.
         -1   -1    0    0    0  501 -0.00000000000E+00 -0.00000000000E+00 -0.22799161385E+03  0.22799161385E+03  0.00000000000E+00 0.  1.
         25    2    1    2    0    0 -0.13659927581E+03  0.56804054296E+02 -0.92017991741E+02  0.21447841861E+03  0.12509044132E+03 0.  0.
          5    1    3    3  502    0 -0.13506221677E+03  0.76658847021E+02 -0.42686102880E+02  0.16111473243E+03  0.41800000000E+01 0.  1.
         -5    1    3    3    0  502 -0.15370590418E+01 -0.19854792725E+02 -0.49331888861E+02  0.53363686185E+02  0.41800000000E+01 0.  1.
        -11    1    1    2    0    0  0.77645389370E+02 -0.75770166224E+02  0.18403904841E+02  0.11003921253E+03  0.00000000000E+00 0. -1.
         11    1    1    2    0    0  0.58953886443E+02  0.18966111928E+02  0.42218168738E+01  0.62073326527E+02  0.00000000000E+00 0.  1.
</event>
<event>
 7    1  0.2594791E-009  0.1710101E+03  0.7561462E-02  0.1176799E+00
         -2   -1    0    0    0  501 -0.00000000000E+00  0.00000000000E+00  0.70102294752E+02  0.70102294752E+02  0.00000000000E+00 0.  1.
          2   -1    0    0  501    0  0.00000000000E+00 -0.00000000000E+00 -0.48506849249E+03  0.48506849249E+03  0.00000000000E+00 0. -1.
         25    2    1    2    0    0  0.87774704507E+02 -0.11350848035E+03 -0.16373652917E+03  0.25108885745E+03  0.12508952588E+03 0.  0.
          5    1    3    3  502    0 -0.14853494116E+02  0.16178199854E+02 -0.76132047226E+01  0.23617657041E+02  0.41800000000E+01 0. -1.
         -5    1    3    3    0  502  0.10262819862E+03 -0.12968668021E+03 -0.15612332445E+03  0.22747120041E+03  0.41800000000E+01 0. -1.
        -11    1    1    2    0    0 -0.18647791073E+02  0.70247855103E+02 -0.53656803017E+02  0.90341318168E+02  0.00000000000E+00 0.  1.
         11    1    1    2    0    0 -0.69126913433E+02  0.43260625252E+02 -0.19757286555E+03  0.21374061163E+03  0.00000000000E+00 0. -1.
</event>
<event>
 7    1  0.2594791E-009  0.9244770E+02  0.7561462E-02  0.1297030E+00
          3   -1    0    0  501    0  0.00000000000E+00  0.00000000000E+00  0.37952529008E+03  0.37952529008E+03  0.00000000000E+00 0. -1.
         -3   -1    0    0    0  501 -0.00000000000E+00 -0.00000000000E+00 -0.40617292485E+02  0.40617292485E+02  0.00000000000E+00 0.  1.
         25    2    1    2    0    0  0.57168327193E+02  0.12618654646E+02  0.16378171263E+03  0.21424512394E+03  0.12509626558E+03 0.  0.
          5    1    3    3  502    0 -0.18300658122E+02 -0.12910358148E+02 -0.85564149594E+01  0.24336722708E+02  0.41800000000E+01 0. -1.
         -5    1    3    3    0  502  0.75468985315E+02  0.25529012794E+02  0.17233812759E+03  0.18990840123E+03  0.41800000000E+01 0. -1.
        -11    1    1    2    0    0 -0.43446618759E+02 -0.35195248194E+02  0.17003457828E+03  0.17899182101E+03  0.00000000000E+00 0. -1.
         11    1    1    2    0    0 -0.13721708434E+02  0.22576593547E+02  0.50917066869E+01  0.26905637616E+02  0.00000000000E+00 0.  1.
</event>
<event>
 7    1  0.2594791E-009  0.2460765E+03  0.7561462E-02  0.1115810E+00
          1   -1    0    0  501    0  0.00000000000E+00  0.00000000000E+00  0.54114825376E+03  0.54114825376E+03  0.00000000000E+00 0. -1.
         -1   -1    0    0    0  501 -0.00000000000E+00 -0.00000000000E+00 -0.12544358101E+03  0.12544358101E+03  0.00000000000E+00 0.  1.
         25    2    1    2    0    0 -0.16955022653E+03 -0.14458942279E+03  0.10684609430E+03  0.27697808542E+03  0.12508953368E+03 0.  0.
          5    1    3    3  502    0 -0.91239114323E+02 -0.12657050030E+01  0.49050611437E+02  0.10368033986E+03  0.41800000000E+01 0. -1.
         -5    1    3    3    0  502 -0.78311112206E+02 -0.14332371779E+03  0.57795482863E+02  0.17329774556E+03  0.41800000000E+01 0. -1.
        -11    1    1    2    0    0  0.94599979829E+02  0.13048212317E+03  0.20537157026E+03  0.26105980641E+03  0.00000000000E+00 0.  1.
         11    1    1    2    0    0  0.74950246699E+02  0.14107299627E+02  0.10348700818E+03  0.12855394294E+03  0.00000000000E+00 0. -1.
</event>
<event>
 7    1  0.2594791E-009  0.1074098E+03  0.7561462E-02  0.1265443E+00
         -1   -1    0    0    0  501 -0.00000000000E+00  0.00000000000E+00  0.25896400479E+02  0.25896400479E+02  0.00000000000E+00 0.  1.
          1   -1    0    0  501    0  0.00000000000E+00 -0.00000000000E+00 -0.46978239185E+03  0.46978239185E+03  0.00000000000E+00 0. -1.
         25    2    1    2    0    0  0.43575677160E+01  0.97328000596E+01 -0.22108353203E+03  0.25424078011E+03  0.12508689117E+03 0.  0.
          5    1    3    3  502    0 -0.49942201256E+02 -0.27346551538E+02 -0.77462767169E+02  0.96228945983E+02  0.41800000000E+01 0.  1.
         -5    1    3    3    0  502  0.54299768972E+02  0.37079351598E+02 -0.14362076486E+03  0.15801183413E+03  0.41800000000E+01 0.  1.
        -11    1    1    2    0    0  0.39045333131E+02 -0.24383538576E+02 -0.92577842531E+02  0.10339125650E+03  0.00000000000E+00 0.  1.
         11    1    1    2    0    0 -0.43402900847E+02  0.14650738516E+02 -0.13022461681E+03  0.13804675572E+03  0.00000000000E+00 0. -1.
</event>
<event>
 7    1  0.2594791E-009  0.1120437E+03  0.7561462E-02  0.1256831E+00
         -1   -1    0    0    0  501 -0.00000000000E+00  0.00000000000E+00  0.53509752339E+03  0.53509752339E+03  0.00000000000E+00 0.  1.
          1   -1    0    0  501    0  0.00000000000E+00 -0.00000000000E+00 -0.28310950700E+02  0.28310950700E+02  0.00000000000E+00 0. -1.
         25    2    1    2    0    0  0.20079891707E+02 -0.51784984436E+02  0.30859410538E+03  0.33758380972E+03  0.12509044747E+03 0.  0.
          5    1    3    3  502    0  0.57401136627E+02 -0.46326726421E+01  0.23728998524E+03  0.24421376218E+03  0.41800000000E+01 0.  1.
         -5    1    3    3    0  502 -0.37321244920E+02 -0.47152311794E+02  0.71304120142E+02  0.93370047548E+02  0.41800000000E+01 0.  1.
        -11    1    1    2    0    0  0.29172775584E+02  0.48636589237E+02  0.12816903405E+03  0.14015659077E+03  0.00000000000E+00 0. -1.
         11    1    1    2    0    0 -0.49252667291E+02  0.31483951989E+01  0.70023433258E+02  0.85668073591E+02  0.00000000000E+00 0.  1.
</event>
<event>
 7    1  0.2594791E-009  0.1674463E+03  0.7561462E-02  0.1180537E+00
          1   -1    0    0  501    0  0.00000000000E+00  0.00000000000E+00  0.45055827664E+02  0.45055827664E+02  0.00000000000E+00 0. -1.
         -1   -1    0    0    0  501 -0.00000000000E+00 -0.00000000000E+00 -0.83287735933E+03  0.83287735933E+03  0.00000000000E+00 0.  1.
         25    2    1    2    0    0  0.12713709437E+03  0.94772980344E+02 -0.36616110147E+03  0.41817141624E+03  0.12509045749E+03 0.  0.
          5    1    3    3  502    0  0.14756042125E+02  0.15248837185E+02  0.50688945516E+01  0.22213372249E+02  0.41800000000E+01 0.  1.
         -5    1    3    3    0  502  0.11238105224E+03  0.79524143159E+02 -0.37122999603E+03  0.39595804399E+03  0.41800000000E+01 0.  1.
        -11    1    1    2    0    0 -0.74413353118E+02 -0.91470469521E+01 -0.11723377335E+03  0.13915736849E+03  0.00000000000E+00 0. -1.
         11    1    1    2    0    0 -0.52723741252E+02 -0.85625933392E+02 -0.30442665684E+03  0.32060440227E+03  0.00000000000E+00 0.  1.
</event>
<event>
 7    1  0.2594791E-009  0.1110380E+03  0.7561462E-02  0.1258660E+00
         -1   -1    0    0    0  501 -0.00000000000E+00  0.00000000000E+00  0.81669953901E+03  0.81669953901E+03  0.00000000000E+00 0.  1.
          1   -1    0    0  501    0  0.00000000000E+00 -0.00000000000E+00 -0.19743331125E+02  0.19743331125E+02  0.00000000000E+00 0. -1.
         25    2    1    2    0    0 -0.20820360576E+02  0.43273715714E+02  0.58952106385E+03  0.60455000842E+03  0.12505809081E+03 0.  0.
          5    1    3    3  502    0  0.42676390774E+02  0.16077640266E+01  0.36459292138E+03  0.36710942504E+03  0.41800000000E+01 0. -1.
         -5    1    3    3    0  502 -0.63496751350E+02  0.41665951687E+02  0.22492814247E+03  0.23744058339E+03  0.41800000000E+01 0. -1.
        -11    1    1    2    0    0  0.55100249839E+02 -0.41127039840E+02  0.14925803030E+03  0.16433329105E+03  0.00000000000E+00 0.  1.
         11    1    1    2    0    0 -0.34279889263E+02 -0.21466758730E+01  0.58177113730E+02  0.67559570656E+02  0.00000000000E+00 0. -1.
</event>
<event>
 7    1  0.2594791E-009  0.1048578E+03  0.7561462E-02  0.1270400E+00
         -2   -1    0    0    0  501 -0.00000000000E+00  0.00000000000E+00  0.34559419943E+02  0.34559419943E+02  0.00000000000E+00 0.  1.
          2   -1    0    0  501    0  0.00000000000E+00 -0.00000000000E+00 -0.17400170647E+04  0.17400170647E+04  0.00000000000E+00 0. -1.
         25    2    1    2    0    0  0.52802475268E+02  0.88952608498E+02 -0.15831944796E+04  0.15914937293E+04  0.12508741796E+03 0.  0.
          5    1    3    3  502    0  0.11833191307E+02  0.34603650705E+02 -0.12879987617E+04  0.12885246290E+04  0.41800000000E+01 0.  1.
         -5    1    3    3    0  502  0.40969283961E+02  0.54348957793E+02 -0.29519571797E+03  0.30296910032E+03  0.41800000000E+01 0.  1.
        -11    1    1    2    0    0 -0.27737477016E+02 -0.31122904587E+02 -0.11163449727E+03  0.11916485976E+03  0.00000000000E+00 0. -1.
         11    1    1    2    0    0 -0.25064998253E+02 -0.57829703912E+02 -0.10628667831E+02  0.63917895552E+02  0.00000000000E+00 0.  1.
</event>
<event>
 7    1  0.2594791E-009  0.1099843E+03  0.7561462E-02  0.1260599E+00
         -3   -1    0    0    0  501 -0.00000000000E+00  0.00000000000E+00  0.25697952001E+03  0.25697952001E+03  0.00000000000E+00 0.  1.
          3   -1    0    0  501    0  0.00000000000E+00 -0.00000000000E+00 -0.58701343509E+02  0.58701343509E+02  0.00000000000E+00 0. -1.
         25    2    1    2    0    0  0.52717314140E+02  0.59229481353E+01  0.14031455171E+03  0.19531978264E+03  0.12508975796E+03 0.  0.
          5    1    3    3  502    0  0.91682949739E+02  0.19067901284E+02  0.87288863741E+02  0.12808655771E+03  0.41800000000E+01 0. -1.
         -5    1    3    3    0  502 -0.38965635599E+02 -0.13144953149E+02  0.53025687969E+02  0.67233224937E+02  0.41800000000E+01 0. -1.
        -11    1    1    2    0    0 -0.24091999962E+02  0.30310569912E+02  0.62962169419E+02  0.73914747436E+02  0.00000000000E+00 0.  1.
         11    1    1    2    0    0 -0.28625314178E+02 -0.36233518047E+02 -0.49985446245E+01  0.46446333442E+02  0.00000000000E+00 0. -1.
</event>
<event>
 7    1  0.2594791E-009  0.1196151E+03  0.7561462E-02  0.1243733E+00
          2   -1    0    0  501    0  0.00000000000E+00  0.00000000000E+00  0.29414009021E+02  0.29414009021E+02  0.00000000000E+00 0. -1.
         -2   -1    0    0    0  501 -0.00000000000E+00 -0.00000000000E+00 -0.54643147580E+03  0.54643147580E+03  0.00000000000E+00 0.  1.
         25    2    1    2    0    0 -0.50391304136E+02  0.31101139090E+02 -0.22638388468E+03  0.26533764158E+03  0.12509131229E+03 0.  0.
          5    1    3    3  502    0 -0.72933682459E+02  0.63898652911E+02 -0.17609550865E+03  0.20107078467E+03  0.41800000000E+01 0. -1.
         -5    1    3    3    0  502  0.22542378322E+02 -0.32797513821E+02 -0.50288376023E+02  0.64266856904E+02  0.41800000000E+01 0. -1.
        -11    1    1    2    0    0  0.60134370758E+02 -0.51743519237E+02 -0.16826633640E+03  0.18602982098E+03  0.00000000000E+00 0. -1.
         11    1    1    2    0    0 -0.97430666213E+01  0.20642380147E+02 -0.12236724570E+03  0.12447802226E+03  0.00000000000E+00 0.  1.
</event>
<event>
 7    1  0.2594791E-009  0.1447916E+03  0.7561462E-02  0.1207023E+00
         -2   -1    0    0    0  501 -0.00000000000E+00  0.00000000000E+00  0.11195634399E+03  0.11195634399E+03  0.00000000000E+00 0.  1.
          2   -1    0    0  501    0  0.00000000000E+00 -0.00000000000E+00 -0.23934032501E+03  0.23934032501E+03  0.00000000000E+00 0. -1.
         25    2    1    2    0    0 -0.22719302051E+02 -0.12455677307E+03 -0.67243192135E+02  0.19026009800E+03  0.12508677628E+03 0.  0.
          5    1    3    3  502    0  0.25615382066E+02 -0.94605647386E+02 -0.85771299481E+02  0.13030949517E+03  0.41800000000E+01 0.  1.
         -5    1    3    3    0  502 -0.48334684118E+02 -0.29951125682E+02  0.18528107346E+02  0.59950602834E+02  0.41800000000E+01 0.  1.
        -11    1    1    2    0    0 -0.10233586505E+02  0.69892977726E+02  0.37342432744E+01  0.70736830583E+02  0.00000000000E+00 0.  1.
         11    1    1    2    0    0  0.32952888556E+02  0.54663795342E+02 -0.63875032157E+02  0.90299740412E+02  0.00000000000E+00 0. -1.
</event>
<event>
 7    1  0.2594791E-009  0.1015188E+03  0.7561462E-02  0.1277134E+00
         -1   -1    0    0    0  501 -0.00000000000E+00  0.00000000000E+00  0.15349630067E+03  0.15349630067E+03  0.00000000000E+00 0.  1.
          1   -1    0    0  501    0  0.00000000000E+00 -0.00000000000E+00 -0.92785482571E+02  0.92785482571E+02  0.00000000000E+00 0. -1.
         25    2    1    2    0    0 -0.19675942005E+02 -0.25050189396E+02  0.13190061129E+02  0.12974429325E+03  0.12507977149E+03 0.  0.
          5    1    3    3  502    0  0.29552369668E+02 -0.48487343225E+02 -0.25875222721E+02  0.62540903071E+02  0.41800000000E+01 0.  1.
         -5    1    3    3    0  502 -0.49228311673E+02  0.23437153830E+02  0.39065283850E+02  0.67203390183E+02  0.41800000000E+01 0.  1.
        -11    1    1    2    0    0  0.51925317506E+02  0.23468324085E+01  0.55778434673E+02  0.76242901277E+02  0.00000000000E+00 0.  1.
         11    1    1    2    0    0 -0.32249375501E+02  0.22703356987E+02 -0.82576776991E+01  0.40294588715E+02  0.00000000000E+00 0. -1.
</event>
<event>
 7    1  0.2594791E-009  0.7770581E+02  0.7561462E-02  0.1335691E+00
          1   -1    0    0  501    0  0.00000000000E+00  0.00000000000E+00  0.13710427884E+03  0.13710427884E+03  0.00000000000E+00 0. -1.
         -1   -1    0    0    0  501 -0.00000000000E+00 -0.00000000000E+00 -0.95934351402E+02  0.95934351402E+02  0.00000000000E+00 0.  1.
         25    2    1    2    0    0  0.83040276576E+01  0.26101132418E+02  0.49433833574E+02  0.13726183978E+03  0.12508750045E+03 0.  0.
          5    1    3    3  502    0 -0.47937015840E+01 -0.24367353358E+02 -0.31849002030E+02  0.40602694675E+02  0.41800000000E+01 0. -1.
         -5    1    3    3    0  502  0.13097729242E+02  0.50468485776E+02  0.81282835604E+02  0.96659145101E+02  0.41800000000E+01 0. -1.
        -11    1    1    2    0    0  0.31414407705E+02 -0.20364302936E+01  0.23696187824E+02  0.39402047881E+02  0.00000000000E+00 0. -1.
         11    1    1    2    0    0 -0.39718435363E+02 -0.24064702124E+02 -0.31960093958E+02  0.56374742588E+02  0.00000000000E+00 0.  1.
</event>
<event>
 7    1  0.2594791E-009  0.1472874E+03  0.7561462E-02  0.1203846E+00
          2   -1    0    0  501    0  0.00000000000E+00  0.00000000000E+00  0.10630296189E+04  0.10630296189E+04  0.00000000000E+00 0.  1.
         -2   -1    0    0    0  501 -0.00000000000E+00 -0.00000000000E+00 -0.30107130660E+02  0.30107130660E+02  0.00000000000E+00 0. -1.
         25    2    1    2    0    0  0.13146218020E+03  0.28804981322E+02  0.40069243199E+03  0.44081119440E+03  0.12509217514E+03 0.  0.
          5    1    3    3  502    0  0.12356099684E+03  0.33936599202E+02  0.18618370375E+03  0.22605498589E+03  0.41800000000E+01 0.  1.
         -5    1    3    3    0  502  0.79011833631E+01 -0.51316178805E+01  0.21450872824E+03  0.21475620851E+03  0.41800000000E+01 0.  1.
        -11    1    1    2    0    0  0.40989637896E+01 -0.19781559295E+02  0.41266662067E+02  0.45946153163E+02  0.00000000000E+00 0.  1.
         11    1    1    2    0    0 -0.13556114399E+03 -0.90234220268E+01  0.59096339416E+03  0.60637940198E+03  0.00000000000E+00 0. -1.
</event>
<event>
 7    1  0.2594791E-009  0.7015919E+02  0.7561462E-02  0.1359553E+00
         -1   -1    0    0    0  501 -0.00000000000E+00  0.00000000000E+00  0.61999776799E+02  0.61999776799E+02  0.00000000000E+00 0.  1.
          1   -1    0    0  501    0  0.00000000000E+00 -0.00000000000E+00 -0.20617961663E+03  0.20617961663E+03  0.00000000000E+00 0. -1.
         25    2    1    2    0    0 -0.16833562515E+02  0.22503547980E+01 -0.48649064209E+02  0.13528762721E+03  0.12509027822E+03 0.  0.
          5    1    3    3  502    0 -0.18413284180E+02  0.28830277828E+02 -0.84022593626E+02  0.90815761813E+02  0.41800000000E+01 0. -1.
         -5    1    3    3    0  502  0.15797216651E+01 -0.26579923030E+02  0.35373529417E+02  0.44471865401E+02  0.41800000000E+01 0. -1.
        -11    1    1    2    0    0 -0.21225957678E+02 -0.26364097564E+02 -0.85121909588E+01  0.34900778138E+02  0.00000000000E+00 0.  1.
         11    1    1    2    0    0  0.38059520193E+02  0.24113742766E+02 -0.87018584664E+02  0.97990988078E+02  0.00000000000E+00 0. -1.
</event>
<event>
 7    1  0.2594791E-009  0.6766353E+02  0.7561462E-02  0.1368223E+00
          2   -1    0    0  501    0  0.00000000000E+00  0.00000000000E+00  0.52412030721E+03  0.52412030721E+03  0.00000000000E+00 0. -1.
         -2   -1    0    0    0  501 -0.00000000000E+00 -0.00000000000E+00 -0.22790902638E+02  0.22790902638E+02  0.00000000000E+00 0.  1.
         25    2    1    2    0    0 -0.18159009047E+02  0.92317418820E+01  0.28409725432E+03  0.31108473818E+03  0.12508992663E+03 0.  0.
          5    1    3    3  502    0  0.12200374018E+02  0.17677847065E+02  0.27782257906E+03  0.27868299775E+03  0.41800000000E+01 0.  1.
         -5    1    3    3    0  502 -0.30359383064E+02 -0.84461051831E+01  0.62746752664E+01  0.32401740424E+02  0.41800000000E+01 0.  1.
        -11    1    1    2    0    0 -0.95635897691E+01 -0.39482488201E+02  0.54344838768E+02  0.67850502021E+02  0.00000000000E+00 0.  1.
         11    1    1    2    0    0  0.27722598816E+02  0.30250746319E+02  0.16288731148E+03  0.16797596965E+03  0.00000000000E+00 0. -1.
</event>
<event>
 7    1  0.2594791E-009  0.7346780E+02  0.7561462E-02  0.1348682E+00
         -3   -1    0    0    0  501 -0.00000000000E+00  0.00000000000E+00  0.31943385861E+03  0.31943385861E+03  0.00000000000E+00 0.  1.
          3   -1    0    0  501    0  0.00000000000E+00 -0.00000000000E+00 -0.39059918410E+02  0.39059918410E+02  0.00000000000E+00 0. -1.
         25    2    1    2    0    0 -0.17605998832E+02  0.82982036700E+01  0.15030358028E+03  0.19651254860E+03  0.12508870506E+03 0.  0.
          5    1    3    3  502    0 -0.23870571342E+02  0.53215642583E+02  0.25748553816E+02  0.63891855626E+02  0.41800000000E+01 0.  1.
         -5    1    3    3    0  502  0.62645725108E+01 -0.44917438913E+02  0.12455502647E+03  0.13262069298E+03  0.41800000000E+01 0.  1.
        -11    1    1    2    0    0  0.12345270880E+02 -0.23656025480E+02  0.14028560887E+03  0.14280078890E+03  0.00000000000E+00 0.  1.
         11    1    1    2    0    0  0.52607279512E+01  0.15357821810E+02 -0.10215248946E+02  0.19180439525E+02  0.00000000000E+00 0. -1.
</event>
<event>
 7    1  0.2594791E-009  0.1332210E+03  0.7561462E-02  0.1222753E+00
          1   -1    0    0  501    0  0.00000000000E+00  0.00000000000E+00  0.32474644336E+03  0.32474644336E+03  0.00000000000E+00 0. -1.
         -1   -1    0    0    0  501 -0.00000000000E+00 -0.00000000000E+00 -0.73677604840E+02  0.73677604840E+02  0.00000000000E+00 0.  1.
         25    2    1    2    0    0  0.74884337702E+01 -0.10164159390E+03  0.18858444122E+03  0.24818898087E+03  0.12508632421E+03 0.  0.
          5    1    3    3  502    0 -0.87066574409E+01 -0.11717496029E+03  0.19197029468E+03  0.22511295751E+03  0.41800000000E+01 0.  1.
         -5    1    3    3    0  502  0.16195091211E+02  0.15533366382E+02 -0.33858534571E+01  0.23076023361E+02  0.41800000000E+01 0.  1.
        -11    1    1    2    0    0  0.95806423881E+01 -0.95628742259E+01 -0.96190498735E+01  0.16606125150E+02  0.00000000000E+00 0.  1.
         11    1    1    2    0    0 -0.17069076158E+02  0.11120446813E+03  0.72103447173E+02  0.13362894218E+03  0.00000000000E+00 0. -1.
</event>
<event>
 7    1  0.2594791E-009  0.1249407E+03  0.7561462E-02  0.1235162E+00
         -1   -1    0    0    0  501 -0.00000000000E+00  0.00000000000E+00  0.15397225441E+02  0.15397225441E+02  0.00000000000E+00 0.  1.
          1   -1    0    0  501    0  0.00000000000E+00 -0.00000000000E+00 -0.16310266575E+04  0.16310266575E+04  0.00000000000E+00 0. -1.
         25    2    1    2    0    0  0.10078880005E+03  0.18027893646E+02 -0.10884974853E+04  0.11004350156E+04  0.12508821208E+03 0.  0.
          5    1    3    3  502    0  0.50233799364E+02 -0.18673138688E+02 -0.14144648582E+03  0.15131656042E+03  0.41800000000E+01 0.  1.
         -5    1    3    3    0  502  0.50555000687E+02  0.36701032334E+02 -0.94705099951E+03  0.94911845517E+03  0.41800000000E+01 0.  1.
        -11    1    1    2    0    0 -0.42579481011E+02  0.34735474121E+02 -0.12960552272E+03  0.14077342393E+03  0.00000000000E+00 0.  1.
         11    1    1    2    0    0 -0.58209319040E+02 -0.52763367767E+02 -0.39752642400E+03  0.40521544342E+03  0.00000000000E+00 0. -1.
</event>
<event>
 7    1  0.2594791E-009  0.1861154E+03  0.7561462E-02  0.1162012E+00
         -1   -1    0    0    0  501 -0.00000000000E+00  0.00000000000E+00  0.39376741282E+02  0.39376741282E+02  0.00000000000E+00 0.  1.
          1   -1    0    0  501    0  0.00000000000E+00 -0.00000000000E+00 -0.15502729108E+04  0.15502729108E+04  0.00000000000E+00 0. -1.
         25    2    1    2    0    0 -0.41732957378E+02 -0.16695492976E+03 -0.12251090424E+04  0.12434448417E+04  0.12508924989E+03 0.  0.
          5    1    3    3  502    0  0.18566242233E+02  0.29291268335E+01 -0.31829966742E+03  0.31888153884E+03  0.41800000000E+01 0.  1.
         -5    1    3    3    0  502 -0.60299199611E+02 -0.16988405659E+03 -0.90680937495E+03  0.92456330289E+03  0.41800000000E+01 0.  1.
        -11    1    1    2    0    0  0.29193993574E+02  0.88033630726E+02 -0.70306820900E+02  0.11638409885E+03  0.00000000000E+00 0.  1.
         11    1    1    2    0    0  0.12538963803E+02  0.78921299033E+02 -0.21548030629E+03  0.22982071154E+03  0.00000000000E+00 0. -1.
</event>
<event>
 7    1  0.2594791E-009  0.1212337E+03  0.7561462E-02  0.1241076E+00
          1   -1    0    0  501    0  0.00000000000E+00  0.00000000000E+00  0.25171480963E+03  0.25171480963E+03  0.00000000000E+00 0. -1.
         -1   -1    0    0    0  501 -0.00000000000E+00 -0.00000000000E+00 -0.78976412615E+02  0.78976412615E+02  0.00000000000E+00 0.  1.
         25    2    1    2    0    0  0.45591479671E+02  0.71577072652E+02  0.10909636490E+03  0.18641621338E+03  0.12508847840E+03 0.  0.
          5    1    3    3  502    0  0.55438100520E+02 -0.17003498691E+02  0.23295249316E+02  0.62631006680E+02  0.41800000000E+01 0. -1.
         -5    1    3    3    0  502 -0.98466208494E+01  0.88580571343E+02  0.85801115582E+02  0.12378520670E+03  0.41800000000E+01 0. -1.
        -11    1    1    2    0    0 -0.15392921071E+02  0.20475649377E+01 -0.22283740379E+02  0.27160626402E+02  0.00000000000E+00 0.  1.
         11    1    1    2    0    0 -0.30198558600E+02 -0.73624637589E+02  0.85925772494E+02  0.11711438247E+03  0.00000000000E+00 0. -1.
</event>
<event>
 7    1  0.2594791E-009  0.1309195E+03  0.7561462E-02  0.1226098E+00
          2   -1    0    0  501    0  0.00000000000E+00  0.00000000000E+00  0.10138228643E+03  0.10138228643E+03  0.00000000000E+00 0.  1.
         -2   -1    0    0    0  501 -0.00000000000E+00 -0.00000000000E+00 -0.20273112540E+03  0.20273112540E+03  0.00000000000E+00 0. -1.
         25    2    1    2    0    0  0.78715425281E+02 -0.51692031888E+02 -0.38411108203E+02  0.16121820012E+03  0.12509080893E+03 0.  0.
          5    1    3    3  502    0  0.77332502313E+02  0.13531980414E+02 -0.52248816134E+02  0.94397254172E+02  0.41800000000E+01 0.  1.
         -5    1    3    3    0  502  0.13829229675E+01 -0.65224012302E+02  0.13837707930E+02  0.66820945948E+02  0.41800000000E+01 0.  1.
        -11    1    1    2    0    0  0.13431550845E+02  0.97921231530E+01  0.88181880145E+01  0.18816287460E+02  0.00000000000E+00 0.  1.
         11    1    1    2    0    0 -0.92146976125E+02  0.41899908735E+02 -0.71755918784E+02  0.12407892424E+03  0.00000000000E+00 0. -1.
</event>
<event>
 7    1  0.2594791E-009  0.1148560E+03  0.7561462E-02  0.1251833E+00
         -1   -1    0    0    0  501 -0.00000000000E+00  0.00000000000E+00  0.27781242627E+02  0.27781242627E+02  0.00000000000E+00 0. -1.
          1   -1    0    0  501    0  0.00000000000E+00 -0.00000000000E+00 -0.47898225655E+03  0.47898225655E+03  0.00000000000E+00 0.  1.
         25    2    1    2    0    0  0.26180721677E+02 -0.26904081708E+02 -0.24153693410E+03  0.27457199502E+03  0.12506170523E+03 0.  0.
          5    1    3    3  502    0  0.55391748818E+02 -0.62874891600E+02 -0.16159881508E+03  0.18208005730E+03  0.41800000000E+01 0. -1.
         -5    1    3    3    0  502 -0.29211027141E+02  0.35970809893E+02 -0.79938119021E+02  0.92491937722E+02  0.41800000000E+01 0. -1.
        -11    1    1    2    0    0  0.56904666126E+01  0.55906727229E+02 -0.12982671466E+03  0.14146702584E+03  0.00000000000E+00 0.  1.
         11    1    1    2    0    0 -0.31871188290E+02 -0.29002645521E+02 -0.79837365162E+02  0.90724478319E+02  0.00000000000E+00 0. -1.
</event>
<event>
 7    1  0.2594791E-009  0.1125172E+03  0.7561462E-02  0.1255978E+00
          1   -1    0    0  501    0  0.00000000000E+00  0.00000000000E+00  0.19691108475E+04  0.19691108475E+04  0.00000000000E+00 0. -1.
         -1   -1    0    0    0  501 -0.00000000000E+00 -0.00000000000E+00 -0.10652648056E+02  0.10652648056E+02  0.00000000000E+00 0.  1.
         25    2    1    2    0    0 -0.45435311203E+02 -0.41619019059E+02  0.15757195494E+04  0.15818775244E+04  0.12509154157E+03 0.  0.
          5    1    3    3  502    0 -0.77211585032E+02  0.10178240477E+02  0.95303721911E+03  0.95622311144E+03  0.41800000000E+01 0.  1.
         -5    1    3    3    0  502  0.31776273829E+02 -0.51797259536E+02  0.62268233028E+03  0.62565441301E+03  0.41800000000E+01 0.  1.
        -11    1    1    2    0    0  0.29939614052E+01 -0.15042579427E+02  0.96073700645E+01  0.18098192182E+02  0.00000000000E+00 0.  1.
         11    1    1    2    0    0  0.42441349798E+02  0.56661598485E+02  0.37313128003E+03  0.37978777896E+03  0.00000000000E+00 0. -1.
</event>
<event>
 7    1  0.2594791E-009  0.1119261E+03  0.7561462E-02  0.1257044E+00
         -3   -1    0    0    0  501 -0.00000000000E+00  0.00000000000E+00  0.76673271368E+03  0.76673271368E+03  0.00000000000E+00 0.  1.
          3   -1    0    0  501    0  0.00000000000E+00 -0.00000000000E+00 -0.21548893276E+02  0.21548893276E+02  0.00000000000E+00 0. -1.
         25    2    1    2    0    0  0.27534843517E+02  0.63125846388E+02  0.36431002033E+03  0.39129493727E+03  0.12508755705E+03 0.  0.
          5    1    3    3  502    0  0.40697976802E+02 -0.60656465500E+01  0.34021083725E+02  0.53553934698E+02  0.41800000000E+01 0. -1.
         -5    1    3    3    0  502 -0.13163133284E+02  0.69191492938E+02  0.33028893661E+03  0.33774100257E+03  0.41800000000E+01 0. -1.
        -11    1    1    2    0    0  0.32451658946E+02 -0.21961533836E+02  0.13006622286E+03  0.13584050009E+03  0.00000000000E+00 0. -1.
         11    1    1    2    0    0 -0.59986502463E+02 -0.41164312552E+02  0.25080757721E+03  0.26114616959E+03  0.00000000000E+00 0.  1.
</event>
<event>
 7    1  0.2594791E-009  0.1484177E+03  0.7561462E-02  0.1202431E+00
          2   -1    0    0  501    0  0.00000000000E+00  0.00000000000E+00  0.25425659206E+03  0.25425659206E+03  0.00000000000E+00 0. -1.
         -2   -1    0    0    0  501 -0.00000000000E+00 -0.00000000000E+00 -0.10158025396E+03  0.10158025396E+03  0.00000000000E+00 0.  1.
         25    2    1    2    0    0 -0.10499228158E+03 -0.53228287309E+02  0.67208119873E+02  0.18444870927E+03  0.12509102771E+03 0.  0.
          5    1    3    3  502    0  0.28376326869E+02 -0.14305695055E+02  0.61635523661E+01  0.32639402803E+02  0.41800000000E+01 0. -1.
         -5    1    3    3    0  502 -0.13336860845E+03 -0.38922592253E+02  0.61044567507E+02  0.15180930647E+03  0.41800000000E+01 0. -1.
        -11    1    1    2    0    0  0.60192894107E+02  0.54169977658E+02  0.95762645407E+02  0.12541154347E+03  0.00000000000E+00 0. -1.
         11    1    1    2    0    0  0.44799387477E+02 -0.94169034962E+00 -0.10294427176E+02  0.45976593283E+02  0.00000000000E+00 0.  1.
</event>
<event>
 7    1  0.2594791E-009  0.1579971E+03  0.7561462E-02  0.1190977E+00
         -2   -1    0    0    0  501 -0.00000000000E+00  0.00000000000E+00  0.11856045438E+03  0.11856045438E+03  0.00000000000E+00 0.  1.
          2   -1    0    0  501    0  0.00000000000E+00 -0.00000000000E+00 -0.29324865899E+03  0.29324865899E+03  0.00000000000E+00 0. -1.
         25    2    1    2    0    0  0.54086635835E+02 -0.13503730685E+03 -0.45842127636E+02  0.19725365320E+03  0.12508822733E+03 0.  0.
          5    1    3    3  502    0  0.11999683335E+02 -0.75148900724E+02 -0.84974521759E+02  0.11414679771E+03  0.41800000000E+01 0.  1.
         -5    1    3    3    0  502  0.42086952500E+02 -0.59888406123E+02  0.39132394123E+02  0.83106855484E+02  0.41800000000E+01 0.  1.
        -11    1    1    2    0    0  0.79704128184E+01  0.88588626854E+02 -0.42687244787E+02  0.98659379462E+02  0.00000000000E+00 0.  1.
         11    1    1    2    0    0 -0.62057048654E+02  0.46448679994E+02 -0.86158832184E+02  0.11589608071E+03  0.00000000000E+00 0. -1.
</event>
<event>
 7    1  0.2594791E-009  0.9449413E+02  0.7561462E-02  0.1292320E+00
          1   -1    0    0  501    0  0.00000000000E+00  0.00000000000E+00  0.18625883432E+03  0.18625883432E+03  0.00000000000E+00 0. -1.
         -1   -1    0    0    0  501 -0.00000000000E+00 -0.00000000000E+00 -0.82715749387E+02  0.82715749387E+02  0.00000000000E+00 0.  1.
         25    2    1    2    0    0  0.38208765450E+02  0.12904919241E+02  0.10788905035E+03  0.17006293786E+03  0.12511957860E+03 0.  0.
          5    1    3    3  502    0 -0.12337597525E+02  0.49869861858E+02  0.91789162760E+02  0.10527080428E+03  0.41800000000E+01 0.  1.
         -5    1    3    3    0  502  0.50546362975E+02 -0.36964942617E+02  0.16099887591E+02  0.64792133574E+02  0.41800000000E+01 0.  1.
        -11    1    1    2    0    0  0.14951512132E+02  0.87044041736E+01 -0.31106667087E+02  0.35594088053E+02  0.00000000000E+00 0.  1.
         11    1    1    2    0    0 -0.53160277582E+02 -0.21609323414E+02  0.26760701665E+02  0.63317557791E+02  0.00000000000E+00 0. -1.
</event>
<event>
 7    1  0.2594791E-009  0.2391613E+03  0.7561462E-02  0.1120353E+00
         -1   -1    0    0    0  501 -0.00000000000E+00  0.00000000000E+00  0.42827923254E+03  0.42827923254E+03  0.00000000000E+00 0.  1.
          1   -1    0    0  501    0  0.00000000000E+00 -0.00000000000E+00 -0.21682986552E+03  0.21682986552E+03  0.00000000000E+00 0. -1.
         25    2    1    2    0    0 -0.13078768981E+03 -0.17250704886E+03 -0.87177960653E+02  0.26478057312E+03  0.12507858876E+03 0.  0.
          5    1    3    3  502    0 -0.86410563650E+02 -0.17672825709E+02 -0.22177307377E+02  0.91040758133E+02  0.41800000000E+01 0.  1.
         -5    1    3    3    0  502 -0.44377126159E+02 -0.15483422315E+03 -0.65000653276E+02  0.17373981499E+03  0.41800000000E+01 0.  1.
        -11    1    1    2    0    0  0.17773310885E+02  0.82591242321E+02  0.15568563394E+03  0.17713051827E+03  0.00000000000E+00 0. -1.
         11    1    1    2    0    0  0.11301437892E+03  0.89915806540E+02  0.14294169374E+03  0.20319800668E+03  0.00000000000E+00 0.  1.
</event>
<event>
 7    1  0.2594791E-009  0.7639694E+02  0.7561462E-02  0.1339599E+00
         -2   -1    0    0    0  501 -0.00000000000E+00  0.00000000000E+00  0.23391769851E+02  0.23391769851E+02  0.00000000000E+00 0. -1.
          2   -1    0    0  501    0  0.00000000000E+00 -0.00000000000E+00 -0.12052899313E+04  0.12052899313E+04  0.00000000000E+00 0.  1.
         25    2    1    2    0    0 -0.43714508718E+02 -0.46353014298E+02 -0.10351221274E+04  0.10445979703E+04  0.12509013041E+03 0.  0.
          5    1    3    3  502    0 -0.52437076843E+01 -0.61156803671E+01 -0.87456977970E+03  0.87461687040E+03  0.41800000000E+01 0.  1.
         -5    1    3    3    0  502 -0.38470801034E+02 -0.40237333930E+02 -0.16055234766E+03  0.16998109987E+03  0.41800000000E+01 0.  1.
        -11    1    1    2    0    0  0.58453013018E+02  0.29406137423E+02 -0.43925190633E+02  0.78809250860E+02  0.00000000000E+00 0. -1.
         11    1    1    2    0    0 -0.14738504299E+02  0.16946876875E+02 -0.10285084348E+03  0.10527448004E+03  0.00000000000E+00 0.  1.
</event>
<event>
 7    1  0.2594791E-009  0.8507719E+02  0.7561462E-02  0.1315231E+00
         -2   -1    0    0    0  501 -0.00000000000E+00  0.00000000000E+00  0.58416598180E+02  0.58416598180E+02  0.00000000000E+00 0.  1.
          2   -1    0    0  501    0  0.00000000000E+00 -0.00000000000E+00 -0.35478199683E+03  0.35478199683E+03  0.00000000000E+00 0. -1.
         25    2    1    2    0    0 -0.48086287911E+02  0.64703362186E+02 -0.97588336959E+02  0.17796249300E+03  0.12509336209E+03 0.  0.
          5    1    3    3  502    0 -0.25912758394E+02  0.39335661870E+02 -0.12543470027E+03  0.13405260823E+03  0.41800000000E+01 0. -1.
         -5    1    3    3    0  502 -0.22173529517E+02  0.25367700316E+02  0.27846363309E+02  0.43909884765E+02  0.41800000000E+01 0. -1.
        -11    1    1    2    0    0  0.30077744467E+02 -0.10596756120E+02 -0.16687372527E+03  0.16989350234E+03  0.00000000000E+00 0. -1.
         11    1    1    2    0    0  0.18008543444E+02 -0.54106606066E+02 -0.31903336421E+02  0.65342599671E+02  0.00000000000E+00 0.  1.
</event>
<event>
 7    1  0.2594791E-009  0.3042272E+03  0.7561462E-02  0.1083146E+00
          2   -1    0    0  501    0  0.00000000000E+00  0.00000000000E+00  0.71235726313E+03  0.71235726313E+03  0.00000000000E+00 0. -1.
         -2   -1    0    0    0  501 -0.00000000000E+00 -0.00000000000E+00 -0.18480759306E+03  0.18480759306E+03  0.00000000000E+00 0.  1.
         25    2    1    2    0    0  0.28235955489E+03  0.93534461925E+02  0.48552141875E+03  0.58297075994E+03  0.12509294572E+03 0.  0.
          5    1    3    3  502    0  0.26248518771E+03  0.56613488083E+02  0.46285755337E+03  0.53512442283E+03  0.41800000000E+01 0.  1.
         -5    1    3    3    0  502  0.19874367180E+02  0.36920973842E+02  0.22663865383E+02  0.47846337105E+02  0.41800000000E+01 0.  1.
        -11    1    1    2    0    0 -0.19446755195E+03 -0.57707469765E+02  0.71066731089E+02  0.21493780751E+03  0.00000000000E+00 0. -1.
         11    1    1    2    0    0 -0.87892002938E+02 -0.35826992160E+02 -0.29038479781E+02  0.99256288746E+02  0.00000000000E+00 0.  1.
</event>
<event>
 7    1  0.2594791E-009  0.1285077E+03  0.7561462E-02  0.1229687E+00
          1   -1    0    0  501    0  0.00000000000E+00  0.00000000000E+00  0.11579125263E+04  0.11579125263E+04  0.00000000000E+00 0. -1.
         -1   -1    0    0    0  501 -0.00000000000E+00 -0.00000000000E+00 -0.25533444167E+02  0.25533444167E+02  0.00000000000E+00 0.  1.
         25    2    1    2    0    0  0.48040198777E+02  0.49700066623E+02  0.95252414994E+03  0.96318600415E+03  0.12508822906E+03 0.  0.
          5    1    3    3  502    0 -0.16969090393E+02 -0.25160740208E+02  0.44486415436E+03  0.44591770666E+03  0.41800000000E+01 0.  1.
         -5    1    3    3    0  502  0.65009289170E+02  0.74860806831E+02  0.50765999558E+03  0.51726829749E+03  0.41800000000E+01 0.  1.
        -11    1    1    2    0    0 -0.70944552674E+02 -0.67662069419E+02  0.13798467170E+03  0.16926622468E+03  0.00000000000E+00 0. -1.
         11    1    1    2    0    0  0.22904353898E+02  0.17962002796E+02  0.41870260448E+02  0.50993741596E+02  0.00000000000E+00 0.  1.
</event>
<event>
 7    1  0.2594791E-009  0.1304422E+03  0.7561462E-02  0.1226801E+00
          1   -1    0    0  501    0  0.00000000000E+00  0.00000000000E+00  0.29066098512E+03  0.29066098512E+03  0.00000000000E+00 0. -1.
         -1   -1    0    0    0  501 -0.00000000000E+00 -0.00000000000E+00 -0.66098798886E+02  0.66098798886E+02  0.00000000000E+00 0.  1.
         25    2    1    2    0    0  0.33414253840E+02  0.94224367159E+02  0.11353680558E+03  0.19629661058E+03  0.12508800653E+03 0.  0.
          5    1    3    3  502    0  0.75500738891E+02  0.32684388081E+02  0.78584681632E+02  0.11384926607E+03  0.41800000000E+01 0.  1.
         -5    1    3    3    0  502 -0.42086485050E+02  0.61539979079E+02  0.34952123952E+02  0.82447344515E+02  0.41800000000E+01 0.  1.
        -11    1    1    2    0    0 -0.36348786335E+02 -0.65079741971E+02  0.10770353609E+03  0.13098342937E+03  0.00000000000E+00 0. -1.
         11    1    1    2    0    0  0.29345324943E+01 -0.29144625189E+02  0.33218445652E+01  0.29479744057E+02  0.00000000000E+00 0.  1.
</event>
<event>
 7    1  0.2594791E-009  0.7554507E+02  0.7561462E-02  0.1342191E+00
          1   -1    0    0  501    0  0.00000000000E+00  0.00000000000E+00  0.22998501112E+03  0.22998501112E+03  0.00000000000E+00 0. -1.
         -1   -1    0    0    0  501 -0.00000000000E+00 -0.00000000000E+00 -0.82358022466E+02  0.82358022466E+02  0.00000000000E+00 0.  1.
         25    2    1    2    0    0 -0.61292409043E+02  0.10227269691E+02  0.16239732638E+02  0.14060919078E+03  0.12508340883E+03 0.  0.
          5    1    3    3  502    0 -0.33327669606E+01  0.25520394652E+02  0.60565855101E+02  0.65940071905E+02  0.41800000000E+01 0.  1.
         -5    1    3    3    0  502 -0.57959642082E+02 -0.15293124961E+02 -0.44326122463E+02  0.74669118878E+02  0.41800000000E+01 0.  1.
        -11    1    1    2    0    0  0.47926809079E+02  0.27693174154E+00  0.14321682083E+03  0.15102355276E+03  0.00000000000E+00 0. -1.
         11    1    1    2    0    0  0.13365599964E+02 -0.10504201433E+02 -0.11829564812E+02  0.20710290045E+02  0.00000000000E+00 0.  1.
</event>
<event>
 7    1  0.2594791E-009  0.9443751E+02  0.7561462E-02  0.1292448E+00
         -1   -1    0    0    0  501 -0.00000000000E+00  0.00000000000E+00  0.21990192292E+02  0.21990192292E+02  0.00000000000E+00 0.  1.
          1   -1    0    0  501    0  0.00000000000E+00 -0.00000000000E+00 -0.65543224713E+03  0.65543224713E+03  0.00000000000E+00 0. -1.
         25    2    1    2    0    0 -0.49122793945E+02  0.41228653173E+00 -0.29991232939E+03  0.32864429379E+03  0.12508576119E+03 0.  0.
          5    1    3    3  502    0  0.20744505444E+02 -0.31528561125E+02 -0.31232705631E+02  0.49166441540E+02  0.41800000000E+01 0.  1.
         -5    1    3    3    0  502 -0.69867299388E+02  0.31940847656E+02 -0.26867962376E+03  0.27947785225E+03  0.41800000000E+01 0.  1.
        -11    1    1    2    0    0  0.58905017394E+02 -0.10591535696E+02 -0.32831913009E+03  0.33372958048E+03  0.00000000000E+00 0. -1.
         11    1    1    2    0    0 -0.97822234495E+01  0.10179249165E+02 -0.52105953494E+01  0.15048565150E+02  0.00000000000E+00 0.  1.
</event>
<event>
 7    1  0.3677999E-009  0.1667709E+03  0.7561462E-02  0.1181258E+00
          2   -1    0    0  501    0  0.00000000000E+00  0.00000000000E+00  0.72248298039E+03  0.72248298039E+03  0.00000000000E+00 0. -1.
         -2   -1    0    0    0  501 -0.00000000000E+00 -0.00000000000E+00 -0.44095246036E+02  0.44095246036E+02  0.00000000000E+00 0.  1.
         25    2    1    2    0    0 -0.60801722154E+02  0.11763508366E+03  0.46556579332E+03  0.49992964295E+03  0.12507308930E+03 0.  0.
          5    1    3    3  502    0 -0.93134927940E+02  0.63434542422E+02  0.23202144524E+03  0.25797185782E+03  0.41800000000E+01 0.  1.
         -5    1    3    3    0  502  0.32333205786E+02  0.54200541234E+02  0.23354434807E+03  0.24195778513E+03  0.41800000000E+01 0.  1.
        -11    1    1    2    0    0 -0.16596890683E+02 -0.56529907936E+02  0.10597058150E+03  0.12124706765E+03  0.00000000000E+00 0. -1.
         11    1    1    2    0    0  0.77398612837E+02 -0.61105175721E+02  0.10685135954E+03  0.14540151583E+03  0.00000000000E+00 0.  1.
</event>
<event>
 7    1  0.2594791E-009  0.1859149E+03  0.7561462E-02  0.1162198E+00
         -2   -1    0    0    0  501 -0.00000000000E+00  0.00000000000E+00  0.11752584848E+03  0.11752584848E+03  0.00000000000E+00 0.  1.
          2   -1    0    0  501    0  0.00000000000E+00 -0.00000000000E+00 -0.49584511051E+03  0.49584511051E+03  0.00000000000E+00 0. -1.
         25    2    1    2    0    0 -0.14824458909E+03  0.66463263032E+02 -0.37685992410E+03  0.42902788698E+03  0.12509077459E+03 0.  0.
          5    1    3    3  502    0 -0.70346226733E+02  0.89801090717E+02 -0.15352281274E+03  0.19131009890E+03  0.41800000000E+01 0.  1.
         -5    1    3    3    0  502 -0.77898362357E+02 -0.23337827685E+02 -0.22333711136E+03  0.23771778808E+03  0.41800000000E+01 0.  1.
        -11    1    1    2    0    0  0.18246156326E+02 -0.39467414102E+02  0.23226640290E+02  0.49295799169E+02  0.00000000000E+00 0. -1.
         11    1    1    2    0    0  0.12999843276E+03 -0.26995848930E+02 -0.24685978218E+02  0.13504727284E+03  0.00000000000E+00 0.  1.
</event>
<event>
 7    1  0.2594791E-009  0.1574446E+03  0.7561462E-02  0.1191612E+00
          1   -1    0    0  501    0  0.00000000000E+00  0.00000000000E+00  0.30833508550E+03  0.30833508550E+03  0.00000000000E+00 0. -1.
         -1   -1    0    0    0  501 -0.00000000000E+00 -0.00000000000E+00 -0.93296555521E+02  0.93296555521E+02  0.00000000000E+00 0.  1.
         25    2    1    2    0    0 -0.12517412012E+03  0.36770228046E+02  0.11806537088E+03  0.21588842380E+03  0.12509104569E+03 0.  0.
          5    1    3    3  502    0 -0.71199926116E+02 -0.31729940978E+02  0.12763521758E+02  0.79098663206E+02  0.41800000000E+01 0. -1.
         -5    1    3    3    0  502 -0.53974194001E+02  0.68500169024E+02  0.10530184912E+03  0.13678976059E+03  0.41800000000E+01 0. -1.
        -11    1    1    2    0    0  0.11080639449E+02 -0.33600056408E+02 -0.89571175261E+00  0.35391335957E+02  0.00000000000E+00 0.  1.
         11    1    1    2    0    0  0.11409348067E+03 -0.31701716374E+01  0.97868870855E+02  0.15035188127E+03  0.00000000000E+00 0. -1.
</event>
<event>
 7    1  0.2594791E-009  0.1299196E+03  0.7561462E-02  0.1227575E+00
         -2   -1    0    0    0  501 -0.00000000000E+00  0.00000000000E+00  0.66326808607E+03  0.66326808607E+03  0.00000000000E+00 0. -1.
          2   -1    0    0  501    0  0.00000000000E+00 -0.00000000000E+00 -0.42647421119E+02  0.42647421119E+02  0.00000000000E+00 0.  1.
         25    2    1    2    0    0  0.10529612230E+02  0.12725097121E+03  0.31504179854E+03  0.36222088277E+03  0.12509576601E+03 0.  0.
          5    1    3    3  502    0  0.19531348923E+02  0.46096926364E+02  0.16795622888E+02  0.52971365464E+02  0.41800000000E+01 0.  1.
         -5    1    3    3    0  502 -0.90017366931E+01  0.81154044849E+02  0.29824617565E+03  0.30924951730E+03  0.41800000000E+01 0.  1.
        -11    1    1    2    0    0 -0.22496010082E+01 -0.65505360468E+02  0.55230323260E+02  0.85711151912E+02  0.00000000000E+00 0.  1.
         11    1    1    2    0    0 -0.82800112220E+01 -0.61745610746E+02  0.25034854315E+03  0.25798347251E+03  0.00000000000E+00 0. -1.
</event>
<event>
 7    1  0.2594791E-009  0.8280106E+02  0.7561462E-02  0.1321285E+00
         -2   -1    0    0    0  501 -0.00000000000E+00  0.00000000000E+00  0.16593012569E+04  0.16593012569E+04  0.00000000000E+00 0.  1.
          2   -1    0    0  501    0  0.00000000000E+00 -0.00000000000E+00 -0.12958495015E+02  0.12958495015E+02  0.00000000000E+00 0. -1.
         25    2    1    2    0    0 -0.10259028713E+02 -0.61171863097E+00  0.14460379487E+04  0.14514745643E+04  0.12508812869E+03 0.  0.
          5    1    3    3  502    0  0.46280980133E+01 -0.47991262045E+02  0.26481975986E+03  0.26920541996E+03  0.41800000000E+01 0.  1.
         -5    1    3    3    0  502 -0.14887126726E+02  0.47379543414E+02  0.11812181888E+04  0.11822691443E+04  0.41800000000E+01 0.  1.
        -11    1    1    2    0    0 -0.27162660239E+02 -0.92059671696E+01  0.16786215445E+03  0.17029463538E+03  0.00000000000E+00 0.  1.
         11    1    1    2    0    0  0.37421688952E+02  0.98176858006E+01  0.32442658794E+02  0.50490552266E+02  0.00000000000E+00 0. -1.
</event>
<event>
 7    1  0.2594791E-009  0.1555671E+03  0.7561462E-02  0.1193794E+00
         -2   -1    0    0    0  501 -0.00000000000E+00  0.00000000000E+00  0.52579866145E+02  0.52579866145E+02  0.00000000000E+00 0. -1.
          2   -1    0    0  501    0  0.00000000000E+00 -0.00000000000E+00 -0.62473906660E+03  0.62473906660E+03  0.00000000000E+00 0.  1.
         25    2    1    2    0    0 -0.11975765821E+03  0.31008272228E+02 -0.29667586256E+03  0.34491809712E+03  0.12509403122E+03 0.  0.
          5    1    3    3  502    0 -0.76870277274E+02 -0.39662559530E+02 -0.10480421188E+03  0.13595423268E+03  0.41800000000E+01 0.  1.
         -5    1    3    3    0  502 -0.42887380934E+02  0.70670831758E+02 -0.19187165068E+03  0.20896386444E+03  0.41800000000E+01 0.  1.
        -11    1    1    2    0    0  0.13196924818E+02 -0.32620830671E+02 -0.19681909269E+03  0.19994007269E+03  0.00000000000E+00 0.  1.
         11    1    1    2    0    0  0.10656073339E+03  0.16125584433E+01 -0.78664245205E+02  0.13246076294E+03  0.00000000000E+00 0. -1.
</event>
<event>
 7    1  0.2594791E-009  0.1993323E+03  0.7561462E-02  0.1150304E+00
         -1   -1    0    0    0  501 -0.00000000000E+00  0.00000000000E+00  0.14844562697E+03  0.14844562697E+03  0.00000000000E+00 0.  1.
          1   -1    0    0  501    0  0.00000000000E+00 -0.00000000000E+00 -0.46157159164E+03  0.46157159164E+03  0.00000000000E+00 0. -1.
         25    2    1    2    0    0 -0.14903329901E+03 -0.11933775488E+03  0.46206617556E+01  0.22830189040E+03  0.12509188098E+03 0.  0.
          5    1    3    3  502    0 -0.10235509878E+03 -0.10407927005E+03  0.56646017451E+02  0.15663749358E+03  0.41800000000E+01 0.  1.
         -5    1    3    3    0  502 -0.46678200228E+02 -0.15258484831E+02 -0.52025355696E+02  0.71664396817E+02  0.41800000000E+01 0.  1.
        -11    1    1    2    0    0  0.10399908602E+03  0.38671296513E+02 -0.22465652141E+03  0.25056302935E+03  0.00000000000E+00 0. -1.
         11    1    1    2    0    0  0.45034212988E+02  0.80666458369E+02 -0.93090105014E+02  0.13115229886E+03  0.00000000000E+00 0.  1.
</event>
<event>
 7    1  0.2594791E-009  0.6981855E+02  0.7561462E-02  0.1360711E+00
          2   -1    0    0  501    0  0.00000000000E+00  0.00000000000E+00  0.55186724741E+03  0.55186724741E+03  0.00000000000E+00 0. -1.
         -2   -1    0    0    0  501 -0.00000000000E+00 -0.00000000000E+00 -0.24477213594E+02  0.24477213594E+02  0.00000000000E+00 0.  1.
         25    2    1    2    0    0 -0.20071163366E+01 -0.26416295698E+02  0.37539193313E+03  0.39657083638E+03  0.12508987014E+03 0.  0.
          5    1    3    3  502    0  0.95982065437E+01  0.25762950525E+02  0.13835518247E+02  0.31060411359E+02  0.41800000000E+01 0.  1.
         -5    1    3    3    0  502 -0.11605322880E+02 -0.52179246223E+02  0.36155641488E+03  0.36551042502E+03  0.41800000000E+01 0.  1.
        -11    1    1    2    0    0  0.15276065537E+02 -0.10794520154E+02 -0.37637054263E+01  0.19079971755E+02  0.00000000000E+00 0.  1.
         11    1    1    2    0    0 -0.13268949201E+02  0.37210815852E+02  0.15576180611E+03  0.16069365287E+03  0.00000000000E+00 0. -1.
</event>
<event>
 7    1  0.2982810E-009  0.1958471E+03  0.7561462E-02  0.1153291E+00
         -2   -1    0    0    0  501 -0.00000000000E+00  0.00000000000E+00  0.23503988387E+03  0.23503988387E+03  0.00000000000E+00 0.  1.
          2   -1    0    0  501    0  0.00000000000E+00 -0.00000000000E+00 -0.20727863436E+03  0.20727863436E+03  0.00000000000E+00 0. -1.
         25    2    1    2    0    0  0.10007432735E+03 -0.13775716519E+03  0.10254393531E+03  0.23485234120E+03  0.12509378857E+03 0.  0.
          5    1    3    3  502    0  0.69977768968E+02 -0.86139280481E+01  0.62211942236E+01  0.70903198544E+02  0.41800000000E+01 0.  1.
         -5    1    3    3    0  502  0.30096558386E+02 -0.12914323714E+03  0.96322741083E+02  0.16394914265E+03  0.41800000000E+01 0.  1.
        -11    1    1    2    0    0 -0.73616374644E+02  0.33585827044E+02 -0.89049086307E+01  0.81404396635E+02  0.00000000000E+00 0.  1.
         11    1    1    2    0    0 -0.26457952711E+02  0.10417133815E+03 -0.65877777170E+02  0.12606178040E+03  0.00000000000E+00 0. -1.
</event>
<event>
 7    1  0.2594791E-009  0.1518482E+03  0.7561462E-02  0.1198220E+00
          1   -1    0    0  501    0  0.00000000000E+00  0.00000000000E+00  0.49182529526E+03  0.49182529526E+03  0.00000000000E+00 0. -1.
         -1   -1    0    0    0  501 -0.00000000000E+00 -0.00000000000E+00 -0.56426705903E+02  0.56426705903E+02  0.00000000000E+00 0.  1.
         25    2    1    2    0    0  0.31909721080E+02  0.11788108537E+03  0.21589026318E+03  0.27779238489E+03  0.12508326338E+03 0.  0.
          5    1    3    3  502    0  0.79278251232E+02  0.61073318850E+02  0.13506283913E+03  0.16815003511E+03  0.41800000000E+01 0.  1.
         -5    1    3    3    0  502 -0.47368530152E+02  0.56807766517E+02  0.80827424053E+02  0.10964234978E+03  0.41800000000E+01 0.  1.
        -11    1    1    2    0    0 -0.36894033812E+02 -0.54144697214E+02  0.33126008155E+02  0.73417643544E+02  0.00000000000E+00 0.  1.
         11    1    1    2    0    0  0.49843127318E+01 -0.63736388153E+02  0.18638231802E+03  0.19704197273E+03  0.00000000000E+00 0. -1.
</event>
<event>
 7    1  0.2594791E-009  0.9862152E+02  0.7561462E-02  0.1283222E+00
         -2   -1    0    0    0  501 -0.00000000000E+00  0.00000000000E+00  0.13936204711E+03  0.13936204711E+03  0.00000000000E+00 0.  1.
          2   -1    0    0  501    0  0.00000000000E+00 -0.00000000000E+00 -0.91563409682E+02  0.91563409682E+02  0.00000000000E+00 0. -1.
         25    2    1    2    0    0 -0.14613829787E+02 -0.19870893568E+02  0.49303654416E+02  0.13669856427E+03  0.12508889120E+03 0.  0.
          5    1    3    3  502    0  0.37739133543E+02 -0.42967283316E+02 -0.51842392601E+01  0.57574112002E+02  0.41800000000E+01 0. -1.
         -5    1    3    3    0  502 -0.52352963330E+02  0.23096389748E+02  0.54487893676E+02  0.79124452263E+02  0.41800000000E+01 0. -1.
        -11    1    1    2    0    0 -0.32681430114E+02  0.58648932571E+01 -0.23030724837E+02  0.40408998177E+02  0.00000000000E+00 0. -1.
         11    1    1    2    0    0  0.47295259901E+02  0.14006000311E+02  0.21525707849E+02  0.53817894349E+02  0.00000000000E+00 0.  1.
</event>
<event>
 7    1  0.2594791E-009  0.1481132E+03  0.7561462E-02  0.1202811E+00
         -2   -1    0    0    0  501 -0.00000000000E+00  0.00000000000E+00  0.31863918162E+03  0.31863918162E+03  0.00000000000E+00 0.  1.
          2   -1    0    0  501    0  0.00000000000E+00 -0.00000000000E+00 -0.84915450643E+02  0.84915450643E+02  0.00000000000E+00 0. -1.
         25    2    1    2    0    0  0.42779286607E+02  0.11193644962E+03  0.89315869814E+02  0.19489990102E+03  0.12509520655E+03 0.  0.
          5    1    3    3  502    0  0.65259742183E+02  0.69641958029E+01  0.32071340929E+02  0.73166777173E+02  0.41800000000E+01 0. -1.
         -5    1    3    3    0  502 -0.22480455576E+02  0.10497225382E+03  0.57244528885E+02  0.12173312385E+03  0.41800000000E+01 0. -1.
        -11    1    1    2    0    0 -0.28815581563E+02 -0.37490334191E+02  0.12015176179E+03  0.12912129476E+03  0.00000000000E+00 0.  1.
         11    1    1    2    0    0 -0.13963705044E+02 -0.74446115431E+02  0.24256099368E+02  0.79533436477E+02  0.00000000000E+00 0. -1.
</event>
<event>
 7    1  0.2594791E-009  0.1489996E+03  0.7561462E-02  0.1201708E+00
         -2   -1    0    0    0  501 -0.00000000000E+00  0.00000000000E+00  0.36174089251E+02  0.36174089251E+02  0.00000000000E+00 0.  1.
          2   -1    0    0  501    0  0.00000000000E+00 -0.00000000000E+00 -0.67151438076E+03  0.67151438076E+03  0.00000000000E+00 0. -1.
         25    2    1    2    0    0 -0.25735001172E+02 -0.10172682250E+03 -0.25999478253E+03  0.30700895087E+03  0.12508625931E+03 0.  0.
          5    1    3    3  502    0  0.45973128911E+02 -0.65572976782E+02 -0.10221317175E+03  0.12991669926E+03  0.41800000000E+01 0.  1.
         -5    1    3    3    0  502 -0.71708130083E+02 -0.36153845719E+02 -0.15778161078E+03  0.17709225161E+03  0.41800000000E+01 0.  1.
        -11    1    1    2    0    0  0.58865244816E+02  0.59227888711E+02 -0.18742900516E+03  0.20518940476E+03  0.00000000000E+00 0.  1.
         11    1    1    2    0    0 -0.33130243644E+02  0.42498933790E+02 -0.18791650382E+03  0.19549011439E+03  0.00000000000E+00 0. -1.
</event>
<event>
 7    1  0.2594791E-009  0.1175888E+03  0.7561462E-02  0.1247129E+00
          1   -1    0    0  501    0  0.00000000000E+00  0.00000000000E+00  0.21172558715E+03  0.21172558715E+03  0.00000000000E+00 0. -1.
         -1   -1    0    0    0  501 -0.00000000000E+00 -0.00000000000E+00 -0.71545447100E+02  0.71545447100E+02  0.00000000000E+00 0.  1.
         25    2    1    2    0    0  0.39922999138E+02 -0.43262261409E+02  0.87324506780E+02  0.16349795779E+03  0.12506215892E+03 0.  0.
          5    1    3    3  502    0  0.69936681970E+02 -0.68386416004E+02  0.53331508232E+02  0.11148795248E+03  0.41800000000E+01 0.  1.
         -5    1    3    3    0  502 -0.30013682832E+02  0.25124154594E+02  0.33992998548E+02  0.52010005302E+02  0.41800000000E+01 0.  1.
        -11    1    1    2    0    0 -0.51307740016E+02 -0.18910863568E+01  0.28184216411E+01  0.51419878391E+02  0.00000000000E+00 0.  1.
         11    1    1    2    0    0  0.11384740878E+02  0.45153347766E+02  0.50037211629E+02  0.68353198074E+02  0.00000000000E+00 0. -1.
</event>
<event>
 7    1  0.2594791E-009  0.1148247E+03  0.7561462E-02  0.1251887E+00
          1   -1    0    0  501    0  0.00000000000E+00  0.00000000000E+00  0.30150017643E+03  0.30150017643E+03  0.00000000000E+00 0. -1.
         -1   -1    0    0    0  501 -0.00000000000E+00 -0.00000000000E+00 -0.51506323553E+02  0.51506323553E+02  0.00000000000E+00 0.  1.
         25    2    1    2    0    0  0.59946645739E+02 -0.14214577818E+02  0.14149458231E+03  0.19865548573E+03  0.12509048977E+03 0.  0.
          5    1    3    3  502    0  0.49966941928E+02  0.45645873841E+02  0.11229754581E+03  0.13118099054E+03  0.41800000000E+01 0. -1.
         -5    1    3    3    0  502  0.99797038115E+01 -0.59860451659E+02  0.29197036497E+02  0.67474495191E+02  0.41800000000E+01 0. -1.
        -11    1    1    2    0    0 -0.56392665680E+02  0.43681741274E+02  0.45222175666E+02  0.84458702543E+02  0.00000000000E+00 0.  1.
         11    1    1    2    0    0 -0.35539800590E+01 -0.29467163456E+02  0.63277094900E+02  0.69892311704E+02  0.00000000000E+00 0. -1.
</event>
<event>
 7    1  0.3186655E-009  0.9563415E+02  0.7561462E-02  0.1289754E+00
          1   -1    0    0  501    0  0.00000000000E+00  0.00000000000E+00  0.44453305655E+03  0.44453305655E+03  0.00000000000E+00 0. -1.
         -1   -1    0    0    0  501 -0.00000000000E+00 -0.00000000000E+00 -0.47831021134E+02  0.47831021134E+02  0.00000000000E+00 0.  1.
         25    2    1    2    0    0  0.13417667402E+01  0.90993078209E+02  0.27218368030E+03  0.31307297603E+03  0.12509673007E+03 0.  0.
          5    1    3    3  502    0 -0.57617538901E+01  0.44473280816E+02  0.93149963193E+01  0.45992521901E+02  0.41800000000E+01 0. -1.
         -5    1    3    3    0  502  0.71035206303E+01  0.46519797393E+02  0.26286868399E+03  0.26708045412E+03  0.41800000000E+01 0. -1.
        -11    1    1    2    0    0  0.18554377950E+02 -0.51956968790E+02  0.12372668107E+03  0.13546986069E+03  0.00000000000E+00 0. -1.
         11    1    1    2    0    0 -0.19896144690E+02 -0.39036109419E+02  0.79167404105E+00  0.43821240967E+02  0.00000000000E+00 0.  1.
</event>
<event>
 7    1  0.2594791E-009  0.1082533E+03  0.7561462E-02  0.1263839E+00
         -2   -1    0    0    0  501 -0.00000000000E+00  0.00000000000E+00  0.32563046257E+03  0.32563046257E+03  0.00000000000E+00 0.  1.
          2   -1    0    0  501    0  0.00000000000E+00 -0.00000000000E+00 -0.50748138158E+02  0.50748138158E+02  0.00000000000E+00 0. -1.
         25    2    1    2    0    0  0.45529429242E+02 -0.52444109156E+02  0.16805868681E+03  0.22071350005E+03  0.12508962138E+03 0.  0.
          5    1    3    3  502    0  0.86902789880E+02 -0.43179474271E+02  0.93376044714E+02  0.13473351481E+03  0.41800000000E+01 0.  1.
         -5    1    3    3    0  502 -0.41373360638E+02 -0.92646348852E+01  0.74682642101E+02  0.85979985236E+02  0.41800000000E+01 0.  1.
        -11    1    1    2    0    0 -0.27433156811E+02  0.51859526718E+02  0.11979677884E+03  0.13339136713E+03  0.00000000000E+00 0.  1.
         11    1    1    2    0    0 -0.18096272431E+02  0.58458243823E+00 -0.12973141244E+02  0.22273733550E+02  0.00000000000E+00 0. -1.
</event>
<event>
 7    1  0.2594791E-009  0.8132299E+02  0.7561462E-02  0.1325338E+00
         -2   -1    0    0    0  501 -0.00000000000E+00  0.00000000000E+00  0.72526839994E+02  0.72526839994E+02  0.00000000000E+00 0.  1.
          2   -1    0    0  501    0  0.00000000000E+00 -0.00000000000E+00 -0.19769838564E+03  0.19769838564E+03  0.00000000000E+00 0. -1.
         25    2    1    2    0    0  0.18174704456E+02  0.45343814977E+02 -0.63964550876E+02  0.14874440017E+03  0.12508817439E+03 0.  0.
          5    1    3    3  502    0 -0.17901191707E+02  0.28803338788E+02  0.30748384013E+02  0.45967602823E+02  0.41800000000E+01 0. -1.
         -5    1    3    3    0  502  0.36075896162E+02  0.16540476188E+02 -0.94712934889E+02  0.10277679734E+03  0.41800000000E+01 0. -1.
        -11    1    1    2    0    0 -0.29526073599E+02  0.10687132937E+02  0.73154294154E+01  0.32241577816E+02  0.00000000000E+00 0.  1.
         11    1    1    2    0    0  0.11351369143E+02 -0.56030947914E+02 -0.68522424187E+02  0.89239247655E+02  0.00000000000E+00 0. -1.
</event>
<event>
 7    1  0.2594791E-009  0.9567213E+02  0.7561462E-02  0.1289669E+00
         -4   -1    0    0    0  501 -0.00000000000E+00  0.00000000000E+00  0.20806254863E+02  0.20806254863E+02  0.00000000000E+00 0.  1.
          4   -1    0    0  501    0  0.00000000000E+00 -0.00000000000E+00 -0.72044926144E+03  0.72044926144E+03  0.00000000000E+00 0. -1.
         25    2    1    2    0    0  0.19081956905E+02  0.10116518203E+02 -0.55914313349E+03  0.57337017386E+03  0.12508336229E+03 0.  0.
          5    1    3    3  502    0 -0.19951642934E+02 -0.48800830264E+02 -0.17732923100E+03  0.18504787937E+03  0.41800000000E+01 0. -1.
         -5    1    3    3    0  502  0.39033599839E+02  0.58917348467E+02 -0.38181390249E+03  0.38832229449E+03  0.41800000000E+01 0. -1.
        -11    1    1    2    0    0 -0.38267830959E+02 -0.22907565439E+02 -0.27150489639E+02  0.52214294291E+02  0.00000000000E+00 0.  1.
         11    1    1    2    0    0  0.19185874054E+02  0.12791047237E+02 -0.11334938345E+03  0.11567104815E+03  0.00000000000E+00 0. -1.
</event>
<event>
 7    1  0.2594791E-009  0.1765127E+03  0.7561462E-02  0.1171221E+00
          1   -1    0    0  501    0  0.00000000000E+00  0.00000000000E+00  0.53485155782E+03  0.53485155782E+03  0.00000000000E+00 0. -1.
         -1   -1    0    0    0  501 -0.00000000000E+00 -0.00000000000E+00 -0.67189931934E+02  0.67189931934E+02  0.00000000000E+00 0.  1.
         25    2    1    2    0    0 -0.14691610781E+03  0.36205109028E+02  0.30494414246E+03  0.36267455846E+03  0.12508698046E+03 0.  0.
          5    1    3    3  502    0 -0.14189284089E+03  0.68693623063E+02  0.27939770907E+03  0.32083164492E+03  0.41800000000E+01 0. -1.
         -5    1    3    3    0  502 -0.50232669120E+01 -0.32488514035E+02  0.25546433387E+02  0.41842913539E+02  0.41800000000E+01 0. -1.
        -11    1    1    2    0    0  0.60876385785E+02 -0.44990552594E+02  0.12246536175E+03  0.14397169513E+03  0.00000000000E+00 0. -1.
         11    1    1    2    0    0  0.86039722022E+02  0.87854435660E+01  0.40252121674E+02  0.95395236168E+02  0.00000000000E+00 0.  1.
</event>
<event>
 7    1  0.2594791E-009  0.2951632E+03  0.7561462E-02  0.1087684E+00
          2   -1    0    0  501    0  0.00000000000E+00  0.00000000000E+00  0.13672008755E+04  0.13672008755E+04  0.00000000000E+00 0.  1.
         -2   -1    0    0    0  501 -0.00000000000E+00 -0.00000000000E+00 -0.68690590022E+02  0.68690590022E+02  0.00000000000E+00 0. -1.
         25    2    1    2    0    0 -0.63497532454E+02 -0.27453167244E+03  0.55215792281E+03  0.63239621090E+03  0.12508804912E+03 0.  0.
          5    1    3    3  502    0 -0.41243081379E+02 -0.99692452900E+01  0.82914213352E+02  0.93234203965E+02  0.41800000000E+01 0. -1.
         -5    1    3    3    0  502 -0.22254451076E+02 -0.26456242715E+03  0.46924370946E+03  0.53916200693E+03  0.41800000000E+01 0. -1.
        -11    1    1    2    0    0  0.29626853059E+02  0.16022505490E+03  0.55147507382E+03  0.57504310767E+03  0.00000000000E+00 0.  1.
         11    1    1    2    0    0  0.33870679396E+02  0.11430661754E+03  0.19487728883E+03  0.22845214693E+03  0.00000000000E+00 0. -1.
</event>
<event>
 7    1  0.2594791E-009  0.1357563E+03  0.7561462E-02  0.1219156E+00
         -1   -1    0    0    0  501 -0.00000000000E+00  0.00000000000E+00  0.95671100566E+02  0.95671100566E+02  0.00000000000E+00 0.  1.
          1   -1    0    0  501    0  0.00000000000E+00 -0.00000000000E+00 -0.27366782604E+03  0.27366782604E+03  0.00000000000E+00 0. -1.
         25    2    1    2    0    0 -0.33619684771E+02 -0.11205782812E+03 -0.12569992044E+03  0.21245120003E+03  0.12509117614E+03 0.  0.
          5    1    3    3  502    0  0.21504567209E+02 -0.72499716722E+01  0.15742100844E+02  0.27933754475E+02  0.41800000000E+01 0. -1.
         -5    1    3    3    0  502 -0.55124251980E+02 -0.10480785644E+03 -0.14144202129E+03  0.18451744556E+03  0.41800000000E+01 0. -1.
        -11    1    1    2    0    0  0.44528340001E+02  0.11022760287E+03 -0.17237656981E+02  0.12012507779E+03  0.00000000000E+00 0.  1.
         11    1    1    2    0    0 -0.10908655230E+02  0.18302252485E+01 -0.35059148048E+02  0.36762648779E+02  0.00000000000E+00 0. -1.
</event>
<event>
 7    1  0.2594791E-009  0.1021697E+03  0.7561462E-02  0.1275798E+00
         -1   -1    0    0    0  501 -0.00000000000E+00  0.00000000000E+00  0.94888899557E+02  0.94888899557E+02  0.00000000000E+00 0.  1.
          1   -1    0    0  501    0  0.00000000000E+00 -0.00000000000E+00 -0.23952019232E+03  0.23952019232E+03  0.00000000000E+00 0. -1.
         25    2    1    2    0    0  0.75617688797E+02  0.52490625260E+02 -0.24684385332E+02  0.15725962917E+03  0.12509185221E+03 0.  0.
          5    1    3    3  502    0  0.53775778088E+02  0.20011285987E+01  0.43662613604E+02  0.69424311674E+02  0.41800000000E+01 0. -1.
         -5    1    3    3    0  502  0.21841910709E+02  0.50489496661E+02 -0.68346998936E+02  0.87835317498E+02  0.41800000000E+01 0. -1.
        -11    1    1    2    0    0 -0.10687164192E+02 -0.19796590185E+02  0.12739121827E+02  0.25853543013E+02  0.00000000000E+00 0.  1.
         11    1    1    2    0    0 -0.64930524605E+02 -0.32694035074E+02 -0.13268602926E+03  0.15129591969E+03  0.00000000000E+00 0. -1.
</event>
<event>
 7    1  0.2594791E-009  0.9584083E+02  0.7561462E-02  0.1289293E+00
         -2   -1    0    0    0  501 -0.00000000000E+00  0.00000000000E+00  0.20503469086E+02  0.20503469086E+02  0.00000000000E+00 0.  1.
          2   -1    0    0  501    0  0.00000000000E+00 -0.00000000000E+00 -0.64105177233E+03  0.64105177233E+03  0.00000000000E+00 0. -1.
         25    2    1    2    0    0 -0.73605098645E+01  0.30552638891E+02 -0.29714827208E+03  0.32393253900E+03  0.12509018096E+03 0.  0.
          5    1    3    3  502    0 -0.43462039334E+02 -0.25578081490E+02 -0.65172424351E+02  0.82511238093E+02  0.41800000000E+01 0.  1.
         -5    1    3    3    0  502  0.36101529469E+02  0.56130720381E+02 -0.23197584773E+03  0.24142130091E+03  0.41800000000E+01 0.  1.
        -11    1    1    2    0    0 -0.16211788605E+02  0.15528849127E+02 -0.20722881634E+02  0.30551678647E+02  0.00000000000E+00 0.  1.
         11    1    1    2    0    0  0.23572298469E+02 -0.46081488018E+02 -0.30267714953E+03  0.30707102377E+03  0.00000000000E+00 0. -1.
</event>
<event>
 7    1  0.2594791E-009  0.1052920E+03  0.7561462E-02  0.1269545E+00
          1   -1    0    0  501    0  0.00000000000E+00  0.00000000000E+00  0.10289260511E+04  0.10289260511E+04  0.00000000000E+00 0. -1.
         -1   -1    0    0    0  501 -0.00000000000E+00 -0.00000000000E+00 -0.42225177572E+02  0.42225177572E+02  0.00000000000E+00 0.  1.
         25    2    1    2    0    0  0.30741722765E+02 -0.46267518242E+02  0.95701105830E+03  0.96674884490E+03  0.12508967441E+03 0.  0.
          5    1    3    3  502    0  0.13910867750E+02 -0.79993309504E+02  0.38544619265E+03  0.39392725424E+03  0.41800000000E+01 0. -1.
         -5    1    3    3    0  502  0.16830855015E+02  0.33725791263E+02  0.57156486565E+03  0.57282159066E+03  0.41800000000E+01 0. -1.
        -11    1    1    2    0    0 -0.34629508695E+02  0.64235636547E+02  0.43616906027E+01  0.73105705796E+02  0.00000000000E+00 0.  1.
         11    1    1    2    0    0  0.38877859295E+01 -0.17968118305E+02  0.25328124584E+02  0.31296677936E+02  0.00000000000E+00 0. -1.
</event>
<event>
 7    1  0.2594791E-009  0.1229029E+03  0.7561462E-02  0.1238384E+00
         -2   -1    0    0    0  501 -0.00000000000E+00  0.00000000000E+00  0.18836099699E+03  0.18836099699E+03  0.00000000000E+00 0. -1.
          2   -1    0    0  501    0  0.00000000000E+00 -0.00000000000E+00 -0.89985174046E+02  0.89985174046E+02  0.00000000000E+00 0.  1.
         25    2    1    2    0    0 -0.52611542971E+02 -0.44477491876E+02  0.33422504592E+02  0.14667137002E+03  0.12509678346E+03 0.  0.
          5    1    3    3  502    0 -0.83483141287E+02 -0.13521855870E+01  0.40692085193E+02  0.92976241494E+02  0.41800000000E+01 0.  1.
         -5    1    3    3    0  502  0.30871598316E+02 -0.43125306289E+02 -0.72695806015E+01  0.53695128525E+02  0.41800000000E+01 0.  1.
        -11    1    1    2    0    0 -0.21558452536E+02 -0.17176977979E+01 -0.18192682843E+01  0.21703158723E+02  0.00000000000E+00 0.  1.
         11    1    1    2    0    0  0.74169995507E+02  0.46195189674E+02  0.66772586634E+02  0.10997164229E+03  0.00000000000E+00 0. -1.
</event>
<event>
 7    1  0.2594791E-009  0.7485409E+02  0.7561462E-02  0.1344323E+00
          2   -1    0    0  501    0  0.00000000000E+00  0.00000000000E+00  0.67837540639E+02  0.67837540639E+02  0.00000000000E+00 0. -1.
         -2   -1    0    0    0  501 -0.00000000000E+00 -0.00000000000E+00 -0.19867843241E+03  0.19867843241E+03  0.00000000000E+00 0.  1.
         25    2    1    2    0    0 -0.56387582096E+01 -0.43694237544E+02 -0.72023878501E+02  0.15092783281E+03  0.12510311608E+03 0.  0.
          5    1    3    3  502    0  0.25525805119E+02  0.88691595866E+01 -0.84156469768E+02  0.88487357982E+02  0.41800000000E+01 0. -1.
         -5    1    3    3    0  502 -0.31164563328E+02 -0.52563397130E+02  0.12132591267E+02  0.62440474823E+02  0.41800000000E+01 0. -1.
        -11    1    1    2    0    0 -0.17460983000E+02  0.95857491753E+01 -0.70101046775E+02  0.72876122795E+02  0.00000000000E+00 0.  1.
         11    1    1    2    0    0  0.23099741210E+02  0.34108488368E+02  0.11284033503E+02  0.42712017452E+02  0.00000000000E+00 0. -1.
</event>
<event>
 7    1  0.2594791E-009  0.1363481E+03  0.7561462E-02  0.1218329E+00
         -1   -1    0    0    0  501 -0.00000000000E+00  0.00000000000E+00  0.33888021577E+02  0.33888021577E+02  0.00000000000E+00 0.  1.
          1   -1    0    0  501    0  0.00000000000E+00 -0.00000000000E+00 -0.11113052124E+04  0.11113052124E+04  0.00000000000E+00 0. -1.
         25    2    1    2    0    0  0.38669906598E+02 -0.92234182401E+02 -0.93312989611E+03  0.94677346839E+03  0.12508433691E+03 0.  0.
          5    1    3    3  502    0 -0.16840996405E+02  0.10398708119E+02 -0.30345612732E+02  0.36470274232E+02  0.41800000000E+01 0. -1.
         -5    1    3    3    0  502  0.55510903003E+02 -0.10263289052E+03 -0.90278428338E+03  0.91030319415E+03  0.41800000000E+01 0. -1.
        -11    1    1    2    0    0  0.30223513320E+02  0.34089811416E+02 -0.40622298184E+02  0.61038898332E+02  0.00000000000E+00 0.  1.
         11    1    1    2    0    0 -0.68893419918E+02  0.58144370985E+02 -0.10366499654E+03  0.13738086728E+03  0.00000000000E+00 0. -1.
</event>
<event>
 7    1  0.2594791E-009  0.1892640E+03  0.7561462E-02  0.1159127E+00
          1   -1    0    0  501    0  0.00000000000E+00  0.00000000000E+00  0.25180058816E+03  0.25180058816E+03  0.00000000000E+00 0. -1.
         -1   -1    0    0    0  501 -0.00000000000E+00 -0.00000000000E+00 -0.20980083967E+03  0.20980083967E+03  0.00000000000E+00 0.  1.
         25    2    1    2    0    0 -0.10042066211E+03 -0.15491725479E+03 -0.60851384665E+02  0.23115850568E+03  0.12509076114E+03 0.  0.
          5    1    3    3  502    0 -0.65313991349E+02 -0.86892292194E+02 -0.97593974229E+02  0.14614460002E+03  0.41800000000E+01 0.  1.
         -5    1    3    3    0  502 -0.35106670759E+02 -0.68024962596E+02  0.36742589565E+02  0.85013905662E+02  0.41800000000E+01 0.  1.
        -11    1    1    2    0    0  0.73437977879E+02  0.61321036686E+02  0.91484830963E+02  0.13237401721E+03  0.00000000000E+00 0. -1.
         11    1    1    2    0    0  0.26982684229E+02  0.93596218105E+02  0.11366302197E+02  0.98068904946E+02  0.00000000000E+00 0.  1.
</event>
<event>
 7    1  0.2594791E-009  0.1014631E+03  0.7561462E-02  0.1277249E+00
          1   -1    0    0  501    0  0.00000000000E+00  0.00000000000E+00  0.93680810688E+03  0.93680810688E+03  0.00000000000E+00 0. -1.
         -1   -1    0    0    0  501 -0.00000000000E+00 -0.00000000000E+00 -0.17693453074E+02  0.17693453074E+02  0.00000000000E+00 0.  1.
         25    2    1    2    0    0  0.49318909728E+01  0.19457897846E+01  0.77330301087E+03  0.78337288744E+03  0.12508966585E+03 0.  0.
          5    1    3    3  502    0 -0.29398017976E+02 -0.50651328449E+02  0.28151026920E+03  0.28756791302E+03  0.41800000000E+01 0. -1.
         -5    1    3    3    0  502  0.34329908949E+02  0.52597118234E+02  0.49179274167E+03  0.49580497442E+03  0.41800000000E+01 0. -1.
        -11    1    1    2    0    0  0.30363662912E+02  0.22959272217E+02  0.33180505551E+02  0.50497783662E+02  0.00000000000E+00 0.  1.
         11    1    1    2    0    0 -0.35295553884E+02 -0.24905062002E+02  0.11263113739E+03  0.12063088886E+03  0.00000000000E+00 0. -1.
</event>
<event>
 7    1  0.2594791E-009  0.1310869E+03  0.7561462E-02  0.1225852E+00
          2   -1    0    0  501    0  0.00000000000E+00  0.00000000000E+00  0.17741444188E+03  0.17741444188E+03  0.00000000000E+00 0. -1.
         -2   -1    0    0    0  501 -0.00000000000E+00 -0.00000000000E+00 -0.12277120260E+03  0.12277120260E+03  0.00000000000E+00 0.  1.
         25    2    1    2    0    0  0.31153958192E+02 -0.83389833692E+02 -0.17220709518E+02  0.15445925848E+03  0.12504669615E+03 0.  0.
          5    1    3    3  502    0  0.44477578147E+02  0.62581228899E+01 -0.40683403469E+02  0.60745623527E+02  0.41800000000E+01 0.  1.
         -5    1    3    3    0  502 -0.13323619955E+02 -0.89647956582E+02  0.23462693951E+02  0.93713634949E+02  0.41800000000E+01 0.  1.
        -11    1    1    2    0    0 -0.53776872416E+02  0.17316604251E+02  0.26135907989E+02  0.62248714653E+02  0.00000000000E+00 0. -1.
         11    1    1    2    0    0  0.22622914224E+02  0.66073229441E+02  0.45728040810E+02  0.83477671344E+02  0.00000000000E+00 0.  1.
</event>
<event>
 7    1  0.2594791E-009  0.1121067E+03  0.7561462E-02  0.1256718E+00
         -1   -1    0    0    0  501 -0.00000000000E+00  0.00000000000E+00  0.14219456107E+03  0.14219456107E+03  0.00000000000E+00 0.  1.
          1   -1    0    0  501    0  0.00000000000E+00 -0.00000000000E+00 -0.16702459618E+03  0.16702459618E+03  0.00000000000E+00 0. -1.
         25    2    1    2    0    0  0.11361945323E+02  0.68322033520E+02  0.70272237741E+02  0.15931726617E+03  0.12508720893E+03 0.  0.
          5    1    3    3  502    0  0.53116755370E+02  0.26770076183E+02 -0.91705630809E+01  0.60329083426E+02  0.41800000000E+01 0. -1.
         -5    1    3    3    0  502 -0.41754810047E+02  0.41551957337E+02  0.79442800822E+02  0.98988182745E+02  0.41800000000E+01 0. -1.
        -11    1    1    2    0    0  0.27518145029E+02 -0.69924925873E+00 -0.56545141039E+02  0.62889508111E+02  0.00000000000E+00 0. -1.
         11    1    1    2    0    0 -0.38880090351E+02 -0.67622784261E+02 -0.38557131805E+02  0.87012382970E+02  0.00000000000E+00 0.  1.
</event>
<event>
 7    1  0.2594791E-009  0.3662894E+03  0.7561462E-02  0.1056121E+00
         -1   -1    0    0    0  501 -0.00000000000E+00  0.00000000000E+00  0.94219528555E+02  0.94219528555E+02  0.00000000000E+00 0.  1.
          1   -1    0    0  501    0  0.00000000000E+00 -0.00000000000E+00 -0.16812527972E+04  0.16812527972E+04  0.00000000000E+00 0. -1.
         25    2    1    2    0    0 -0.33212880500E+03  0.12632670084E+03 -0.11151104648E+04  0.11770245516E+04  0.12508983928E+03 0.  0.
          5    1    3    3  502    0 -0.16207155941E+03  0.11013958350E+03 -0.72710567205E+03  0.75305912713E+03  0.41800000000E+01 0.  1.
         -5    1    3    3    0  502 -0.17005724559E+03  0.16187117336E+02 -0.38800479276E+03  0.42396542448E+03  0.41800000000E+01 0.  1.
        -11    1    1    2    0    0  0.54830492002E+02 -0.58604715984E+02 -0.13296266192E+03  0.15530603676E+03  0.00000000000E+00 0.  1.
         11    1    1    2    0    0  0.27729831300E+03 -0.67721984854E+02 -0.33896014196E+03  0.44314173744E+03  0.00000000000E+00 0. -1.
</event>
<event>
 7    1  0.2594791E-009  0.1153370E+03  0.7561462E-02  0.1250994E+00
          2   -1    0    0  501    0  0.00000000000E+00  0.00000000000E+00  0.45498268998E+03  0.45498268998E+03  0.00000000000E+00 0. -1.
         -2   -1    0    0    0  501 -0.00000000000E+00 -0.00000000000E+00 -0.35780455645E+02  0.35780455645E+02  0.00000000000E+00 0.  1.
         25    2    1    2    0    0  0.42953169255E+02  0.27869123221E+02  0.31697078340E+03  0.34458680683E+03  0.12509167493E+03 0.  0.
          5    1    3    3  502    0  0.57933124743E+02 -0.30982699006E+02  0.22390096576E+03  0.23337799692E+03  0.41800000000E+01 0.  1.
         -5    1    3    3    0  502 -0.14979955488E+02  0.58851822227E+02  0.93069817640E+02  0.11120880991E+03  0.41800000000E+01 0.  1.
        -11    1    1    2    0    0 -0.42251206549E+02  0.26319450382E+02  0.56168846837E+02  0.75052097094E+02  0.00000000000E+00 0. -1.
         11    1    1    2    0    0 -0.70196270583E+00 -0.54188573603E+02  0.46062604099E+02  0.71124241699E+02  0.00000000000E+00 0.  1.
</event>
<event>
 7    1  0.2594791E-009  0.9109206E+02  0.7561462E-02  0.1300228E+00
         -1   -1    0    0    0  501 -0.00000000000E+00  0.00000000000E+00  0.69448892569E+03  0.69448892569E+03  0.00000000000E+00 0.  1.
          1   -1    0    0  501    0  0.00000000000E+00 -0.00000000000E+00 -0.28267638149E+02  0.28267638149E+02  0.00000000000E+00 0. -1.
         25    2    1    2    0    0  0.55080277455E+02  0.36472789103E+02  0.19918950579E+03  0.24431111038E+03  0.12508940055E+03 0.  0.
          5    1    3    3  502    0  0.42155978325E+02  0.12871917252E+01  0.82241373633E+00  0.42390236321E+02  0.41800000000E+01 0.  1.
         -5    1    3    3    0  502  0.12924299131E+02  0.35185597378E+02  0.19836709205E+03  0.20192087406E+03  0.41800000000E+01 0.  1.
        -11    1    1    2    0    0 -0.18552786510E+00 -0.46314891922E+02  0.16852052823E+03  0.17476919657E+03  0.00000000000E+00 0. -1.
         11    1    1    2    0    0 -0.54894749590E+02  0.98421028180E+01  0.29851125352E+03  0.30367625689E+03  0.00000000000E+00 0.  1.
</event>
<event>
 7    1  0.2594791E-009  0.1919937E+03  0.7561462E-02  0.1156675E+00
          2   -1    0    0  501    0  0.00000000000E+00  0.00000000000E+00  0.59860105494E+03  0.59860105494E+03  0.00000000000E+00 0.  1.
         -2   -1    0    0    0  501 -0.00000000000E+00 -0.00000000000E+00 -0.12445196851E+03  0.12445196851E+03  0.00000000000E+00 0. -1.
         25    2    1    2    0    0  0.10599507926E+03 -0.15786765180E+03  0.27451876545E+02  0.22926202162E+03  0.12510122589E+03 0.  0.
          5    1    3    3  502    0  0.44624685384E+02 -0.82188381290E+02  0.75758384737E+02  0.12042880811E+03  0.41800000000E+01 0. -1.
         -5    1    3    3    0  502  0.61370393876E+02 -0.75679270514E+02 -0.48306508193E+02  0.10883321351E+03  0.41800000000E+01 0. -1.
        -11    1    1    2    0    0 -0.92880722254E+02  0.15274557297E+03  0.44505488976E+03  0.47961640248E+03  0.00000000000E+00 0.  1.
         11    1    1    2    0    0 -0.13114357006E+02  0.51220788368E+01  0.16423201240E+01  0.14174599348E+02  0.00000000000E+00 0. -1.
</event>
<event>
 7    1  0.2594791E-009  0.9335998E+02  0.7561462E-02  0.1294913E+00
         -4   -1    0    0    0  501 -0.00000000000E+00  0.00000000000E+00  0.20865035447E+03  0.20865035447E+03  0.00000000000E+00 0.  1.
          4   -1    0    0  501    0  0.00000000000E+00 -0.00000000000E+00 -0.60000534757E+02  0.60000534757E+02  0.00000000000E+00 0. -1.
         25    2    1    2    0    0  0.17009511380E+02  0.21691225984E+02  0.94335186519E+02  0.15908177447E+03  0.12509216919E+03 0.  0.
          5    1    3    3  502    0  0.70149915272E+02  0.24934164115E+02  0.51510013505E+02  0.90628235358E+02  0.41800000000E+01 0.  1.
         -5    1    3    3    0  502 -0.53140403893E+02 -0.32429381310E+01  0.42825173015E+02  0.68453539115E+02  0.41800000000E+01 0.  1.
        -11    1    1    2    0    0  0.15601155214E+02  0.52388786999E+01 -0.18872827516E+02  0.25040477481E+02  0.00000000000E+00 0. -1.
         11    1    1    2    0    0 -0.32610666594E+02 -0.26930104684E+02  0.73187460710E+02  0.84528637273E+02  0.00000000000E+00 0.  1.
</event>
<event>
 7    1  0.2594791E-009  0.1214533E+03  0.7561462E-02  0.1240719E+00
         -3   -1    0    0    0  501 -0.00000000000E+00  0.00000000000E+00  0.25458218905E+02  0.25458218905E+02  0.00000000000E+00 0.  1.
          3   -1    0    0  501    0  0.00000000000E+00 -0.00000000000E+00 -0.77511810590E+03  0.77511810590E+03  0.00000000000E+00 0. -1.
         25    2    1    2    0    0 -0.29580893122E+02 -0.81298832448E+02 -0.48226527374E+03  0.50568031449E+03  0.12509299265E+03 0.  0.
          5    1    3    3  502    0 -0.23922793538E+02 -0.11180716182E+03 -0.30671986799E+03  0.32736476797E+03  0.41800000000E+01 0.  1.
         -5    1    3    3    0  502 -0.56580995842E+01  0.30508329371E+02 -0.17554540574E+03  0.17831554652E+03  0.41800000000E+01 0.  1.
        -11    1    1    2    0    0  0.40498652337E+02  0.51956073918E+02 -0.25110801196E+03  0.25960510035E+03  0.00000000000E+00 0. -1.
         11    1    1    2    0    0 -0.10917759215E+02  0.29342758530E+02 -0.16286601295E+02  0.35290909965E+02  0.00000000000E+00 0.  1.
</event>
<event>
 7    1  0.2594791E-009  0.1142765E+03  0.7561462E-02  0.1252849E+00
         -1   -1    0    0    0  501 -0.00000000000E+00  0.00000000000E+00  0.45982738326E+03  0.45982738326E+03  0.00000000000E+00 0.  1.
          1   -1    0    0  501    0  0.00000000000E+00 -0.00000000000E+00 -0.33523716439E+02  0.33523716439E+02  0.00000000000E+00 0. -1.
         25    2    1    2    0    0  0.34468265179E+02 -0.38924782110E+02  0.17904150858E+03  0.22451580446E+03  0.12509310408E+03 0.  0.
          5    1    3    3  502    0 -0.75190283352E+01  0.39380996733E+02  0.27498445665E+02  0.48795856430E+02  0.41800000000E+01 0. -1.
         -5    1    3    3    0  502  0.41987293514E+02 -0.78305778843E+02  0.15154306292E+03  0.17571994803E+03  0.41800000000E+01 0. -1.
        -11    1    1    2    0    0  0.27557542186E+02  0.21245960792E+02  0.47241249652E+02  0.58673202146E+02  0.00000000000E+00 0.  1.
         11    1    1    2    0    0 -0.62025807365E+02  0.17678821318E+02  0.20002090859E+03  0.21016209310E+03  0.00000000000E+00 0. -1.
</event>
<event>
 7    1  0.2594791E-009  0.1785024E+03  0.7561462E-02  0.1169260E+00
          3   -1    0    0  501    0  0.00000000000E+00  0.00000000000E+00  0.39080015476E+03  0.39080015476E+03  0.00000000000E+00 0. -1.
         -3   -1    0    0    0  501 -0.00000000000E+00 -0.00000000000E+00 -0.16047354736E+03  0.16047354736E+03  0.00000000000E+00 0.  1.
         25    2    1    2    0    0 -0.43489871941E+02  0.16057437854E+03 -0.48925500488E+02  0.21381629107E+03  0.12509277246E+03 0.  0.
          5    1    3    3  502    0 -0.51937924238E+02  0.12293365331E+03 -0.87072087333E+02  0.15940279760E+03  0.41800000000E+01 0.  1.
         -5    1    3    3    0  502  0.84480522968E+01  0.37640725235E+02  0.38146586845E+02  0.54413493471E+02  0.41800000000E+01 0.  1.
        -11    1    1    2    0    0  0.63232916528E+02 -0.81354989016E+02  0.11757477171E+03  0.15633573780E+03  0.00000000000E+00 0.  1.
         11    1    1    2    0    0 -0.19743044587E+02 -0.79219389525E+02  0.16167733618E+03  0.18112167325E+03  0.00000000000E+00 0. -1.
</event>
<event>
 7    1  0.2594791E-009  0.9640018E+02  0.7561462E-02  0.1288053E+00
          2   -1    0    0  501    0  0.00000000000E+00  0.00000000000E+00  0.11241756373E+03  0.11241756373E+03  0.00000000000E+00 0. -1.
         -2   -1    0    0    0  501 -0.00000000000E+00 -0.00000000000E+00 -0.14266020395E+03  0.14266020395E+03  0.00000000000E+00 0.  1.
         25    2    1    2    0    0 -0.50043969842E+02  0.93137684793E+01  0.26461840740E+02  0.13761906259E+03  0.12509049592E+03 0.  0.
          5    1    3    3  502    0 -0.66728857790E+02 -0.43234028258E+02  0.18686402907E+02  0.81783713018E+02  0.41800000000E+01 0. -1.
         -5    1    3    3    0  502  0.16684887948E+02  0.52547796738E+02  0.77754378337E+01  0.55835349568E+02  0.41800000000E+01 0. -1.
        -11    1    1    2    0    0  0.23224400767E+02 -0.18338186407E+02 -0.77095822204E+02  0.82579826065E+02  0.00000000000E+00 0.  1.
         11    1    1    2    0    0  0.26819569075E+02  0.90244179275E+01  0.20391341252E+02  0.34878879030E+02  0.00000000000E+00 0. -1.
</event>
<event>
 7    1  0.2594791E-009  0.1339204E+03  0.7561462E-02  0.1221752E+00
         -2   -1    0    0    0  501 -0.00000000000E+00  0.00000000000E+00  0.24833134754E+02  0.24833134754E+02  0.00000000000E+00 0.  1.
          2   -1    0    0  501    0  0.00000000000E+00 -0.00000000000E+00 -0.75341076717E+03  0.75341076717E+03  0.00000000000E+00 0. -1.
         25    2    1    2    0    0 -0.77673491881E+02 -0.12038733204E+02 -0.47394698023E+03  0.49645249520E+03  0.12514486596E+03 0.  0.
          5    1    3    3  502    0 -0.93470149622E+02  0.33109222864E+02 -0.33832746770E+03  0.35258451087E+03  0.41800000000E+01 0.  1.
         -5    1    3    3    0  502  0.15796657742E+02 -0.45147956067E+02 -0.13561951253E+03  0.14386798432E+03  0.41800000000E+01 0.  1.
        -11    1    1    2    0    0  0.90595225348E+02  0.32609430892E+02 -0.19798735742E+03  0.22015872351E+03  0.00000000000E+00 0.  1.
         11    1    1    2    0    0 -0.12921733467E+02 -0.20570697688E+02 -0.56643294761E+02  0.61632683217E+02  0.00000000000E+00 0. -1.
</event>
<event>
 7    1  0.2594791E-009  0.9849180E+02  0.7561462E-02  0.1283500E+00
         -2   -1    0    0    0  501 -0.00000000000E+00  0.00000000000E+00  0.59938611426E+02  0.59938611426E+02  0.00000000000E+00 0.  1.
          2   -1    0    0  501    0  0.00000000000E+00 -0.00000000000E+00 -0.21653634863E+03  0.21653634863E+03  0.00000000000E+00 0. -1.
         25    2    1    2    0    0  0.63702187420E+01  0.31979398229E+02 -0.68066607412E+02  0.14609494837E+03  0.12508960507E+03 0.  0.
          5    1    3    3  502    0  0.53054470717E+02  0.48994276447E+02 -0.63087964158E+02  0.95983225666E+02  0.41800000000E+01 0. -1.
         -5    1    3    3    0  502 -0.46684251975E+02 -0.17014878218E+02 -0.49786432539E+01  0.50111722700E+02  0.41800000000E+01 0. -1.
        -11    1    1    2    0    0 -0.36942685341E+02 -0.19357330238E+02 -0.68623931194E+01  0.42267726145E+02  0.00000000000E+00 0.  1.
         11    1    1    2    0    0  0.30572466599E+02 -0.12622067991E+02 -0.81668736670E+02  0.88112285543E+02  0.00000000000E+00 0. -1.
</event>
<event>
 7    1  0.2594791E-009  0.1054629E+03  0.7561462E-02  0.1269210E+00
         -1   -1    0    0    0  501 -0.00000000000E+00  0.00000000000E+00  0.88930206908E+02  0.88930206908E+02  0.00000000000E+00 0.  1.
          1   -1    0    0  501    0  0.00000000000E+00 -0.00000000000E+00 -0.14643839184E+03  0.14643839184E+03  0.00000000000E+00 0. -1.
         25    2    1    2    0    0  0.32011708506E+02 -0.17093621449E+02 -0.25111964137E+02  0.13264329241E+03  0.12508673352E+03 0.  0.
          5    1    3    3  502    0  0.53879861120E+01 -0.61624468380E+02 -0.45329461555E+02  0.76803893016E+02  0.41800000000E+01 0.  1.
         -5    1    3    3    0  502  0.26623722394E+02  0.44530846931E+02  0.20217497418E+02  0.55839399391E+02  0.41800000000E+01 0.  1.
        -11    1    1    2    0    0 -0.28101363237E+00 -0.35472513548E+02 -0.63913077629E+01  0.36044791593E+02  0.00000000000E+00 0.  1.
         11    1    1    2    0    0 -0.31730694873E+02  0.52566134997E+02 -0.26004913035E+02  0.66680514752E+02  0.00000000000E+00 0. -1.
</event>
<event>
 7    1  0.2594791E-009  0.3613896E+03  0.7561462E-02  0.1058035E+00
          2   -1    0    0  501    0  0.00000000000E+00  0.00000000000E+00  0.70117577462E+03  0.70117577462E+03  0.00000000000E+00 0.  1.
         -2   -1    0    0    0  501 -0.00000000000E+00 -0.00000000000E+00 -0.19490671971E+03  0.19490671971E+03  0.00000000000E+00 0. -1.
         25    2    1    2    0    0 -0.56989784459E+02  0.34483902918E+03  0.19019261756E+03  0.41711197390E+03  0.12508946964E+03 0.  0.
          5    1    3    3  502    0 -0.94900284643E+02  0.28015698513E+03  0.15848449054E+03  0.33560215507E+03  0.41800000000E+01 0. -1.
         -5    1    3    3    0  502  0.37910500184E+02  0.64682044051E+02  0.31708127021E+02  0.81509818832E+02  0.41800000000E+01 0. -1.
        -11    1    1    2    0    0  0.14186485602E+02 -0.20813086066E+03  0.13670254996E+03  0.24941391040E+03  0.00000000000E+00 0. -1.
         11    1    1    2    0    0  0.42803298857E+02 -0.13670816852E+03  0.17937388739E+03  0.22955661003E+03  0.00000000000E+00 0.  1.
</event>
<event>
 7    1  0.2594791E-009  0.6922057E+02  0.7561462E-02  0.1362764E+00
          2   -1    0    0  501    0  0.00000000000E+00  0.00000000000E+00  0.32769833633E+03  0.32769833633E+03  0.00000000000E+00 0. -1.
         -2   -1    0    0    0  501 -0.00000000000E+00 -0.00000000000E+00 -0.59914679270E+02  0.59914679270E+02  0.00000000000E+00 0.  1.
         25    2    1    2    0    0  0.15852974430E+02  0.53526298955E+01  0.26434830540E+03  0.29292788180E+03  0.12508696944E+03 0.  0.
          5    1    3    3  502    0  0.35323774845E+02 -0.41068209527E+02  0.54007993340E+02  0.76607458173E+02  0.41800000000E+01 0. -1.
         -5    1    3    3    0  502 -0.19470800415E+02  0.46420839422E+02  0.21034031205E+03  0.21632042362E+03  0.41800000000E+01 0. -1.
        -11    1    1    2    0    0  0.23299227478E+01 -0.13481174740E+02 -0.42483932620E+02  0.44632444962E+02  0.00000000000E+00 0.  1.
         11    1    1    2    0    0 -0.18182897178E+02  0.81285448442E+01  0.45919284287E+02  0.50052688844E+02  0.00000000000E+00 0. -1.
</event>
<event>
 7    1  0.2594791E-009  0.1106468E+03  0.7561462E-02  0.1259377E+00
         -1   -1    0    0    0  501 -0.00000000000E+00  0.00000000000E+00  0.11294256045E+03  0.11294256045E+03  0.00000000000E+00 0.  1.
          1   -1    0    0  501    0  0.00000000000E+00 -0.00000000000E+00 -0.15571956180E+03  0.15571956180E+03  0.00000000000E+00 0. -1.
         25    2    1    2    0    0 -0.62821008284E+02  0.42330214304E+02 -0.13917526014E+02  0.14688736050E+03  0.12507546929E+03 0.  0.
          5    1    3    3  502    0 -0.21813217466E+02  0.69301868661E+02  0.32042664737E+02  0.79515848858E+02  0.41800000000E+01 0.  1.
         -5    1    3    3    0  502 -0.41007790818E+02 -0.26971654356E+02 -0.45960190751E+02  0.67371511638E+02  0.41800000000E+01 0.  1.
        -11    1    1    2    0    0  0.72023049642E+02 -0.19457665133E+02 -0.49573562828E+02  0.89573760352E+02  0.00000000000E+00 0. -1.
         11    1    1    2    0    0 -0.92020413576E+01 -0.22872549171E+02  0.20714087494E+02  0.32201001405E+02  0.00000000000E+00 0.  1.
</event>
<event>
 7    1  0.2594791E-009  0.1001304E+03  0.7561462E-02  0.1280022E+00
         -1   -1    0    0    0  501 -0.00000000000E+00  0.00000000000E+00  0.40754393033E+03  0.40754393033E+03  0.00000000000E+00 0.  1.
          1   -1    0    0  501    0  0.00000000000E+00 -0.00000000000E+00 -0.35105433764E+02  0.35105433764E+02  0.00000000000E+00 0. -1.
         25    2    1    2    0    0 -0.42152123418E+02 -0.13568661400E+01  0.26759369323E+03  0.29838126665E+03  0.12508538298E+03 0.  0.
          5    1    3    3  502    0 -0.14112413434E+01  0.53394959956E+02  0.17668515567E+03  0.18462971046E+03  0.41800000000E+01 0. -1.
         -5    1    3    3    0  502 -0.40740882075E+02 -0.54751826096E+02  0.90908537558E+02  0.11375155618E+03  0.41800000000E+01 0. -1.
        -11    1    1    2    0    0  0.43552116390E+02  0.27904663438E+02  0.10569178596E+03  0.11766992268E+03  0.00000000000E+00 0.  1.
         11    1    1    2    0    0 -0.13999929717E+01 -0.26547797298E+02 -0.84698262085E+00  0.26598174773E+02  0.00000000000E+00 0. -1.
</event>
<event>
 7    1  0.2594791E-009  0.1358524E+03  0.7561462E-02  0.1219021E+00
          1   -1    0    0  501    0  0.00000000000E+00  0.00000000000E+00  0.12310418654E+04  0.12310418654E+04  0.00000000000E+00 0. -1.
         -1   -1    0    0    0  501 -0.00000000000E+00 -0.00000000000E+00 -0.15263138258E+02  0.15263138258E+02  0.00000000000E+00 0.  1.
         25    2    1    2    0    0  0.30835193234E+02 -0.78066642974E+02  0.67793705715E+03  0.69447108928E+03  0.12508489317E+03 0.  0.
          5    1    3    3  502    0 -0.93545961392E+01  0.31182412580E+02  0.19069894174E+03  0.19350299766E+03  0.41800000000E+01 0. -1.
         -5    1    3    3    0  502  0.40189789374E+02 -0.10924905555E+03  0.48723811542E+03  0.50096809162E+03  0.41800000000E+01 0. -1.
        -11    1    1    2    0    0  0.31194590909E+02  0.35010038404E+02  0.24253998406E+03  0.24703127162E+03  0.00000000000E+00 0. -1.
         11    1    1    2    0    0 -0.62029784143E+02  0.43056604570E+02  0.29530168588E+03  0.30480264271E+03  0.00000000000E+00 0.  1.
</event>
<event>
 7    1  0.2594791E-009  0.9521281E+02  0.7561462E-02  0.1290697E+00
         -2   -1    0    0    0  501 -0.00000000000E+00  0.00000000000E+00  0.57869916561E+03  0.57869916561E+03  0.00000000000E+00 0. -1.
          2   -1    0    0  501    0  0.00000000000E+00 -0.00000000000E+00 -0.18498215599E+02  0.18498215599E+02  0.00000000000E+00 0.  1.
         25    2    1    2    0    0  0.12637395180E+01 -0.33742251672E+01  0.31861002114E+03  0.34230520484E+03  0.12509006859E+03 0.  0.
          5    1    3    3  502    0 -0.22955122792E+01  0.58008691641E+02  0.10582456102E+03  0.12077494689E+03  0.41800000000E+01 0.  1.
         -5    1    3    3    0  502  0.35592517972E+01 -0.61382916808E+02  0.21278546012E+03  0.22153025795E+03  0.41800000000E+01 0.  1.
        -11    1    1    2    0    0  0.62653933552E+01  0.36290266952E+02  0.61661749715E+02  0.71822071867E+02  0.00000000000E+00 0. -1.
         11    1    1    2    0    0 -0.75291328732E+01 -0.32916041785E+02  0.17992917916E+03  0.18307010450E+03  0.00000000000E+00 0.  1.
</event>
<event>
 7    1  0.2594791E-009  0.1026667E+03  0.7561462E-02  0.1274786E+00
         -1   -1    0    0    0  501 -0.00000000000E+00  0.00000000000E+00  0.35129216255E+02  0.35129216255E+02  0.00000000000E+00 0.  1.
          1   -1    0    0  501    0  0.00000000000E+00 -0.00000000000E+00 -0.39228864900E+03  0.39228864900E+03  0.00000000000E+00 0. -1.
         25    2    1    2    0    0 -0.27776099468E+02 -0.11086823473E+02 -0.26696097289E+03  0.29632909679E+03  0.12509333796E+03 0.  0.
          5    1    3    3  502    0 -0.69945206768E+02 -0.35720418854E+02 -0.14648200696E+03  0.16626103283E+03  0.41800000000E+01 0.  1.
         -5    1    3    3    0  502  0.42169107300E+02  0.24633595381E+02 -0.12047896593E+03  0.13006806396E+03  0.41800000000E+01 0.  1.
        -11    1    1    2    0    0  0.41749849955E+02  0.31939932562E+02 -0.91961162299E+02  0.10592480651E+03  0.00000000000E+00 0. -1.
         11    1    1    2    0    0 -0.13973750487E+02 -0.20853109089E+02  0.17627024424E+01  0.25163961954E+02  0.00000000000E+00 0.  1.
</event>
<event>
 6    1  0.2594791E-009  0.1203686E+03  0.7561462E-02  0.1242490E+00
          1   -1    0    0  501    0  0.00000000000E+00  0.00000000000E+00  0.18936077887E+04  0.18936077887E+04  0.00000000000E+00 0. -1.
         -1   -1    0    0    0  501 -0.00000000000E+00 -0.00000000000E+00 -0.11824019612E+02  0.11824019612E+02  0.00000000000E+00 0.  1.
          5    1    1    2  502    0 -0.89303885994E+02  0.24981915219E+02  0.10798107169E+04  0.10837933092E+04  0.41800000000E+01 0. -1.
         -5    1    1    2    0  502  0.82127127004E+01 -0.53203558344E+02  0.36831379365E+03  0.37225070888E+03  0.41800000000E+01 0. -1.
        -11    1    1    2    0    0  0.62570780760E+02  0.37761211304E+02  0.41510840422E+03  0.42149258468E+03  0.00000000000E+00 0. -1.
         11    1    1    2    0    0  0.18520392534E+02 -0.95395681777E+01  0.18550854255E+02  0.27895205577E+02  0.00000000000E+00 0.  1.
</event>
<event>
 7    1  0.2594791E-009  0.1538990E+03  0.7561462E-02  0.1195762E+00
         -1   -1    0    0    0  501 -0.00000000000E+00  0.00000000000E+00  0.41187702963E+03  0.41187702963E+03  0.00000000000E+00 0.  1.
          1   -1    0    0  501    0  0.00000000000E+00 -0.00000000000E+00 -0.75182930419E+02  0.75182930419E+02  0.00000000000E+00 0. -1.
         25    2    1    2    0    0 -0.40978975713E+02 -0.13073151801E+03  0.15493181574E+03  0.24170417853E+03  0.12508811352E+03 0.  0.
          5    1    3    3  502    0  0.12100633610E+02 -0.40311729348E+02  0.12592303356E+03  0.13283652976E+03  0.41800000000E+01 0. -1.
         -5    1    3    3    0  502 -0.53079609323E+02 -0.90419788659E+02  0.29008782174E+02  0.10886764878E+03  0.41800000000E+01 0. -1.
        -11    1    1    2    0    0  0.34551135732E+02  0.52773448903E+01  0.65253342772E+02  0.74024523588E+02  0.00000000000E+00 0. -1.
         11    1    1    2    0    0  0.64278399805E+01  0.12545417312E+03  0.11650894071E+03  0.17133125793E+03  0.00000000000E+00 0.  1.
</event>
<event>
 7    1  0.2594791E-009  0.1185672E+03  0.7561462E-02  0.1245480E+00
          1   -1    0    0  501    0  0.00000000000E+00  0.00000000000E+00  0.18670986672E+02  0.18670986672E+02  0.00000000000E+00 0. -1.
         -1   -1    0    0    0  501 -0.00000000000E+00 -0.00000000000E+00 -0.86560403990E+03  0.86560403990E+03  0.00000000000E+00 0.  1.
         25    2    1    2    0    0 -0.23028413141E+02  0.67927089377E+02 -0.56259926538E+03  0.58078634634E+03  0.12510175621E+03 0.  0.
          5    1    3    3  502    0 -0.55672774785E+02  0.82512204122E+02 -0.30947864426E+03  0.32511878650E+03  0.41800000000E+01 0. -1.
         -5    1    3    3    0  502  0.32644361644E+02 -0.14585114744E+02 -0.25312062112E+03  0.25566755984E+03  0.41800000000E+01 0. -1.
        -11    1    1    2    0    0  0.45350376044E+02 -0.64619968643E+02 -0.17698716430E+03  0.19379590625E+03  0.00000000000E+00 0.  1.
         11    1    1    2    0    0 -0.22321962902E+02 -0.33071207340E+01 -0.10734662354E+03  0.10969277397E+03  0.00000000000E+00 0. -1.
</event>
<event>
 7    1  0.2594791E-009  0.1424336E+03  0.7561462E-02  0.1210091E+00
         -2   -1    0    0    0  501 -0.00000000000E+00  0.00000000000E+00  0.31785997398E+02  0.31785997398E+02  0.00000000000E+00 0.  1.
          2   -1    0    0  501    0  0.00000000000E+00 -0.00000000000E+00 -0.83039917950E+03  0.83039917950E+03  0.00000000000E+00 0. -1.
         25    2    1    2    0    0 -0.91361959660E+02  0.42875155745E+02 -0.24904863292E+03  0.29640761645E+03  0.12508783665E+03 0.  0.
          5    1    3    3  502    0 -0.42724124607E+02  0.79744567692E+02 -0.97991212078E+02  0.13343274315E+03  0.41800000000E+01 0.  1.
         -5    1    3    3    0  502 -0.48637835053E+02 -0.36869411947E+02 -0.15105742084E+03  0.16297487330E+03  0.41800000000E+01 0.  1.
        -11    1    1    2    0    0  0.46114561385E+02 -0.67395531318E+02 -0.29695423189E+03  0.30797812625E+03  0.00000000000E+00 0.  1.
         11    1    1    2    0    0  0.45247398276E+02  0.24520375573E+02 -0.25261031730E+03  0.25779943420E+03  0.00000000000E+00 0. -1.
</event>
<event>
 7    1  0.2594791E-009  0.1258526E+03  0.7561462E-02  0.1233743E+00
         -2   -1    0    0    0  501 -0.00000000000E+00  0.00000000000E+00  0.91681650645E+02  0.91681650645E+02  0.00000000000E+00 0.  1.
          2   -1    0    0  501    0  0.00000000000E+00 -0.00000000000E+00 -0.28581844205E+03  0.28581844205E+03  0.00000000000E+00 0. -1.
         25    2    1    2    0    0  0.11325655095E+03 -0.26651028406E+02 -0.70815185540E+02  0.18493019209E+03  0.12508821605E+03 0.  0.
          5    1    3    3  502    0 -0.72313141808E+01 -0.77093660680E+01  0.26503998722E+02  0.28838525937E+02  0.41800000000E+01 0. -1.
         -5    1    3    3    0  502  0.12048786513E+03 -0.18941662338E+02 -0.97319184262E+02  0.15609166615E+03  0.41800000000E+01 0. -1.
        -11    1    1    2    0    0 -0.14909791560E+02  0.11418572654E+02  0.13682168126E+02  0.23235477409E+02  0.00000000000E+00 0.  1.
         11    1    1    2    0    0 -0.98346759394E+02  0.15232455752E+02 -0.13700377400E+03  0.16933442320E+03  0.00000000000E+00 0. -1.
</event>
<event>
 7    1  0.2594791E-009  0.8665674E+02  0.7561462E-02  0.1311156E+00
          2   -1    0    0  501    0  0.00000000000E+00  0.00000000000E+00  0.91967867828E+03  0.91967867828E+03  0.00000000000E+00 0.  1.
         -2   -1    0    0    0  501 -0.00000000000E+00 -0.00000000000E+00 -0.15301101951E+02  0.15301101951E+02  0.00000000000E+00 0. -1.
         25    2    1    2    0    0 -0.45370374899E+02 -0.11029321092E+02  0.54044375908E+03  0.55669288927E+03  0.12508956550E+03 0.  0.
          5    1    3    3  502    0  0.54645500438E+01 -0.17758348100E+02  0.46492226612E+03  0.46531215992E+03  0.41800000000E+01 0.  1.
         -5    1    3    3    0  502 -0.50834924943E+02  0.67290270083E+01  0.75521492955E+02  0.91380729350E+02  0.41800000000E+01 0.  1.
        -11    1    1    2    0    0  0.55411074965E+02 -0.28307160395E+02  0.23608155474E+03  0.24414377536E+03  0.00000000000E+00 0.  1.
         11    1    1    2    0    0 -0.10040700067E+02  0.39336481487E+02  0.12785226250E+03  0.13414311559E+03  0.00000000000E+00 0. -1.
</event>
<event>
 7    1  0.2594791E-009  0.2000117E+03  0.7561462E-02  0.1149729E+00
          1   -1    0    0  501    0  0.00000000000E+00  0.00000000000E+00  0.36619174307E+03  0.36619174307E+03  0.00000000000E+00 0. -1.
         -1   -1    0    0    0  501 -0.00000000000E+00 -0.00000000000E+00 -0.11451444977E+03  0.11451444977E+03  0.00000000000E+00 0.  1.
         25    2    1    2    0    0 -0.14619109083E+03 -0.89027736583E+02  0.16255448027E+03  0.26715023924E+03  0.12509004097E+03 0.  0.
          5    1    3    3  502    0  0.10516865005E+02  0.16587240861E+02  0.30698216697E+02  0.36682337947E+02  0.41800000000E+01 0.  1.
         -5    1    3    3    0  502 -0.15670795584E+03 -0.10561497744E+03  0.13185626357E+03  0.23046790129E+03  0.41800000000E+01 0.  1.
        -11    1    1    2    0    0  0.94103075826E+02  0.77983518848E+01  0.24937157428E+02  0.97663017528E+02  0.00000000000E+00 0. -1.
         11    1    1    2    0    0  0.52088015008E+02  0.81229384699E+02  0.64185655605E+02  0.11589293607E+03  0.00000000000E+00 0.  1.
</event>
<event>
 7    1  0.2594791E-009  0.1716246E+03  0.7561462E-02  0.1176164E+00
          3   -1    0    0  501    0  0.00000000000E+00  0.00000000000E+00  0.14666726701E+03  0.14666726701E+03  0.00000000000E+00 0. -1.
         -3   -1    0    0    0  501 -0.00000000000E+00 -0.00000000000E+00 -0.29120250625E+03  0.29120250625E+03  0.00000000000E+00 0.  1.
         25    2    1    2    0    0  0.12572933704E+03 -0.11641456888E+03 -0.11563477105E+03  0.24163518036E+03  0.12512370709E+03 0.  0.
          5    1    3    3  502    0  0.40457198646E+02 -0.42585571359E+02 -0.11450479392E+03  0.12875999394E+03  0.41800000000E+01 0. -1.
         -5    1    3    3    0  502  0.85272138395E+02 -0.73828997517E+02 -0.11299771286E+01  0.11287518642E+03  0.41800000000E+01 0. -1.
        -11    1    1    2    0    0 -0.11373247511E+03  0.10234485220E+03  0.98296274643E+01  0.15331720791E+03  0.00000000000E+00 0. -1.
         11    1    1    2    0    0 -0.11996861930E+02  0.14069716679E+02 -0.38730095659E+02  0.42917384977E+02  0.00000000000E+00 0.  1.
</event>
<event>
 7    1  0.2594791E-009  0.1872492E+03  0.7561462E-02  0.1160966E+00
         -1   -1    0    0    0  501 -0.00000000000E+00  0.00000000000E+00  0.10781304946E+03  0.10781304946E+03  0.00000000000E+00 0.  1.
          1   -1    0    0  501    0  0.00000000000E+00 -0.00000000000E+00 -0.33384767843E+03  0.33384767843E+03  0.00000000000E+00 0. -1.
         25    2    1    2    0    0  0.14640659125E+03 -0.50027925200E+02 -0.12949148203E+03  0.23739596308E+03  0.12510442083E+03 0.  0.
          5    1    3    3  502    0  0.18006828177E+02  0.37511714985E+02 -0.40762025839E+02  0.58398542556E+02  0.41800000000E+01 0. -1.
         -5    1    3    3    0  502  0.12839976307E+03 -0.87539640185E+02 -0.88729456189E+02  0.17899742053E+03  0.41800000000E+01 0. -1.
        -11    1    1    2    0    0 -0.12657935853E+03  0.34806850728E+01 -0.52113623085E+02  0.13693165772E+03  0.00000000000E+00 0.  1.
         11    1    1    2    0    0 -0.19827232717E+02  0.46547240127E+02 -0.44429523856E+02  0.67333107093E+02  0.00000000000E+00 0. -1.
</event>
<event>
 7    1  0.2594791E-009  0.1758238E+03  0.7561462E-02  0.1171907E+00
          2   -1    0    0  501    0  0.00000000000E+00  0.00000000000E+00  0.55293958392E+03  0.55293958392E+03  0.00000000000E+00 0. -1.
         -2   -1    0    0    0  501 -0.00000000000E+00 -0.00000000000E+00 -0.68121398278E+02  0.68121398278E+02  0.00000000000E+00 0.  1.
         25    2    1    2    0    0  0.13443899108E+03 -0.75280238681E+02  0.32836849097E+03  0.38367512560E+03  0.12505910395E+03 0.  0.
          5    1    3    3  502    0  0.79103504050E+02  0.23879350380E+02  0.11152876943E+03  0.13886585808E+03  0.41800000000E+01 0.  1.
         -5    1    3    3    0  502  0.55335487030E+02 -0.99159589061E+02  0.21683972154E+03  0.24480926752E+03  0.41800000000E+01 0.  1.
        -11    1    1    2    0    0 -0.45016988086E+02  0.35868396217E+02  0.11999445319E+03  0.13308546074E+03  0.00000000000E+00 0. -1.
         11    1    1    2    0    0 -0.89422002994E+02  0.39411842464E+02  0.36455241479E+02  0.10430039586E+03  0.00000000000E+00 0.  1.
</event>
<event>
 7    1  0.2594791E-009  0.1134778E+03  0.7561462E-02  0.1254262E+00
          2   -1    0    0  501    0  0.00000000000E+00  0.00000000000E+00  0.39258874504E+03  0.39258874504E+03  0.00000000000E+00 0. -1.
         -2   -1    0    0    0  501 -0.00000000000E+00 -0.00000000000E+00 -0.34831471804E+02  0.34831471804E+02  0.00000000000E+00 0.  1.
         25    2    1    2    0    0 -0.36060653173E+02 -0.11456356270E+02  0.24744237556E+03  0.27983455707E+03  0.12509209128E+03 0.  0.
          5    1    3    3  502    0  0.46250786070E+02 -0.13596672768E+01  0.71280351937E+02  0.85084339801E+02  0.41800000000E+01 0. -1.
         -5    1    3    3    0  502 -0.82311439243E+02 -0.10096688994E+02  0.17616202363E+03  0.19475021727E+03  0.41800000000E+01 0. -1.
        -11    1    1    2    0    0 -0.29056729629E+02 -0.67852982173E+01  0.41413805997E+02  0.51043482795E+02  0.00000000000E+00 0.  1.
         11    1    1    2    0    0  0.65117382803E+02  0.18241654488E+02  0.68901091677E+02  0.96542176979E+02  0.00000000000E+00 0. -1.
</event>
<event>
 7    1  0.2594791E-009  0.8409125E+02  0.7561462E-02  0.1317826E+00
          2   -1    0    0  501    0  0.00000000000E+00  0.00000000000E+00  0.70557968099E+03  0.70557968099E+03  0.00000000000E+00 0. -1.
         -2   -1    0    0    0  501 -0.00000000000E+00 -0.00000000000E+00 -0.24145733465E+02  0.24145733465E+02  0.00000000000E+00 0.  1.
         25    2    1    2    0    0 -0.28874599530E+01 -0.41799677803E+02  0.56356867053E+03  0.57880302988E+03  0.12509096892E+03 0.  0.
          5    1    3    3  502    0 -0.14296208813E+02  0.15314539364E+02  0.12710252353E+02  0.24858391284E+02  0.41800000000E+01 0.  1.
         -5    1    3    3    0  502  0.11408748860E+02 -0.57114217167E+02  0.55085841817E+03  0.55394463859E+03  0.41800000000E+01 0.  1.
        -11    1    1    2    0    0  0.36072653850E+02  0.41837863184E+02  0.97280974497E+02  0.11187149391E+03  0.00000000000E+00 0.  1.
         11    1    1    2    0    0 -0.33185193897E+02 -0.38185380522E-01  0.20584302498E+02  0.39050890661E+02  0.00000000000E+00 0. -1.
</event>
<event>
 7    1  0.2594791E-009  0.1403421E+03  0.7561462E-02  0.1212869E+00
         -1   -1    0    0    0  501 -0.00000000000E+00  0.00000000000E+00  0.34509839569E+02  0.34509839569E+02  0.00000000000E+00 0.  1.
          1   -1    0    0  501    0  0.00000000000E+00 -0.00000000000E+00 -0.88719909193E+03  0.88719909193E+03  0.00000000000E+00 0. -1.
         25    2    1    2    0    0  0.11178054103E+03 -0.68967128566E+02 -0.59221242907E+03  0.61936297722E+03  0.12507430685E+03 0.  0.
          5    1    3    3  502    0  0.98266431483E+02 -0.81434828565E+02 -0.29372758313E+03  0.32028313779E+03  0.41800000000E+01 0.  1.
         -5    1    3    3    0  502  0.13514109544E+02  0.12467699999E+02 -0.29848484594E+03  0.29907983944E+03  0.41800000000E+01 0.  1.
        -11    1    1    2    0    0 -0.12290284320E+02  0.19440806219E+02 -0.12508917671E+03  0.12718607693E+03  0.00000000000E+00 0. -1.
         11    1    1    2    0    0 -0.99490256708E+02  0.49526322347E+02 -0.13538764658E+03  0.17515987734E+03  0.00000000000E+00 0.  1.
</event>
<event>
 7    1  0.2594791E-009  0.1294660E+03  0.7561462E-02  0.1228250E+00
          4   -1    0    0  501    0  0.00000000000E+00  0.00000000000E+00  0.18311080162E+03  0.18311080162E+03  0.00000000000E+00 0. -1.
         -4   -1    0    0    0  501 -0.00000000000E+00 -0.00000000000E+00 -0.15125160563E+03  0.15125160563E+03  0.00000000000E+00 0.  1.
         25    2    1    2    0    0  0.24117487273E+02  0.10623075698E+03 -0.50391418184E+02  0.17336108611E+03  0.12509254266E+03 0.  0.
          5    1    3    3  502    0  0.64830671972E+02  0.65917748239E+02  0.61521034561E+01  0.92754980126E+02  0.41800000000E+01 0.  1.
         -5    1    3    3    0  502 -0.40713184699E+02  0.40313008744E+02 -0.56543521640E+02  0.80606105983E+02  0.41800000000E+01 0.  1.
        -11    1    1    2    0    0 -0.11717404828E+02 -0.51854224115E+02 -0.91352847715E+01  0.53940815366E+02  0.00000000000E+00 0.  1.
         11    1    1    2    0    0 -0.12400082445E+02 -0.54376532868E+02  0.91385898947E+02  0.10706050578E+03  0.00000000000E+00 0. -1.
</event>
<event>
 7    1  0.2594791E-009  0.1788467E+03  0.7561462E-02  0.1168924E+00
         -2   -1    0    0    0  501 -0.00000000000E+00  0.00000000000E+00  0.23487274424E+03  0.23487274424E+03  0.00000000000E+00 0.  1.
          2   -1    0    0  501    0  0.00000000000E+00 -0.00000000000E+00 -0.18123008326E+03  0.18123008326E+03  0.00000000000E+00 0. -1.
         25    2    1    2    0    0  0.12836083266E+03  0.11840599610E+03  0.34326845596E+02  0.21753690904E+03  0.12508993243E+03 0.  0.
          5    1    3    3  502    0  0.51409016320E+02  0.74177945668E+02 -0.42712023686E+02  0.99935198753E+02  0.41800000000E+01 0. -1.
         -5    1    3    3    0  502  0.76951816336E+02  0.44228050433E+02  0.77038869282E+02  0.11760171029E+03  0.41800000000E+01 0. -1.
        -11    1    1    2    0    0 -0.55575550266E+02 -0.27413297110E+02 -0.33711906573E+02  0.70545186162E+02  0.00000000000E+00 0. -1.
         11    1    1    2    0    0 -0.72785282390E+02 -0.90992698990E+02  0.53027721952E+02  0.12802073230E+03  0.00000000000E+00 0.  1.
</event>
<event>
 7    1  0.2594791E-009  0.7191661E+02  0.7561462E-02  0.1353694E+00
         -2   -1    0    0    0  501 -0.00000000000E+00  0.00000000000E+00  0.42946082932E+02  0.42946082932E+02  0.00000000000E+00 0. -1.
          2   -1    0    0  501    0  0.00000000000E+00 -0.00000000000E+00 -0.32723879904E+03  0.32723879904E+03  0.00000000000E+00 0.  1.
         25    2    1    2    0    0  0.36263227699E+02  0.22817490221E+02 -0.18114697630E+03  0.22426926355E+03  0.12508723359E+03 0.  0.
          5    1    3    3  502    0  0.11764482889E+02 -0.27478961262E+00  0.18191038573E+02  0.22065014193E+02  0.41800000000E+01 0. -1.
         -5    1    3    3    0  502  0.24498744809E+02  0.23092279834E+02 -0.19933801487E+03  0.20220424936E+03  0.41800000000E+01 0. -1.
        -11    1    1    2    0    0 -0.65455197821E+02 -0.14132130882E+02 -0.91326868377E+02  0.11324617845E+03  0.00000000000E+00 0.  1.
         11    1    1    2    0    0  0.29191970122E+02 -0.86853593393E+01 -0.11818871434E+02  0.32669439978E+02  0.00000000000E+00 0. -1.
</event>
<event>
 7    1  0.2594791E-009  0.1025698E+03  0.7561462E-02  0.1274983E+00
         -3   -1    0    0    0  501 -0.00000000000E+00  0.00000000000E+00  0.90036288884E+02  0.90036288884E+02  0.00000000000E+00 0.  1.
          3   -1    0    0  501    0  0.00000000000E+00 -0.00000000000E+00 -0.15545726608E+03  0.15545726608E+03  0.00000000000E+00 0. -1.
         25    2    1    2    0    0 -0.38695724345E+02 -0.14346013409E+02 -0.10977762306E+02  0.13217521684E+03  0.12508640812E+03 0.  0.
          5    1    3    3  502    0 -0.65199207167E+02 -0.45729314701E+02 -0.31896199413E+02  0.85889154003E+02  0.41800000000E+01 0. -1.
         -5    1    3    3    0  502  0.26503482822E+02  0.31383301292E+02  0.20918437107E+02  0.46286062834E+02  0.41800000000E+01 0. -1.
        -11    1    1    2    0    0  0.60141584680E+02  0.39518810054E+01 -0.75834682373E+01  0.60746494234E+02  0.00000000000E+00 0.  1.
         11    1    1    2    0    0 -0.21445860334E+02  0.10394132404E+02 -0.46859746650E+02  0.52571843890E+02  0.00000000000E+00 0. -1.
</event>
<event>
 7    1  0.2594791E-009  0.1214811E+03  0.7561462E-02  0.1240673E+00
         -2   -1    0    0    0  501 -0.00000000000E+00  0.00000000000E+00  0.53068380753E+02  0.53068380753E+02  0.00000000000E+00 0.  1.
          2   -1    0    0  501    0  0.00000000000E+00 -0.00000000000E+00 -0.36588596792E+03  0.36588596792E+03  0.00000000000E+00 0. -1.
         25    2    1    2    0    0  0.76842109695E+02  0.39829998721E+02 -0.17923264026E+03  0.23508072563E+03  0.12508984613E+03 0.  0.
          5    1    3    3  502    0 -0.17628569075E+02 -0.36516301703E+01  0.85649191769E+01  0.20369857413E+02  0.41800000000E+01 0. -1.
         -5    1    3    3    0  502  0.94470678770E+02  0.43481628891E+02 -0.18779755944E+03  0.21471086821E+03  0.41800000000E+01 0. -1.
        -11    1    1    2    0    0 -0.24782289642E+02 -0.59729186354E+02 -0.43478626800E+02  0.77923863937E+02  0.00000000000E+00 0. -1.
         11    1    1    2    0    0 -0.52059820053E+02  0.19899187633E+02 -0.90106320112E+02  0.10594975911E+03  0.00000000000E+00 0.  1.
</event>
<event>
 7    1  0.2594791E-009  0.1402532E+03  0.7561462E-02  0.1212989E+00
          3   -1    0    0  501    0  0.00000000000E+00  0.00000000000E+00  0.53493473807E+03  0.53493473807E+03  0.00000000000E+00 0. -1.
         -3   -1    0    0    0  501 -0.00000000000E+00 -0.00000000000E+00 -0.42000462421E+02  0.42000462421E+02  0.00000000000E+00 0.  1.
         25    2    1    2    0    0 -0.42974854819E+01  0.88766311938E+02  0.36565053881E+03  0.39654289282E+03  0.12509205729E+03 0.  0.
          5    1    3    3  502    0  0.52450118404E+02  0.59585485845E+01  0.12310719656E+03  0.13401258697E+03  0.41800000000E+01 0. -1.
         -5    1    3    3    0  502 -0.56747603886E+02  0.82807763353E+02  0.24254334225E+03  0.26253030585E+03  0.41800000000E+01 0. -1.
        -11    1    1    2    0    0 -0.39661896967E+02 -0.17509844372E+02  0.34411941222E+02  0.55351986592E+02  0.00000000000E+00 0.  1.
         11    1    1    2    0    0  0.43959382449E+02 -0.71256467565E+02  0.92871795618E+02  0.12504032108E+03  0.00000000000E+00 0. -1.
</event>
<event>
 7    1  0.2594791E-009  0.8115213E+02  0.7561462E-02  0.1325813E+00
         -1   -1    0    0    0  501 -0.00000000000E+00  0.00000000000E+00  0.50644848551E+03  0.50644848551E+03  0.00000000000E+00 0.  1.
          1   -1    0    0  501    0  0.00000000000E+00 -0.00000000000E+00 -0.23675732752E+02  0.23675732752E+02  0.00000000000E+00 0. -1.
         25    2    1    2    0    0 -0.20700157643E+02  0.13902704873E+02  0.31816287711E+03  0.34278076808E+03  0.12509698982E+03 0.  0.
          5    1    3    3  502    0  0.12005473351E+02 -0.46632494398E+02  0.20202535936E+03  0.20772683782E+03  0.41800000000E+01 0.  1.
         -5    1    3    3    0  502 -0.32705630994E+02  0.60535199271E+02  0.11613751775E+03  0.13505393026E+03  0.41800000000E+01 0.  1.
        -11    1    1    2    0    0  0.31686701833E+02 -0.85678337060E+01  0.17060782022E+03  0.17373682156E+03  0.00000000000E+00 0.  1.
         11    1    1    2    0    0 -0.10986544190E+02 -0.53348711668E+01 -0.59979445653E+01  0.13606628628E+02  0.00000000000E+00 0. -1.
</event>
<event>
 7    1  0.2594791E-009  0.1120801E+03  0.7561462E-02  0.1256766E+00
         -3   -1    0    0    0  501 -0.00000000000E+00  0.00000000000E+00  0.28842077776E+03  0.28842077776E+03  0.00000000000E+00 0.  1.
          3   -1    0    0  501    0  0.00000000000E+00 -0.00000000000E+00 -0.44759726573E+02  0.44759726573E+02  0.00000000000E+00 0. -1.
         25    2    1    2    0    0  0.27610507820E+02 -0.11521174849E+02  0.15531870428E+03  0.20167660848E+03  0.12511785203E+03 0.  0.
          5    1    3    3  502    0  0.52182618407E+02  0.43199884371E+02  0.92352388871E+02  0.11461104573E+03  0.41800000000E+01 0.  1.
         -5    1    3    3    0  502 -0.24572110587E+02 -0.54721059220E+02  0.62966315411E+02  0.87065562752E+02  0.41800000000E+01 0.  1.
        -11    1    1    2    0    0 -0.13302622211E+02 -0.40278061140E+02  0.49549247508E+02  0.65225837637E+02  0.00000000000E+00 0.  1.
         11    1    1    2    0    0 -0.14307885609E+02  0.51799235989E+02  0.38793099398E+02  0.66278058214E+02  0.00000000000E+00 0. -1.
</event>
<event>
 7    1  0.2594791E-009  0.9854579E+02  0.7561462E-02  0.1283384E+00
          1   -1    0    0  501    0  0.00000000000E+00  0.00000000000E+00  0.45892087831E+03  0.45892087831E+03  0.00000000000E+00 0. -1.
         -1   -1    0    0    0  501 -0.00000000000E+00 -0.00000000000E+00 -0.31906201484E+02  0.31906201484E+02  0.00000000000E+00 0.  1.
         25    2    1    2    0    0 -0.40381429557E+02  0.28585820056E+02  0.27011906001E+03  0.30176112483E+03  0.12509061082E+03 0.  0.
          5    1    3    3  502    0  0.26858217696E+02 -0.28478266306E+02  0.13276524746E+03  0.13847909172E+03  0.41800000000E+01 0. -1.
         -5    1    3    3    0  502 -0.67239647253E+02  0.57064086361E+02  0.13735381255E+03  0.16328203311E+03  0.41800000000E+01 0. -1.
        -11    1    1    2    0    0  0.33977575366E+02  0.57898732143E+01  0.70324381375E+01  0.35177456499E+02  0.00000000000E+00 0.  1.
         11    1    1    2    0    0  0.64038541913E+01 -0.34375693270E+02  0.14986317868E+03  0.15388849847E+03  0.00000000000E+00 0. -1.
</event>
<event>
 7    1  0.2594791E-009  0.1385371E+03  0.7561462E-02  0.1215311E+00
         -2   -1    0    0    0  501 -0.00000000000E+00  0.00000000000E+00  0.33793898670E+02  0.33793898670E+02  0.00000000000E+00 0.  1.
          2   -1    0    0  501    0  0.00000000000E+00 -0.00000000000E+00 -0.82010076811E+03  0.82010076811E+03  0.00000000000E+00 0. -1.
         25    2    1    2    0    0 -0.83381950746E+02  0.24728248491E+02 -0.63055694529E+03  0.64870142045E+03  0.12508971044E+03 0.  0.
          5    1    3    3  502    0 -0.99963559249E+02 -0.17313144097E+02 -0.50711203597E+03  0.51717748169E+03  0.41800000000E+01 0. -1.
         -5    1    3    3    0  502  0.16581608503E+02  0.42041392588E+02 -0.12344490931E+03  0.13152393876E+03  0.41800000000E+01 0. -1.
        -11    1    1    2    0    0  0.23400886052E+02  0.37192454214E+02 -0.75813205328E+02  0.87627177409E+02  0.00000000000E+00 0. -1.
         11    1    1    2    0    0  0.59981064694E+02 -0.61920702705E+02 -0.79936718821E+02  0.11756606892E+03  0.00000000000E+00 0.  1.
</event>
<event>
 7    1  0.2594791E-009  0.9904061E+02  0.7561462E-02  0.1282326E+00
         -4   -1    0    0    0  501 -0.00000000000E+00  0.00000000000E+00  0.88730475471E+02  0.88730475471E+02  0.00000000000E+00 0.  1.
          4   -1    0    0  501    0  0.00000000000E+00 -0.00000000000E+00 -0.23336486800E+03  0.23336486800E+03  0.00000000000E+00 0. -1.
         25    2    1    2    0    0 -0.21653921985E+02 -0.27173135442E+02 -0.17619071118E+03  0.21885616041E+03  0.12509028985E+03 0.  0.
          5    1    3    3  502    0  0.21656751758E+02  0.35388758919E+02 -0.22673000636E+02  0.47464897686E+02  0.41800000000E+01 0. -1.
         -5    1    3    3    0  502 -0.43310673742E+02 -0.62561894361E+02 -0.15351771055E+03  0.17139126272E+03  0.41800000000E+01 0. -1.
        -11    1    1    2    0    0 -0.15116705419E+02 -0.16968658633E+02 -0.16707352665E+02  0.28206130391E+02  0.00000000000E+00 0. -1.
         11    1    1    2    0    0  0.36770627404E+02  0.44141794075E+02  0.48263671320E+02  0.75033052671E+02  0.00000000000E+00 0.  1.
</event>
<event>
 7    1  0.2594791E-009  0.9175971E+02  0.7561462E-02  0.1298645E+00
         -2   -1    0    0    0  501 -0.00000000000E+00  0.00000000000E+00  0.23282590634E+03  0.23282590634E+03  0.00000000000E+00 0.  1.
          2   -1    0    0  501    0  0.00000000000E+00 -0.00000000000E+00 -0.51154684765E+02  0.51154684765E+02  0.00000000000E+00 0. -1.
         25    2    1    2    0    0 -0.11156937141E+02  0.98097836658E+01  0.92895082985E+02  0.15650660531E+03  0.12507642449E+03 0.  0.
          5    1    3    3  502    0 -0.42969597748E+02 -0.36090452752E+02  0.11065946019E+02  0.57348362416E+02  0.41800000000E+01 0. -1.
         -5    1    3    3    0  502  0.31812660607E+02  0.45900236418E+02  0.81829136965E+02  0.99158242898E+02  0.41800000000E+01 0. -1.
        -11    1    1    2    0    0  0.32593475593E+02  0.17127639656E+02  0.85257830463E+02  0.92868661811E+02  0.00000000000E+00 0.  1.
         11    1    1    2    0    0 -0.21436538452E+02 -0.26937423322E+02  0.35183081322E+01  0.34605323986E+02  0.00000000000E+00 0. -1.
</event>
<event>
 7    1  0.2846934E-009  0.1999386E+03  0.7561462E-02  0.1149791E+00
          1   -1    0    0  501    0  0.00000000000E+00  0.00000000000E+00  0.13024171005E+04  0.13024171005E+04  0.00000000000E+00 0. -1.
         -1   -1    0    0    0  501 -0.00000000000E+00 -0.00000000000E+00 -0.39810446738E+02  0.39810446738E+02  0.00000000000E+00 0.  1.
         25    2    1    2    0    0  0.53654709247E+01  0.17850475600E+03  0.38942299156E+03  0.44630888941E+03  0.12509445317E+03 0.  0.
          5    1    3    3  502    0 -0.30192256058E+02  0.15318811909E+03  0.36284334748E+03  0.39503283328E+03  0.41800000000E+01 0. -1.
         -5    1    3    3    0  502  0.35557726983E+02  0.25316636908E+02  0.26579644080E+02  0.51276056127E+02  0.41800000000E+01 0. -1.
        -11    1    1    2    0    0  0.34585616835E+02 -0.14050831504E+03  0.66466818213E+03  0.68023712323E+03  0.00000000000E+00 0.  1.
         11    1    1    2    0    0 -0.39951087760E+02 -0.37996440964E+02  0.20851548012E+03  0.21568153465E+03  0.00000000000E+00 0. -1.
</event>
<event>
 7    1  0.2594791E-009  0.1197083E+03  0.7561462E-02  0.1243579E+00
         -1   -1    0    0    0  501 -0.00000000000E+00  0.00000000000E+00  0.19141313973E+03  0.19141313973E+03  0.00000000000E+00 0.  1.
          1   -1    0    0  501    0  0.00000000000E+00 -0.00000000000E+00 -0.11157257019E+03  0.11157257019E+03  0.00000000000E+00 0. -1.
         25    2    1    2    0    0 -0.83446114675E+02 -0.88620166777E+00  0.96983267240E+02  0.17893554013E+03  0.12509250172E+03 0.  0.
          5    1    3    3  502    0 -0.50590900023E+02  0.59609534204E+02  0.33372716443E+02  0.85111376067E+02  0.41800000000E+01 0.  1.
         -5    1    3    3    0  502 -0.32855214651E+02 -0.60495735872E+02  0.63610550797E+02  0.93824164058E+02  0.41800000000E+01 0.  1.
        -11    1    1    2    0    0  0.22461363463E+02 -0.17480359444E+02  0.32571131698E+02  0.43254530803E+02  0.00000000000E+00 0.  1.
         11    1    1    2    0    0  0.60984751211E+02  0.18366561112E+02 -0.49713829398E+02  0.80795638996E+02  0.00000000000E+00 0. -1.
</event>
<event>
 7    1  0.2594791E-009  0.1181884E+03  0.7561462E-02  0.1246116E+00
          1   -1    0    0  501    0  0.00000000000E+00  0.00000000000E+00  0.25131942439E+03  0.25131942439E+03  0.00000000000E+00 0. -1.
         -1   -1    0    0    0  501 -0.00000000000E+00 -0.00000000000E+00 -0.10912626563E+03  0.10912626563E+03  0.00000000000E+00 0.  1.
         25    2    1    2    0    0  0.67814738443E+02  0.32631855205E+02  0.18390243692E+03  0.23479500792E+03  0.12507962550E+03 0.  0.
          5    1    3    3  502    0 -0.70120853540E+01  0.41583762497E+02  0.76507231809E+01  0.43062566222E+02  0.41800000000E+01 0. -1.
         -5    1    3    3    0  502  0.74826823797E+02 -0.89519072918E+01  0.17625171374E+03  0.19173244170E+03  0.41800000000E+01 0. -1.
        -11    1    1    2    0    0  0.19885635395E+02  0.85368894466E+01 -0.72749204817E+01  0.22830712746E+02  0.00000000000E+00 0.  1.
         11    1    1    2    0    0 -0.87700373838E+02 -0.41168744652E+02 -0.34434357686E+02  0.10281996935E+03  0.00000000000E+00 0. -1.
</event>
<event>
 6    1  0.2594791E-009  0.1127791E+03  0.7561462E-02  0.1255508E+00
         -1   -1    0    0    0  501 -0.00000000000E+00  0.00000000000E+00  0.22651461792E+02  0.22651461792E+02  0.00000000000E+00 0.  1.
          1   -1    0    0  501    0  0.00000000000E+00 -0.00000000000E+00 -0.60432026958E+03  0.60432026958E+03  0.00000000000E+00 0. -1.
          5    1    1    2  502    0 -0.46486992710E+02  0.28461064731E+02 -0.16892268680E+03  0.17754835739E+03  0.41800000000E+01 0. -1.
         -5    1    1    2    0  502  0.62178218427E+02 -0.35036374882E+02 -0.22751422808E+03  0.23848244126E+03  0.41800000000E+01 0. -1.
        -11    1    1    2    0    0  0.11507846603E+02  0.48266517739E+02 -0.11072850773E+03  0.12133791531E+03  0.00000000000E+00 0.  1.
         11    1    1    2    0    0 -0.27199072320E+02 -0.41691207588E+02 -0.74503385180E+02  0.89603017407E+02  0.00000000000E+00 0. -1.
</event>
<event>
 7    1  0.2594791E-009  0.9785297E+02  0.7561462E-02  0.1284877E+00
          1   -1    0    0  501    0  0.00000000000E+00  0.00000000000E+00  0.58456960669E+03  0.58456960669E+03  0.00000000000E+00 0.  1.
         -1   -1    0    0    0  501 -0.00000000000E+00 -0.00000000000E+00 -0.24339640964E+02  0.24339640964E+02  0.00000000000E+00 0. -1.
         25    2    1    2    0    0  0.17732088447E+02 -0.43246082145E+02  0.27122945131E+03  0.30231945099E+03  0.12508790752E+03 0.  0.
          5    1    3    3  502    0  0.60267403150E+02  0.11552687319E+02  0.98407341745E+02  0.11604784262E+03  0.41800000000E+01 0.  1.
         -5    1    3    3    0  502 -0.42535314702E+02 -0.54798769464E+02  0.17282210957E+03  0.18627160838E+03  0.41800000000E+01 0.  1.
        -11    1    1    2    0    0  0.13909336909E+02  0.43727230040E+01  0.13924764754E+01  0.14646820489E+02  0.00000000000E+00 0. -1.
         11    1    1    2    0    0 -0.31641425356E+02  0.38873359141E+02  0.28760803794E+03  0.29194297618E+03  0.00000000000E+00 0.  1.
</event>
<event>
 7    1  0.2594791E-009  0.9779769E+02  0.7561462E-02  0.1284996E+00
          2   -1    0    0  501    0  0.00000000000E+00  0.00000000000E+00  0.69106048101E+02  0.69106048101E+02  0.00000000000E+00 0. -1.
         -2   -1    0    0    0  501 -0.00000000000E+00 -0.00000000000E+00 -0.26388089440E+03  0.26388089440E+03  0.00000000000E+00 0.  1.
         25    2    1    2    0    0  0.35997726673E+01  0.13352171205E+02 -0.10019815549E+02  0.12625078462E+03  0.12509046756E+03 0.  0.
          5    1    3    3  502    0 -0.91958595081E+01 -0.46994122714E+02 -0.35109771158E+02  0.59524615350E+02  0.41800000000E+01 0.  1.
         -5    1    3    3    0  502  0.12795632175E+02  0.60346293919E+02  0.25089955609E+02  0.66726169267E+02  0.41800000000E+01 0.  1.
        -11    1    1    2    0    0  0.18616661898E+02 -0.44039867577E+02 -0.14085546482E+03  0.14874929246E+03  0.00000000000E+00 0.  1.
         11    1    1    2    0    0 -0.22216434565E+02  0.30687696372E+02 -0.43899565928E+02  0.57986865427E+02  0.00000000000E+00 0. -1.
</event>
<event>
 7    1  0.2594791E-009  0.1115735E+03  0.7561462E-02  0.1257683E+00
          3   -1    0    0  501    0  0.00000000000E+00  0.00000000000E+00  0.13957066005E+03  0.13957066005E+03  0.00000000000E+00 0. -1.
         -3   -1    0    0    0  501 -0.00000000000E+00 -0.00000000000E+00 -0.11672703391E+03  0.11672703391E+03  0.00000000000E+00 0.  1.
         25    2    1    2    0    0 -0.19193122042E+02 -0.47385327836E+02 -0.30353763368E+02  0.13850456423E+03  0.12509363747E+03 0.  0.
          5    1    3    3  502    0  0.23840829165E+02  0.33204471036E+02 -0.22154955427E+02  0.46682293024E+02  0.41800000000E+01 0.  1.
         -5    1    3    3    0  502 -0.43033951207E+02 -0.80589798871E+02 -0.81988079413E+01  0.91822271210E+02  0.41800000000E+01 0.  1.
        -11    1    1    2    0    0 -0.26589956688E+02  0.33477739560E+02  0.55298902325E+02  0.69898164790E+02  0.00000000000E+00 0.  1.
         11    1    1    2    0    0  0.45783078730E+02  0.13907588275E+02 -0.21015128178E+01  0.47894964931E+02  0.00000000000E+00 0. -1.
</event>
<event>
 7    1  0.2594791E-009  0.1040683E+03  0.7561462E-02  0.1271966E+00
         -1   -1    0    0    0  501 -0.00000000000E+00  0.00000000000E+00  0.24842304175E+03  0.24842304175E+03  0.00000000000E+00 0.  1.
          1   -1    0    0  501    0  0.00000000000E+00 -0.00000000000E+00 -0.70195542045E+02  0.70195542045E+02  0.00000000000E+00 0. -1.
         25    2    1    2    0    0 -0.42530601856E+02 -0.33540224098E+02  0.15784309451E+03  0.20855584102E+03  0.12508915865E+03 0.  0.
          5    1    3    3  502    0 -0.62623720210E+00  0.40354310626E+02  0.16932259344E+02  0.43966309439E+02  0.41800000000E+01 0.  1.
         -5    1    3    3    0  502 -0.41904364654E+02 -0.73894534724E+02  0.14091083516E+03  0.16458953158E+03  0.41800000000E+01 0.  1.
        -11    1    1    2    0    0 -0.60266377934E+01 -0.13574125944E+02 -0.24656407914E+02  0.28783948817E+02  0.00000000000E+00 0. -1.
         11    1    1    2    0    0  0.48557239649E+02  0.47114350042E+02  0.45040813118E+02  0.81278793966E+02  0.00000000000E+00 0.  1.
</event>
<event>
 7    1  0.2594791E-009  0.9706765E+02  0.7561462E-02  0.1286586E+00
          2   -1    0    0  501    0  0.00000000000E+00  0.00000000000E+00  0.12179195581E+03  0.12179195581E+03  0.00000000000E+00 0. -1.
         -2   -1    0    0    0  501 -0.00000000000E+00 -0.00000000000E+00 -0.13581436160E+03  0.13581436160E+03  0.00000000000E+00 0.  1.
         25    2    1    2    0    0  0.27764689509E+02 -0.58677067255E+01  0.53047274632E+02  0.13883349107E+03  0.12512160857E+03 0.  0.
          5    1    3    3  502    0 -0.30988722586E+02  0.29975008126E+02 -0.11038054917E+02  0.44700258343E+02  0.41800000000E+01 0.  1.
         -5    1    3    3    0  502  0.58753412094E+02 -0.35842714851E+02  0.64085329548E+02  0.94133232729E+02  0.41800000000E+01 0.  1.
        -11    1    1    2    0    0 -0.48203606959E+02 -0.17078813233E+02 -0.74228976096E+01  0.51675651851E+02  0.00000000000E+00 0. -1.
         11    1    1    2    0    0  0.20438917451E+02  0.22946519959E+02 -0.59646782815E+02  0.67097174493E+02  0.00000000000E+00 0.  1.
</event>
<event>
 7    1  0.2594791E-009  0.3125269E+03  0.7561462E-02  0.1079141E+00
         -2   -1    0    0    0  501 -0.00000000000E+00  0.00000000000E+00  0.62691575596E+02  0.62691575596E+02  0.00000000000E+00 0. -1.
          2   -1    0    0  501    0  0.00000000000E+00 -0.00000000000E+00 -0.21968472674E+04  0.21968472674E+04  0.00000000000E+00 0.  1.
         25    2    1    2    0    0 -0.17380306578E+03  0.25437267484E+03 -0.16152709220E+04  0.16491392907E+04  0.12508910981E+03 0.  0.
          5    1    3    3  502    0 -0.12377821069E+03  0.22896891966E+03 -0.10804548295E+04  0.11113720901E+04  0.41800000000E+01 0.  1.
         -5    1    3    3    0  502 -0.50024855089E+02  0.25403755188E+02 -0.53481609245E+03  0.53776720061E+03  0.41800000000E+01 0.  1.
        -11    1    1    2    0    0  0.10889169335E+03 -0.17247116068E+03 -0.41816579221E+03  0.46525942432E+03  0.00000000000E+00 0.  1.
         11    1    1    2    0    0  0.64911372425E+02 -0.81901514165E+02 -0.10071897761E+03  0.14514012796E+03  0.00000000000E+00 0. -1.
</event>
<event>
 7    1  0.2594791E-009  0.1029419E+03  0.7561462E-02  0.1274228E+00
         -1   -1    0    0    0  501 -0.00000000000E+00  0.00000000000E+00  0.38251620169E+03  0.38251620169E+03  0.00000000000E+00 0.  1.
          1   -1    0    0  501    0  0.00000000000E+00 -0.00000000000E+00 -0.44795092599E+02  0.44795092599E+02  0.00000000000E+00 0. -1.
         25    2    1    2    0    0  0.40941021582E+02  0.46820062579E+02  0.12398564639E+03  0.18677288432E+03  0.12507351558E+03 0.  0.
          5    1    3    3  502    0  0.23650366359E+02 -0.17366348701E+02 -0.14580270858E+02  0.33030086200E+02  0.41800000000E+01 0.  1.
         -5    1    3    3    0  502  0.17290655223E+02  0.64186411280E+02  0.13856591725E+03  0.15374279812E+03  0.41800000000E+01 0.  1.
        -11    1    1    2    0    0  0.17942218435E+02  0.15638800200E+02  0.35949562627E+02  0.43114572097E+02  0.00000000000E+00 0. -1.
         11    1    1    2    0    0 -0.58883240017E+02 -0.62458862779E+02  0.17778590008E+03  0.19742383787E+03  0.00000000000E+00 0.  1.
</event>
<event>
 7    1  0.2594791E-009  0.1908782E+03  0.7561462E-02  0.1157672E+00
          1   -1    0    0  501    0  0.00000000000E+00  0.00000000000E+00  0.90849137028E+02  0.90849137028E+02  0.00000000000E+00 0. -1.
         -1   -1    0    0    0  501 -0.00000000000E+00 -0.00000000000E+00 -0.50423217160E+03  0.50423217160E+03  0.00000000000E+00 0.  1.
         25    2    1    2    0    0 -0.84283423736E+02 -0.13879169515E+03 -0.96774172171E+02  0.22667055442E+03  0.12508984644E+03 0.  0.
          5    1    3    3  502    0 -0.18316727258E+02 -0.12614357629E+03 -0.95555442762E+02  0.15936128570E+03  0.41800000000E+01 0. -1.
         -5    1    3    3    0  502 -0.65966696477E+02 -0.12648118863E+02 -0.12187294089E+01  0.67309268725E+02  0.41800000000E+01 0. -1.
        -11    1    1    2    0    0  0.94759451094E+02  0.71208119565E+02 -0.22212268942E+03  0.25177060793E+03  0.00000000000E+00 0.  1.
         11    1    1    2    0    0 -0.10476027359E+02  0.67583575589E+02 -0.94486172985E+02  0.11664014628E+03  0.00000000000E+00 0. -1.
</event>
<event>
 7    1  0.2594791E-009  0.6488195E+02  0.7561462E-02  0.1378416E+00
         -1   -1    0    0    0  501 -0.00000000000E+00  0.00000000000E+00  0.27406962026E+03  0.27406962026E+03  0.00000000000E+00 0.  1.
          1   -1    0    0  501    0  0.00000000000E+00 -0.00000000000E+00 -0.44405973863E+02  0.44405973863E+02  0.00000000000E+00 0. -1.
         25    2    1    2    0    0  0.17266094087E+02  0.10021056492E+02  0.15167893423E+03  0.19761611231E+03  0.12508832551E+03 0.  0.
          5    1    3    3  502    0 -0.26622719848E+02  0.31116067464E+02  0.31860187253E+01  0.41286825766E+02  0.41800000000E+01 0. -1.
         -5    1    3    3    0  502  0.43888813935E+02 -0.21095010972E+02  0.14849291551E+03  0.15632928655E+03  0.41800000000E+01 0. -1.
        -11    1    1    2    0    0 -0.24508631294E+02  0.31346784818E+01  0.95002468646E+02  0.98162967895E+02  0.00000000000E+00 0.  1.
         11    1    1    2    0    0  0.72425372074E+01 -0.13155734973E+02 -0.17017756486E+02  0.22696513911E+02  0.00000000000E+00 0. -1.
</event>
<event>
 7    1  0.2594791E-009  0.1805755E+03  0.7561462E-02  0.1167247E+00
          2   -1    0    0  501    0  0.00000000000E+00  0.00000000000E+00  0.28565367881E+03  0.28565367881E+03  0.00000000000E+00 0. -1.
         -2   -1    0    0    0  501 -0.00000000000E+00 -0.00000000000E+00 -0.14475442480E+03  0.14475442480E+03  0.00000000000E+00 0.  1.
         25    2    1    2    0    0 -0.67317473640E+02 -0.15668870440E+03  0.49470842960E+02  0.21720395980E+03  0.12508878250E+03 0.  0.
          5    1    3    3  502    0 -0.49009639660E+02 -0.11553784339E+03 -0.26920104918E+02  0.12842547444E+03  0.41800000000E+01 0. -1.
         -5    1    3    3    0  502 -0.18307833980E+02 -0.41150861006E+02  0.76390947878E+02  0.88778485368E+02  0.41800000000E+01 0. -1.
        -11    1    1    2    0    0  0.67415772070E+02  0.50689832660E+02  0.56814523089E+02  0.10169678212E+03  0.00000000000E+00 0. -1.
         11    1    1    2    0    0 -0.98298429795E-01  0.10599887174E+03  0.34613887954E+02  0.11150736169E+03  0.00000000000E+00 0.  1.
</event>
<event>
 7    1  0.2594791E-009  0.2960574E+03  0.7561462E-02  0.1087228E+00
         -1   -1    0    0    0  501 -0.00000000000E+00  0.00000000000E+00  0.61069145194E+03  0.61069145194E+03  0.00000000000E+00 0.  1.
          1   -1    0    0  501    0  0.00000000000E+00 -0.00000000000E+00 -0.31935822173E+03  0.31935822173E+03  0.00000000000E+00 0. -1.
         25    2    1    2    0    0 -0.27952380018E+02 -0.27990652612E+03 -0.19270893644E+03  0.36319853995E+03  0.12508975306E+03 0.  0.
          5    1    3    3  502    0  0.31772116497E+02 -0.17647610380E+03 -0.71813789836E+02  0.19320449117E+03  0.41800000000E+01 0. -1.
         -5    1    3    3    0  502 -0.59724496516E+02 -0.10343042232E+03 -0.12089514661E+03  0.16999404878E+03  0.41800000000E+01 0. -1.
        -11    1    1    2    0    0 -0.21552573799E+02  0.18453582828E+03  0.33565538373E+03  0.38364374358E+03  0.00000000000E+00 0.  1.
         11    1    1    2    0    0  0.49504953818E+02  0.95370697839E+02  0.14838678292E+03  0.18320739014E+03  0.00000000000E+00 0. -1.
</event>
<event>
 7    1  0.2594791E-009  0.8954124E+02  0.7561462E-02  0.1303966E+00
         -1   -1    0    0    0  501 -0.00000000000E+00  0.00000000000E+00  0.20978106699E+02  0.20978106699E+02  0.00000000000E+00 0.  1.
          1   -1    0    0  501    0  0.00000000000E+00 -0.00000000000E+00 -0.56920518102E+03  0.56920518102E+03  0.00000000000E+00 0. -1.
         25    2    1    2    0    0 -0.89767671564E+01  0.46714556466E+01 -0.32606115946E+03  0.34937911826E+03  0.12508990256E+03 0.  0.
          5    1    3    3  502    0  0.37129080879E+01  0.44338966004E+02 -0.39096692271E+02  0.59378054358E+02  0.41800000000E+01 0. -1.
         -5    1    3    3    0  502 -0.12689675244E+02 -0.39667510357E+02 -0.28696446719E+03  0.29000106390E+03  0.41800000000E+01 0. -1.
        -11    1    1    2    0    0 -0.30064464336E+02  0.28409152239E+02 -0.88915500219E+02  0.98065886657E+02  0.00000000000E+00 0.  1.
         11    1    1    2    0    0  0.39041231492E+02 -0.33080607886E+02 -0.13325041464E+03  0.14273828280E+03  0.00000000000E+00 0. -1.
</event>
<event>
 7    1  0.2594791E-009  0.1079702E+03  0.7561462E-02  0.1264376E+00
         -1   -1    0    0    0  501 -0.00000000000E+00  0.00000000000E+00  0.98324759715E+02  0.98324759715E+02  0.00000000000E+00 0.  1.
          1   -1    0    0  501    0  0.00000000000E+00 -0.00000000000E+00 -0.15068085080E+03  0.15068085080E+03  0.00000000000E+00 0. -1.
         25    2    1    2    0    0 -0.72742980767E+01 -0.32501568384E+02 -0.73906490945E+02  0.14905987467E+03  0.12508960577E+03 0.  0.
          5    1    3    3  502    0 -0.55814059730E+02  0.61558246252E+01 -0.65379937394E+02  0.86285062751E+02  0.41800000000E+01 0. -1.
         -5    1    3    3    0  502  0.48539761653E+02 -0.38657393009E+02 -0.85265535509E+01  0.62774811916E+02  0.41800000000E+01 0. -1.
        -11    1    1    2    0    0  0.14320769704E+02  0.63784741332E+02  0.11798845078E+02  0.66428837239E+02  0.00000000000E+00 0. -1.
         11    1    1    2    0    0 -0.70464716271E+01 -0.31283172949E+02  0.97515547769E+01  0.33516898614E+02  0.00000000000E+00 0.  1.
</event>
<event>
 7    1  0.2594791E-009  0.1604464E+03  0.7561462E-02  0.1188194E+00
          1   -1    0    0  501    0  0.00000000000E+00  0.00000000000E+00  0.76097984537E+03  0.76097984537E+03  0.00000000000E+00 0. -1.
         -1   -1    0    0    0  501 -0.00000000000E+00 -0.00000000000E+00 -0.38507330005E+02  0.38507330005E+02  0.00000000000E+00 0.  1.
         25    2    1    2    0    0 -0.12437405757E+02 -0.12689899277E+03  0.29919715618E+03  0.34846091610E+03  0.12509207948E+03 0.  0.
          5    1    3    3  502    0 -0.32433136717E+02 -0.13898649542E+03  0.28954780072E+03  0.32283828083E+03  0.41800000000E+01 0.  1.
         -5    1    3    3    0  502  0.19995730960E+02  0.12087502655E+02  0.96493554645E+01  0.25622635265E+02  0.41800000000E+01 0.  1.
        -11    1    1    2    0    0 -0.37363604792E+02  0.64480566464E+02  0.23450554104E+03  0.24606225064E+03  0.00000000000E+00 0. -1.
         11    1    1    2    0    0  0.49801010549E+02  0.62418426306E+02  0.18876981814E+03  0.20496400864E+03  0.00000000000E+00 0.  1.
</event>
<event>
 7    1  0.2594791E-009  0.1024555E+03  0.7561462E-02  0.1275215E+00
         -2   -1    0    0    0  501 -0.00000000000E+00  0.00000000000E+00  0.18163619621E+03  0.18163619621E+03  0.00000000000E+00 0.  1.
          2   -1    0    0  501    0  0.00000000000E+00 -0.00000000000E+00 -0.80884614969E+02  0.80884614969E+02  0.00000000000E+00 0. -1.
         25    2    1    2    0    0 -0.30829198572E+02 -0.30536340340E+02  0.25734280494E+02  0.13487464524E+03  0.12508400845E+03 0.  0.
          5    1    3    3  502    0  0.27212775303E+02  0.27013492641E+02 -0.17452500527E+02  0.42335872484E+02  0.41800000000E+01 0. -1.
         -5    1    3    3    0  502 -0.58041973875E+02 -0.57549832981E+02  0.43186781021E+02  0.92538772752E+02  0.41800000000E+01 0. -1.
        -11    1    1    2    0    0 -0.14626436801E+02  0.35861938017E+02 -0.11944898877E+01  0.38748394262E+02  0.00000000000E+00 0. -1.
         11    1    1    2    0    0  0.45455635373E+02 -0.53255976774E+01  0.76211790631E+02  0.88897771676E+02  0.00000000000E+00 0.  1.
</event>
<event>
 7    1  0.2594791E-009  0.1356043E+03  0.7561462E-02  0.1219369E+00
         -1   -1    0    0    0  501 -0.00000000000E+00  0.00000000000E+00  0.23640353723E+02  0.23640353723E+02  0.00000000000E+00 0.  1.
          1   -1    0    0  501    0  0.00000000000E+00 -0.00000000000E+00 -0.84135872856E+03  0.84135872856E+03  0.00000000000E+00 0. -1.
         25    2    1    2    0    0  0.36245155569E+02  0.80699492088E+02 -0.40474206304E+03  0.43277007197E+03  0.12509068021E+03 0.  0.
          5    1    3    3  502    0 -0.37298684606E+02  0.55366343224E+02 -0.25921773880E+03  0.26770867065E+03  0.41800000000E+01 0.  1.
         -5    1    3    3    0  502  0.73543840175E+02  0.25333148863E+02 -0.14552432424E+03  0.16506140132E+03  0.41800000000E+01 0.  1.
        -11    1    1    2    0    0 -0.64151144763E+02 -0.35543009588E+02 -0.26745507724E+03  0.27732813280E+03  0.00000000000E+00 0.  1.
         11    1    1    2    0    0  0.27905989195E+02 -0.45156482500E+02 -0.14552123456E+03  0.15490087750E+03  0.00000000000E+00 0. -1.
</event>
<event>
 7    1  0.2594791E-009  0.1197135E+03  0.7561462E-02  0.1243571E+00
         -1   -1    0    0    0  501 -0.00000000000E+00  0.00000000000E+00  0.27607196503E+02  0.27607196503E+02  0.00000000000E+00 0.  1.
          1   -1    0    0  501    0  0.00000000000E+00 -0.00000000000E+00 -0.55475997349E+03  0.55475997349E+03  0.00000000000E+00 0. -1.
         25    2    1    2    0    0 -0.48628213795E+02 -0.43029893867E+02 -0.35353574480E+03  0.38058150492E+03  0.12505392473E+03 0.  0.
          5    1    3    3  502    0  0.35288955130E+02 -0.38631896553E+02 -0.92915389895E+02  0.10671680217E+03  0.41800000000E+01 0. -1.
         -5    1    3    3    0  502 -0.83917168925E+02 -0.43979973140E+01 -0.26062035490E+03  0.27386470275E+03  0.41800000000E+01 0. -1.
        -11    1    1    2    0    0  0.69102630658E+02  0.19900745149E+02 -0.12374081134E+03  0.14311883738E+03  0.00000000000E+00 0.  1.
         11    1    1    2    0    0 -0.20474416862E+02  0.23129148719E+02 -0.49876220846E+02  0.58666827698E+02  0.00000000000E+00 0. -1.
</event>
<event>
 7    1  0.2594791E-009  0.2178818E+03  0.7561462E-02  0.1135472E+00
          1   -1    0    0  501    0  0.00000000000E+00  0.00000000000E+00  0.72150768073E+03  0.72150768073E+03  0.00000000000E+00 0. -1.
         -1   -1    0    0    0  501 -0.00000000000E+00 -0.00000000000E+00 -0.85558214019E+02  0.85558214019E+02  0.00000000000E+00 0.  1.
         25    2    1    2    0    0  0.17684273968E+03 -0.71529790366E+02  0.49615405555E+03  0.54608160489E+03  0.12508559816E+03 0.  0.
          5    1    3    3  502    0  0.20262924848E+01  0.21067901296E+02  0.11095793256E+03  0.11303582407E+03  0.41800000000E+01 0. -1.
         -5    1    3    3    0  502  0.17481644719E+03 -0.92597691662E+02  0.38519612299E+03  0.43304578081E+03  0.41800000000E+01 0. -1.
        -11    1    1    2    0    0 -0.84079362140E+02 -0.19544651324E+02  0.80757837056E+02  0.11820812484E+03  0.00000000000E+00 0. -1.
         11    1    1    2    0    0 -0.92763377540E+02  0.91074441690E+02  0.59037574103E+02  0.14277616502E+03  0.00000000000E+00 0.  1.
</event>
<event>
 7    1  0.2594791E-009  0.1087619E+03  0.7561462E-02  0.1262880E+00
          2   -1    0    0  501    0  0.00000000000E+00  0.00000000000E+00  0.35222220927E+03  0.35222220927E+03  0.00000000000E+00 0. -1.
         -2   -1    0    0    0  501 -0.00000000000E+00 -0.00000000000E+00 -0.44265425595E+02  0.44265425595E+02  0.00000000000E+00 0.  1.
         25    2    1    2    0    0 -0.66519235990E+01  0.62712957482E+02  0.15215353135E+03  0.20682097001E+03  0.12508818253E+03 0.  0.
          5    1    3    3  502    0  0.44631187968E+02  0.25192580353E+02  0.12932424551E+03  0.13917198684E+03  0.41800000000E+01 0. -1.
         -5    1    3    3    0  502 -0.51283111567E+02  0.37520377129E+02  0.22829285840E+02  0.67648983170E+02  0.41800000000E+01 0. -1.
        -11    1    1    2    0    0 -0.31332253524E+02 -0.27650761671E+01  0.22579814238E+02  0.38719552789E+02  0.00000000000E+00 0.  1.
         11    1    1    2    0    0  0.37984177123E+02 -0.59947881315E+02  0.13322343809E+03  0.15094711207E+03  0.00000000000E+00 0. -1.
</event>
<event>
 7    1  0.2594791E-009  0.2002997E+03  0.7561462E-02  0.1149486E+00
          2   -1    0    0  501    0  0.00000000000E+00  0.00000000000E+00  0.18270461609E+03  0.18270461609E+03  0.00000000000E+00 0. -1.
         -2   -1    0    0    0  501 -0.00000000000E+00 -0.00000000000E+00 -0.27296276731E+03  0.27296276731E+03  0.00000000000E+00 0.  1.
         25    2    1    2    0    0 -0.70328613964E+02 -0.17654653202E+03 -0.96697836863E+02  0.24721039802E+03  0.12509083630E+03 0.  0.
          5    1    3    3  502    0  0.19778402974E+02 -0.14220610767E+02  0.16506266822E+02  0.29721040345E+02  0.41800000000E+01 0. -1.
         -5    1    3    3    0  502 -0.90107016938E+02 -0.16232592125E+03 -0.11320410368E+03  0.21748935768E+03  0.41800000000E+01 0. -1.
        -11    1    1    2    0    0  0.94907536122E+01  0.31230089689E+02  0.35539779316E+02  0.48254210386E+02  0.00000000000E+00 0. -1.
         11    1    1    2    0    0  0.60837860352E+02  0.14531644233E+03 -0.29100093670E+02  0.16020277500E+03  0.00000000000E+00 0.  1.
</event>
<event>
 7    1  0.2594791E-009  0.1761635E+03  0.7561462E-02  0.1171569E+00
         -2   -1    0    0    0  501 -0.00000000000E+00  0.00000000000E+00  0.66642033310E+02  0.66642033310E+02  0.00000000000E+00 0. -1.
          2   -1    0    0  501    0  0.00000000000E+00 -0.00000000000E+00 -0.75262597908E+03  0.75262597908E+03  0.00000000000E+00 0.  1.
         25    2    1    2    0    0  0.15347211644E+03  0.61569165793E+02 -0.54696933506E+03  0.58495036823E+03  0.12508807735E+03 0.  0.
          5    1    3    3  502    0  0.88328837177E+02  0.97517831139E+01 -0.11701866309E+03  0.14699632874E+03  0.41800000000E+01 0.  1.
         -5    1    3    3    0  502  0.65143279259E+02  0.51817382679E+02 -0.42995067197E+03  0.43795403949E+03  0.41800000000E+01 0.  1.
        -11    1    1    2    0    0 -0.10586239442E+03 -0.75945614704E+02 -0.12947107050E+03  0.18367727416E+03  0.00000000000E+00 0.  1.
         11    1    1    2    0    0 -0.47609722017E+02  0.14376448912E+02 -0.95435402020E+01  0.50640369997E+02  0.00000000000E+00 0. -1.
</event>
<event>
 7    1  0.2594791E-009  0.9399473E+02  0.7561462E-02  0.1293456E+00
         -2   -1    0    0    0  501 -0.00000000000E+00  0.00000000000E+00  0.23835300269E+02  0.23835300269E+02  0.00000000000E+00 0.  1.
          2   -1    0    0  501    0  0.00000000000E+00 -0.00000000000E+00 -0.63590703183E+03  0.63590703183E+03  0.00000000000E+00 0. -1.
         25    2    1    2    0    0  0.20612526223E+02 -0.45394993407E+02 -0.41431487578E+03  0.43564840702E+03  0.12508851501E+03 0.  0.
          5    1    3    3  502    0 -0.49267557041E+02 -0.29338798503E+02 -0.12559217211E+03  0.13812647599E+03  0.41800000000E+01 0.  1.
         -5    1    3    3    0  502  0.69880083265E+02 -0.16056194904E+02 -0.28872270367E+03  0.29752193103E+03  0.41800000000E+01 0.  1.
        -11    1    1    2    0    0  0.62887421643E+01  0.22454399786E+02 -0.11896560329E+00  0.23318715671E+02  0.00000000000E+00 0.  1.
         11    1    1    2    0    0 -0.26901268388E+02  0.22940593622E+02 -0.19763789018E+03  0.20077520941E+03  0.00000000000E+00 0. -1.
</event>
<event>
 7    1  0.2594791E-009  0.1039717E+03  0.7561462E-02  0.1272159E+00
         -1   -1    0    0    0  501 -0.00000000000E+00  0.00000000000E+00  0.26161474340E+02  0.26161474340E+02  0.00000000000E+00 0.  1.
          1   -1    0    0  501    0  0.00000000000E+00 -0.00000000000E+00 -0.69492716455E+03  0.69492716455E+03  0.00000000000E+00 0. -1.
         25    2    1    2    0    0 -0.58707488360E+02 -0.52250723064E+02 -0.32656550964E+03  0.35842550773E+03  0.12508838979E+03 0.  0.
          5    1    3    3  502    0 -0.56786687792E+02 -0.77968765075E+02 -0.31569460584E+03  0.33012787340E+03  0.41800000000E+01 0. -1.
         -5    1    3    3    0  502 -0.19208005677E+01  0.25718042011E+02 -0.10870903799E+02  0.28297634338E+02  0.41800000000E+01 0. -1.
        -11    1    1    2    0    0  0.57616987387E+02  0.33824795823E+02 -0.33689729403E+03  0.34345832466E+03  0.00000000000E+00 0. -1.
         11    1    1    2    0    0  0.10905009723E+01  0.18425927241E+02 -0.53028865380E+01  0.19204806500E+02  0.00000000000E+00 0.  1.
</event>
<event>
 7    1  0.2594791E-009  0.1085810E+03  0.7561462E-02  0.1263220E+00
          2   -1    0    0  501    0  0.00000000000E+00  0.00000000000E+00  0.88761237313E+03  0.88761237313E+03  0.00000000000E+00 0. -1.
         -2   -1    0    0    0  501 -0.00000000000E+00 -0.00000000000E+00 -0.20808428502E+02  0.20808428502E+02  0.00000000000E+00 0.  1.
         25    2    1    2    0    0  0.71141536155E+02  0.38721752266E+02  0.51936263584E+03  0.54032101630E+03  0.12509500745E+03 0.  0.
          5    1    3    3  502    0 -0.22490447690E+02 -0.10671035699E+02  0.24365330410E+03  0.24495733555E+03  0.41800000000E+01 0. -1.
         -5    1    3    3    0  502  0.93631983844E+02  0.49392787965E+02  0.27570933174E+03  0.29536368075E+03  0.41800000000E+01 0. -1.
        -11    1    1    2    0    0 -0.17888724615E+02  0.32371923314E+01  0.47817396542E+01  0.18797630613E+02  0.00000000000E+00 0.  1.
         11    1    1    2    0    0 -0.53252811540E+02 -0.41958944598E+02  0.34265956913E+03  0.34930215471E+03  0.00000000000E+00 0. -1.
</event>
<event>
 7    1  0.2594791E-009  0.9907899E+02  0.7561462E-02  0.1282245E+00
         -3   -1    0    0    0  501 -0.00000000000E+00  0.00000000000E+00  0.52697012818E+02  0.52697012818E+02  0.00000000000E+00 0.  1.
          3   -1    0    0  501    0  0.00000000000E+00 -0.00000000000E+00 -0.35648369398E+03  0.35648369398E+03  0.00000000000E+00 0. -1.
         25    2    1    2    0    0 -0.72760466634E+02 -0.19512830322E+02 -0.11406189120E+03  0.18530127403E+03  0.12510639904E+03 0.  0.
          5    1    3    3  502    0 -0.40655401021E+02  0.35842168056E+01 -0.13447779769E+03  0.14059679482E+03  0.41800000000E+01 0. -1.
         -5    1    3    3    0  502 -0.32105065613E+02 -0.23097047128E+02  0.20415906486E+02  0.44704479213E+02  0.41800000000E+01 0. -1.
        -11    1    1    2    0    0  0.92300943297E+02  0.39586617439E+01 -0.16256046724E+03  0.18697871709E+03  0.00000000000E+00 0. -1.
         11    1    1    2    0    0 -0.19540476663E+02  0.15554168578E+02 -0.27164322720E+02  0.36900715674E+02  0.00000000000E+00 0.  1.
</event>
<event>
 7    1  0.2594791E-009  0.1206127E+03  0.7561462E-02  0.1242090E+00
          1   -1    0    0  501    0  0.00000000000E+00  0.00000000000E+00  0.12602307144E+04  0.12602307144E+04  0.00000000000E+00 0. -1.
         -1   -1    0    0    0  501 -0.00000000000E+00 -0.00000000000E+00 -0.19995967022E+02  0.19995967022E+02  0.00000000000E+00 0.  1.
         25    2    1    2    0    0  0.11005184191E+03  0.51410175143E+01  0.79923333877E+03  0.81643168580E+03  0.12509568266E+03 0.  0.
          5    1    3    3  502    0  0.69086396708E+02  0.14751183438E+02  0.74150161338E+03  0.74487088993E+03  0.41800000000E+01 0. -1.
         -5    1    3    3    0  502  0.40965445203E+02 -0.96101659242E+01  0.57731725384E+02  0.71560795870E+02  0.41800000000E+01 0. -1.
        -11    1    1    2    0    0 -0.79677023066E+02  0.26830793996E+02  0.37573525891E+03  0.38502636832E+03  0.00000000000E+00 0. -1.
         11    1    1    2    0    0 -0.30374818845E+02 -0.31971811511E+02  0.65266149743E+02  0.78768627343E+02  0.00000000000E+00 0.  1.
</event>
<event>
 7    1  0.2594791E-009  0.1113458E+03  0.7561462E-02  0.1258098E+00
          4   -1    0    0  501    0  0.00000000000E+00  0.00000000000E+00  0.18780465003E+03  0.18780465003E+03  0.00000000000E+00 0. -1.
         -4   -1    0    0    0  501 -0.00000000000E+00 -0.00000000000E+00 -0.11034957745E+03  0.11034957745E+03  0.00000000000E+00 0.  1.
         25    2    1    2    0    0  0.64898607452E+02 -0.52362703301E+02  0.90115988488E+02  0.17528364716E+03  0.12509909526E+03 0.  0.
          5    1    3    3  502    0  0.79488688257E+02 -0.37180869415E+02  0.55430583656E+01  0.88028782266E+02  0.41800000000E+01 0. -1.
         -5    1    3    3    0  502 -0.14590080805E+02 -0.15181833886E+02  0.84572930122E+02  0.87254864893E+02  0.41800000000E+01 0. -1.
        -11    1    1    2    0    0 -0.93564717601E+01  0.56880562136E+02 -0.29367432960E+02  0.64694574977E+02  0.00000000000E+00 0.  1.
         11    1    1    2    0    0 -0.55542135692E+02 -0.45178588357E+01  0.16706517058E+02  0.58176005344E+02  0.00000000000E+00 0. -1.
</event>
<event>
 7    1  0.2594791E-009  0.9126773E+02  0.7561462E-02  0.1299810E+00
          2   -1    0    0  501    0  0.00000000000E+00  0.00000000000E+00  0.17034952772E+03  0.17034952772E+03  0.00000000000E+00 0. -1.
         -2   -1    0    0    0  501 -0.00000000000E+00 -0.00000000000E+00 -0.92123089906E+02  0.92123089906E+02  0.00000000000E+00 0.  1.
         25    2    1    2    0    0  0.55284905065E+01  0.14797411708E+02 -0.16384642175E+02  0.12714020942E+03  0.12508656503E+03 0.  0.
          5    1    3    3  502    0 -0.54852953468E+01  0.62667151840E+02 -0.37671210799E+02  0.73442854709E+02  0.41800000000E+01 0.  1.
         -5    1    3    3    0  502  0.11013785853E+02 -0.47869740132E+02  0.21286568624E+02  0.53697354711E+02  0.41800000000E+01 0.  1.
        -11    1    1    2    0    0 -0.61524754322E+01  0.27353304011E+02 -0.37805448163E+01  0.28290435015E+02  0.00000000000E+00 0.  1.
         11    1    1    2    0    0  0.62398492573E+00 -0.42150715719E+02  0.98391624805E+02  0.10704197319E+03  0.00000000000E+00 0. -1.
</event>
<event>
 7    1  0.2594791E-009  0.1021980E+03  0.7561462E-02  0.1275741E+00
         -1   -1    0    0    0  501 -0.00000000000E+00  0.00000000000E+00  0.11025823997E+03  0.11025823997E+03  0.00000000000E+00 0.  1.
          1   -1    0    0  501    0  0.00000000000E+00 -0.00000000000E+00 -0.36423781809E+03  0.36423781809E+03  0.00000000000E+00 0. -1.
         25    2    1    2    0    0 -0.77578376406E+02  0.25957450037E+02 -0.30680102442E+03  0.34127268796E+03  0.12509190727E+03 0.  0.
          5    1    3    3  502    0 -0.75251882186E+02  0.19661235813E+02 -0.71168510599E+02  0.10550753180E+03  0.41800000000E+01 0.  1.
         -5    1    3    3    0  502 -0.23264942197E+01  0.62962142233E+01 -0.23563251382E+03  0.23576515616E+03  0.41800000000E+01 0.  1.
        -11    1    1    2    0    0 -0.19070870858E+02 -0.39747471142E+01 -0.26161824231E+01  0.19655562581E+02  0.00000000000E+00 0. -1.
         11    1    1    2    0    0  0.96649247264E+02 -0.21982702922E+02  0.55437628729E+02  0.11356780751E+03  0.00000000000E+00 0.  1.
</event>
<event>
 7    1  0.2735509E-009  0.1423563E+03  0.7561462E-02  0.1210193E+00
          2   -1    0    0  501    0  0.00000000000E+00  0.00000000000E+00  0.10956472339E+04  0.10956472339E+04  0.00000000000E+00 0.  1.
         -2   -1    0    0    0  501 -0.00000000000E+00 -0.00000000000E+00 -0.20341481479E+02  0.20341481479E+02  0.00000000000E+00 0. -1.
         25    2    1    2    0    0  0.19885937125E+02  0.99292180592E+02  0.64281058776E+03  0.66265186085E+03  0.12509056451E+03 0.  0.
          5    1    3    3  502    0  0.34227980625E+02  0.12273649804E+03  0.58183091916E+03  0.59563453015E+03  0.41800000000E+01 0. -1.
         -5    1    3    3    0  502 -0.14342043501E+02 -0.23444317447E+02  0.60979668592E+02  0.67017330698E+02  0.41800000000E+01 0. -1.
        -11    1    1    2    0    0 -0.42209004917E+02 -0.19365526719E+02  0.22731494172E+03  0.23201014299E+03  0.00000000000E+00 0.  1.
         11    1    1    2    0    0  0.22323067792E+02 -0.79926653873E+02  0.20518022296E+03  0.22132671156E+03  0.00000000000E+00 0. -1.
</event>
<event>
 7    1  0.2594791E-009  0.1540694E+03  0.7561462E-02  0.1195560E+00
          2   -1    0    0  501    0  0.00000000000E+00  0.00000000000E+00  0.24671098626E+03  0.24671098626E+03  0.00000000000E+00 0. -1.
         -2   -1    0    0    0  501 -0.00000000000E+00 -0.00000000000E+00 -0.13211939516E+03  0.13211939516E+03  0.00000000000E+00 0.  1.
         25    2    1    2    0    0 -0.14189265214E+03  0.16457663422E+02  0.67547288435E+02  0.20153184791E+03  0.12509224648E+03 0.  0.
          5    1    3    3  502    0 -0.13680984483E+03 -0.50080058278E+01  0.94537852237E+02  0.16642383144E+03  0.41800000000E+01 0. -1.
         -5    1    3    3    0  502 -0.50828073138E+01  0.21465669250E+02 -0.26990563802E+02  0.35108016476E+02  0.41800000000E+01 0. -1.
        -11    1    1    2    0    0  0.27868602936E+02  0.13298513731E+02 -0.24517828300E+02  0.39428839719E+02  0.00000000000E+00 0.  1.
         11    1    1    2    0    0  0.11402404921E+03 -0.29756177153E+02  0.71562130961E+02  0.13786969378E+03  0.00000000000E+00 0. -1.
</event>
<event>
 7    1  0.2594791E-009  0.1571286E+03  0.7561462E-02  0.1191977E+00
          1   -1    0    0  501    0  0.00000000000E+00  0.00000000000E+00  0.24219125510E+03  0.24219125510E+03  0.00000000000E+00 0. -1.
         -1   -1    0    0    0  501 -0.00000000000E+00 -0.00000000000E+00 -0.13838281521E+03  0.13838281521E+03  0.00000000000E+00 0.  1.
         25    2    1    2    0    0 -0.31937840723E+02  0.13426985420E+03 -0.14053983899E+01  0.18628097003E+03  0.12510078030E+03 0.  0.
          5    1    3    3  502    0 -0.36567392915E+02 -0.33781245365E+01  0.26775146340E+02  0.45639531237E+02  0.41800000000E+01 0. -1.
         -5    1    3    3    0  502  0.46295521918E+01  0.13764797874E+03 -0.28180544730E+02  0.14064143879E+03  0.41800000000E+01 0. -1.
        -11    1    1    2    0    0  0.25535487431E+02 -0.63398719731E+02  0.13135807919E+01  0.68360692480E+02  0.00000000000E+00 0.  1.
         11    1    1    2    0    0  0.64023532926E+01 -0.70871134468E+02  0.10390025749E+03  0.12593240780E+03  0.00000000000E+00 0. -1.
</event>
<event>
 7    1  0.2594791E-009  0.1358604E+03  0.7561462E-02  0.1219010E+00
         -2   -1    0    0    0  501 -0.00000000000E+00  0.00000000000E+00  0.76917506893E+02  0.76917506893E+02  0.00000000000E+00 0.  1.
          2   -1    0    0  501    0  0.00000000000E+00 -0.00000000000E+00 -0.36022129049E+03  0.36022129049E+03  0.00000000000E+00 0. -1.
         25    2    1    2    0    0  0.52769825011E+02  0.81708510552E+02 -0.25517517055E+03  0.30037767863E+03  0.12510574338E+03 0.  0.
          5    1    3    3  502    0 -0.32815543879E+01 -0.29233122887E+02 -0.81641640700E+02  0.86880227722E+02  0.41800000000E+01 0.  1.
         -5    1    3    3    0  502  0.56051379399E+02  0.11094163344E+03 -0.17353352985E+03  0.21349745091E+03  0.41800000000E+01 0.  1.
        -11    1    1    2    0    0 -0.27173362388E+01 -0.64730397646E+02 -0.47643768902E+02  0.80419755102E+02  0.00000000000E+00 0. -1.
         11    1    1    2    0    0 -0.50052488772E+02 -0.16978112906E+02  0.19515155852E+02  0.56341363651E+02  0.00000000000E+00 0.  1.
</event>
<event>
 7    1  0.2594791E-009  0.1114649E+03  0.7561462E-02  0.1257881E+00
         -1   -1    0    0    0  501 -0.00000000000E+00  0.00000000000E+00  0.12655406082E+03  0.12655406082E+03  0.00000000000E+00 0.  1.
          1   -1    0    0  501    0  0.00000000000E+00 -0.00000000000E+00 -0.15076597066E+03  0.15076597066E+03  0.00000000000E+00 0. -1.
         25    2    1    2    0    0 -0.76855430190E+02 -0.17746542899E+02  0.18656250026E+02  0.14900786762E+03  0.12503436333E+03 0.  0.
          5    1    3    3  502    0 -0.58432054911E+01 -0.59875475603E+02 -0.10757526954E+02  0.61256937691E+02  0.41800000000E+01 0. -1.
         -5    1    3    3    0  502 -0.71012224698E+02  0.42128932704E+02  0.29413776980E+02  0.87750929930E+02  0.41800000000E+01 0. -1.
        -11    1    1    2    0    0  0.58445667808E+02  0.19109014406E+02 -0.71463027801E+02  0.94276268804E+02  0.00000000000E+00 0. -1.
         11    1    1    2    0    0  0.18409762382E+02 -0.13624715069E+01  0.28594867942E+02  0.34035895055E+02  0.00000000000E+00 0.  1.
</event>
<event>
 7    1  0.2594791E-009  0.2961716E+03  0.7561462E-02  0.1087170E+00
         -2   -1    0    0    0  501 -0.00000000000E+00  0.00000000000E+00  0.31609407924E+02  0.31609407924E+02  0.00000000000E+00 0.  1.
          2   -1    0    0  501    0  0.00000000000E+00 -0.00000000000E+00 -0.31743126689E+04  0.31743126689E+04  0.00000000000E+00 0. -1.
         25    2    1    2    0    0  0.23663203275E+03 -0.17131120415E+03 -0.18823663707E+04  0.19090060421E+04  0.12513459738E+03 0.  0.
          5    1    3    3  502    0  0.20538383713E+03 -0.17291633843E+03 -0.13943021495E+04  0.14199220179E+04  0.41800000000E+01 0. -1.
         -5    1    3    3    0  502  0.31248195623E+02  0.16051342750E+01 -0.48806422125E+03  0.48908402412E+03  0.41800000000E+01 0. -1.
        -11    1    1    2    0    0 -0.12949935187E+03  0.99042030094E+02 -0.50677461822E+03  0.53235319059E+03  0.00000000000E+00 0.  1.
         11    1    1    2    0    0 -0.10713268088E+03  0.72269174059E+02 -0.75356227201E+03  0.76456284414E+03  0.00000000000E+00 0. -1.
</event>
<event>
 7    1  0.2594791E-009  0.1377102E+03  0.7561462E-02  0.1216444E+00
         -1   -1    0    0    0  501 -0.00000000000E+00  0.00000000000E+00  0.12162376932E+03  0.12162376932E+03  0.00000000000E+00 0.  1.
          1   -1    0    0  501    0  0.00000000000E+00 -0.00000000000E+00 -0.22235537029E+03  0.22235537029E+03  0.00000000000E+00 0. -1.
         25    2    1    2    0    0  0.79963579960E+02 -0.41306794278E+02  0.31572904553E+02  0.15730502926E+03  0.12509036156E+03 0.  0.
          5    1    3    3  502    0 -0.13759502188E+02 -0.49790089017E+02 -0.12491314869E+02  0.53309306992E+02  0.41800000000E+01 0.  1.
         -5    1    3    3    0  502  0.93723082148E+02  0.84832947392E+01  0.44064219422E+02  0.10399572227E+03  0.41800000000E+01 0.  1.
        -11    1    1    2    0    0  0.13873499663E+02 -0.14621658418E+02 -0.94037349325E+01  0.22241787663E+02  0.00000000000E+00 0.  1.
         11    1    1    2    0    0 -0.93837079623E+02  0.55928452695E+02 -0.12290077059E+03  0.16443232269E+03  0.00000000000E+00 0. -1.
</event>
<event>
 7    1  0.2594791E-009  0.1097204E+03  0.7561462E-02  0.1261089E+00
         -2   -1    0    0    0  501 -0.00000000000E+00  0.00000000000E+00  0.26795257351E+02  0.26795257351E+02  0.00000000000E+00 0.  1.
          2   -1    0    0  501    0  0.00000000000E+00 -0.00000000000E+00 -0.64026579511E+03  0.64026579511E+03  0.00000000000E+00 0. -1.
         25    2    1    2    0    0  0.40842854872E+02  0.54398557358E+02 -0.25996742116E+03  0.29640967976E+03  0.12509315070E+03 0.  0.
          5    1    3    3  502    0  0.31687197783E+02 -0.17048193664E+02 -0.19804036306E+03  0.20132604703E+03  0.41800000000E+01 0. -1.
         -5    1    3    3    0  502  0.91556570899E+01  0.71446751021E+02 -0.61927058103E+02  0.95083632732E+02  0.41800000000E+01 0. -1.
        -11    1    1    2    0    0  0.73996635763E+01  0.20600602282E+02 -0.58329678833E+02  0.62301615294E+02  0.00000000000E+00 0.  1.
         11    1    1    2    0    0 -0.48242518449E+02 -0.74999159639E+02 -0.29517343776E+03  0.30834975741E+03  0.00000000000E+00 0. -1.
</event>
<event>
 7    1  0.2594791E-009  0.1043844E+03  0.7561462E-02  0.1271337E+00
          2   -1    0    0  501    0  0.00000000000E+00  0.00000000000E+00  0.15337937467E+03  0.15337937467E+03  0.00000000000E+00 0.  1.
         -2   -1    0    0    0  501 -0.00000000000E+00 -0.00000000000E+00 -0.78042539526E+02  0.78042539526E+02  0.00000000000E+00 0. -1.
         25    2    1    2    0    0  0.65235192218E+01 -0.33105134073E+02  0.48494341660E+02  0.13833952884E+03  0.12509043873E+03 0.  0.
          5    1    3    3  502    0  0.59742543567E+02 -0.65925600873E+01  0.50627540990E+02  0.78697227823E+02  0.41800000000E+01 0.  1.
         -5    1    3    3    0  502 -0.53219024346E+02 -0.26512573986E+02 -0.21331993295E+01  0.59642301021E+02  0.41800000000E+01 0.  1.
        -11    1    1    2    0    0 -0.44173742538E+02  0.12100068756E+02  0.17045394112E+02  0.48869997485E+02  0.00000000000E+00 0. -1.
         11    1    1    2    0    0  0.37650223316E+02  0.21005065317E+02  0.97970993704E+01  0.44212387866E+02  0.00000000000E+00 0.  1.
</event>
<event>
 7    1  0.2594791E-009  0.9418485E+02  0.7561462E-02  0.1293023E+00
          2   -1    0    0  501    0  0.00000000000E+00  0.00000000000E+00  0.28512349141E+03  0.28512349141E+03  0.00000000000E+00 0. -1.
         -2   -1    0    0    0  501 -0.00000000000E+00 -0.00000000000E+00 -0.64156780572E+02  0.64156780572E+02  0.00000000000E+00 0.  1.
         25    2    1    2    0    0 -0.50148914518E+02 -0.40756476195E+02  0.20141049639E+03  0.24573740374E+03  0.12507869348E+03 0.  0.
          5    1    3    3  502    0  0.52793845361E+01 -0.33824431185E+02  0.18381530216E+03  0.18702273059E+03  0.41800000000E+01 0.  1.
         -5    1    3    3    0  502 -0.55428299054E+02 -0.69320450097E+01  0.17595194230E+02  0.58714673158E+02  0.41800000000E+01 0.  1.
        -11    1    1    2    0    0 -0.18033418247E+02  0.19236161178E+02 -0.69863164347E+01  0.27277145889E+02  0.00000000000E+00 0.  1.
         11    1    1    2    0    0  0.68182332765E+02  0.21520315017E+02  0.26542530876E+02  0.76265722346E+02  0.00000000000E+00 0. -1.
</event>
<event>
 7    1  0.2594791E-009  0.1227397E+03  0.7561462E-02  0.1238645E+00
          1   -1    0    0  501    0  0.00000000000E+00  0.00000000000E+00  0.12035617539E+03  0.12035617539E+03  0.00000000000E+00 0.  1.
         -1   -1    0    0    0  501 -0.00000000000E+00 -0.00000000000E+00 -0.15647857270E+03  0.15647857270E+03  0.00000000000E+00 0. -1.
         25    2    1    2    0    0  0.24224353525E+02 -0.77352414036E+02  0.35904094668E+00  0.14905795681E+03  0.12509168764E+03 0.  0.
          5    1    3    3  502    0 -0.17875355991E+02 -0.91856002065E+02  0.26378922923E+02  0.97315843735E+02  0.41800000000E+01 0. -1.
         -5    1    3    3    0  502  0.42099709516E+02  0.14503588030E+02 -0.26019881976E+02  0.51742113071E+02  0.41800000000E+01 0. -1.
        -11    1    1    2    0    0 -0.66371913160E+00  0.82880162529E+02  0.13189200272E+01  0.82893313445E+02  0.00000000000E+00 0. -1.
         11    1    1    2    0    0 -0.23560634393E+02 -0.55277484930E+01 -0.37800358281E+02  0.44883477835E+02  0.00000000000E+00 0.  1.
</event>
<event>
 6    1  0.2594791E-009  0.8879208E+02  0.7561462E-02  0.1305803E+00
         -2   -1    0    0    0  501 -0.00000000000E+00  0.00000000000E+00  0.27373652601E+02  0.27373652601E+02  0.00000000000E+00 0.  1.
          2   -1    0    0  501    0  0.00000000000E+00 -0.00000000000E+00 -0.50515173705E+03  0.50515173705E+03  0.00000000000E+00 0. -1.
          5    1    1    2  502    0  0.31424497007E+02  0.28719623206E+02 -0.31564159296E+03  0.31852692723E+03  0.41800000000E+01 0.  1.
         -5    1    1    2    0  502 -0.31397912180E+02 -0.36183786093E+02 -0.56641686723E+02  0.74302411402E+02  0.41800000000E+01 0.  1.
        -11    1    1    2    0    0 -0.27269134943E+02 -0.29906745848E+02 -0.71994713107E+02  0.82590906782E+02  0.00000000000E+00 0.  1.
         11    1    1    2    0    0  0.27242550116E+02  0.37370908735E+02 -0.33500091662E+02  0.57105144233E+02  0.00000000000E+00 0. -1.
</event>
<event>
 7    1  0.2594791E-009  0.2212884E+03  0.7561462E-02  0.1132926E+00
         -3   -1    0    0    0  501 -0.00000000000E+00  0.00000000000E+00  0.53423698281E+03  0.53423698281E+03  0.00000000000E+00 0.  1.
          3   -1    0    0  501    0  0.00000000000E+00 -0.00000000000E+00 -0.96200194203E+02  0.96200194203E+02  0.00000000000E+00 0. -1.
         25    2    1    2    0    0 -0.17297451596E+03 -0.96712944146E+02  0.24106087042E+03  0.33620099827E+03  0.12508873352E+03 0.  0.
          5    1    3    3  502    0 -0.18774655712E+03 -0.97245480270E+02  0.24127624179E+03  0.32083819971E+03  0.41800000000E+01 0. -1.
         -5    1    3    3    0  502  0.14772041161E+02  0.53253612416E+00 -0.21537136332E+00  0.15362798561E+02  0.41800000000E+01 0. -1.
        -11    1    1    2    0    0  0.17841503296E+02 -0.16012989937E+02  0.39010168879E+02  0.45787862612E+02  0.00000000000E+00 0.  1.
         11    1    1    2    0    0  0.15513301266E+03  0.11272593408E+03  0.15796574931E+03  0.24844831613E+03  0.00000000000E+00 0. -1.
</event>
<event>
 7    1  0.2594791E-009  0.8870607E+02  0.7561462E-02  0.1306016E+00
          2   -1    0    0  501    0  0.00000000000E+00  0.00000000000E+00  0.28705925209E+03  0.28705925209E+03  0.00000000000E+00 0.  1.
         -2   -1    0    0    0  501 -0.00000000000E+00 -0.00000000000E+00 -0.45465857186E+02  0.45465857186E+02  0.00000000000E+00 0. -1.
         25    2    1    2    0    0 -0.17613212125E+02 -0.13197236289E+01  0.89809433723E+02  0.15499964828E+03  0.12508872719E+03 0.  0.
          5    1    3    3  502    0  0.19861454361E+02  0.53986730416E+02  0.54353899146E+02  0.79251897029E+02  0.41800000000E+01 0. -1.
         -5    1    3    3    0  502 -0.37474666486E+02 -0.55306454045E+02  0.35455534577E+02  0.75747751250E+02  0.41800000000E+01 0. -1.
        -11    1    1    2    0    0  0.35101882220E+02  0.29980011062E+01  0.15560709869E+03  0.15954528921E+03  0.00000000000E+00 0.  1.
         11    1    1    2    0    0 -0.17488670095E+02 -0.16782774774E+01 -0.38231375118E+01  0.17980171785E+02  0.00000000000E+00 0. -1.
</event>
<event>
 7    1  0.2594791E-009  0.2126860E+03  0.7561462E-02  0.1139456E+00
          1   -1    0    0  501    0  0.00000000000E+00  0.00000000000E+00  0.79136618457E+03  0.79136618457E+03  0.00000000000E+00 0. -1.
         -1   -1    0    0    0  501 -0.00000000000E+00 -0.00000000000E+00 -0.80955422411E+02  0.80955422411E+02  0.00000000000E+00 0.  1.
         25    2    1    2    0    0 -0.18432450103E+03 -0.21318905920E+02  0.14331152757E+03  0.26573447409E+03  0.12508636757E+03 0.  0.
          5    1    3    3  502    0 -0.15548845395E+03  0.28065313385E+02  0.13486826420E+03  0.20777690492E+03  0.41800000000E+01 0. -1.
         -5    1    3    3    0  502 -0.28836047081E+02 -0.49384219305E+02  0.84432633726E+01  0.57957569169E+02  0.41800000000E+01 0. -1.
        -11    1    1    2    0    0  0.17358232349E+03  0.48932082533E+02  0.52495319536E+03  0.55506849041E+03  0.00000000000E+00 0.  1.
         11    1    1    2    0    0  0.10742177548E+02 -0.27613176613E+02  0.42146039234E+02  0.51518642492E+02  0.00000000000E+00 0. -1.
</event>
<event>
 7    1  0.2594791E-009  0.1098115E+03  0.7561462E-02  0.1260919E+00
         -3   -1    0    0    0  501 -0.00000000000E+00  0.00000000000E+00  0.50043830934E+02  0.50043830934E+02  0.00000000000E+00 0.  1.
          3   -1    0    0  501    0  0.00000000000E+00 -0.00000000000E+00 -0.43589025229E+03  0.43589025229E+03  0.00000000000E+00 0. -1.
         25    2    1    2    0    0 -0.72871289108E+02 -0.58583985435E+02 -0.15045245198E+03  0.21687286327E+03  0.12512230172E+03 0.  0.
          5    1    3    3  502    0 -0.45248354685E+02 -0.61327819917E+02 -0.16747118124E+03  0.18404505982E+03  0.41800000000E+01 0.  1.
         -5    1    3    3    0  502 -0.27622934422E+02  0.27438344823E+01  0.17018729258E+02  0.32827803450E+02  0.41800000000E+01 0.  1.
        -11    1    1    2    0    0  0.25146482027E+02  0.62469011820E+02 -0.71084391373E+02  0.97916871340E+02  0.00000000000E+00 0.  1.
         11    1    1    2    0    0  0.47724807081E+02 -0.38850263849E+01 -0.16430957800E+03  0.17114434862E+03  0.00000000000E+00 0. -1.
</event>
<event>
 7    1  0.2594791E-009  0.1762981E+03  0.7561462E-02  0.1171435E+00
          2   -1    0    0  501    0  0.00000000000E+00  0.00000000000E+00  0.43081720533E+03  0.43081720533E+03  0.00000000000E+00 0. -1.
         -2   -1    0    0    0  501 -0.00000000000E+00 -0.00000000000E+00 -0.82107355750E+02  0.82107355750E+02  0.00000000000E+00 0.  1.
         25    2    1    2    0    0 -0.55589955477E+01 -0.15090915158E+03  0.21818924439E+03  0.29335717393E+03  0.12508961054E+03 0.  0.
          5    1    3    3  502    0  0.47404105214E+02 -0.69117951148E+02  0.46601198173E+02  0.95987418098E+02  0.41800000000E+01 0. -1.
         -5    1    3    3    0  502 -0.52963100762E+02 -0.81791200429E+02  0.17158804622E+03  0.19736975583E+03  0.41800000000E+01 0. -1.
        -11    1    1    2    0    0  0.39721868473E+02  0.11462517499E+03  0.66201823484E+02  0.13820072001E+03  0.00000000000E+00 0.  1.
         11    1    1    2    0    0 -0.34162872926E+02  0.36283976582E+02  0.64318781703E+02  0.81366667149E+02  0.00000000000E+00 0. -1.
</event>
<event>
 7    1  0.2594791E-009  0.1426980E+03  0.7561462E-02  0.1209744E+00
          1   -1    0    0  501    0  0.00000000000E+00  0.00000000000E+00  0.23979426474E+03  0.23979426474E+03  0.00000000000E+00 0. -1.
         -1   -1    0    0    0  501 -0.00000000000E+00 -0.00000000000E+00 -0.13591461104E+03  0.13591461104E+03  0.00000000000E+00 0.  1.
         25    2    1    2    0    0  0.10508296481E+03  0.84641992791E+02  0.11720989256E+03  0.21815788069E+03  0.12509198838E+03 0.  0.
          5    1    3    3  502    0  0.50552964722E+02  0.71877465119E+02  0.13332275401E+03  0.15973228031E+03  0.41800000000E+01 0. -1.
         -5    1    3    3    0  502  0.54530000088E+02  0.12764527672E+02 -0.16112861451E+02  0.58425600386E+02  0.41800000000E+01 0. -1.
        -11    1    1    2    0    0 -0.73512384445E+02 -0.81154418698E+02 -0.39489885046E+02  0.11640258314E+03  0.00000000000E+00 0.  1.
         11    1    1    2    0    0 -0.31570580365E+02 -0.34875740933E+01  0.26159646186E+02  0.41148411952E+02  0.00000000000E+00 0. -1.
</event>
<event>
 7    1  0.2594791E-009  0.8545070E+02  0.7561462E-02  0.1314258E+00
          2   -1    0    0  501    0  0.00000000000E+00  0.00000000000E+00  0.19587466215E+03  0.19587466215E+03  0.00000000000E+00 0. -1.
         -2   -1    0    0    0  501 -0.00000000000E+00 -0.00000000000E+00 -0.10484777983E+03  0.10484777983E+03  0.00000000000E+00 0.  1.
         25    2    1    2    0    0 -0.27837719927E+02 -0.49692702120E+02  0.12658577232E+03  0.18685778821E+03  0.12509025528E+03 0.  0.
          5    1    3    3  502    0 -0.39740141310E+02 -0.84679596894E+01 -0.11306921241E+02  0.42382827189E+02  0.41800000000E+01 0. -1.
         -5    1    3    3    0  502  0.11902421383E+02 -0.41224742431E+02  0.13789269356E+03  0.14447496102E+03  0.41800000000E+01 0. -1.
        -11    1    1    2    0    0 -0.21245185926E+02  0.22013757522E+02  0.18520899493E+02  0.35762930016E+02  0.00000000000E+00 0. -1.
         11    1    1    2    0    0  0.49082905854E+02  0.27678944598E+02 -0.54079789498E+02  0.78101723753E+02  0.00000000000E+00 0.  1.
</event>
<event>
 7    1  0.2594791E-009  0.1391576E+03  0.7561462E-02  0.1214467E+00
         -1   -1    0    0    0  501 -0.00000000000E+00  0.00000000000E+00  0.70769829584E+02  0.70769829584E+02  0.00000000000E+00 0.  1.
          1   -1    0    0  501    0  0.00000000000E+00 -0.00000000000E+00 -0.30633972713E+03  0.30633972713E+03  0.00000000000E+00 0. -1.
         25    2    1    2    0    0  0.90510194638E+02 -0.41602599057E+02 -0.11959163608E+03  0.19969034822E+03  0.12510477277E+03 0.  0.
          5    1    3    3  502    0  0.20677463409E+02  0.34658115884E+02 -0.78456013738E+02  0.88326445538E+02  0.41800000000E+01 0. -1.
         -5    1    3    3    0  502  0.69832731229E+02 -0.76260714941E+02 -0.41135622340E+02  0.11136390268E+03  0.41800000000E+01 0. -1.
        -11    1    1    2    0    0 -0.21588475678E+02  0.59290361554E+02 -0.53448011301E+02  0.82692799973E+02  0.00000000000E+00 0.  1.
         11    1    1    2    0    0 -0.68921718960E+02 -0.17687762497E+02 -0.62530250166E+02  0.94726408527E+02  0.00000000000E+00 0. -1.
</event>
<event>
 7    1  0.2594791E-009  0.1995203E+03  0.7561462E-02  0.1150144E+00
         -1   -1    0    0    0  501 -0.00000000000E+00  0.00000000000E+00  0.28065392781E+03  0.28065392781E+03  0.00000000000E+00 0.  1.
          1   -1    0    0  501    0  0.00000000000E+00 -0.00000000000E+00 -0.14556061565E+03  0.14556061565E+03  0.00000000000E+00 0. -1.
         25    2    1    2    0    0  0.95579299888E+02 -0.13937725944E+03  0.56329775245E+02  0.21767413357E+03  0.12509021476E+03 0.  0.
          5    1    3    3  502    0  0.63348491446E+02  0.51061213417E+00  0.34965392880E+02  0.72479950280E+02  0.41800000000E+01 0.  1.
         -5    1    3    3    0  502  0.32230808441E+02 -0.13988787158E+03  0.21364382365E+02  0.14519418329E+03  0.41800000000E+01 0.  1.
        -11    1    1    2    0    0 -0.32339575329E+02  0.12220090671E+03  0.62533695677E+02  0.14102968776E+03  0.00000000000E+00 0. -1.
         11    1    1    2    0    0 -0.63239724559E+02  0.17176352731E+02  0.16229841239E+02  0.67510722127E+02  0.00000000000E+00 0.  1.
</event>
<event>
 7    1  0.2594791E-009  0.9510340E+02  0.7561462E-02  0.1290943E+00
          2   -1    0    0  501    0  0.00000000000E+00  0.00000000000E+00  0.26124244883E+03  0.26124244883E+03  0.00000000000E+00 0. -1.
         -2   -1    0    0    0  501 -0.00000000000E+00 -0.00000000000E+00 -0.47088430390E+02  0.47088430390E+02  0.00000000000E+00 0.  1.
         25    2    1    2    0    0  0.23666280887E+02 -0.26242632901E+01  0.13001833767E+03  0.18195454442E+03  0.12504282665E+03 0.  0.
          5    1    3    3  502    0 -0.24414079197E+02  0.30362891332E+02 -0.23426532707E+00  0.39185197631E+02  0.41800000000E+01 0.  1.
         -5    1    3    3    0  502  0.48080360084E+02 -0.32987154622E+02  0.13025260299E+03  0.14276934679E+03  0.41800000000E+01 0.  1.
        -11    1    1    2    0    0  0.12310681723E+02 -0.37029396156E+02  0.47627629937E+02  0.61572073196E+02  0.00000000000E+00 0.  1.
         11    1    1    2    0    0 -0.35976962609E+02  0.39653659446E+02  0.36508050831E+02  0.64804261600E+02  0.00000000000E+00 0. -1.
</event>
<event>
 7    1  0.2594791E-009  0.7678541E+02  0.7561462E-02  0.1338430E+00
          3   -1    0    0  501    0  0.00000000000E+00  0.00000000000E+00  0.66506282037E+02  0.66506282037E+02  0.00000000000E+00 0. -1.
         -3   -1    0    0    0  501 -0.00000000000E+00 -0.00000000000E+00 -0.22944576411E+03  0.22944576411E+03  0.00000000000E+00 0.  1.
         25    2    1    2    0    0  0.39086163732E+02 -0.45723515951E+02 -0.90827237495E+02  0.16587901196E+03  0.12509153222E+03 0.  0.
          5    1    3    3  502    0  0.30638048643E+02 -0.55090688234E+02  0.10189504420E+02  0.63991971020E+02  0.41800000000E+01 0.  1.
         -5    1    3    3    0  502  0.84481150887E+01  0.93671722832E+01 -0.10101674192E+03  0.10188704094E+03  0.41800000000E+01 0.  1.
        -11    1    1    2    0    0 -0.44261925292E+02  0.16200747085E+02  0.49443783374E+01  0.47392289603E+02  0.00000000000E+00 0. -1.
         11    1    1    2    0    0  0.51757615601E+01  0.29522768865E+02 -0.77056622913E+02  0.82680744578E+02  0.00000000000E+00 0.  1.
</event>
<event>
 7    1  0.2594791E-009  0.1940369E+03  0.7561462E-02  0.1154870E+00
         -2   -1    0    0    0  501 -0.00000000000E+00  0.00000000000E+00  0.66886349933E+02  0.66886349933E+02  0.00000000000E+00 0.  1.
          2   -1    0    0  501    0  0.00000000000E+00 -0.00000000000E+00 -0.81220275390E+03  0.81220275390E+03  0.00000000000E+00 0. -1.
         25    2    1    2    0    0  0.30053472989E+02 -0.17161813400E+03 -0.17783590337E+03  0.27862036286E+03  0.12509077871E+03 0.  0.
          5    1    3    3  502    0  0.56370066861E+02 -0.16259589878E+03 -0.10770866647E+03  0.20306068051E+03  0.41800000000E+01 0.  1.
         -5    1    3    3    0  502 -0.26316593872E+02 -0.90222352214E+01 -0.70127236900E+02  0.75559682349E+02  0.41800000000E+01 0.  1.
        -11    1    1    2    0    0  0.16452741957E+02  0.91894381372E+01 -0.19864518150E+02  0.27381336207E+02  0.00000000000E+00 0.  1.
         11    1    1    2    0    0 -0.46506214946E+02  0.16242869586E+03 -0.54761598244E+03  0.57308740476E+03  0.00000000000E+00 0. -1.
</event>
<event>
 7    1  0.2594791E-009  0.1204421E+03  0.7561462E-02  0.1242369E+00
         -2   -1    0    0    0  501 -0.00000000000E+00  0.00000000000E+00  0.88701829262E+02  0.88701829262E+02  0.00000000000E+00 0.  1.
          2   -1    0    0  501    0  0.00000000000E+00 -0.00000000000E+00 -0.20129252093E+03  0.20129252093E+03  0.00000000000E+00 0. -1.
         25    2    1    2    0    0 -0.59327434936E+02 -0.38664901593E+02 -0.97985692810E+02  0.17396041141E+03  0.12508520932E+03 0.  0.
          5    1    3    3  502    0 -0.62703708541E+02 -0.72689102966E+02 -0.35174143111E+02  0.10232376800E+03  0.41800000000E+01 0.  1.
         -5    1    3    3    0  502  0.33762736046E+01  0.34024201372E+02 -0.62811549699E+02  0.71636643404E+02  0.41800000000E+01 0.  1.
        -11    1    1    2    0    0  0.68159452793E+01 -0.26098062827E+02  0.10522166441E+02  0.28953099661E+02  0.00000000000E+00 0.  1.
         11    1    1    2    0    0  0.52511489657E+02  0.64762964420E+02 -0.25127165296E+02  0.87080839123E+02  0.00000000000E+00 0. -1.
</event>
<event>
 7    1  0.2594791E-009  0.1581224E+03  0.7561462E-02  0.1190833E+00
          1   -1    0    0  501    0  0.00000000000E+00  0.00000000000E+00  0.19557283906E+03  0.19557283906E+03  0.00000000000E+00 0. -1.
         -1   -1    0    0    0  501 -0.00000000000E+00 -0.00000000000E+00 -0.15464897361E+03  0.15464897361E+03  0.00000000000E+00 0.  1.
         25    2    1    2    0    0 -0.10489794978E+02 -0.13474189645E+03  0.22057168751E+02  0.18547282048E+03  0.12509290141E+03 0.  0.
          5    1    3    3  502    0  0.42512896475E+02 -0.34320272032E+02 -0.27732940556E+02  0.61415110770E+02  0.41800000000E+01 0. -1.
         -5    1    3    3    0  502 -0.53002691454E+02 -0.10042162442E+03  0.49790109307E+02  0.12405770971E+03  0.41800000000E+01 0. -1.
        -11    1    1    2    0    0 -0.22985975649E+02  0.29594111050E+02  0.37299864294E+02  0.52871980876E+02  0.00000000000E+00 0. -1.
         11    1    1    2    0    0  0.33475770627E+02  0.10514778540E+03 -0.18433167594E+02  0.11187701132E+03  0.00000000000E+00 0.  1.
</event>
<event>
 7    1  0.2594791E-009  0.1337199E+03  0.7561462E-02  0.1222038E+00
         -1   -1    0    0    0  501 -0.00000000000E+00  0.00000000000E+00  0.31495563949E+02  0.31495563949E+02  0.00000000000E+00 0.  1.
          1   -1    0    0  501    0  0.00000000000E+00 -0.00000000000E+00 -0.10070924444E+04  0.10070924444E+04  0.00000000000E+00 0. -1.
         25    2    1    2    0    0 -0.10563052214E+03  0.74953105027E+02 -0.69004603336E+03  0.71315293731E+03  0.12509120145E+03 0.  0.
          5    1    3    3  502    0 -0.10818321295E+03  0.64187578477E+02 -0.68993900836E+03  0.70132514603E+03  0.41800000000E+01 0. -1.
         -5    1    3    3    0  502  0.25526908140E+01  0.10765526550E+02 -0.10702499924E+00  0.11827791283E+02  0.41800000000E+01 0. -1.
        -11    1    1    2    0    0  0.32719048997E+02 -0.18919859537E+02 -0.16750437180E+02  0.41340953036E+02  0.00000000000E+00 0.  1.
         11    1    1    2    0    0  0.72911473139E+02 -0.56033245489E+02 -0.26880040994E+03  0.28409411803E+03  0.00000000000E+00 0. -1.
</event>
<event>
 7    1  0.2594791E-009  0.1459244E+03  0.7561462E-02  0.1205572E+00
          2   -1    0    0  501    0  0.00000000000E+00  0.00000000000E+00  0.21076376727E+03  0.21076376727E+03  0.00000000000E+00 0. -1.
         -2   -1    0    0    0  501 -0.00000000000E+00 -0.00000000000E+00 -0.12349475697E+03  0.12349475697E+03  0.00000000000E+00 0.  1.
         25    2    1    2    0    0  0.11214629155E+03  0.37778638029E+02  0.41260809550E+02  0.17708804923E+03  0.12511477361E+03 0.  0.
          5    1    3    3  502    0 -0.97309868917E+01 -0.30551546597E+02  0.55098150007E+01  0.32801212885E+02  0.41800000000E+01 0.  1.
         -5    1    3    3    0  502  0.12187727844E+03  0.68330184626E+02  0.35750994550E+02  0.14428683634E+03  0.41800000000E+01 0.  1.
        -11    1    1    2    0    0 -0.89701825016E+02 -0.37645809515E+02 -0.90616879006E+01  0.97702295638E+02  0.00000000000E+00 0.  1.
         11    1    1    2    0    0 -0.22444466533E+02 -0.13282851409E+00  0.55069888649E+02  0.59468179367E+02  0.00000000000E+00 0. -1.
</event>
<event>
 7    1  0.2594791E-009  0.1459760E+03  0.7561462E-02  0.1205507E+00
         -2   -1    0    0    0  501 -0.00000000000E+00  0.00000000000E+00  0.95290505886E+02  0.95290505886E+02  0.00000000000E+00 0.  1.
          2   -1    0    0  501    0  0.00000000000E+00 -0.00000000000E+00 -0.24289293352E+03  0.24289293352E+03  0.00000000000E+00 0. -1.
         25    2    1    2    0    0  0.11704526920E+03  0.33214896195E+02 -0.80684894505E+02  0.19225046337E+03  0.12508942438E+03 0.  0.
          5    1    3    3  502    0  0.35931526392E+02  0.71514372564E+02 -0.16373647516E+02  0.81798220060E+02  0.41800000000E+01 0.  1.
         -5    1    3    3    0  502  0.81113742805E+02 -0.38299476368E+02 -0.64311246989E+02  0.11045224331E+03  0.41800000000E+01 0.  1.
        -11    1    1    2    0    0 -0.64947172070E+02 -0.13690051655E+02 -0.60709534579E+02  0.89951099288E+02  0.00000000000E+00 0.  1.
         11    1    1    2    0    0 -0.52098097127E+02 -0.19524844541E+02 -0.62079985482E+01  0.55981876751E+02  0.00000000000E+00 0. -1.
</event>
<event>
 7    1  0.2594791E-009  0.1693706E+03  0.7561462E-02  0.1178506E+00
         -2   -1    0    0    0  501 -0.00000000000E+00  0.00000000000E+00  0.39144449714E+03  0.39144449714E+03  0.00000000000E+00 0.  1.
          2   -1    0    0  501    0  0.00000000000E+00 -0.00000000000E+00 -0.95418059229E+02  0.95418059229E+02  0.00000000000E+00 0. -1.
         25    2    1    2    0    0 -0.12303386535E+03  0.90821745151E+02  0.20897704739E+03  0.28758510422E+03  0.12509142424E+03 0.  0.
          5    1    3    3  502    0 -0.23387913596E+02 -0.12640162035E+01 -0.13209668100E+02  0.27213231536E+02  0.41800000000E+01 0. -1.
         -5    1    3    3    0  502 -0.99645951750E+02  0.92085761354E+02  0.22218671549E+03  0.26037187268E+03  0.41800000000E+01 0. -1.
        -11    1    1    2    0    0  0.57404827275E+02 -0.97596073007E+02  0.52617187120E+02  0.12485542055E+03  0.00000000000E+00 0. -1.
         11    1    1    2    0    0  0.65629038071E+02  0.67743278563E+01  0.34432203401E+02  0.74422031597E+02  0.00000000000E+00 0.  1.
</event>
<event>
 7    1  0.2594791E-009  0.1532538E+03  0.7561462E-02  0.1196531E+00
          2   -1    0    0  501    0  0.00000000000E+00  0.00000000000E+00  0.32306332019E+03  0.32306332019E+03  0.00000000000E+00 0. -1.
         -2   -1    0    0    0  501 -0.00000000000E+00 -0.00000000000E+00 -0.11128590538E+03  0.11128590538E+03  0.00000000000E+00 0.  1.
         25    2    1    2    0    0  0.13208364974E+03  0.12352057063E+02  0.20546279787E+03  0.27470011951E+03  0.12508609238E+03 0.  0.
          5    1    3    3  502    0  0.96464689964E+02  0.51395359402E+02  0.71628158344E+02  0.13074779098E+03  0.41800000000E+01 0. -1.
         -5    1    3    3    0  502  0.35618959779E+02 -0.39043302340E+02  0.13383463952E+03  0.14395232853E+03  0.41800000000E+01 0. -1.
        -11    1    1    2    0    0 -0.89760457442E+02 -0.34718924792E+02 -0.28598185541E+02  0.10040019758E+03  0.00000000000E+00 0.  1.
         11    1    1    2    0    0 -0.42323192301E+02  0.22366867730E+02  0.34912802484E+02  0.59248908479E+02  0.00000000000E+00 0. -1.
</event>
<event>
 7    1  0.2594791E-009  0.1672137E+03  0.7561462E-02  0.1180785E+00
         -1   -1    0    0    0  501 -0.00000000000E+00  0.00000000000E+00  0.77804451663E+02  0.77804451663E+02  0.00000000000E+00 0.  1.
          1   -1    0    0  501    0  0.00000000000E+00 -0.00000000000E+00 -0.42998064657E+03  0.42998064657E+03  0.00000000000E+00 0. -1.
         25    2    1    2    0    0 -0.10006676932E+03  0.90882125482E+02 -0.26207090412E+03  0.32031452298E+03  0.12508923131E+03 0.  0.
          5    1    3    3  502    0  0.28764420989E+02  0.25596340507E+02 -0.42846823451E+02  0.57757140182E+02  0.41800000000E+01 0. -1.
         -5    1    3    3    0  502 -0.12883119031E+03  0.65285784975E+02 -0.21922408067E+03  0.26255738280E+03  0.41800000000E+01 0. -1.
        -11    1    1    2    0    0  0.10407765520E+03 -0.60137741660E+02 -0.36635322715E+02  0.12566166143E+03  0.00000000000E+00 0.  1.
         11    1    1    2    0    0 -0.40108858762E+01 -0.30744383822E+02 -0.53469968075E+02  0.61808913824E+02  0.00000000000E+00 0. -1.
</event>
<event>
 7    1  0.2594791E-009  0.8134263E+02  0.7561462E-02  0.1325284E+00
          2   -1    0    0  501    0  0.00000000000E+00  0.00000000000E+00  0.25185357652E+03  0.25185357652E+03  0.00000000000E+00 0. -1.
         -2   -1    0    0    0  501 -0.00000000000E+00 -0.00000000000E+00 -0.50046978483E+02  0.50046978483E+02  0.00000000000E+00 0.  1.
         25    2    1    2    0    0 -0.18068304128E+02  0.45757128833E+01  0.15174322546E+03  0.19753503000E+03  0.12508669330E+03 0.  0.
          5    1    3    3  502    0 -0.23301488324E+02  0.37656663075E+02  0.15717589601E+03  0.16334845673E+03  0.41800000000E+01 0. -1.
         -5    1    3    3    0  502  0.52331841961E+01 -0.33080950192E+02 -0.54326705416E+01  0.34186573265E+02  0.41800000000E+01 0. -1.
        -11    1    1    2    0    0  0.32169881003E+02  0.31925623520E+02  0.46721365172E+02  0.65092492996E+02  0.00000000000E+00 0. -1.
         11    1    1    2    0    0 -0.14101576875E+02 -0.36501336403E+02  0.33420074010E+01  0.39273032008E+02  0.00000000000E+00 0.  1.
</event>
<event>
 7    1  0.2594791E-009  0.7477722E+02  0.7561462E-02  0.1344562E+00
         -1   -1    0    0    0  501 -0.00000000000E+00  0.00000000000E+00  0.32903091432E+03  0.32903091432E+03  0.00000000000E+00 0.  1.
          1   -1    0    0  501    0  0.00000000000E+00 -0.00000000000E+00 -0.43476967886E+02  0.43476967886E+02  0.00000000000E+00 0. -1.
         25    2    1    2    0    0 -0.27445371639E+02 -0.39953394771E+02  0.18711732972E+03  0.23023952558E+03  0.12509125420E+03 0.  0.
          5    1    3    3  502    0 -0.26731469742E+02 -0.42226696185E+02  0.20534863533E+03  0.21138401022E+03  0.41800000000E+01 0.  1.
         -5    1    3    3    0  502 -0.71390189696E+00  0.22733014141E+01 -0.18231305606E+02  0.18855515356E+02  0.41800000000E+01 0.  1.
        -11    1    1    2    0    0 -0.28917607294E+02  0.89842735245E+01  0.80413284413E+01  0.31330626318E+02  0.00000000000E+00 0. -1.
         11    1    1    2    0    0  0.56362978933E+02  0.30969121247E+02  0.90395288268E+02  0.11093773031E+03  0.00000000000E+00 0.  1.
</event>
<event>
 7    1  0.2594791E-009  0.1138511E+03  0.7561462E-02  0.1253600E+00
          2   -1    0    0  501    0  0.00000000000E+00  0.00000000000E+00  0.50697369365E+03  0.50697369365E+03  0.00000000000E+00 0. -1.
         -2   -1    0    0    0  501 -0.00000000000E+00 -0.00000000000E+00 -0.34444690248E+02  0.34444690248E+02  0.00000000000E+00 0.  1.
         25    2    1    2    0    0  0.41550484442E+02  0.75636766590E+01  0.38967843320E+03  0.41143681670E+03  0.12508925164E+03 0.  0.
          5    1    3    3  502    0  0.26328159149E+02 -0.57324311052E+02  0.22555461369E+03  0.23424688848E+03  0.41800000000E+01 0. -1.
         -5    1    3    3    0  502  0.15222325293E+02  0.64887987711E+02  0.16412381950E+03  0.17718992822E+03  0.41800000000E+01 0. -1.
        -11    1    1    2    0    0 -0.19147682838E+02 -0.47887074517E+02  0.57895940949E+02  0.77535447650E+02  0.00000000000E+00 0.  1.
         11    1    1    2    0    0 -0.22402801604E+02  0.40323397858E+02  0.24954629261E+02  0.52446119552E+02  0.00000000000E+00 0. -1.
</event>
<event>
 7    1  0.2594791E-009  0.2234394E+03  0.7561462E-02  0.1131345E+00
         -1   -1    0    0    0  501 -0.00000000000E+00  0.00000000000E+00  0.47465216184E+02  0.47465216184E+02  0.00000000000E+00 0.  1.
          1   -1    0    0  501    0  0.00000000000E+00 -0.00000000000E+00 -0.15999118308E+04  0.15999118308E+04  0.00000000000E+00 0. -1.
         25    2    1    2    0    0 -0.20978754656E+03 -0.25565452522E+02 -0.12114434718E+04  0.12360853376E+04  0.12508904642E+03 0.  0.
          5    1    3    3  502    0 -0.21546052084E+03 -0.36537783330E+02 -0.97138316718E+03  0.99567111816E+03  0.41800000000E+01 0. -1.
         -5    1    3    3    0  502  0.56729742824E+01  0.10972330808E+02 -0.24006030461E+03  0.24041421948E+03  0.41800000000E+01 0. -1.
        -11    1    1    2    0    0  0.14497891991E+03 -0.16061515004E+01 -0.15396186893E+03  0.21148457160E+03  0.00000000000E+00 0.  1.
         11    1    1    2    0    0  0.64808626650E+02  0.27171604022E+02 -0.18704127394E+03  0.19980713778E+03  0.00000000000E+00 0. -1.
</event>
<event>
 7    1  0.2594791E-009  0.1246377E+03  0.7561462E-02  0.1235637E+00
          2   -1    0    0  501    0  0.00000000000E+00  0.00000000000E+00  0.16035150646E+04  0.16035150646E+04  0.00000000000E+00 0. -1.
         -2   -1    0    0    0  501 -0.00000000000E+00 -0.00000000000E+00 -0.13053878566E+02  0.13053878566E+02  0.00000000000E+00 0.  1.
         25    2    1    2    0    0 -0.29040476443E+02 -0.73631959472E+02  0.11744786808E+04  0.11837701445E+04  0.12508624466E+03 0.  0.
          5    1    3    3  502    0  0.13939539468E+02 -0.93988163325E+02  0.91559152187E+03  0.92051800250E+03  0.41800000000E+01 0. -1.
         -5    1    3    3    0  502 -0.42980015912E+02  0.20356203853E+02  0.25888715891E+03  0.26325214197E+03  0.41800000000E+01 0. -1.
        -11    1    1    2    0    0  0.48063164542E+02  0.24934716400E+02  0.11257261770E+03  0.12491758132E+03  0.00000000000E+00 0.  1.
         11    1    1    2    0    0 -0.19022688098E+02  0.48697243072E+02  0.30340988752E+03  0.30788121734E+03  0.00000000000E+00 0. -1.
</event>
<event>
 7    1  0.2594791E-009  0.2462175E+03  0.7561462E-02  0.1115719E+00
         -1   -1    0    0    0  501 -0.00000000000E+00  0.00000000000E+00  0.37899488264E+03  0.37899488264E+03  0.00000000000E+00 0.  1.
          1   -1    0    0  501    0  0.00000000000E+00 -0.00000000000E+00 -0.20049593565E+03  0.20049593565E+03  0.00000000000E+00 0. -1.
         25    2    1    2    0    0 -0.20146823573E+03  0.12350357049E+03  0.18691592113E+03  0.32623126888E+03  0.12508675907E+03 0.  0.
          5    1    3    3  502    0 -0.17636389375E+03  0.13764492762E+03  0.19413271007E+03  0.29623526231E+03  0.41800000000E+01 0. -1.
         -5    1    3    3    0  502 -0.25104341983E+02 -0.14141357130E+02 -0.72167889406E+01  0.29996006576E+02  0.41800000000E+01 0. -1.
        -11    1    1    2    0    0  0.80002721165E+02 -0.71989592417E+02  0.36872384795E+02  0.11376515095E+03  0.00000000000E+00 0.  1.
         11    1    1    2    0    0  0.12146551457E+03 -0.51513978072E+02 -0.45289358931E+02  0.13949439845E+03  0.00000000000E+00 0. -1.
</event>
<event>
 7    1  0.2594791E-009  0.9608319E+02  0.7561462E-02  0.1288755E+00
         -4   -1    0    0    0  501 -0.00000000000E+00  0.00000000000E+00  0.27744143570E+02  0.27744143570E+02  0.00000000000E+00 0.  1.
          4   -1    0    0  501    0  0.00000000000E+00 -0.00000000000E+00 -0.49459770124E+03  0.49459770124E+03  0.00000000000E+00 0. -1.
         25    2    1    2    0    0 -0.38953708869E+02 -0.17073110701E+02 -0.27839821812E+03  0.30815818837E+03  0.12508804365E+03 0.  0.
          5    1    3    3  502    0 -0.30098150831E+02 -0.67018920797E+02 -0.21258403589E+03  0.22495972783E+03  0.41800000000E+01 0. -1.
         -5    1    3    3    0  502 -0.88555580382E+01  0.49945810095E+02 -0.65814182227E+02  0.83198460541E+02  0.41800000000E+01 0. -1.
        -11    1    1    2    0    0 -0.13235424527E+02  0.47251230965E+01  0.38245379951E+01  0.14564695038E+02  0.00000000000E+00 0.  1.
         11    1    1    2    0    0  0.52189133396E+02  0.12347987605E+02 -0.19227987754E+03  0.19961896140E+03  0.00000000000E+00 0. -1.
</event>
<event>
 7    1  0.2594791E-009  0.1145602E+03  0.7561462E-02  0.1252351E+00
         -4   -1    0    0    0  501 -0.00000000000E+00  0.00000000000E+00  0.15464812913E+03  0.15464812913E+03  0.00000000000E+00 0. -1.
          4   -1    0    0  501    0  0.00000000000E+00 -0.00000000000E+00 -0.12323171375E+03  0.12323171375E+03  0.00000000000E+00 0.  1.
         25    2    1    2    0    0  0.65331297537E+02  0.45003368665E+02  0.10441373659E+02  0.14848096968E+03  0.12507635446E+03 0.  0.
          5    1    3    3  502    0  0.34392474339E+01 -0.20004839968E+02  0.47081972490E+02  0.51441292544E+02  0.41800000000E+01 0. -1.
         -5    1    3    3    0  502  0.61892050103E+02  0.65008208633E+02 -0.36640598832E+02  0.97039677135E+02  0.41800000000E+01 0. -1.
        -11    1    1    2    0    0  0.11225800877E+02 -0.40304485871E+02  0.30963510047E+02  0.52050063795E+02  0.00000000000E+00 0. -1.
         11    1    1    2    0    0 -0.76557098414E+02 -0.46988827945E+01 -0.99884683238E+01  0.77348809406E+02  0.00000000000E+00 0.  1.
</event>
<event>
 7    1  0.2594791E-009  0.1550821E+03  0.7561462E-02  0.1194364E+00
          2   -1    0    0  501    0  0.00000000000E+00  0.00000000000E+00  0.37016337322E+03  0.37016337322E+03  0.00000000000E+00 0. -1.
         -2   -1    0    0    0  501 -0.00000000000E+00 -0.00000000000E+00 -0.89485473303E+02  0.89485473303E+02  0.00000000000E+00 0.  1.
         25    2    1    2    0    0 -0.13057956800E+03 -0.37299077354E+02  0.79478316739E+02  0.20101438617E+03  0.12509091041E+03 0.  0.
          5    1    3    3  502    0 -0.96564615613E+02  0.39677725796E+01 -0.94114906830E+01  0.97193192995E+02  0.41800000000E+01 0.  1.
         -5    1    3    3    0  502 -0.34014952382E+02 -0.41266849933E+02  0.88889807422E+02  0.10382119318E+03  0.41800000000E+01 0.  1.
        -11    1    1    2    0    0  0.20204588778E+02  0.44811340660E+02  0.85022082231E+02  0.98209144820E+02  0.00000000000E+00 0.  1.
         11    1    1    2    0    0  0.11037497922E+03 -0.75122633066E+01  0.11617750095E+03  0.16042531553E+03  0.00000000000E+00 0. -1.
</event>
<event>
 7    1  0.2594791E-009  0.7565835E+02  0.7561462E-02  0.1341844E+00
         -2   -1    0    0    0  501 -0.00000000000E+00  0.00000000000E+00  0.18594084281E+03  0.18594084281E+03  0.00000000000E+00 0.  1.
          2   -1    0    0  501    0  0.00000000000E+00 -0.00000000000E+00 -0.65608158849E+02  0.65608158849E+02  0.00000000000E+00 0. -1.
         25    2    1    2    0    0  0.60187235551E+01 -0.17404918751E+02  0.80339285541E+02  0.14980474749E+03  0.12509158780E+03 0.  0.
          5    1    3    3  502    0  0.20934094791E+02  0.32645286267E+02  0.88561894314E+02  0.96771031640E+02  0.41800000000E+01 0. -1.
         -5    1    3    3    0  502 -0.14915371236E+02 -0.50050205018E+02 -0.82226087733E+01  0.53033715846E+02  0.41800000000E+01 0. -1.
        -11    1    1    2    0    0 -0.27106294270E+02 -0.66695093119E+01 -0.19594672149E+02  0.34105493987E+02  0.00000000000E+00 0. -1.
         11    1    1    2    0    0  0.21087570715E+02  0.24074428063E+02  0.59588070573E+02  0.67638760189E+02  0.00000000000E+00 0.  1.
</event>
<event>
 7    1  0.2594791E-009  0.1278211E+03  0.7561462E-02  0.1230725E+00
         -1   -1    0    0    0  501 -0.00000000000E+00  0.00000000000E+00  0.14393476202E+02  0.14393476202E+02  0.00000000000E+00 0.  1.
          1   -1    0    0  501    0  0.00000000000E+00 -0.00000000000E+00 -0.13024034054E+04  0.13024034054E+04  0.00000000000E+00 0. -1.
         25    2    1    2    0    0 -0.47257004282E+02  0.69488279409E+02 -0.65451658640E+03  0.67164019121E+03  0.12508692637E+03 0.  0.
          5    1    3    3  502    0 -0.77169078667E+02  0.27914391181E+02 -0.23424525989E+03  0.24823898589E+03  0.41800000000E+01 0.  1.
         -5    1    3    3    0  502  0.29912074385E+02  0.41573888227E+02 -0.42027132651E+03  0.42340120532E+03  0.41800000000E+01 0.  1.
        -11    1    1    2    0    0 -0.26525166773E+02 -0.16326064650E+02 -0.15510008739E+03  0.15819659278E+03  0.00000000000E+00 0.  1.
         11    1    1    2    0    0  0.73782171055E+02 -0.53162214758E+02 -0.47839325541E+03  0.48696009761E+03  0.00000000000E+00 0. -1.
</event>
<event>
 7    1  0.2594791E-009  0.1278557E+03  0.7561462E-02  0.1230673E+00
         -2   -1    0    0    0  501 -0.00000000000E+00  0.00000000000E+00  0.15629147353E+03  0.15629147353E+03  0.00000000000E+00 0.  1.
          2   -1    0    0  501    0  0.00000000000E+00 -0.00000000000E+00 -0.11205417542E+03  0.11205417542E+03  0.00000000000E+00 0. -1.
         25    2    1    2    0    0  0.65789914912E+02 -0.17941857049E+02 -0.81300779795E+01  0.14269995540E+03  0.12508779302E+03 0.  0.
          5    1    3    3  502    0  0.76818933632E+02 -0.60366987607E+02 -0.11869951176E+02  0.98507308856E+02  0.41800000000E+01 0. -1.
         -5    1    3    3    0  502 -0.11029018720E+02  0.42425130558E+02  0.37398731970E+01  0.44192646541E+02  0.41800000000E+01 0. -1.
        -11    1    1    2    0    0 -0.43585813316E+02  0.55310574452E+02  0.36945434133E+02  0.79523253656E+02  0.00000000000E+00 0.  1.
         11    1    1    2    0    0 -0.22204101596E+02 -0.37368717403E+02  0.15421941963E+02  0.46122439896E+02  0.00000000000E+00 0. -1.
</event>
<event>
 7    1  0.2594791E-009  0.9119966E+02  0.7561462E-02  0.1299972E+00
         -4   -1    0    0    0  501 -0.00000000000E+00  0.00000000000E+00  0.16574127698E+03  0.16574127698E+03  0.00000000000E+00 0.  1.
          4   -1    0    0  501    0  0.00000000000E+00 -0.00000000000E+00 -0.95376153165E+02  0.95376153165E+02  0.00000000000E+00 0. -1.
         25    2    1    2    0    0  0.10194360113E+02  0.30045703977E+01  0.10299639137E+03  0.16239023385E+03  0.12509747797E+03 0.  0.
          5    1    3    3  502    0 -0.27645525919E+02  0.50606570513E+02  0.76591260729E+02  0.95963501929E+02  0.41800000000E+01 0.  1.
         -5    1    3    3    0  502  0.37839886033E+02 -0.47602000116E+02  0.26405130638E+02  0.66426731923E+02  0.41800000000E+01 0.  1.
        -11    1    1    2    0    0  0.26644717067E+02 -0.27839793835E+01  0.20737473328E+02  0.33878227357E+02  0.00000000000E+00 0.  1.
         11    1    1    2    0    0 -0.36839077181E+02 -0.22059101416E+00 -0.53368740885E+02  0.64848968932E+02  0.00000000000E+00 0. -1.
</event>
<event>
 7    1  0.2594791E-009  0.7780724E+02  0.7561462E-02  0.1335392E+00
          3   -1    0    0  501    0  0.00000000000E+00  0.00000000000E+00  0.44275987631E+02  0.44275987631E+02  0.00000000000E+00 0. -1.
         -3   -1    0    0    0  501 -0.00000000000E+00 -0.00000000000E+00 -0.34368724421E+03  0.34368724421E+03  0.00000000000E+00 0.  1.
         25    2    1    2    0    0  0.34750580130E+02 -0.24248302337E+01 -0.10294862249E+03  0.16570806799E+03  0.12508901752E+03 0.  0.
          5    1    3    3  502    0  0.45210435204E+02 -0.35106627317E+02 -0.11546595385E+03  0.12894307904E+03  0.41800000000E+01 0.  1.
         -5    1    3    3    0  502 -0.10459855074E+02  0.32681797083E+02  0.12517331359E+02  0.36764988959E+02  0.41800000000E+01 0.  1.
        -11    1    1    2    0    0 -0.57819604156E+01  0.25793684900E+02 -0.46188599399E+01  0.26834289894E+02  0.00000000000E+00 0. -1.
         11    1    1    2    0    0 -0.28968619714E+02 -0.23368854666E+02 -0.19184377415E+03  0.19542087396E+03  0.00000000000E+00 0.  1.
</event>
<event>
 7    1  0.2594791E-009  0.1118948E+03  0.7561462E-02  0.1257101E+00
         -2   -1    0    0    0  501 -0.00000000000E+00  0.00000000000E+00  0.59738506881E+02  0.59738506881E+02  0.00000000000E+00 0.  1.
          2   -1    0    0  501    0  0.00000000000E+00 -0.00000000000E+00 -0.33703635272E+03  0.33703635272E+03  0.00000000000E+00 0. -1.
         25    2    1    2    0    0 -0.59320087984E+02  0.27440667010E+02 -0.61403873338E+02  0.15391412870E+03  0.12508900954E+03 0.  0.
          5    1    3    3  502    0 -0.42911866023E+02 -0.30485957986E+02  0.16542666477E+02  0.55334926530E+02  0.41800000000E+01 0.  1.
         -5    1    3    3    0  502 -0.16408221962E+02  0.57926624996E+02 -0.77946539815E+02  0.98579202170E+02  0.41800000000E+01 0.  1.
        -11    1    1    2    0    0  0.19271371309E+02 -0.57446163680E+02 -0.10568872034E+03  0.12182591301E+03  0.00000000000E+00 0.  1.
         11    1    1    2    0    0  0.40048716675E+02  0.30005496670E+02 -0.11020525216E+03  0.12103481789E+03  0.00000000000E+00 0. -1.
</event>
<event>
 7    1  0.2594791E-009  0.1016981E+03  0.7561462E-02  0.1276765E+00
         -2   -1    0    0    0  501 -0.00000000000E+00  0.00000000000E+00  0.38705075453E+02  0.38705075453E+02  0.00000000000E+00 0.  1.
          2   -1    0    0  501    0  0.00000000000E+00 -0.00000000000E+00 -0.39601077439E+03  0.39601077439E+03  0.00000000000E+00 0. -1.
         25    2    1    2    0    0  0.53993461851E+02 -0.25614089586E+02 -0.18290492224E+03  0.22950213388E+03  0.12508254621E+03 0.  0.
          5    1    3    3  502    0  0.91153012812E+02 -0.96360710834E+00 -0.14231112954E+03  0.16905540593E+03  0.41800000000E+01 0.  1.
         -5    1    3    3    0  502 -0.37159550961E+02 -0.24650482477E+02 -0.40593792704E+02  0.60446727952E+02  0.41800000000E+01 0.  1.
        -11    1    1    2    0    0 -0.11456886312E+02 -0.72875695601E+01  0.75128039668E+01  0.15518090653E+02  0.00000000000E+00 0.  1.
         11    1    1    2    0    0 -0.42536575539E+02  0.32901659146E+02 -0.18191358066E+03  0.18969562531E+03  0.00000000000E+00 0. -1.
</event>
<event>
 7    1  0.2594791E-009  0.1144377E+03  0.7561462E-02  0.1252566E+00
          2   -1    0    0  501    0  0.00000000000E+00  0.00000000000E+00  0.60226392237E+03  0.60226392237E+03  0.00000000000E+00 0. -1.
         -2   -1    0    0    0  501 -0.00000000000E+00 -0.00000000000E+00 -0.26607074183E+02  0.26607074183E+02  0.00000000000E+00 0.  1.
         25    2    1    2    0    0  0.23343491278E+02 -0.58950613347E+02  0.28264832008E+03  0.31552818558E+03  0.12509144514E+03 0.  0.
          5    1    3    3  502    0  0.16845702078E+02 -0.90514831346E+02  0.26017886996E+03  0.27602034191E+03  0.41800000000E+01 0. -1.
         -5    1    3    3    0  502  0.64977891999E+01  0.31564217999E+02  0.22469450121E+02  0.39507843666E+02  0.41800000000E+01 0. -1.
        -11    1    1    2    0    0 -0.44451497561E+02  0.68007591496E+02  0.26469934077E+03  0.27688753879E+03  0.00000000000E+00 0.  1.
         11    1    1    2    0    0  0.21108006283E+02 -0.90569781494E+01  0.28309187333E+02  0.36455272182E+02  0.00000000000E+00 0. -1.
</event>
<event>
 7    1  0.2594791E-009  0.1311795E+03  0.7561462E-02  0.1225716E+00
          2   -1    0    0  501    0  0.00000000000E+00  0.00000000000E+00  0.10565723488E+03  0.10565723488E+03  0.00000000000E+00 0. -1.
         -2   -1    0    0    0  501 -0.00000000000E+00 -0.00000000000E+00 -0.27701467051E+03  0.27701467051E+03  0.00000000000E+00 0.  1.
         25    2    1    2    0    0 -0.11779629846E+03  0.19199204488E+02 -0.15177820591E+03  0.23006120119E+03  0.12508778965E+03 0.  0.
          5    1    3    3  502    0 -0.17231651896E+02  0.33515200995E+01  0.22098077863E+02  0.28529983513E+02  0.41800000000E+01 0.  1.
         -5    1    3    3    0  502 -0.10056464657E+03  0.15847684389E+02 -0.17387628377E+03  0.20153121767E+03  0.41800000000E+01 0.  1.
        -11    1    1    2    0    0  0.54990351251E+02  0.29999085663E+02 -0.34399201868E+02  0.71464599352E+02  0.00000000000E+00 0.  1.
         11    1    1    2    0    0  0.62805947210E+02 -0.49198290152E+02  0.14819972135E+02  0.81146104853E+02  0.00000000000E+00 0. -1.
</event>
<event>
 7    1  0.2594791E-009  0.2011535E+03  0.7561462E-02  0.1148769E+00
         -1   -1    0    0    0  501 -0.00000000000E+00  0.00000000000E+00  0.48386064603E+03  0.48386064603E+03  0.00000000000E+00 0.  1.
          1   -1    0    0  501    0  0.00000000000E+00 -0.00000000000E+00 -0.13880056527E+03  0.13880056527E+03  0.00000000000E+00 0. -1.
         25    2    1    2    0    0  0.18174077593E+03 -0.15389452118E+02  0.35661250426E+03  0.41962671366E+03  0.12509019044E+03 0.  0.
          5    1    3    3  502    0  0.57324412833E+02  0.51225695903E+02  0.16012133806E+03  0.17766956839E+03  0.41800000000E+01 0. -1.
         -5    1    3    3    0  502  0.12441636310E+03 -0.66615148021E+02  0.19649116620E+03  0.24195714527E+03  0.41800000000E+01 0. -1.
        -11    1    1    2    0    0 -0.11569743611E+03 -0.24239322803E+01  0.34282962737E+02  0.12069421570E+03  0.00000000000E+00 0.  1.
         11    1    1    2    0    0 -0.66043339828E+02  0.17813384398E+02 -0.45835386240E+02  0.82340281947E+02  0.00000000000E+00 0. -1.
</event>
<event>
 7    1  0.2594791E-009  0.1485611E+03  0.7561462E-02  0.1202252E+00
         -2   -1    0    0    0  501 -0.00000000000E+00  0.00000000000E+00  0.24369488655E+02  0.24369488655E+02  0.00000000000E+00 0.  1.
          2   -1    0    0  501    0  0.00000000000E+00 -0.00000000000E+00 -0.10166505069E+04  0.10166505069E+04  0.00000000000E+00 0. -1.
         25    2    1    2    0    0  0.11174029028E+03  0.15307499731E+02 -0.53164025403E+03  0.55768242652E+03  0.12509243432E+03 0.  0.
          5    1    3    3  502    0  0.49341201579E+01 -0.43975829868E+02 -0.10875554041E+03  0.11748812334E+03  0.41800000000E+01 0. -1.
         -5    1    3    3    0  502  0.10680617012E+03  0.59283329599E+02 -0.42288471362E+03  0.44019430319E+03  0.41800000000E+01 0. -1.
        -11    1    1    2    0    0 -0.53622260868E+02  0.25555145950E+02 -0.10470686974E+03  0.12038247761E+03  0.00000000000E+00 0.  1.
         11    1    1    2    0    0 -0.58118029413E+02 -0.40862645681E+02 -0.35593389445E+03  0.36295509140E+03  0.00000000000E+00 0. -1.
</event>
<event>
 7    1  0.2594791E-009  0.1075037E+03  0.7561462E-02  0.1265264E+00
         -1   -1    0    0    0  501 -0.00000000000E+00  0.00000000000E+00  0.15605015854E+03  0.15605015854E+03  0.00000000000E+00 0.  1.
          1   -1    0    0  501    0  0.00000000000E+00 -0.00000000000E+00 -0.85969938098E+02  0.85969938098E+02  0.00000000000E+00 0. -1.
         25    2    1    2    0    0 -0.23894556347E+02 -0.41040578365E+02  0.30065276364E+02  0.13713731200E+03  0.12508973821E+03 0.  0.
          5    1    3    3  502    0 -0.58349131203E+02 -0.60237641478E+02 -0.51104801438E+01  0.84123623141E+02  0.41800000000E+01 0.  1.
         -5    1    3    3    0  502  0.34454574856E+02  0.19197063113E+02  0.35175756508E+02  0.53013688860E+02  0.41800000000E+01 0.  1.
        -11    1    1    2    0    0  0.41872481230E+02  0.54636615523E+02  0.13616004430E+02  0.70170221724E+02  0.00000000000E+00 0.  1.
         11    1    1    2    0    0 -0.17977924883E+02 -0.13596037159E+02  0.26398939651E+02  0.34712562916E+02  0.00000000000E+00 0. -1.
</event>
<event>
 7    1  0.2594791E-009  0.1024572E+03  0.7561462E-02  0.1275212E+00
         -1   -1    0    0    0  501 -0.00000000000E+00  0.00000000000E+00  0.81801667669E+02  0.81801667669E+02  0.00000000000E+00 0.  1.
          1   -1    0    0  501    0  0.00000000000E+00 -0.00000000000E+00 -0.21961073276E+03  0.21961073276E+03  0.00000000000E+00 0. -1.
         25    2    1    2    0    0  0.36066210971E+02 -0.21014006048E+02 -0.86416075428E+00  0.13187533869E+03  0.12509195880E+03 0.  0.
          5    1    3    3  502    0  0.19483833816E+02  0.45137748384E+02 -0.29836157987E+02  0.57660253493E+02  0.41800000000E+01 0. -1.
         -5    1    3    3    0  502  0.16582377155E+02 -0.66151754433E+02  0.28971997233E+02  0.74215085194E+02  0.41800000000E+01 0. -1.
        -11    1    1    2    0    0 -0.18162781517E+02 -0.28948036112E+02 -0.16565687396E+02  0.37977591104E+02  0.00000000000E+00 0. -1.
         11    1    1    2    0    0 -0.17903429454E+02  0.49962042161E+02 -0.12037921694E+03  0.13155947064E+03  0.00000000000E+00 0.  1.
</event>
<event>
 7    1  0.2594791E-009  0.9916729E+02  0.7561462E-02  0.1282057E+00
          1   -1    0    0  501    0  0.00000000000E+00  0.00000000000E+00  0.29426724604E+03  0.29426724604E+03  0.00000000000E+00 0. -1.
         -1   -1    0    0    0  501 -0.00000000000E+00 -0.00000000000E+00 -0.46897740086E+02  0.46897740086E+02  0.00000000000E+00 0.  1.
         25    2    1    2    0    0 -0.16952223470E+02  0.41775308519E+02  0.13638049786E+03  0.19047217182E+03  0.12508978279E+03 0.  0.
          5    1    3    3  502    0 -0.39760071014E+02 -0.17379469522E+02  0.41767904989E+01  0.43793003856E+02  0.41800000000E+01 0. -1.
         -5    1    3    3    0  502  0.22807847545E+02  0.59154778041E+02  0.13220370736E+03  0.14667916797E+03  0.41800000000E+01 0. -1.
        -11    1    1    2    0    0 -0.10566724996E+02  0.20531333945E+02  0.33777929755E+01  0.23336684342E+02  0.00000000000E+00 0.  1.
         11    1    1    2    0    0  0.27518948465E+02 -0.62306642464E+02  0.10761121511E+03  0.12735612996E+03  0.00000000000E+00 0. -1.
</event>
<event>
 7    1  0.2594791E-009  0.7383561E+02  0.7561462E-02  0.1347515E+00
         -1   -1    0    0    0  501 -0.00000000000E+00  0.00000000000E+00  0.37631007539E+02  0.37631007539E+02  0.00000000000E+00 0.  1.
          1   -1    0    0  501    0  0.00000000000E+00 -0.00000000000E+00 -0.33780191482E+03  0.33780191482E+03  0.00000000000E+00 0. -1.
         25    2    1    2    0    0  0.51611062006E+02 -0.59351956487E+01 -0.20684412694E+03  0.24724731426E+03  0.12509121989E+03 0.  0.
          5    1    3    3  502    0  0.32698717901E+02 -0.17742943011E+02  0.16980994675E+01  0.37474979931E+02  0.41800000000E+01 0. -1.
         -5    1    3    3    0  502  0.18912344105E+02  0.11807747362E+02 -0.20854222641E+03  0.20977233433E+03  0.41800000000E+01 0. -1.
        -11    1    1    2    0    0 -0.69379283986E+02  0.71152067739E+01 -0.78566754074E+02  0.10505639466E+03  0.00000000000E+00 0. -1.
         11    1    1    2    0    0  0.17768221979E+02 -0.11800111251E+01 -0.14760026272E+02  0.23129213435E+02  0.00000000000E+00 0.  1.
</event>
<event>
 7    1  0.2594791E-009  0.1038809E+03  0.7561462E-02  0.1272340E+00
         -1   -1    0    0    0  501 -0.00000000000E+00  0.00000000000E+00  0.28855996408E+02  0.28855996408E+02  0.00000000000E+00 0.  1.
          1   -1    0    0  501    0  0.00000000000E+00 -0.00000000000E+00 -0.58418560953E+03  0.58418560953E+03  0.00000000000E+00 0. -1.
         25    2    1    2    0    0 -0.44383137054E+02  0.34780011176E+02 -0.41526267147E+03  0.43734466608E+03  0.12509100128E+03 0.  0.
          5    1    3    3  502    0 -0.56513327961E+02 -0.33734962673E+02 -0.16916872006E+03  0.18156908379E+03  0.41800000000E+01 0.  1.
         -5    1    3    3    0  502  0.12130190907E+02  0.68514973849E+02 -0.24609395141E+03  0.25577558229E+03  0.41800000000E+01 0.  1.
        -11    1    1    2    0    0  0.45972505403E+02 -0.97103997525E+01 -0.14289162543E+03  0.15041868147E+03  0.00000000000E+00 0. -1.
         11    1    1    2    0    0 -0.15893683493E+01 -0.25069611424E+02  0.28246837788E+01  0.25278258388E+02  0.00000000000E+00 0.  1.
</event>
<event>
 7    1  0.2594791E-009  0.1026948E+03  0.7561462E-02  0.1274729E+00
         -2   -1    0    0    0  501 -0.00000000000E+00  0.00000000000E+00  0.49217545322E+02  0.49217545322E+02  0.00000000000E+00 0.  1.
          2   -1    0    0  501    0  0.00000000000E+00 -0.00000000000E+00 -0.26350219425E+03  0.26350219425E+03  0.00000000000E+00 0. -1.
         25    2    1    2    0    0  0.25736786757E+02  0.25066493922E+02 -0.14332647344E+03  0.19359996952E+03  0.12509100248E+03 0.  0.
          5    1    3    3  502    0 -0.39800439409E+02  0.18561743711E+02 -0.11234837398E+03  0.12069897615E+03  0.41800000000E+01 0.  1.
         -5    1    3    3    0  502  0.65537226166E+02  0.65047502102E+01 -0.30978099453E+02  0.72900993372E+02  0.41800000000E+01 0.  1.
        -11    1    1    2    0    0  0.65086683515E+01  0.30419577558E+02 -0.28344457164E+02  0.42084696915E+02  0.00000000000E+00 0. -1.
         11    1    1    2    0    0 -0.32245455108E+02 -0.55486071480E+02 -0.42613718326E+02  0.77035073135E+02  0.00000000000E+00 0.  1.
</event>
<event>
 7    1  0.2594791E-009  0.1174934E+03  0.7561462E-02  0.1247290E+00
         -3   -1    0    0    0  501 -0.00000000000E+00  0.00000000000E+00  0.71148593656E+02  0.71148593656E+02  0.00000000000E+00 0.  1.
          3   -1    0    0  501    0  0.00000000000E+00 -0.00000000000E+00 -0.24370387503E+03  0.24370387503E+03  0.00000000000E+00 0. -1.
         25    2    1    2    0    0 -0.61287097446E+02  0.34818800480E+01 -0.58667541157E+02  0.15118563497E+03  0.12508790523E+03 0.  0.
          5    1    3    3  502    0  0.29924497497E+02 -0.55035927336E+01 -0.50459099615E+02  0.59070789883E+02  0.41800000000E+01 0.  1.
         -5    1    3    3    0  502 -0.91211594943E+02  0.89854727817E+01 -0.82084415423E+01  0.92114845089E+02  0.41800000000E+01 0.  1.
        -11    1    1    2    0    0  0.80699439471E+02 -0.24086547240E+02 -0.10367882217E+03  0.13357342346E+03  0.00000000000E+00 0. -1.
         11    1    1    2    0    0 -0.19412342025E+02  0.20604667192E+02 -0.10208918048E+02  0.30093410254E+02  0.00000000000E+00 0.  1.
</event>
<event>
 7    1  0.2594791E-009  0.1044632E+03  0.7561462E-02  0.1271181E+00
          1   -1    0    0  501    0  0.00000000000E+00  0.00000000000E+00  0.60539891103E+02  0.60539891103E+02  0.00000000000E+00 0. -1.
         -1   -1    0    0    0  501 -0.00000000000E+00 -0.00000000000E+00 -0.20799915128E+03  0.20799915128E+03  0.00000000000E+00 0.  1.
         25    2    1    2    0    0  0.42700493564E+01  0.82221014308E+00 -0.11813771426E+03  0.17211233124E+03  0.12508887114E+03 0.  0.
          5    1    3    3  502    0  0.18179537401E+02  0.56635484054E+02 -0.89952886338E+02  0.10792158169E+03  0.41800000000E+01 0.  1.
         -5    1    3    3    0  502 -0.13909488045E+02 -0.55813273911E+02 -0.28184827920E+02  0.64190749546E+02  0.41800000000E+01 0.  1.
        -11    1    1    2    0    0 -0.43738835838E+02  0.18729095114E+02 -0.18664193269E+02  0.51109851052E+02  0.00000000000E+00 0.  1.
         11    1    1    2    0    0  0.39468786481E+02 -0.19551305257E+02 -0.10657352654E+02  0.45316860098E+02  0.00000000000E+00 0. -1.
</event>
<event>
 7    1  0.2594791E-009  0.2801516E+03  0.7561462E-02  0.1095606E+00
         -1   -1    0    0    0  501 -0.00000000000E+00  0.00000000000E+00  0.97390063505E+02  0.97390063505E+02  0.00000000000E+00 0.  1.
          1   -1    0    0  501    0  0.00000000000E+00 -0.00000000000E+00 -0.92515216363E+03  0.92515216363E+03  0.00000000000E+00 0. -1.
         25    2    1    2    0    0 -0.13475406874E+03 -0.24509659727E+03 -0.39203637386E+03  0.49756330682E+03  0.12508287187E+03 0.  0.
          5    1    3    3  502    0 -0.85172458247E+02 -0.16776846044E+03 -0.34795627517E+03  0.39559024987E+03  0.41800000000E+01 0. -1.
         -5    1    3    3    0  502 -0.49581610495E+02 -0.77328136828E+02 -0.44080098690E+02  0.10197305696E+03  0.41800000000E+01 0. -1.
        -11    1    1    2    0    0  0.57745984017E+02  0.88968142413E+02 -0.24373577403E+03  0.26581395106E+03  0.00000000000E+00 0. -1.
         11    1    1    2    0    0  0.77008084725E+02  0.15612845485E+03 -0.19198995224E+03  0.25916496925E+03  0.00000000000E+00 0.  1.
</event>
<event>
 7    1  0.2594791E-009  0.9131159E+02  0.7561462E-02  0.1299706E+00
          2   -1    0    0  501    0  0.00000000000E+00  0.00000000000E+00  0.90821465798E+03  0.90821465798E+03  0.00000000000E+00 0. -1.
         -2   -1    0    0    0  501 -0.00000000000E+00 -0.00000000000E+00 -0.25806988015E+02  0.25806988015E+02  0.00000000000E+00 0.  1.
         25    2    1    2    0    0 -0.27058888761E+02 -0.72398318935E+02  0.69987398933E+03  0.71515327350E+03  0.12508758373E+03 0.  0.
          5    1    3    3  502    0 -0.12363825585E+02 -0.28504203710E+02  0.63265439289E+03  0.63343066476E+03  0.41800000000E+01 0. -1.
         -5    1    3    3    0  502 -0.14695063176E+02 -0.43894115225E+02  0.67219596439E+02  0.81722608735E+02  0.41800000000E+01 0. -1.
        -11    1    1    2    0    0 -0.24275553582E+02  0.20144084288E+02  0.12874164943E+02  0.34070966474E+02  0.00000000000E+00 0.  1.
         11    1    1    2    0    0  0.51334442343E+02  0.52254234647E+02  0.16965951569E+03  0.18479740602E+03  0.00000000000E+00 0. -1.
</event>
<event>
 7    1  0.2594791E-009  0.9735769E+02  0.7561462E-02  0.1285953E+00
          2   -1    0    0  501    0  0.00000000000E+00  0.00000000000E+00  0.26850740797E+03  0.26850740797E+03  0.00000000000E+00 0. -1.
         -2   -1    0    0    0  501 -0.00000000000E+00 -0.00000000000E+00 -0.51496032516E+02  0.51496032516E+02  0.00000000000E+00 0.  1.
         25    2    1    2    0    0 -0.31479917637E+02 -0.24618166525E+02  0.88065746515E+02  0.15811499901E+03  0.12509091839E+03 0.  0.
          5    1    3    3  502    0 -0.51393671038E+02  0.15584876946E+02  0.98132747528E+02  0.11194510418E+03  0.41800000000E+01 0. -1.
         -5    1    3    3    0  502  0.19913753401E+02 -0.40203043471E+02 -0.10067001014E+02  0.46169894826E+02  0.41800000000E+01 0. -1.
        -11    1    1    2    0    0  0.44886041943E+02  0.49933990980E+02  0.10459450728E+03  0.12429067210E+03  0.00000000000E+00 0. -1.
         11    1    1    2    0    0 -0.13406124305E+02 -0.25315824455E+02  0.24351121657E+02  0.37597769385E+02  0.00000000000E+00 0.  1.
</event>
<event>
 7    1  0.2594791E-009  0.1080195E+03  0.7561462E-02  0.1264282E+00
         -2   -1    0    0    0  501 -0.00000000000E+00  0.00000000000E+00  0.18438270728E+02  0.18438270728E+02  0.00000000000E+00 0.  1.
          2   -1    0    0  501    0  0.00000000000E+00 -0.00000000000E+00 -0.79140225525E+03  0.79140225525E+03  0.00000000000E+00 0. -1.
         25    2    1    2    0    0 -0.48051847201E+02 -0.26417011615E+02 -0.48444197055E+03  0.50332728062E+03  0.12508992792E+03 0.  0.
          5    1    3    3  502    0 -0.10561084991E+02 -0.60650096363E+02 -0.39983779204E+03  0.40457101114E+03  0.41800000000E+01 0. -1.
         -5    1    3    3    0  502 -0.37490762210E+02  0.34233084748E+02 -0.84604178507E+02  0.98756269489E+02  0.41800000000E+01 0. -1.
        -11    1    1    2    0    0  0.49990342366E+02  0.55242424004E+02 -0.20264483831E+03  0.21590667020E+03  0.00000000000E+00 0.  1.
         11    1    1    2    0    0 -0.19384951653E+01 -0.28825412390E+02 -0.85877175660E+02  0.90606575160E+02  0.00000000000E+00 0. -1.
</event>
<event>
 7    1  0.2594791E-009  0.1763449E+03  0.7561462E-02  0.1171388E+00
         -2   -1    0    0    0  501 -0.00000000000E+00  0.00000000000E+00  0.65534554560E+02  0.65534554560E+02  0.00000000000E+00 0. -1.
          2   -1    0    0  501    0  0.00000000000E+00 -0.00000000000E+00 -0.49593325976E+03  0.49593325976E+03  0.00000000000E+00 0.  1.
         25    2    1    2    0    0 -0.13851702761E+03 -0.24668332840E+02 -0.25381360593E+03  0.31601444162E+03  0.12509311400E+03 0.  0.
          5    1    3    3  502    0 -0.68670379946E+02 -0.70584521752E+02 -0.97140900349E+02  0.13838938801E+03  0.41800000000E+01 0. -1.
         -5    1    3    3    0  502 -0.69846647669E+02  0.45916188911E+02 -0.15667270558E+03  0.17762505361E+03  0.41800000000E+01 0. -1.
        -11    1    1    2    0    0  0.76456958405E+02 -0.35227777300E+02 -0.90277578516E+02  0.12343704454E+03  0.00000000000E+00 0. -1.
         11    1    1    2    0    0  0.62060069209E+02  0.59896110140E+02 -0.86307520754E+02  0.12201632816E+03  0.00000000000E+00 0.  1.
</event>
<event>
 7    1  0.2594791E-009  0.9753297E+02  0.7561462E-02  0.1285571E+00
         -1   -1    0    0    0  501 -0.00000000000E+00  0.00000000000E+00  0.72596843977E+02  0.72596843977E+02  0.00000000000E+00 0. -1.
          1   -1    0    0  501    0  0.00000000000E+00 -0.00000000000E+00 -0.23173836484E+03  0.23173836484E+03  0.00000000000E+00 0.  1.
         25    2    1    2    0    0 -0.22610741073E+02 -0.53624205694E+02 -0.13677913021E+03  0.19427845228E+03  0.12509510586E+03 0.  0.
          5    1    3    3  502    0  0.13648571548E+02 -0.74427820692E+02 -0.33647541093E+02  0.82918112737E+02  0.41800000000E+01 0.  1.
         -5    1    3    3    0  502 -0.36259312620E+02  0.20803614998E+02 -0.10313158912E+03  0.11136033954E+03  0.41800000000E+01 0.  1.
        -11    1    1    2    0    0  0.75560941483E+01  0.60321291655E+02  0.20484301082E+02  0.64151066839E+02  0.00000000000E+00 0. -1.
         11    1    1    2    0    0  0.15054646924E+02 -0.66970859608E+01 -0.42846691731E+02  0.45905689698E+02  0.00000000000E+00 0.  1.
</event>
<event>
 7    1  0.2594791E-009  0.1575541E+03  0.7561462E-02  0.1191486E+00
          1   -1    0    0  501    0  0.00000000000E+00  0.00000000000E+00  0.31849079885E+03  0.31849079885E+03  0.00000000000E+00 0. -1.
         -1   -1    0    0    0  501 -0.00000000000E+00 -0.00000000000E+00 -0.11212511271E+03  0.11212511271E+03  0.00000000000E+00 0.  1.
         25    2    1    2    0    0  0.88645583009E+02 -0.78826921257E+02 -0.42808598490E+01  0.17245510874E+03  0.12510282118E+03 0.  0.
          5    1    3    3  502    0  0.11804266943E+03 -0.66416239233E+02 -0.19413976321E+02  0.13689252542E+03  0.41800000000E+01 0. -1.
         -5    1    3    3    0  502 -0.29397086420E+02 -0.12410682024E+02  0.15133116472E+02  0.35562583320E+02  0.41800000000E+01 0. -1.
        -11    1    1    2    0    0 -0.98820124809E+02  0.38877579635E+02  0.13246152910E+03  0.16977320153E+03  0.00000000000E+00 0.  1.
         11    1    1    2    0    0  0.10174541800E+02  0.39949341621E+02  0.78185016892E+02  0.88387601298E+02  0.00000000000E+00 0. -1.
</event>
<event>
 7    1  0.2594791E-009  0.8146046E+02  0.7561462E-02  0.1324957E+00
         -2   -1    0    0    0  501 -0.00000000000E+00  0.00000000000E+00  0.55281542579E+03  0.55281542579E+03  0.00000000000E+00 0.  1.
          2   -1    0    0  501    0  0.00000000000E+00 -0.00000000000E+00 -0.30705728966E+02  0.30705728966E+02  0.00000000000E+00 0. -1.
         25    2    1    2    0    0 -0.97317748247E+01  0.54511822200E+02  0.18777473419E+03  0.23232013892E+03  0.12508816868E+03 0.  0.
          5    1    3    3  502    0  0.12348197741E+02  0.17287645079E+02  0.18759288839E+03  0.18883830341E+03  0.41800000000E+01 0.  1.
         -5    1    3    3    0  502 -0.22079972566E+02  0.37224177121E+02  0.18184579787E+00  0.43481835503E+02  0.41800000000E+01 0.  1.
        -11    1    1    2    0    0 -0.14667739828E+02  0.16867519282E+02  0.28607990107E+02  0.36305273672E+02  0.00000000000E+00 0. -1.
         11    1    1    2    0    0  0.24399514653E+02 -0.71379341482E+02  0.30572697252E+03  0.31489574217E+03  0.00000000000E+00 0.  1.
</event>
<event>
 7    1  0.2594791E-009  0.1350622E+03  0.7561462E-02  0.1220132E+00
          1   -1    0    0  501    0  0.00000000000E+00  0.00000000000E+00  0.50828064059E+02  0.50828064059E+02  0.00000000000E+00 0. -1.
         -1   -1    0    0    0  501 -0.00000000000E+00 -0.00000000000E+00 -0.57673881928E+03  0.57673881928E+03  0.00000000000E+00 0.  1.
         25    2    1    2    0    0 -0.85615504091E+02 -0.44008565971E+02 -0.43932783131E+03  0.46682296987E+03  0.12509185990E+03 0.  0.
          5    1    3    3  502    0  0.10185999695E+02 -0.54607288353E+02 -0.10511187767E+03  0.11896087491E+03  0.41800000000E+01 0. -1.
         -5    1    3    3    0  502 -0.95801503787E+02  0.10598722382E+02 -0.33421595363E+03  0.34786209496E+03  0.41800000000E+01 0. -1.
        -11    1    1    2    0    0  0.55613404624E+02  0.61737669025E+02 -0.19805935424E+02  0.85420522291E+02  0.00000000000E+00 0. -1.
         11    1    1    2    0    0  0.30002099467E+02 -0.17729103053E+02 -0.66776988486E+02  0.75323391179E+02  0.00000000000E+00 0.  1.
</event>
<event>
 7    1  0.2594791E-009  0.1037544E+03  0.7561462E-02  0.1272593E+00
          2   -1    0    0  501    0  0.00000000000E+00  0.00000000000E+00  0.12023192888E+04  0.12023192888E+04  0.00000000000E+00 0. -1.
         -2   -1    0    0    0  501 -0.00000000000E+00 -0.00000000000E+00 -0.17991845483E+02  0.17991845483E+02  0.00000000000E+00 0.  1.
         25    2    1    2    0    0 -0.33157379517E+02  0.55053365369E+01  0.10376601984E+04  0.10457136848E+04  0.12509477438E+03 0.  0.
          5    1    3    3  502    0  0.88688570915E+01  0.54667761050E+02  0.29149647637E+03  0.29674044022E+03  0.41800000000E+01 0. -1.
         -5    1    3    3    0  502 -0.42026236609E+02 -0.49162424513E+02  0.74616372204E+03  0.74897324454E+03  0.41800000000E+01 0. -1.
        -11    1    1    2    0    0  0.52163334389E+02 -0.26773969183E+02  0.12720252127E+03  0.14006548575E+03  0.00000000000E+00 0. -1.
         11    1    1    2    0    0 -0.19005954872E+02  0.21268632646E+02  0.19464723608E+02  0.34531963749E+02  0.00000000000E+00 0.  1.
</event>
<event>
 7    1  0.2594791E-009  0.9583957E+02  0.7561462E-02  0.1289296E+00
         -3   -1    0    0    0  501 -0.00000000000E+00  0.00000000000E+00  0.20206389292E+03  0.20206389292E+03  0.00000000000E+00 0.  1.
          3   -1    0    0  501    0  0.00000000000E+00 -0.00000000000E+00 -0.76598252638E+02  0.76598252638E+02  0.00000000000E+00 0. -1.
         25    2    1    2    0    0 -0.27709473388E+02  0.11296670447E+02  0.12957346382E+03  0.18256785207E+03  0.12508520459E+03 0.  0.
          5    1    3    3  502    0  0.33452582777E+02 -0.10861187873E+02  0.10838339433E+03  0.11402400301E+03  0.41800000000E+01 0.  1.
         -5    1    3    3    0  502 -0.61162056166E+02  0.22157858320E+02  0.21190069489E+02  0.68543849065E+02  0.41800000000E+01 0.  1.
        -11    1    1    2    0    0  0.48346951155E+02  0.21028816826E+02 -0.17376934481E+02  0.55512130882E+02  0.00000000000E+00 0. -1.
         11    1    1    2    0    0 -0.20637477767E+02 -0.32325487274E+02  0.13269110948E+02  0.40582162601E+02  0.00000000000E+00 0.  1.
</event>
<event>
 7    1  0.2594791E-009  0.9019522E+02  0.7561462E-02  0.1302380E+00
          1   -1    0    0  501    0  0.00000000000E+00  0.00000000000E+00  0.96482735989E+02  0.96482735989E+02  0.00000000000E+00 0. -1.
         -1   -1    0    0    0  501 -0.00000000000E+00 -0.00000000000E+00 -0.16553006003E+03  0.16553006003E+03  0.00000000000E+00 0.  1.
         25    2    1    2    0    0 -0.46942847407E+02  0.22061207131E+02 -0.76547650028E+02  0.15555593974E+03  0.12509108634E+03 0.  0.
          5    1    3    3  502    0 -0.19447091041E+02  0.60511142187E+02  0.20659284925E+01  0.63730119561E+02  0.41800000000E+01 0.  1.
         -5    1    3    3    0  502 -0.27495756367E+02 -0.38449935056E+02 -0.78613578520E+02  0.91825820180E+02  0.41800000000E+01 0.  1.
        -11    1    1    2    0    0  0.19750336364E+02 -0.34174579541E+02 -0.36215385867E+02  0.53568011414E+02  0.00000000000E+00 0.  1.
         11    1    1    2    0    0  0.27192511043E+02  0.12113372410E+02  0.43715711855E+02  0.52888844863E+02  0.00000000000E+00 0. -1.
</event>
<event>
 7    1  0.2594791E-009  0.1205794E+03  0.7561462E-02  0.1242144E+00
         -4   -1    0    0    0  501 -0.00000000000E+00  0.00000000000E+00  0.10466357733E+04  0.10466357733E+04  0.00000000000E+00 0.  1.
          4   -1    0    0  501    0  0.00000000000E+00 -0.00000000000E+00 -0.25757385998E+02  0.25757385998E+02  0.00000000000E+00 0. -1.
         25    2    1    2    0    0 -0.10356633295E+03  0.36944690757E+02  0.72370558158E+03  0.74262303374E+03  0.12509318897E+03 0.  0.
          5    1    3    3  502    0  0.43567353840E+01  0.45359467750E+01  0.39577329130E+03  0.39584533150E+03  0.41800000000E+01 0.  1.
         -5    1    3    3    0  502 -0.10792306834E+03  0.32408743982E+02  0.32793229028E+03  0.34677770224E+03  0.41800000000E+01 0.  1.
        -11    1    1    2    0    0  0.13092386471E+02 -0.26771407425E+02  0.17437410722E+03  0.17690236886E+03  0.00000000000E+00 0.  1.
         11    1    1    2    0    0  0.90473946481E+02 -0.10173283332E+02  0.12279869850E+03  0.15286775670E+03  0.00000000000E+00 0. -1.
</event>
<event>
 7    1  0.2594791E-009  0.9934936E+02  0.7561462E-02  0.1281670E+00
         -2   -1    0    0    0  501 -0.00000000000E+00  0.00000000000E+00  0.37086656541E+02  0.37086656541E+02  0.00000000000E+00 0.  1.
          2   -1    0    0  501    0  0.00000000000E+00 -0.00000000000E+00 -0.40267119876E+03  0.40267119876E+03  0.00000000000E+00 0. -1.
         25    2    1    2    0    0 -0.32185868114E+02  0.46210237871E+02 -0.18906406771E+03  0.23359022410E+03  0.12509138622E+03 0.  0.
          5    1    3    3  502    0 -0.39960885062E+02 -0.36172706505E+02 -0.67629954926E+02  0.86583025092E+02  0.41800000000E+01 0.  1.
         -5    1    3    3    0  502  0.77750169475E+01  0.82382944376E+02 -0.12143411278E+03  0.14700719900E+03  0.41800000000E+01 0.  1.
        -11    1    1    2    0    0 -0.11050846328E+00 -0.20501250377E+02  0.40851371777E+01  0.20904588608E+02  0.00000000000E+00 0.  1.
         11    1    1    2    0    0  0.32296376578E+02 -0.25708987494E+02 -0.18060561169E+03  0.18526304260E+03  0.00000000000E+00 0. -1.
</event>
<event>
 7    1  0.2594791E-009  0.1282925E+03  0.7561462E-02  0.1230012E+00
         -1   -1    0    0    0  501 -0.00000000000E+00  0.00000000000E+00  0.54847012759E+02  0.54847012759E+02  0.00000000000E+00 0.  1.
          1   -1    0    0  501    0  0.00000000000E+00 -0.00000000000E+00 -0.36921915085E+03  0.36921915085E+03  0.00000000000E+00 0. -1.
         25    2    1    2    0    0 -0.37946345101E+02 -0.83461216282E+02 -0.18741896020E+03  0.24326858765E+03  0.12509212351E+03 0.  0.
          5    1    3    3  502    0  0.20008654594E+02 -0.68127798751E+02 -0.16402116505E+03  0.17877963588E+03  0.41800000000E+01 0.  1.
         -5    1    3    3    0  502 -0.57954999695E+02 -0.15333417531E+02 -0.23397795156E+02  0.64488951775E+02  0.41800000000E+01 0.  1.
        -11    1    1    2    0    0  0.25845726021E+02 -0.12451761679E+02 -0.48265902660E+02  0.56148421902E+02  0.00000000000E+00 0.  1.
         11    1    1    2    0    0  0.12100619080E+02  0.95912977961E+02 -0.78687275226E+02  0.12464915405E+03  0.00000000000E+00 0. -1.
</event>
<event>
 7    1  0.2594791E-009  0.1089466E+03  0.7561462E-02  0.1262533E+00
         -2   -1    0    0    0  501 -0.00000000000E+00  0.00000000000E+00  0.16548366122E+03  0.16548366122E+03  0.00000000000E+00 0.  1.
          2   -1    0    0  501    0  0.00000000000E+00 -0.00000000000E+00 -0.12560010886E+03  0.12560010886E+03  0.00000000000E+00 0. -1.
         25    2    1    2    0    0 -0.25267211437E+02  0.67403051443E+02 -0.42358203847E+02  0.15041108201E+03  0.12509065849E+03 0.  0.
          5    1    3    3  502    0  0.33206528704E+02  0.62667610738E+02  0.99040127433E+01  0.71731895644E+02  0.41800000000E+01 0. -1.
         -5    1    3    3    0  502 -0.58473740142E+02  0.47354407048E+01 -0.52262216591E+02  0.78679186370E+02  0.41800000000E+01 0. -1.
        -11    1    1    2    0    0  0.40939122011E+02 -0.47728055694E+02  0.93851100535E+02  0.11296905808E+03  0.00000000000E+00 0.  1.
         11    1    1    2    0    0 -0.15671910573E+02 -0.19674995749E+02 -0.11609344323E+02  0.27703629985E+02  0.00000000000E+00 0. -1.
</event>
<event>
 7    1  0.2594791E-009  0.1716666E+03  0.7561462E-02  0.1176121E+00
          2   -1    0    0  501    0  0.00000000000E+00  0.00000000000E+00  0.97751033709E+02  0.97751033709E+02  0.00000000000E+00 0. -1.
         -2   -1    0    0    0  501 -0.00000000000E+00 -0.00000000000E+00 -0.39029978457E+03  0.39029978457E+03  0.00000000000E+00 0.  1.
         25    2    1    2    0    0 -0.16090738080E+03  0.22050579807E+02 -0.15393709696E+03  0.25636387150E+03  0.12509353109E+03 0.  0.
          5    1    3    3  502    0 -0.31872129127E+02 -0.28332025130E+01  0.20271422436E+02  0.38108563594E+02  0.41800000000E+01 0. -1.
         -5    1    3    3    0  502 -0.12903525168E+03  0.24883782320E+02 -0.17420851940E+03  0.21825530790E+03  0.41800000000E+01 0. -1.
        -11    1    1    2    0    0 -0.74064463285E+01 -0.76620803575E+01  0.31993043916E+01  0.11126476136E+02  0.00000000000E+00 0. -1.
         11    1    1    2    0    0  0.16831382713E+03 -0.14388499450E+02 -0.14181095829E+03  0.22056047065E+03  0.00000000000E+00 0.  1.
</event>
<event>
 7    1  0.2594791E-009  0.9162511E+02  0.7561462E-02  0.1298963E+00
          1   -1    0    0  501    0  0.00000000000E+00  0.00000000000E+00  0.24246870238E+02  0.24246870238E+02  0.00000000000E+00 0. -1.
         -1   -1    0    0    0  501 -0.00000000000E+00 -0.00000000000E+00 -0.40753979781E+03  0.40753979781E+03  0.00000000000E+00 0.  1.
         25    2    1    2    0    0 -0.58555537492E+00  0.22901256739E+02 -0.22110244215E+03  0.25506362810E+03  0.12508538692E+03 0.  0.
          5    1    3    3  502    0  0.30019156852E+01 -0.44905883223E+02 -0.35775367293E+02  0.57644593422E+02  0.41800000000E+01 0.  1.
         -5    1    3    3    0  502 -0.35874710601E+01  0.67807139962E+02 -0.18532707486E+03  0.19741903468E+03  0.41800000000E+01 0.  1.
        -11    1    1    2    0    0  0.16315059205E+02 -0.42129072524E+02 -0.98824895127E+02  0.10866185994E+03  0.00000000000E+00 0. -1.
         11    1    1    2    0    0 -0.15729503830E+02  0.19227815786E+02 -0.63365590297E+02  0.68061180010E+02  0.00000000000E+00 0.  1.
</event>
<event>
 7    1  0.2594791E-009  0.8893885E+02  0.7561462E-02  0.1305442E+00
         -1   -1    0    0    0  501 -0.00000000000E+00  0.00000000000E+00  0.63028879105E+02  0.63028879105E+02  0.00000000000E+00 0.  1.
          1   -1    0    0  501    0  0.00000000000E+00 -0.00000000000E+00 -0.23052114278E+03  0.23052114278E+03  0.00000000000E+00 0. -1.
         25    2    1    2    0    0 -0.17845154320E+02 -0.21196821155E+02 -0.16510254481E+03  0.20898331875E+03  0.12508965765E+03 0.  0.
          5    1    3    3  502    0 -0.41628483183E+02  0.23375433469E+02 -0.14786793097E+03  0.15544046742E+03  0.41800000000E+01 0.  1.
         -5    1    3    3    0  502  0.23783328863E+02 -0.44572254624E+02 -0.17234613840E+02  0.53542851327E+02  0.41800000000E+01 0.  1.
        -11    1    1    2    0    0  0.46599869900E+02  0.19311675740E+02  0.12730130562E+02  0.52024464617E+02  0.00000000000E+00 0.  1.
         11    1    1    2    0    0 -0.28754715579E+02  0.18851454147E+01 -0.15119849425E+02  0.32542238520E+02  0.00000000000E+00 0. -1.
</event>
<event>
 7    1  0.2594791E-009  0.1148341E+03  0.7561462E-02  0.1251871E+00
          2   -1    0    0  501    0  0.00000000000E+00  0.00000000000E+00  0.60928087559E+03  0.60928087559E+03  0.00000000000E+00 0. -1.
         -2   -1    0    0    0  501 -0.00000000000E+00 -0.00000000000E+00 -0.33293757239E+02  0.33293757239E+02  0.00000000000E+00 0.  1.
         25    2    1    2    0    0 -0.28332921421E+02  0.40376351836E+02  0.48965633439E+03  0.50778263964E+03  0.12508748572E+03 0.  0.
          5    1    3    3  502    0  0.45635038038E+02  0.17767389637E+02  0.27987067008E+03  0.28415365773E+03  0.41800000000E+01 0. -1.
         -5    1    3    3    0  502 -0.73967959459E+02  0.22608962199E+02  0.20978566431E+03  0.22362898191E+03  0.41800000000E+01 0. -1.
        -11    1    1    2    0    0  0.56186233326E+02 -0.27606999026E+01  0.40780752552E+02  0.69480817914E+02  0.00000000000E+00 0.  1.
         11    1    1    2    0    0 -0.27853311905E+02 -0.37615651934E+02  0.45550031400E+02  0.65311175269E+02  0.00000000000E+00 0. -1.
</event>
<event>
 7    1  0.2594791E-009  0.1164630E+03  0.7561462E-02  0.1249049E+00
          2   -1    0    0  501    0  0.00000000000E+00  0.00000000000E+00  0.51668181104E+02  0.51668181104E+02  0.00000000000E+00 0. -1.
         -2   -1    0    0    0  501 -0.00000000000E+00 -0.00000000000E+00 -0.38930178506E+03  0.38930178506E+03  0.00000000000E+00 0.  1.
         25    2    1    2    0    0 -0.40819240236E+02 -0.25775536182E+02 -0.29029435333E+03  0.31976301984E+03  0.12508792365E+03 0.  0.
          5    1    3    3  502    0  0.36225545316E+02  0.87177102667E+01 -0.16090874683E+03  0.16521920534E+03  0.41800000000E+01 0. -1.
         -5    1    3    3    0  502 -0.77044785553E+02 -0.34493246448E+02 -0.12938560650E+03  0.15454381450E+03  0.41800000000E+01 0. -1.
        -11    1    1    2    0    0 -0.21320402951E+02  0.41641547143E+02 -0.26535578318E+02  0.53783965521E+02  0.00000000000E+00 0. -1.
         11    1    1    2    0    0  0.62139643187E+02 -0.15866010962E+02 -0.20803672309E+02  0.67422980806E+02  0.00000000000E+00 0.  1.
</event>
<event>
 7    1  0.2594791E-009  0.1548157E+03  0.7561462E-02  0.1194677E+00
         -1   -1    0    0    0  501 -0.00000000000E+00  0.00000000000E+00  0.19745915178E+03  0.19745915178E+03  0.00000000000E+00 0.  1.
          1   -1    0    0  501    0  0.00000000000E+00 -0.00000000000E+00 -0.26535526314E+03  0.26535526314E+03  0.00000000000E+00 0. -1.
         25    2    1    2    0    0  0.11652226385E+03 -0.39403797699E+02 -0.19612867871E+03  0.26314268219E+03  0.12509002890E+03 0.  0.
          5    1    3    3  502    0  0.13390887399E+03 -0.10192831990E+02 -0.12200513299E+03  0.18148885704E+03  0.41800000000E+01 0.  1.
         -5    1    3    3    0  502 -0.17386610137E+02 -0.29210965709E+02 -0.74123545722E+02  0.81653825141E+02  0.41800000000E+01 0.  1.
        -11    1    1    2    0    0 -0.34514686492E+02 -0.19877967076E+02  0.48850288463E+01  0.40128053348E+02  0.00000000000E+00 0. -1.
         11    1    1    2    0    0 -0.82007577357E+02  0.59281764775E+02  0.12334753850E+03  0.15954367939E+03  0.00000000000E+00 0.  1.
</event>
<event>
 7    1  0.2594791E-009  0.1234609E+03  0.7561462E-02  0.1237494E+00
          4   -1    0    0  501    0  0.00000000000E+00  0.00000000000E+00  0.75302839291E+02  0.75302839291E+02  0.00000000000E+00 0. -1.
         -4   -1    0    0    0  501 -0.00000000000E+00 -0.00000000000E+00 -0.25204250915E+03  0.25204250915E+03  0.00000000000E+00 0.  1.
         25    2    1    2    0    0  0.70135102376E+02  0.28346136015E+02 -0.14591678136E+03  0.20654830637E+03  0.12509220507E+03 0.  0.
          5    1    3    3  502    0  0.14403216930E+02 -0.44575282019E+02 -0.82326090254E+02  0.94812794292E+02  0.41800000000E+01 0.  1.
         -5    1    3    3    0  502  0.55731885446E+02  0.72921418034E+02 -0.63590691109E+02  0.11173551208E+03  0.41800000000E+01 0.  1.
        -11    1    1    2    0    0 -0.12655722784E+02 -0.46140880484E+02 -0.36757000378E+02  0.60334279210E+02  0.00000000000E+00 0. -1.
         11    1    1    2    0    0 -0.57479379592E+02  0.17794744470E+02  0.59341118813E+01  0.60462762861E+02  0.00000000000E+00 0.  1.
</event>
<event>
 7    1  0.2594791E-009  0.1071311E+03  0.7561462E-02  0.1265977E+00
         -1   -1    0    0    0  501 -0.00000000000E+00  0.00000000000E+00  0.63954276489E+02  0.63954276489E+02  0.00000000000E+00 0.  1.
          1   -1    0    0  501    0  0.00000000000E+00 -0.00000000000E+00 -0.27354805519E+03  0.27354805519E+03  0.00000000000E+00 0. -1.
         25    2    1    2    0    0 -0.60123014322E+02 -0.39149354513E+02 -0.86932115699E+02  0.16838111673E+03  0.12509020314E+03 0.  0.
          5    1    3    3  502    0 -0.33852436020E+02 -0.59541780089E+02 -0.10860471785E+03  0.12846660321E+03  0.41800000000E+01 0.  1.
         -5    1    3    3    0  502 -0.26270578302E+02  0.20392425576E+02  0.21672602153E+02  0.39914513517E+02  0.41800000000E+01 0.  1.
        -11    1    1    2    0    0 -0.16083418217E+02 -0.12238650707E+02 -0.70056781113E+01  0.21390194914E+02  0.00000000000E+00 0.  1.
         11    1    1    2    0    0  0.76206432539E+02  0.51388005219E+02 -0.11565598489E+03  0.14773102004E+03  0.00000000000E+00 0. -1.
</event>
<event>
 7    1  0.2594791E-009  0.1352254E+03  0.7561462E-02  0.1219902E+00
          1   -1    0    0  501    0  0.00000000000E+00  0.00000000000E+00  0.14771371316E+03  0.14771371316E+03  0.00000000000E+00 0. -1.
         -1   -1    0    0    0  501 -0.00000000000E+00 -0.00000000000E+00 -0.21728238526E+03  0.21728238526E+03  0.00000000000E+00 0.  1.
         25    2    1    2    0    0  0.78517152497E+02 -0.56603097634E+02  0.69836130531E+02  0.17289817821E+03  0.12509133065E+03 0.  0.
          5    1    3    3  502    0  0.77026029816E+02  0.64302366941E+01  0.77148232674E+02  0.10928714205E+03  0.41800000000E+01 0.  1.
         -5    1    3    3    0  502  0.14911226811E+01 -0.63033334328E+02 -0.73121021433E+01  0.63611036158E+02  0.41800000000E+01 0.  1.
        -11    1    1    2    0    0 -0.70458390397E+02 -0.22089105589E+01 -0.57648310317E+02  0.91063668636E+02  0.00000000000E+00 0.  1.
         11    1    1    2    0    0 -0.80587621007E+01  0.58812008193E+02 -0.81756492316E+02  0.10103425157E+03  0.00000000000E+00 0. -1.
</event>
<event>
 7    1  0.2594791E-009  0.1040220E+03  0.7561462E-02  0.1272058E+00
         -1   -1    0    0    0  501 -0.00000000000E+00  0.00000000000E+00  0.45063254025E+02  0.45063254025E+02  0.00000000000E+00 0.  1.
          1   -1    0    0  501    0  0.00000000000E+00 -0.00000000000E+00 -0.39513421294E+03  0.39513421294E+03  0.00000000000E+00 0. -1.
         25    2    1    2    0    0  0.46280450714E+02 -0.59633006809E+02 -0.23266664239E+03  0.27473434345E+03  0.12508883790E+03 0.  0.
          5    1    3    3  502    0  0.93626267400E+01  0.32041378732E+02 -0.17504230983E+02  0.37923333619E+02  0.41800000000E+01 0. -1.
         -5    1    3    3    0  502  0.36917823975E+02 -0.91674385540E+02 -0.21516241141E+03  0.23681100983E+03  0.41800000000E+01 0. -1.
        -11    1    1    2    0    0 -0.14524417425E+02  0.18619869132E+02  0.11681190820E+02  0.26345937960E+02  0.00000000000E+00 0.  1.
         11    1    1    2    0    0 -0.31756033290E+02  0.41013137676E+02 -0.12908550734E+03  0.13911718556E+03  0.00000000000E+00 0. -1.
</event>
<event>
 7    1  0.2594791E-009  0.1231178E+03  0.7561462E-02  0.1238041E+00
          2   -1    0    0  501    0  0.00000000000E+00  0.00000000000E+00  0.65474696823E+03  0.65474696823E+03  0.00000000000E+00 0. -1.
         -2   -1    0    0    0  501 -0.00000000000E+00 -0.00000000000E+00 -0.36853937314E+02  0.36853937314E+02  0.00000000000E+00 0.  1.
         25    2    1    2    0    0  0.64537278330E+02 -0.73027020103E+02  0.45639654201E+03  0.48316149820E+03  0.12509685778E+03 0.  0.
          5    1    3    3  502    0  0.94366572415E+02 -0.41961748584E+02  0.22301743583E+03  0.24580497843E+03  0.41800000000E+01 0. -1.
         -5    1    3    3    0  502 -0.29829294085E+02 -0.31065271518E+02  0.23337910618E+03  0.23735651978E+03  0.41800000000E+01 0. -1.
        -11    1    1    2    0    0 -0.37403081808E+02  0.56737879703E+02  0.16316106083E+03  0.17674758638E+03  0.00000000000E+00 0. -1.
         11    1    1    2    0    0 -0.27134196522E+02  0.16289140400E+02 -0.16645719242E+01  0.31691820957E+02  0.00000000000E+00 0.  1.
</event>
<event>
 7    1  0.2594791E-009  0.9688777E+02  0.7561462E-02  0.1286980E+00
          2   -1    0    0  501    0  0.00000000000E+00  0.00000000000E+00  0.27559671042E+03  0.27559671042E+03  0.00000000000E+00 0.  1.
         -2   -1    0    0    0  501 -0.00000000000E+00 -0.00000000000E+00 -0.86139342843E+02  0.86139342843E+02  0.00000000000E+00 0. -1.
         25    2    1    2    0    0  0.63725440174E+01 -0.37534647577E+02 -0.27752207511E+02  0.13367119834E+03  0.12509334577E+03 0.  0.
          5    1    3    3  502    0  0.30447384362E+02  0.36725881797E+02 -0.28039324844E+02  0.55493330644E+02  0.41800000000E+01 0. -1.
         -5    1    3    3    0  502 -0.24074840345E+02 -0.74260529374E+02  0.28711733266E+00  0.78177867692E+02  0.41800000000E+01 0. -1.
        -11    1    1    2    0    0 -0.18545111142E+02  0.48125309072E+02  0.14025630271E+03  0.14943827144E+03  0.00000000000E+00 0. -1.
         11    1    1    2    0    0  0.12172567125E+02 -0.10590661494E+02  0.76953272380E+02  0.78626583489E+02  0.00000000000E+00 0.  1.
</event>
<event>
 6    1  0.2594791E-009  0.1318451E+03  0.7561462E-02  0.1224743E+00
         -1   -1    0    0    0  501 -0.00000000000E+00  0.00000000000E+00  0.56859438068E+02  0.56859438068E+02  0.00000000000E+00 0.  1.
          1   -1    0    0  501    0  0.00000000000E+00 -0.00000000000E+00 -0.47713918030E+03  0.47713918030E+03  0.00000000000E+00 0. -1.
          5    1    1    2  502    0 -0.87590091266E+02  0.49058145447E+02 -0.30083618873E+02  0.10488671149E+03  0.41800000000E+01 0. -1.
         -5    1    1    2    0  502 -0.11640771056E+02  0.10395864952E+02 -0.12251580565E+03  0.12357660213E+03  0.41800000000E+01 0. -1.
        -11    1    1    2    0    0  0.32173194075E+02  0.23896121094E+02 -0.81131560654E+02  0.90490160540E+02  0.00000000000E+00 0. -1.
         11    1    1    2    0    0  0.67057668247E+02 -0.83350131492E+02 -0.18654875705E+03  0.21504514421E+03  0.00000000000E+00 0.  1.
</event>
<event>
 7    1  0.2594791E-009  0.1072602E+03  0.7561462E-02  0.1265729E+00
          2   -1    0    0  501    0  0.00000000000E+00  0.00000000000E+00  0.29060866209E+03  0.29060866209E+03  0.00000000000E+00 0.  1.
         -2   -1    0    0    0  501 -0.00000000000E+00 -0.00000000000E+00 -0.60887841055E+02  0.60887841055E+02  0.00000000000E+00 0. -1.
         25    2    1    2    0    0  0.54838981522E+02  0.79421652096E+01  0.58384889550E+02  0.14875297359E+03  0.12509300517E+03 0.  0.
          5    1    3    3  502    0  0.61905129429E+02 -0.47826880610E+02  0.46639540852E+02  0.91172225647E+02  0.41800000000E+01 0. -1.
         -5    1    3    3    0  502 -0.70661479067E+01  0.55769045820E+02  0.11745348698E+02  0.57580747945E+02  0.41800000000E+01 0. -1.
        -11    1    1    2    0    0 -0.54250446618E+01  0.21578519674E+02  0.26836317006E+00  0.22251643528E+02  0.00000000000E+00 0. -1.
         11    1    1    2    0    0 -0.49413936860E+02 -0.29520684884E+02  0.17106756831E+03  0.18049188602E+03  0.00000000000E+00 0.  1.
</event>
<event>
 7    1  0.2594791E-009  0.1040299E+03  0.7561462E-02  0.1272043E+00
         -2   -1    0    0    0  501 -0.00000000000E+00  0.00000000000E+00  0.74296989680E+02  0.74296989680E+02  0.00000000000E+00 0.  1.
          2   -1    0    0  501    0  0.00000000000E+00 -0.00000000000E+00 -0.30160395105E+03  0.30160395105E+03  0.00000000000E+00 0. -1.
         25    2    1    2    0    0  0.73729735328E+02 -0.25718476556E+02 -0.20660750907E+03  0.25383395996E+03  0.12508997769E+03 0.  0.
          5    1    3    3  502    0 -0.32357424277E+01 -0.83872397213E+01  0.15328793649E+02  0.18255413826E+02  0.41800000000E+01 0. -1.
         -5    1    3    3    0  502  0.76965477755E+02 -0.17331236835E+02 -0.22193630272E+03  0.23557854614E+03  0.41800000000E+01 0. -1.
        -11    1    1    2    0    0 -0.13400557689E+01 -0.28605110909E+02 -0.12319367693E+02  0.31173946492E+02  0.00000000000E+00 0.  1.
         11    1    1    2    0    0 -0.72389679559E+02  0.54323587465E+02 -0.83800846104E+01  0.90893034275E+02  0.00000000000E+00 0. -1.
</event>
<event>
 7    1  0.2594791E-009  0.8683869E+02  0.7561462E-02  0.1310693E+00
         -1   -1    0    0    0  501 -0.00000000000E+00  0.00000000000E+00  0.25665189244E+02  0.25665189244E+02  0.00000000000E+00 0.  1.
          1   -1    0    0  501    0  0.00000000000E+00 -0.00000000000E+00 -0.54424178942E+03  0.54424178942E+03  0.00000000000E+00 0. -1.
         25    2    1    2    0    0 -0.42747878199E+01  0.40620008077E+02 -0.34226255948E+03  0.36668856852E+03  0.12509431560E+03 0.  0.
          5    1    3    3  502    0 -0.76862791371E+01  0.55868320295E+02 -0.34558081250E+03  0.35017698163E+03  0.41800000000E+01 0.  1.
         -5    1    3    3    0  502  0.34114913171E+01 -0.15248312218E+02  0.33182530153E+01  0.16511586888E+02  0.41800000000E+01 0.  1.
        -11    1    1    2    0    0  0.25701925006E+02  0.22585028319E+02 -0.55606815041E+02  0.65290047727E+02  0.00000000000E+00 0.  1.
         11    1    1    2    0    0 -0.21427137186E+02 -0.63205036396E+02 -0.12070722565E+03  0.13792836242E+03  0.00000000000E+00 0. -1.
</event>
<event>
 7    1  0.2594791E-009  0.1008212E+03  0.7561462E-02  0.1278578E+00
         -1   -1    0    0    0  501 -0.00000000000E+00  0.00000000000E+00  0.15750036782E+03  0.15750036782E+03  0.00000000000E+00 0.  1.
          1   -1    0    0  501    0  0.00000000000E+00 -0.00000000000E+00 -0.95107996077E+02  0.95107996077E+02  0.00000000000E+00 0. -1.
         25    2    1    2    0    0  0.60661451597E+02  0.59638375315E+01  0.48278483439E+02  0.14728672316E+03  0.12508871966E+03 0.  0.
          5    1    3    3  502    0 -0.19606845399E+02  0.38444371628E+02  0.42005534088E+02  0.60368331022E+02  0.41800000000E+01 0. -1.
         -5    1    3    3    0  502  0.80268296996E+02 -0.32480534096E+02  0.62729493513E+01  0.86918392135E+02  0.41800000000E+01 0. -1.
        -11    1    1    2    0    0 -0.45061089955E+02 -0.21189315786E+02  0.45269976293E+02  0.67296802933E+02  0.00000000000E+00 0.  1.
         11    1    1    2    0    0 -0.15600361642E+02  0.15225478254E+02 -0.31156087990E+02  0.38024837807E+02  0.00000000000E+00 0. -1.
</event>
<event>
 7    1  0.2594791E-009  0.9957001E+02  0.7561462E-02  0.1281203E+00
         -2   -1    0    0    0  501 -0.00000000000E+00  0.00000000000E+00  0.93809570999E+02  0.93809570999E+02  0.00000000000E+00 0.  1.
          2   -1    0    0  501    0  0.00000000000E+00 -0.00000000000E+00 -0.22832922970E+03  0.22832922970E+03  0.00000000000E+00 0. -1.
         25    2    1    2    0    0  0.39875734819E+02  0.28589219717E+02 -0.16969950177E+03  0.21645812334E+03  0.12509508602E+03 0.  0.
          5    1    3    3  502    0 -0.35617986519E+02 -0.58484613514E+00 -0.97813448563E+01  0.37177010582E+02  0.41800000000E+01 0.  1.
         -5    1    3    3    0  502  0.75493721338E+02  0.29174065852E+02 -0.15991815692E+03  0.17928111276E+03  0.41800000000E+01 0.  1.
        -11    1    1    2    0    0  0.18584577918E+02 -0.55720933142E+01 -0.15601121568E+02  0.24896380349E+02  0.00000000000E+00 0. -1.
         11    1    1    2    0    0 -0.58460312737E+02 -0.23017126402E+02  0.50780964642E+02  0.80784297008E+02  0.00000000000E+00 0.  1.
</event>
<event>
 7    1  0.2594791E-009  0.9021599E+02  0.7561462E-02  0.1302329E+00
         -1   -1    0    0    0  501 -0.00000000000E+00  0.00000000000E+00  0.29207312801E+03  0.29207312801E+03  0.00000000000E+00 0.  1.
          1   -1    0    0  501    0  0.00000000000E+00 -0.00000000000E+00 -0.55139336521E+02  0.55139336521E+02  0.00000000000E+00 0. -1.
         25    2    1    2    0    0 -0.37750417677E+02 -0.30614425540E+02  0.18520244442E+03  0.22871588385E+03  0.12509465625E+03 0.  0.
          5    1    3    3  502    0  0.10720377835E+02  0.42279565542E+02  0.41216275607E+02  0.60155980071E+02  0.41800000000E+01 0.  1.
         -5    1    3    3    0  502 -0.48470795513E+02 -0.72893991082E+02  0.14398616881E+03  0.16855990378E+03  0.41800000000E+01 0.  1.
        -11    1    1    2    0    0  0.22339260166E+02  0.14247380750E+02 -0.26275302888E+02  0.37315170438E+02  0.00000000000E+00 0. -1.
         11    1    1    2    0    0  0.15411157512E+02  0.16367044790E+02  0.78006649962E+02  0.81181410245E+02  0.00000000000E+00 0.  1.
</event>
<event>
 7    1  0.2594791E-009  0.9602725E+02  0.7561462E-02  0.1288879E+00
          1   -1    0    0  501    0  0.00000000000E+00  0.00000000000E+00  0.65040094151E+03  0.65040094151E+03  0.00000000000E+00 0. -1.
         -1   -1    0    0    0  501 -0.00000000000E+00 -0.00000000000E+00 -0.22627616947E+02  0.22627616947E+02  0.00000000000E+00 0.  1.
         25    2    1    2    0    0 -0.12192234051E+02 -0.34185387374E+02  0.46661654693E+03  0.48445423102E+03  0.12509040249E+03 0.  0.
          5    1    3    3  502    0  0.39459078098E+02  0.13415124346E+02  0.69454842925E+02  0.81107533628E+02  0.41800000000E+01 0.  1.
         -5    1    3    3    0  502 -0.51651312148E+02 -0.47600511719E+02  0.39716170401E+03  0.40334669739E+03  0.41800000000E+01 0.  1.
        -11    1    1    2    0    0  0.38312831044E+02  0.20166544636E+01  0.13313060758E+03  0.13854854237E+03  0.00000000000E+00 0. -1.
         11    1    1    2    0    0 -0.26120596993E+02  0.32168732910E+02  0.28026170048E+02  0.50025785070E+02  0.00000000000E+00 0.  1.
</event>
<event>
 7    1  0.2594791E-009  0.1018414E+03  0.7561462E-02  0.1276471E+00
         -2   -1    0    0    0  501 -0.00000000000E+00  0.00000000000E+00  0.35988428141E+02  0.35988428141E+02  0.00000000000E+00 0.  1.
          2   -1    0    0  501    0  0.00000000000E+00 -0.00000000000E+00 -0.33957888570E+03  0.33957888570E+03  0.00000000000E+00 0. -1.
         25    2    1    2    0    0 -0.76880983597E+01  0.66858938150E+01 -0.20907252988E+03  0.24384969509E+03  0.12509013956E+03 0.  0.
          5    1    3    3  502    0 -0.57483501863E+02  0.20814755062E+02 -0.16404690030E+03  0.17511843110E+03  0.41800000000E+01 0. -1.
         -5    1    3    3    0  502  0.49795403503E+02 -0.14128861247E+02 -0.45025629578E+02  0.68731263986E+02  0.41800000000E+01 0. -1.
        -11    1    1    2    0    0 -0.24535560166E+02  0.31873412681E+02 -0.52992756183E+02  0.66529244370E+02  0.00000000000E+00 0.  1.
         11    1    1    2    0    0  0.32223658525E+02 -0.38559306496E+02 -0.41525171498E+02  0.65188374379E+02  0.00000000000E+00 0. -1.
</event>
<event>
 7    1  0.2594791E-009  0.1264502E+03  0.7561462E-02  0.1232820E+00
         -1   -1    0    0    0  501 -0.00000000000E+00  0.00000000000E+00  0.27533968175E+03  0.27533968175E+03  0.00000000000E+00 0.  1.
          1   -1    0    0  501    0  0.00000000000E+00 -0.00000000000E+00 -0.67050128053E+02  0.67050128053E+02  0.00000000000E+00 0. -1.
         25    2    1    2    0    0 -0.65785806189E+02  0.21302546326E+02  0.58574639151E+02  0.15446725255E+03  0.12509025934E+03 0.  0.
          5    1    3    3  502    0 -0.73279471635E+02 -0.37045163530E+02  0.45839406496E+02  0.94132612266E+02  0.41800000000E+01 0.  1.
         -5    1    3    3    0  502  0.74936654461E+01  0.58347709855E+02  0.12735232655E+02  0.60334640282E+02  0.41800000000E+01 0.  1.
        -11    1    1    2    0    0  0.25983689356E+02  0.34484250290E+02  0.41864141672E+02  0.60140851246E+02  0.00000000000E+00 0. -1.
         11    1    1    2    0    0  0.39802116833E+02 -0.55786796616E+02  0.10785077288E+03  0.12778170601E+03  0.00000000000E+00 0.  1.
</event>
<event>
 7    1  0.2594791E-009  0.1165633E+03  0.7561462E-02  0.1248877E+00
         -1   -1    0    0    0  501 -0.00000000000E+00  0.00000000000E+00  0.41122564591E+03  0.41122564591E+03  0.00000000000E+00 0.  1.
          1   -1    0    0  501    0  0.00000000000E+00 -0.00000000000E+00 -0.10382406822E+03  0.10382406822E+03  0.00000000000E+00 0. -1.
         25    2    1    2    0    0  0.10055533297E+02  0.53429404623E+02  0.36791605995E+03  0.39238535318E+03  0.12509285827E+03 0.  0.
          5    1    3    3  502    0  0.46900617489E+02 -0.20042952302E+02  0.18220756513E+03  0.18925764726E+03  0.41800000000E+01 0. -1.
         -5    1    3    3    0  502 -0.36845084192E+02  0.73472356925E+02  0.18570849483E+03  0.20312770592E+03  0.41800000000E+01 0. -1.
        -11    1    1    2    0    0 -0.43903211280E+02 -0.10786367860E+02 -0.59753896670E+01  0.45602006250E+02  0.00000000000E+00 0.  1.
         11    1    1    2    0    0  0.33847677983E+02 -0.42643036763E+02 -0.54539092596E+02  0.77062354691E+02  0.00000000000E+00 0. -1.
</event>
<event>
 7    1  0.2594791E-009  0.1088302E+03  0.7561462E-02  0.1262752E+00
         -2   -1    0    0    0  501 -0.00000000000E+00  0.00000000000E+00  0.40187786195E+02  0.40187786195E+02  0.00000000000E+00 0.  1.
          2   -1    0    0  501    0  0.00000000000E+00 -0.00000000000E+00 -0.41170400190E+03  0.41170400190E+03  0.00000000000E+00 0. -1.
         25    2    1    2    0    0  0.48947893279E+02 -0.16814705802E+02 -0.12831993480E+03  0.18652769416E+03  0.12509174407E+03 0.  0.
          5    1    3    3  502    0  0.23410066952E+02 -0.67328772082E+02 -0.40869981769E+02  0.82274070001E+02  0.41800000000E+01 0.  1.
         -5    1    3    3    0  502  0.25537826327E+02  0.50514066280E+02 -0.87449953031E+02  0.10425362416E+03  0.41800000000E+01 0.  1.
        -11    1    1    2    0    0 -0.50144870745E+01  0.39663289861E+02 -0.18348836116E+03  0.18779323823E+03  0.00000000000E+00 0. -1.
         11    1    1    2    0    0 -0.43933406204E+02 -0.22848584059E+02 -0.59707919740E+02  0.77570855699E+02  0.00000000000E+00 0.  1.
</event>
<event>
 7    1  0.2594791E-009  0.7360783E+02  0.7561462E-02  0.1348237E+00
         -1   -1    0    0    0  501 -0.00000000000E+00  0.00000000000E+00  0.11758318390E+03  0.11758318390E+03  0.00000000000E+00 0.  1.
          1   -1    0    0  501    0  0.00000000000E+00 -0.00000000000E+00 -0.10455212298E+03  0.10455212298E+03  0.00000000000E+00 0. -1.
         25    2    1    2    0    0 -0.11143466861E+02 -0.85410021398E+01  0.31212930435E+02  0.12968451479E+03  0.12508677299E+03 0.  0.
          5    1    3    3  502    0  0.16837125499E+02 -0.44131769966E+02 -0.27970362731E+02  0.55053751069E+02  0.41800000000E+01 0.  1.
         -5    1    3    3    0  502 -0.27980592360E+02  0.35590767827E+02  0.59183293167E+02  0.74630763720E+02  0.41800000000E+01 0.  1.
        -11    1    1    2    0    0  0.28786078987E+02  0.18357618755E+02  0.26631159964E+02  0.43299644234E+02  0.00000000000E+00 0.  1.
         11    1    1    2    0    0 -0.17642612125E+02 -0.98166166154E+01 -0.44813029482E+02  0.49151147857E+02  0.00000000000E+00 0. -1.
</event>
<event>
 7    1  0.2594791E-009  0.9360781E+02  0.7561462E-02  0.1294343E+00
          2   -1    0    0  501    0  0.00000000000E+00  0.00000000000E+00  0.16606267476E+03  0.16606267476E+03  0.00000000000E+00 0.  1.
         -2   -1    0    0    0  501 -0.00000000000E+00 -0.00000000000E+00 -0.12272595650E+03  0.12272595650E+03  0.00000000000E+00 0. -1.
         25    2    1    2    0    0  0.67289132830E+02 -0.21856672760E+02  0.84945820511E+02  0.16693848147E+03  0.12508845922E+03 0.  0.
          5    1    3    3  502    0  0.87735912163E+01 -0.12441438210E+02  0.10349713676E+03  0.10469429309E+03  0.41800000000E+01 0. -1.
         -5    1    3    3    0  502  0.58515541613E+02 -0.94152345497E+01 -0.18551316252E+02  0.62244188376E+02  0.41800000000E+01 0. -1.
        -11    1    1    2    0    0 -0.76760480149E+02  0.43612491738E+02 -0.21790871150E+02  0.90934387410E+02  0.00000000000E+00 0.  1.
         11    1    1    2    0    0  0.94713473190E+01 -0.21755818978E+02 -0.19818231109E+02  0.30915762383E+02  0.00000000000E+00 0. -1.
</event>
<event>
 7    1  0.2594791E-009  0.1073441E+03  0.7561462E-02  0.1265569E+00
          2   -1    0    0  501    0  0.00000000000E+00  0.00000000000E+00  0.23054888897E+03  0.23054888897E+03  0.00000000000E+00 0. -1.
         -2   -1    0    0    0  501 -0.00000000000E+00 -0.00000000000E+00 -0.76304190200E+02  0.76304190200E+02  0.00000000000E+00 0.  1.
         25    2    1    2    0    0  0.57600869218E+02  0.18612490887E+02  0.13895037126E+03  0.19652602191E+03  0.12510390348E+03 0.  0.
          5    1    3    3  502    0 -0.29647790863E+02 -0.20524129340E+02  0.13496071311E+02  0.38727867603E+02  0.41800000000E+01 0.  1.
         -5    1    3    3    0  502  0.87248660081E+02  0.39136620227E+02  0.12545429995E+03  0.15779815431E+03  0.41800000000E+01 0.  1.
        -11    1    1    2    0    0 -0.10603433162E+02  0.19478138763E+02  0.39394665815E+02  0.45208078693E+02  0.00000000000E+00 0. -1.
         11    1    1    2    0    0 -0.46997436057E+02 -0.38090629650E+02 -0.24100338301E+02  0.65118978564E+02  0.00000000000E+00 0.  1.
</event>
<event>
 7    1  0.2681205E-009  0.1078389E+03  0.7561462E-02  0.1264625E+00
          2   -1    0    0  501    0  0.00000000000E+00  0.00000000000E+00  0.34589218145E+03  0.34589218145E+03  0.00000000000E+00 0. -1.
         -2   -1    0    0    0  501 -0.00000000000E+00 -0.00000000000E+00 -0.76655873029E+02  0.76655873029E+02  0.00000000000E+00 0.  1.
         25    2    1    2    0    0  0.10050676180E+03  0.32142511820E+02  0.67132267077E+02  0.17688663848E+03  0.12508953336E+03 0.  0.
          5    1    3    3  502    0  0.27026693254E+02 -0.61525883060E+00 -0.36507822037E+02  0.45619230173E+02  0.41800000000E+01 0.  1.
         -5    1    3    3    0  502  0.73480068547E+02  0.32757770651E+02  0.10364008911E+03  0.13126740831E+03  0.41800000000E+01 0.  1.
        -11    1    1    2    0    0 -0.38584842465E+02 -0.13521203186E+01  0.16023264924E+03  0.16481844612E+03  0.00000000000E+00 0. -1.
         11    1    1    2    0    0 -0.61921919336E+02 -0.30790391501E+02  0.41871392102E+02  0.80842969883E+02  0.00000000000E+00 0.  1.
</event>
<event>
 7    1  0.2594791E-009  0.1119345E+03  0.7561462E-02  0.1257029E+00
         -1   -1    0    0    0  501 -0.00000000000E+00  0.00000000000E+00  0.62050870423E+02  0.62050870423E+02  0.00000000000E+00 0.  1.
          1   -1    0    0  501    0  0.00000000000E+00 -0.00000000000E+00 -0.36226386946E+03  0.36226386946E+03  0.00000000000E+00 0. -1.
         25    2    1    2    0    0 -0.17972198040E+02  0.88915136783E+02 -0.21295503511E+03  0.26310865616E+03  0.12508963392E+03 0.  0.
          5    1    3    3  502    0 -0.12734371789E+02  0.13118314481E+02  0.14215399252E+02  0.23533048583E+02  0.41800000000E+01 0.  1.
         -5    1    3    3    0  502 -0.52378262503E+01  0.75796822302E+02 -0.22717043436E+03  0.23957560757E+03  0.41800000000E+01 0.  1.
        -11    1    1    2    0    0 -0.36218750540E+02 -0.20070316470E+02 -0.52702290782E+02  0.67023480569E+02  0.00000000000E+00 0. -1.
         11    1    1    2    0    0  0.54190948580E+02 -0.68844820312E+02 -0.34555673149E+02  0.94182603163E+02  0.00000000000E+00 0.  1.
</event>
<event>
 7    1  0.2594791E-009  0.7342273E+02  0.7561462E-02  0.1348826E+00
         -2   -1    0    0    0  501 -0.00000000000E+00  0.00000000000E+00  0.40834727584E+02  0.40834727584E+02  0.00000000000E+00 0. -1.
          2   -1    0    0  501    0  0.00000000000E+00 -0.00000000000E+00 -0.23933433822E+03  0.23933433822E+03  0.00000000000E+00 0.  1.
         25    2    1    2    0    0  0.72190519531E+01 -0.21118413369E+02 -0.11956554468E+03  0.17447587788E+03  0.12509120830E+03 0.  0.
          5    1    3    3  502    0  0.28774968803E+02  0.19941642929E+02 -0.12283864745E+03  0.12779856673E+03  0.41800000000E+01 0. -1.
         -5    1    3    3    0  502 -0.21555916850E+02 -0.41060056297E+02  0.32731027674E+01  0.46677311149E+02  0.41800000000E+01 0. -1.
        -11    1    1    2    0    0  0.65700807660E+01 -0.20318235705E+02 -0.88475591577E+01  0.23114410364E+02  0.00000000000E+00 0. -1.
         11    1    1    2    0    0 -0.13789132719E+02  0.41436649074E+02 -0.70086506792E+02  0.82578777552E+02  0.00000000000E+00 0.  1.
</event>
<event>
 7    1  0.2594791E-009  0.1143711E+03  0.7561462E-02  0.1252683E+00
         -2   -1    0    0    0  501 -0.00000000000E+00  0.00000000000E+00  0.55663842553E+02  0.55663842553E+02  0.00000000000E+00 0.  1.
          2   -1    0    0  501    0  0.00000000000E+00 -0.00000000000E+00 -0.27502531956E+03  0.27502531956E+03  0.00000000000E+00 0. -1.
         25    2    1    2    0    0  0.34089788382E+02  0.42074151777E+02 -0.91740731348E+02  0.16430498482E+03  0.12508964117E+03 0.  0.
          5    1    3    3  502    0  0.69742240332E+02  0.52884658997E+02 -0.31040423643E+02  0.92961000122E+02  0.41800000000E+01 0. -1.
         -5    1    3    3    0  502 -0.35652451950E+02 -0.10810507221E+02 -0.60700307705E+02  0.71343984693E+02  0.41800000000E+01 0. -1.
        -11    1    1    2    0    0  0.16649575883E+02 -0.49612010708E+02 -0.44422348705E+02  0.68643317577E+02  0.00000000000E+00 0. -1.
         11    1    1    2    0    0 -0.50739364265E+02  0.75378589310E+01 -0.83198396958E+02  0.97740859725E+02  0.00000000000E+00 0.  1.
</event>
<event>
 7    1  0.2594791E-009  0.1298902E+03  0.7561462E-02  0.1227619E+00
         -4   -1    0    0    0  501 -0.00000000000E+00  0.00000000000E+00  0.20638127801E+03  0.20638127801E+03  0.00000000000E+00 0.  1.
          4   -1    0    0  501    0  0.00000000000E+00 -0.00000000000E+00 -0.98138359986E+02  0.98138359986E+02  0.00000000000E+00 0. -1.
         25    2    1    2    0    0 -0.82927564505E+01  0.85506874566E+02  0.21235244902E+02  0.15323176311E+03  0.12509533242E+03 0.  0.
          5    1    3    3  502    0 -0.22591140984E+02  0.10724057495E+03  0.44233059967E+02  0.11825792388E+03  0.41800000000E+01 0.  1.
         -5    1    3    3    0  502  0.14298384533E+02 -0.21733700384E+02 -0.22997815065E+02  0.34973839229E+02  0.41800000000E+01 0.  1.
        -11    1    1    2    0    0  0.16097204932E+02 -0.10318507303E+03  0.74011352795E+02  0.12799984236E+03  0.00000000000E+00 0. -1.
         11    1    1    2    0    0 -0.78044484810E+01  0.17678198460E+02  0.12996320327E+02  0.23288032526E+02  0.00000000000E+00 0.  1.
</event>
<event>
 7    1  0.2594791E-009  0.8340179E+02  0.7561462E-02  0.1319666E+00
          2   -1    0    0  501    0  0.00000000000E+00  0.00000000000E+00  0.42571852186E+03  0.42571852186E+03  0.00000000000E+00 0.  1.
         -2   -1    0    0    0  501 -0.00000000000E+00 -0.00000000000E+00 -0.38145679648E+02  0.38145679648E+02  0.00000000000E+00 0. -1.
         25    2    1    2    0    0  0.47137888913E+02  0.14059275829E+02  0.13026543142E+03  0.18717989933E+03  0.12509032049E+03 0.  0.
          5    1    3    3  502    0  0.60393100172E+02  0.18512983965E+01  0.14900746743E+03  0.16084604939E+03  0.41800000000E+01 0. -1.
         -5    1    3    3    0  502 -0.13255211259E+02  0.12207977433E+02 -0.18742036012E+02  0.26333849935E+02  0.41800000000E+01 0. -1.
        -11    1    1    2    0    0 -0.12992225784E+02 -0.41782494130E+02  0.19840377275E+03  0.20317143447E+03  0.00000000000E+00 0.  1.
         11    1    1    2    0    0 -0.34145663129E+02  0.27723218300E+02  0.58903638043E+02  0.73512867704E+02  0.00000000000E+00 0. -1.
</event>
<event>
 7    1  0.2594791E-009  0.9841922E+02  0.7561462E-02  0.1283656E+00
          1   -1    0    0  501    0  0.00000000000E+00  0.00000000000E+00  0.10118171322E+03  0.10118171322E+03  0.00000000000E+00 0. -1.
         -1   -1    0    0    0  501 -0.00000000000E+00 -0.00000000000E+00 -0.16087788068E+03  0.16087788068E+03  0.00000000000E+00 0.  1.
         25    2    1    2    0    0 -0.35725676917E+02  0.45290638289E+02 -0.62292005812E+02  0.15118161046E+03  0.12509204390E+03 0.  0.
          5    1    3    3  502    0 -0.22962192703E+02  0.61355219960E+02  0.18110774629E+02  0.68096973999E+02  0.41800000000E+01 0.  1.
         -5    1    3    3    0  502 -0.12763484214E+02 -0.16064581671E+02 -0.80402780442E+02  0.83084636464E+02  0.41800000000E+01 0.  1.
        -11    1    1    2    0    0  0.68124322719E+02 -0.30735603686E+02  0.71102360897E+01  0.75074337407E+02  0.00000000000E+00 0.  1.
         11    1    1    2    0    0 -0.32398645801E+02 -0.14555034603E+02 -0.45143977454E+01  0.35803646030E+02  0.00000000000E+00 0. -1.
</event>
<event>
 7    1  0.2594791E-009  0.1088957E+03  0.7561462E-02  0.1262629E+00
         -2   -1    0    0    0  501 -0.00000000000E+00  0.00000000000E+00  0.32670528548E+02  0.32670528548E+02  0.00000000000E+00 0.  1.
          2   -1    0    0  501    0  0.00000000000E+00 -0.00000000000E+00 -0.49328947557E+03  0.49328947557E+03  0.00000000000E+00 0. -1.
         25    2    1    2    0    0 -0.51725878803E+02  0.10594858130E+02 -0.17723969693E+03  0.22326960734E+03  0.12509032671E+03 0.  0.
          5    1    3    3  502    0  0.27746893534E+02  0.26353664898E+02 -0.11424467346E+03  0.12055589396E+03  0.41800000000E+01 0. -1.
         -5    1    3    3    0  502 -0.79472772338E+02 -0.15758806768E+02 -0.62995023468E+02  0.10271371338E+03  0.41800000000E+01 0. -1.
        -11    1    1    2    0    0 -0.13398622593E+01  0.30823253594E+02 -0.42086932939E+02  0.52184079154E+02  0.00000000000E+00 0.  1.
         11    1    1    2    0    0  0.53065741063E+02 -0.41418111724E+02 -0.24129231715E+03  0.25050631762E+03  0.00000000000E+00 0. -1.
</event>
<event>
 7    1  0.2594791E-009  0.6595137E+02  0.7561462E-02  0.1374428E+00
         -2   -1    0    0    0  501 -0.00000000000E+00  0.00000000000E+00  0.15752329863E+02  0.15752329863E+02  0.00000000000E+00 0.  1.
          2   -1    0    0  501    0  0.00000000000E+00 -0.00000000000E+00 -0.80249937228E+03  0.80249937228E+03  0.00000000000E+00 0. -1.
         25    2    1    2    0    0 -0.89492499505E+01  0.25584247691E+02 -0.49573292581E+03  0.51198961046E+03  0.12509030610E+03 0.  0.
          5    1    3    3  502    0 -0.15797053820E+02  0.83398003993E+01 -0.49232579028E+03  0.49266748965E+03  0.41800000000E+01 0. -1.
         -5    1    3    3    0  502  0.68478038692E+01  0.17244447291E+02 -0.34071355321E+01  0.19322120814E+02  0.41800000000E+01 0. -1.
        -11    1    1    2    0    0 -0.16020141930E+02  0.29773022549E+02 -0.12491526016E+03  0.12940981431E+03  0.00000000000E+00 0. -1.
         11    1    1    2    0    0  0.24969391880E+02 -0.55357270239E+02 -0.16609885644E+03  0.17685227737E+03  0.00000000000E+00 0.  1.
</event>
<event>
 7    1  0.2594791E-009  0.8419109E+02  0.7561462E-02  0.1317562E+00
         -4   -1    0    0    0  501 -0.00000000000E+00  0.00000000000E+00  0.18581352107E+03  0.18581352107E+03  0.00000000000E+00 0. -1.
          4   -1    0    0  501    0  0.00000000000E+00 -0.00000000000E+00 -0.93459093987E+02  0.93459093987E+02  0.00000000000E+00 0.  1.
         25    2    1    2    0    0  0.42047481670E+02 -0.12491456368E+02  0.11423675245E+03  0.17499716728E+03  0.12509974320E+03 0.  0.
          5    1    3    3  502    0  0.27843621519E+02  0.47542432716E+02  0.13633705975E+02  0.56911338997E+02  0.41800000000E+01 0.  1.
         -5    1    3    3    0  502  0.14203860151E+02 -0.60033889084E+02  0.10060304647E+03  0.11808582828E+03  0.41800000000E+01 0.  1.
        -11    1    1    2    0    0 -0.49812562980E+01  0.13318773845E+02 -0.53618495041E+02  0.55472025937E+02  0.00000000000E+00 0.  1.
         11    1    1    2    0    0 -0.37066225372E+02 -0.82731747716E+00  0.31736169672E+02  0.48803421837E+02  0.00000000000E+00 0. -1.
</event>
<event>
 7    1  0.2594791E-009  0.1010566E+03  0.7561462E-02  0.1278090E+00
         -2   -1    0    0    0  501 -0.00000000000E+00  0.00000000000E+00  0.15776838883E+02  0.15776838883E+02  0.00000000000E+00 0.  1.
          2   -1    0    0  501    0  0.00000000000E+00 -0.00000000000E+00 -0.99144809404E+03  0.99144809404E+03  0.00000000000E+00 0. -1.
         25    2    1    2    0    0  0.29489071406E+01  0.77897835658E+02 -0.49901725012E+03  0.52032940829E+03  0.12509080045E+03 0.  0.
          5    1    3    3  502    0 -0.28014262449E+02  0.13864273471E+02 -0.38219637238E+03  0.38349518438E+03  0.41800000000E+01 0.  1.
         -5    1    3    3    0  502  0.30963169590E+02  0.64033562187E+02 -0.11682087774E+03  0.13683422391E+03  0.41800000000E+01 0.  1.
        -11    1    1    2    0    0  0.13964234854E+02 -0.80946741171E+02 -0.39685440911E+03  0.40526632822E+03  0.00000000000E+00 0. -1.
         11    1    1    2    0    0 -0.16913141994E+02  0.30489055133E+01 -0.79799595923E+02  0.81629196409E+02  0.00000000000E+00 0.  1.
</event>
<event>
 7    1  0.2594791E-009  0.1178961E+03  0.7561462E-02  0.1246609E+00
         -1   -1    0    0    0  501 -0.00000000000E+00  0.00000000000E+00  0.14559887986E+03  0.14559887986E+03  0.00000000000E+00 0.  1.
          1   -1    0    0  501    0  0.00000000000E+00 -0.00000000000E+00 -0.96349645588E+02  0.96349645588E+02  0.00000000000E+00 0. -1.
         25    2    1    2    0    0  0.42280830739E+01 -0.48567540456E+02  0.25631684884E+02  0.13666861598E+03  0.12507855392E+03 0.  0.
          5    1    3    3  502    0  0.64454159111E+02 -0.21413608458E+02  0.13122840653E+02  0.69300523812E+02  0.41800000000E+01 0.  1.
         -5    1    3    3    0  502 -0.60226076037E+02 -0.27153931998E+02  0.12508844231E+02  0.67368092164E+02  0.41800000000E+01 0.  1.
        -11    1    1    2    0    0 -0.20545449583E+02  0.70941612248E+02  0.10367004303E+02  0.74580846236E+02  0.00000000000E+00 0. -1.
         11    1    1    2    0    0  0.16317366509E+02 -0.22374071793E+02  0.13250545082E+02  0.30699063233E+02  0.00000000000E+00 0.  1.
</event>
<event>
 7    1  0.2594791E-009  0.3567330E+03  0.7561462E-02  0.1059885E+00
          1   -1    0    0  501    0  0.00000000000E+00  0.00000000000E+00  0.31853979933E+03  0.31853979933E+03  0.00000000000E+00 0. -1.
         -1   -1    0    0    0  501 -0.00000000000E+00 -0.00000000000E+00 -0.44013958473E+03  0.44013958473E+03  0.00000000000E+00 0.  1.
         25    2    1    2    0    0 -0.34316091651E+03 -0.92441829942E+02 -0.13563934901E+02  0.37701081427E+03  0.12509303417E+03 0.  0.
          5    1    3    3  502    0 -0.15046365259E+03 -0.62602374379E+02  0.52214107555E+02  0.17117871788E+03  0.41800000000E+01 0. -1.
         -5    1    3    3    0  502 -0.19269726393E+03 -0.29839455563E+02 -0.65778042456E+02  0.20583209638E+03  0.41800000000E+01 0. -1.
        -11    1    1    2    0    0  0.12771423726E+03  0.35886559744E+02 -0.85408242442E+02  0.15777623220E+03  0.00000000000E+00 0.  1.
         11    1    1    2    0    0  0.21544667925E+03  0.56555270198E+02 -0.22627608050E+02  0.22389233759E+03  0.00000000000E+00 0. -1.
</event>
<event>
 7    1  0.2594791E-009  0.2271372E+03  0.7561462E-02  0.1128671E+00
         -2   -1    0    0    0  501 -0.00000000000E+00  0.00000000000E+00  0.57141959538E+02  0.57141959538E+02  0.00000000000E+00 0.  1.
          2   -1    0    0  501    0  0.00000000000E+00 -0.00000000000E+00 -0.10576181083E+04  0.10576181083E+04  0.00000000000E+00 0. -1.
         25    2    1    2    0    0 -0.19215391003E+03  0.82624402465E+02 -0.66971717061E+03  0.71268440687E+03  0.12509219864E+03 0.  0.
          5    1    3    3  502    0 -0.98364320440E+01  0.35924090771E+02 -0.24855471361E+03  0.25136470268E+03  0.41800000000E+01 0.  1.
         -5    1    3    3    0  502 -0.18231747798E+03  0.46700311694E+02 -0.42116245700E+03  0.46131970419E+03  0.41800000000E+01 0.  1.
        -11    1    1    2    0    0  0.97675479554E+02 -0.91256692398E+02 -0.19825347366E+03  0.23910818269E+03  0.00000000000E+00 0. -1.
         11    1    1    2    0    0  0.94478430474E+02  0.86322899332E+01 -0.13250550448E+03  0.16296747827E+03  0.00000000000E+00 0.  1.
</event>
<event>
 7    1  0.2594791E-009  0.9627127E+02  0.7561462E-02  0.1288338E+00
         -2   -1    0    0    0  501 -0.00000000000E+00  0.00000000000E+00  0.11486986626E+03  0.11486986626E+03  0.00000000000E+00 0.  1.
          2   -1    0    0  501    0  0.00000000000E+00 -0.00000000000E+00 -0.11555013800E+03  0.11555013800E+03  0.00000000000E+00 0. -1.
         25    2    1    2    0    0  0.51807845775E+01  0.10918144232E+01 -0.13613957982E+02  0.12593894395E+03  0.12508894901E+03 0.  0.
          5    1    3    3  502    0  0.16591703584E+02 -0.41912633556E+02  0.36965618801E+02  0.58445554603E+02  0.41800000000E+01 0.  1.
         -5    1    3    3    0  502 -0.11410919007E+02  0.43004447979E+02 -0.50579576783E+02  0.67493389352E+02  0.41800000000E+01 0.  1.
        -11    1    1    2    0    0  0.93039777638E+01 -0.50369205908E+02 -0.11108931448E+01  0.51233338653E+02  0.00000000000E+00 0. -1.
         11    1    1    2    0    0 -0.14484762341E+02  0.49277391484E+02  0.14044579387E+02  0.53247721658E+02  0.00000000000E+00 0.  1.
</event>
<event>
 7    1  0.2664593E-009  0.1522124E+03  0.7561462E-02  0.1197780E+00
          2   -1    0    0  501    0  0.00000000000E+00  0.00000000000E+00  0.41416374339E+03  0.41416374339E+03  0.00000000000E+00 0. -1.
         -2   -1    0    0    0  501 -0.00000000000E+00 -0.00000000000E+00 -0.76584647247E+02  0.76584647247E+02  0.00000000000E+00 0.  1.
         25    2    1    2    0    0  0.88347331973E+02 -0.91540445630E+02  0.94769101156E+02  0.20202279343E+03  0.12508845781E+03 0.  0.
          5    1    3    3  502    0 -0.21727730488E+02 -0.26972767225E+02  0.60471771015E+02  0.69813551218E+02  0.41800000000E+01 0.  1.
         -5    1    3    3    0  502  0.11007506246E+03 -0.64567678405E+02  0.34297330141E+02  0.13220924221E+03  0.41800000000E+01 0.  1.
        -11    1    1    2    0    0 -0.16856378812E+02  0.62427702165E+02  0.52283443487E+02  0.83155961705E+02  0.00000000000E+00 0.  1.
         11    1    1    2    0    0 -0.71490953160E+02  0.29112743465E+02  0.19052655150E+03  0.20556963551E+03  0.00000000000E+00 0. -1.
</event>
<event>
 7    1  0.2594791E-009  0.1113964E+03  0.7561462E-02  0.1258006E+00
         -2   -1    0    0    0  501 -0.00000000000E+00  0.00000000000E+00  0.15299896585E+02  0.15299896585E+02  0.00000000000E+00 0.  1.
          2   -1    0    0  501    0  0.00000000000E+00 -0.00000000000E+00 -0.13463316094E+04  0.13463316094E+04  0.00000000000E+00 0. -1.
         25    2    1    2    0    0  0.71636942367E+01  0.77786688358E+02 -0.96571230385E+03  0.97690806938E+03  0.12508810820E+03 0.  0.
          5    1    3    3  502    0 -0.23615027691E+02 -0.25883948972E+02 -0.15268179384E+03  0.15670625679E+03  0.41800000000E+01 0. -1.
         -5    1    3    3    0  502  0.30778721928E+02  0.10367063733E+03 -0.81303051001E+03  0.82020181259E+03  0.41800000000E+01 0. -1.
        -11    1    1    2    0    0 -0.59250229449E+00 -0.64075328965E+02 -0.36384840329E+03  0.36944777631E+03  0.00000000000E+00 0. -1.
         11    1    1    2    0    0 -0.65711919422E+01 -0.13711359393E+02 -0.14710056776E+01  0.15275660301E+02  0.00000000000E+00 0.  1.
</event>
<event>
 7    1  0.2594791E-009  0.1122012E+03  0.7561462E-02  0.1256547E+00
         -2   -1    0    0    0  501 -0.00000000000E+00  0.00000000000E+00  0.13132360618E+03  0.13132360618E+03  0.00000000000E+00 0. -1.
          2   -1    0    0  501    0  0.00000000000E+00 -0.00000000000E+00 -0.11249557606E+03  0.11249557606E+03  0.00000000000E+00 0.  1.
         25    2    1    2    0    0  0.48110713709E+02 -0.20161381743E+02 -0.52370957664E+01  0.13563016466E+03  0.12508793829E+03 0.  0.
          5    1    3    3  502    0  0.55826660336E+02  0.34592679981E+02 -0.32996427344E+02  0.73617295047E+02  0.41800000000E+01 0.  1.
         -5    1    3    3    0  502 -0.77159466269E+01 -0.54754061724E+02  0.27759331578E+02  0.62012869610E+02  0.41800000000E+01 0.  1.
        -11    1    1    2    0    0  0.13246214537E+02  0.37178848472E+02  0.20355167780E+02  0.44407902772E+02  0.00000000000E+00 0. -1.
         11    1    1    2    0    0 -0.61356928246E+02 -0.17017466729E+02  0.37099581082E+01  0.63781114813E+02  0.00000000000E+00 0.  1.
</event>
<event>
 7    1  0.2594791E-009  0.2204756E+03  0.7561462E-02  0.1133529E+00
          1   -1    0    0  501    0  0.00000000000E+00  0.00000000000E+00  0.16851403295E+03  0.16851403295E+03  0.00000000000E+00 0. -1.
         -1   -1    0    0    0  501 -0.00000000000E+00 -0.00000000000E+00 -0.37522965725E+03  0.37522965725E+03  0.00000000000E+00 0.  1.
         25    2    1    2    0    0  0.84989102871E+02 -0.19268887293E+03 -0.18812746795E+02  0.24566990377E+03  0.12509049853E+03 0.  0.
          5    1    3    3  502    0  0.68818216732E+02 -0.11144517093E+03  0.47589836773E+02  0.13942108177E+03  0.41800000000E+01 0.  1.
         -5    1    3    3    0  502  0.16170886139E+02 -0.81243701998E+02 -0.66402583568E+02  0.10624882200E+03  0.41800000000E+01 0.  1.
        -11    1    1    2    0    0 -0.75152648194E+02  0.20067822402E+03 -0.16001116632E+03  0.26743829844E+03  0.00000000000E+00 0. -1.
         11    1    1    2    0    0 -0.98364546772E+01 -0.79893510914E+01 -0.27891711188E+02  0.30635487992E+02  0.00000000000E+00 0.  1.
</event>
<event>
 6    1  0.2594791E-009  0.1134124E+03  0.7561462E-02  0.1254378E+00
         -1   -1    0    0    0  501 -0.00000000000E+00  0.00000000000E+00  0.31487589560E+03  0.31487589560E+03  0.00000000000E+00 0.  1.
          1   -1    0    0  501    0  0.00000000000E+00 -0.00000000000E+00 -0.78710972634E+02  0.78710972634E+02  0.00000000000E+00 0. -1.
          5    1    1    2  502    0 -0.27749199865E+02  0.42379940212E+02 -0.40372589737E+02  0.64911446045E+02  0.41800000000E+01 0. -1.
         -5    1    1    2    0  502 -0.45366635509E+02  0.12078911337E+02  0.83505679651E+02  0.95889012147E+02  0.41800000000E+01 0. -1.
        -11    1    1    2    0    0  0.94061582656E+02 -0.52761883690E+02  0.17227739020E+03  0.20325082257E+03  0.00000000000E+00 0.  1.
         11    1    1    2    0    0 -0.20945747282E+02 -0.16969678598E+01  0.20754442852E+02  0.29535587471E+02  0.00000000000E+00 0. -1.
</event>
<event>
 7    1  0.2594791E-009  0.2210162E+03  0.7561462E-02  0.1133128E+00
         -1   -1    0    0    0  501 -0.00000000000E+00  0.00000000000E+00  0.10244103255E+03  0.10244103255E+03  0.00000000000E+00 0.  1.
          1   -1    0    0  501    0  0.00000000000E+00 -0.00000000000E+00 -0.76640602792E+03  0.76640602792E+03  0.00000000000E+00 0. -1.
         25    2    1    2    0    0 -0.19534334012E+03  0.59372372682E+02 -0.58502047347E+03  0.63212295722E+03  0.12508548879E+03 0.  0.
          5    1    3    3  502    0 -0.66294464444E+02 -0.17920635902E+02 -0.32042687095E+03  0.32773000661E+03  0.41800000000E+01 0. -1.
         -5    1    3    3    0  502 -0.12904887567E+03  0.77293008585E+02 -0.26459360252E+03  0.30439295061E+03  0.41800000000E+01 0. -1.
        -11    1    1    2    0    0  0.37308582577E+02 -0.52703554638E+02 -0.29575686825E+02  0.71023350080E+02  0.00000000000E+00 0.  1.
         11    1    1    2    0    0  0.15803475754E+03 -0.66688180447E+01 -0.49368835074E+02  0.16570075317E+03  0.00000000000E+00 0. -1.
</event>
<event>
 7    1  0.2594791E-009  0.1069304E+03  0.7561462E-02  0.1266362E+00
          1   -1    0    0  501    0  0.00000000000E+00  0.00000000000E+00  0.17618325389E+03  0.17618325389E+03  0.00000000000E+00 0. -1.
         -1   -1    0    0    0  501 -0.00000000000E+00 -0.00000000000E+00 -0.69977384416E+02  0.69977384416E+02  0.00000000000E+00 0.  1.
         25    2    1    2    0    0 -0.20162739138E+02 -0.75692046415E+01  0.50219189982E+02  0.13648901739E+03  0.12507380188E+03 0.  0.
          5    1    3    3  502    0 -0.16301223569E+02 -0.63802919373E+02  0.91357442193E+01  0.66614387581E+02  0.41800000000E+01 0. -1.
         -5    1    3    3    0  502 -0.38615155691E+01  0.56233714731E+02  0.41083445763E+02  0.69874629807E+02  0.41800000000E+01 0. -1.
        -11    1    1    2    0    0  0.54057600993E+02 -0.69090934490E+01  0.19698490205E+02  0.57948169201E+02  0.00000000000E+00 0.  1.
         11    1    1    2    0    0 -0.33894861855E+02  0.14478298091E+02  0.36288189288E+02  0.51723451717E+02  0.00000000000E+00 0. -1.
</event>
<event>
 7    1  0.2594791E-009  0.1176744E+03  0.7561462E-02  0.1246984E+00
         -1   -1    0    0    0  501 -0.00000000000E+00  0.00000000000E+00  0.14833259109E+02  0.14833259109E+02  0.00000000000E+00 0.  1.
          1   -1    0    0  501    0  0.00000000000E+00 -0.00000000000E+00 -0.25146049115E+04  0.25146049115E+04  0.00000000000E+00 0. -1.
         25    2    1    2    0    0  0.60233292849E+02  0.12654892420E+02 -0.22747868571E+04  0.22790551768E+04  0.12509619369E+03 0.  0.
          5    1    3    3  502    0  0.60706268128E+02  0.62947180704E+02 -0.15921224187E+04  0.15945277881E+04  0.41800000000E+01 0.  1.
         -5    1    3    3    0  502 -0.47297527957E+00 -0.50292288285E+02 -0.68266443842E+03  0.68452738867E+03  0.41800000000E+01 0.  1.
        -11    1    1    2    0    0 -0.32687264433E+02 -0.44506168082E+02 -0.18206477594E+03  0.19025466852E+03  0.00000000000E+00 0. -1.
         11    1    1    2    0    0 -0.27546028415E+02  0.31851275662E+02 -0.42920019294E+02  0.60128325263E+02  0.00000000000E+00 0.  1.
</event>
<event>
 7    1  0.2594791E-009  0.1124414E+03  0.7561462E-02  0.1256114E+00
          2   -1    0    0  501    0  0.00000000000E+00  0.00000000000E+00  0.54698898869E+03  0.54698898869E+03  0.00000000000E+00 0. -1.
         -2   -1    0    0    0  501 -0.00000000000E+00 -0.00000000000E+00 -0.30368702078E+02  0.30368702078E+02  0.00000000000E+00 0.  1.
         25    2    1    2    0    0 -0.46410396006E+02 -0.39443578411E+01  0.40168014020E+03  0.42327826835E+03  0.12509226440E+03 0.  0.
          5    1    3    3  502    0  0.20015504869E+02 -0.48704516932E+02  0.14274787631E+03  0.15220768376E+03  0.41800000000E+01 0.  1.
         -5    1    3    3    0  502 -0.66425900874E+02  0.44760159090E+02  0.25893226389E+03  0.27107058460E+03  0.41800000000E+01 0.  1.
        -11    1    1    2    0    0  0.49500420252E+02 -0.29924467111E+02  0.10282266159E+03  0.11797569696E+03  0.00000000000E+00 0. -1.
         11    1    1    2    0    0 -0.30900242469E+01  0.33868824952E+02  0.12117484830E+02  0.36103725460E+02  0.00000000000E+00 0.  1.
</event>
<event>
 7    1  0.2594791E-009  0.2699957E+03  0.7561462E-02  0.1101282E+00
          1   -1    0    0  501    0  0.00000000000E+00  0.00000000000E+00  0.36907995826E+03  0.36907995826E+03  0.00000000000E+00 0. -1.
         -1   -1    0    0    0  501 -0.00000000000E+00 -0.00000000000E+00 -0.22456838632E+03  0.22456838632E+03  0.00000000000E+00 0.  1.
         25    2    1    2    0    0 -0.24177476999E+03 -0.71771233347E+02  0.15820796166E+03  0.32292912768E+03  0.12508922028E+03 0.  0.
          5    1    3    3  502    0 -0.18968297993E+02 -0.45115361820E+02  0.13944355841E+01  0.49138671649E+02  0.41800000000E+01 0. -1.
         -5    1    3    3    0  502 -0.22280647200E+03 -0.26655871528E+02  0.15681352608E+03  0.27379045603E+03  0.41800000000E+01 0. -1.
        -11    1    1    2    0    0  0.21986636837E+02  0.38235658981E+02  0.14901440596E+02  0.46555673649E+02  0.00000000000E+00 0. -1.
         11    1    1    2    0    0  0.21978813316E+03  0.33535574367E+02 -0.28597830312E+02  0.22416354325E+03  0.00000000000E+00 0.  1.
</event>
<event>
 7    1  0.4258698E-009  0.1341133E+03  0.7561462E-02  0.1221477E+00
          2   -1    0    0  501    0  0.00000000000E+00  0.00000000000E+00  0.38212968837E+03  0.38212968837E+03  0.00000000000E+00 0. -1.
         -2   -1    0    0    0  501 -0.00000000000E+00 -0.00000000000E+00 -0.56943352275E+02  0.56943352275E+02  0.00000000000E+00 0.  1.
         25    2    1    2    0    0  0.97849261970E+02  0.17306699755E+02  0.16383155481E+03  0.22882343088E+03  0.12508151039E+03 0.  0.
          5    1    3    3  502    0 -0.94121497640E+01 -0.34637251796E+02  0.17784095456E+02  0.40274982636E+02  0.41800000000E+01 0.  1.
         -5    1    3    3    0  502  0.10726141173E+03  0.51943951551E+02  0.14604745935E+03  0.18854844824E+03  0.41800000000E+01 0.  1.
        -11    1    1    2    0    0 -0.74326523088E+02  0.11970164868E+02  0.44375203526E+02  0.87389218839E+02  0.00000000000E+00 0. -1.
         11    1    1    2    0    0 -0.23522738882E+02 -0.29276864623E+02  0.11697957776E+03  0.12286039093E+03  0.00000000000E+00 0.  1.
</event>
<event>
 6    1  0.2594791E-009  0.1793060E+03  0.7561462E-02  0.1168476E+00
          2   -1    0    0  501    0  0.00000000000E+00  0.00000000000E+00  0.12142185431E+04  0.12142185431E+04  0.00000000000E+00 0. -1.
         -2   -1    0    0    0  501 -0.00000000000E+00 -0.00000000000E+00 -0.32457524831E+02  0.32457524831E+02  0.00000000000E+00 0.  1.
          5    1    1    2  502    0  0.27694211387E+02 -0.14338859955E+01  0.17667599401E+03  0.17888796671E+03  0.41800000000E+01 0.  1.
         -5    1    1    2    0  502 -0.31763533346E+02 -0.16284835563E+03  0.36999446774E+03  0.40551434936E+03  0.41800000000E+01 0.  1.
        -11    1    1    2    0    0 -0.30209511511E+01  0.40466084067E+02  0.51060794067E+02  0.65221428966E+02  0.00000000000E+00 0.  1.
         11    1    1    2    0    0  0.70902731098E+01  0.12381615756E+03  0.58402976248E+03  0.59705232292E+03  0.00000000000E+00 0. -1.
</event>
<event>
 7    1  0.2594791E-009  0.7624197E+02  0.7561462E-02  0.1340068E+00
         -1   -1    0    0    0  501 -0.00000000000E+00  0.00000000000E+00  0.44383518935E+03  0.44383518935E+03  0.00000000000E+00 0.  1.
          1   -1    0    0  501    0  0.00000000000E+00 -0.00000000000E+00 -0.33502219750E+02  0.33502219750E+02  0.00000000000E+00 0. -1.
         25    2    1    2    0    0  0.48696752075E+02 -0.26573540243E+02  0.24121012974E+03  0.27732131555E+03  0.12508900296E+03 0.  0.
          5    1    3    3  502    0  0.37780160768E+02 -0.47442163564E+02  0.24559180939E+03  0.25300377205E+03  0.41800000000E+01 0. -1.
         -5    1    3    3    0  502  0.10916591307E+02  0.20868623321E+02 -0.43816796502E+01  0.24317543495E+02  0.41800000000E+01 0. -1.
        -11    1    1    2    0    0 -0.12851073248E+02 -0.10209307394E+02 -0.60321590160E+01  0.17486194082E+02  0.00000000000E+00 0. -1.
         11    1    1    2    0    0 -0.35845678827E+02  0.36782847636E+02  0.17515499887E+03  0.18252989947E+03  0.00000000000E+00 0.  1.
</event>
<event>
 7    1  0.2594791E-009  0.1225026E+03  0.7561462E-02  0.1239025E+00
         -4   -1    0    0    0  501 -0.00000000000E+00  0.00000000000E+00  0.25636311565E+03  0.25636311565E+03  0.00000000000E+00 0.  1.
          4   -1    0    0  501    0  0.00000000000E+00 -0.00000000000E+00 -0.61446608647E+02  0.61446608647E+02  0.00000000000E+00 0. -1.
         25    2    1    2    0    0 -0.40297382200E+02 -0.88770607432E+01  0.76646459360E+02  0.15240936323E+03  0.12510496812E+03 0.  0.
          5    1    3    3  502    0  0.26151289899E+02 -0.47246057744E+02  0.23882642453E+02  0.59194027961E+02  0.41800000000E+01 0.  1.
         -5    1    3    3    0  502 -0.66448672099E+02  0.38368997001E+02  0.52763816907E+02  0.93215335269E+02  0.41800000000E+01 0.  1.
        -11    1    1    2    0    0  0.69900530643E+01 -0.47773297085E+02  0.64015256883E+02  0.80181680389E+02  0.00000000000E+00 0.  1.
         11    1    1    2    0    0  0.33307329136E+02  0.56650357828E+02  0.54254790764E+02  0.85218680681E+02  0.00000000000E+00 0. -1.
</event>
<event>
 7    1  0.3203817E-009  0.1197057E+03  0.7561462E-02  0.1243583E+00
          1   -1    0    0  501    0  0.00000000000E+00  0.00000000000E+00  0.12246948351E+03  0.12246948351E+03  0.00000000000E+00 0. -1.
         -1   -1    0    0    0  501 -0.00000000000E+00 -0.00000000000E+00 -0.19174460956E+03  0.19174460956E+03  0.00000000000E+00 0.  1.
         25    2    1    2    0    0  0.61495980855E+02  0.73568306690E+02 -0.87850694089E+02  0.18040629708E+03  0.12503853871E+03 0.  0.
          5    1    3    3  502    0  0.50093096957E+02 -0.21653968810E+01  0.14632973408E+02  0.52398507776E+02  0.41800000000E+01 0. -1.
         -5    1    3    3    0  502  0.11402883898E+02  0.75733703571E+02 -0.10248366750E+03  0.12800778930E+03  0.41800000000E+01 0. -1.
        -11    1    1    2    0    0 -0.60324756979E+02 -0.27473094219E+02 -0.24537478088E+02  0.70681928677E+02  0.00000000000E+00 0.  1.
         11    1    1    2    0    0 -0.11712238759E+01 -0.46095212471E+02  0.43113046132E+02  0.63125867320E+02  0.00000000000E+00 0. -1.
</event>
<event>
 7    1  0.2594791E-009  0.9853868E+02  0.7561462E-02  0.1283399E+00
          1   -1    0    0  501    0  0.00000000000E+00  0.00000000000E+00  0.10584662125E+03  0.10584662125E+03  0.00000000000E+00 0. -1.
         -1   -1    0    0    0  501 -0.00000000000E+00 -0.00000000000E+00 -0.15946195194E+03  0.15946195194E+03  0.00000000000E+00 0.  1.
         25    2    1    2    0    0  0.67703018582E+02 -0.12758130834E+02 -0.19548402722E+02  0.14413747559E+03  0.12508798181E+03 0.  0.
          5    1    3    3  502    0  0.95693555531E+02 -0.22044880418E+02  0.13992812382E+02  0.99279930103E+02  0.41800000000E+01 0. -1.
         -5    1    3    3    0  502 -0.27990536949E+02  0.92867495841E+01 -0.33541215105E+02  0.44857545488E+02  0.41800000000E+01 0. -1.
        -11    1    1    2    0    0 -0.25169746053E+02  0.28488048602E+01  0.32716129339E+02  0.41376042880E+02  0.00000000000E+00 0. -1.
         11    1    1    2    0    0 -0.42533272530E+02  0.99093259735E+01 -0.66783057314E+02  0.79795054718E+02  0.00000000000E+00 0.  1.
</event>
<event>
 7    1  0.2594791E-009  0.8093136E+02  0.7561462E-02  0.1326429E+00
         -1   -1    0    0    0  501 -0.00000000000E+00  0.00000000000E+00  0.44013653965E+03  0.44013653965E+03  0.00000000000E+00 0. -1.
          1   -1    0    0  501    0  0.00000000000E+00 -0.00000000000E+00 -0.31823475140E+02  0.31823475140E+02  0.00000000000E+00 0.  1.
         25    2    1    2    0    0 -0.24783227980E+02 -0.37511692523E+02  0.25441315105E+03  0.28704566773E+03  0.12509128056E+03 0.  0.
          5    1    3    3  502    0 -0.10830751733E+01 -0.35122420239E+02  0.41644185345E+01  0.35631057197E+02  0.41800000000E+01 0. -1.
         -5    1    3    3    0  502 -0.23700152807E+02 -0.23892722843E+01  0.25024873251E+03  0.25141461053E+03  0.41800000000E+01 0. -1.
        -11    1    1    2    0    0  0.59638676248E+02  0.17751155727E+02  0.99425722065E+02  0.11729172794E+03  0.00000000000E+00 0.  1.
         11    1    1    2    0    0 -0.34855448268E+02  0.19760536796E+02  0.54474191393E+02  0.67622619117E+02  0.00000000000E+00 0. -1.
</event>
<event>
 7    1  0.2594791E-009  0.1542624E+03  0.7561462E-02  0.1195331E+00
         -1   -1    0    0    0  501 -0.00000000000E+00  0.00000000000E+00  0.24228775003E+03  0.24228775003E+03  0.00000000000E+00 0.  1.
          1   -1    0    0  501    0  0.00000000000E+00 -0.00000000000E+00 -0.10901586151E+03  0.10901586151E+03  0.00000000000E+00 0. -1.
         25    2    1    2    0    0  0.11857439833E+03  0.21330421119E+02  0.77518147924E+02  0.19018892497E+03  0.12509152297E+03 0.  0.
          5    1    3    3  502    0  0.91814696832E+02 -0.32309637388E+02  0.85437042060E+02  0.12957936479E+03  0.41800000000E+01 0.  1.
         -5    1    3    3    0  502  0.26759701498E+02  0.53640058507E+02 -0.79188941361E+01  0.60609560180E+02  0.41800000000E+01 0.  1.
        -11    1    1    2    0    0 -0.11050948381E+03 -0.49952374663E+02  0.47587879204E+02  0.13027736563E+03  0.00000000000E+00 0.  1.
         11    1    1    2    0    0 -0.80649145160E+01  0.28621953544E+02  0.81658613961E+01  0.30837320947E+02  0.00000000000E+00 0. -1.
</event>
<event>
 7    1  0.2594791E-009  0.8056115E+02  0.7561462E-02  0.1327466E+00
          4   -1    0    0  501    0  0.00000000000E+00  0.00000000000E+00  0.15820629851E+03  0.15820629851E+03  0.00000000000E+00 0. -1.
         -4   -1    0    0    0  501 -0.00000000000E+00 -0.00000000000E+00 -0.82374919725E+02  0.82374919725E+02  0.00000000000E+00 0.  1.
         25    2    1    2    0    0 -0.24824799307E+02 -0.35004282098E+02  0.53687990862E+02  0.14274193383E+03  0.12510511135E+03 0.  0.
          5    1    3    3  502    0 -0.14003759309E+02 -0.49236712430E+02 -0.28356561627E+02  0.58667930874E+02  0.41800000000E+01 0. -1.
         -5    1    3    3    0  502 -0.10821039998E+02  0.14232430332E+02  0.82044552489E+02  0.84074002955E+02  0.41800000000E+01 0. -1.
        -11    1    1    2    0    0  0.19664363708E+02  0.61417531854E+02  0.27986445052E+02  0.70299655232E+02  0.00000000000E+00 0. -1.
         11    1    1    2    0    0  0.51604355993E+01 -0.26413249757E+02 -0.58430571312E+01  0.27539629172E+02  0.00000000000E+00 0.  1.
</event>
<event>
 7    1  0.2594791E-009  0.1037182E+03  0.7561462E-02  0.1272666E+00
         -1   -1    0    0    0  501 -0.00000000000E+00  0.00000000000E+00  0.93460023637E+02  0.93460023637E+02  0.00000000000E+00 0.  1.
          1   -1    0    0  501    0  0.00000000000E+00 -0.00000000000E+00 -0.14260543141E+03  0.14260543141E+03  0.00000000000E+00 0. -1.
         25    2    1    2    0    0  0.16116775320E+02 -0.24020754846E+02  0.22650823166E+01  0.12841069411E+03  0.12508968245E+03 0.  0.
          5    1    3    3  502    0 -0.13304989339E+02  0.42121028572E+02 -0.25017699728E+02  0.50936838231E+02  0.41800000000E+01 0.  1.
         -5    1    3    3    0  502  0.29421764659E+02 -0.66141783418E+02  0.27282782045E+02  0.77473855883E+02  0.41800000000E+01 0.  1.
        -11    1    1    2    0    0  0.34501772174E+02 -0.58068185262E-01 -0.35234189895E+02  0.49313525453E+02  0.00000000000E+00 0. -1.
         11    1    1    2    0    0 -0.50618547494E+02  0.24078823032E+02 -0.16176300191E+02  0.58341235476E+02  0.00000000000E+00 0.  1.
</event>
<event>
 7    1  0.2594791E-009  0.8715971E+02  0.7561462E-02  0.1309879E+00
          1   -1    0    0  501    0  0.00000000000E+00  0.00000000000E+00  0.78000430437E+02  0.78000430437E+02  0.00000000000E+00 0.  1.
         -1   -1    0    0    0  501 -0.00000000000E+00 -0.00000000000E+00 -0.19734021717E+03  0.19734021717E+03  0.00000000000E+00 0. -1.
         25    2    1    2    0    0  0.17020184842E+02  0.48203740932E+02 -0.10149484324E+03  0.16899847314E+03  0.12508394536E+03 0.  0.
          5    1    3    3  502    0  0.58904442873E+02  0.37538182434E+02 -0.14056325996E+02  0.71371571589E+02  0.41800000000E+01 0.  1.
         -5    1    3    3    0  502 -0.41884258031E+02  0.10665558499E+02 -0.87438517243E+02  0.97626901551E+02  0.41800000000E+01 0.  1.
        -11    1    1    2    0    0 -0.18278569012E+02 -0.68033421451E+01 -0.50153296303E+02  0.53812123908E+02  0.00000000000E+00 0. -1.
         11    1    1    2    0    0  0.12583841692E+01 -0.41400398787E+02  0.32308352809E+02  0.52530050558E+02  0.00000000000E+00 0.  1.
</event>
<event>
 6    1  0.2594791E-009  0.1638197E+03  0.7561462E-02  0.1184451E+00
          2   -1    0    0  501    0  0.00000000000E+00  0.00000000000E+00  0.58371591277E+03  0.58371591277E+03  0.00000000000E+00 0.  1.
         -2   -1    0    0    0  501 -0.00000000000E+00 -0.00000000000E+00 -0.59289073522E+02  0.59289073522E+02  0.00000000000E+00 0. -1.
          5    1    1    2  502    0  0.49912468705E+02  0.11904643498E+02  0.18341198556E+03  0.19050040398E+03  0.41800000000E+01 0.  1.
         -5    1    1    2    0  502  0.98248280744E+02 -0.26075888680E+02  0.50329983437E+02  0.11350443283E+03  0.41800000000E+01 0.  1.
        -11    1    1    2    0    0 -0.26199156183E+01 -0.23851996961E+02  0.40535252062E+02  0.47105078034E+02  0.00000000000E+00 0.  1.
         11    1    1    2    0    0 -0.14554083383E+03  0.38023242143E+02  0.25014961818E+03  0.29189507144E+03  0.00000000000E+00 0. -1.
</event>
<event>
 7    1  0.2594791E-009  0.1009665E+03  0.7561462E-02  0.1278277E+00
          3   -1    0    0  501    0  0.00000000000E+00  0.00000000000E+00  0.35737691528E+03  0.35737691528E+03  0.00000000000E+00 0. -1.
         -3   -1    0    0    0  501 -0.00000000000E+00 -0.00000000000E+00 -0.31401251751E+02  0.31401251751E+02  0.00000000000E+00 0.  1.
         25    2    1    2    0    0 -0.15906075949E+01  0.65786026094E+02  0.19090519106E+03  0.23753519300E+03  0.12509134533E+03 0.  0.
          5    1    3    3  502    0  0.51323149760E+02  0.62842927720E+02  0.77465201928E+02  0.11225697829E+03  0.41800000000E+01 0.  1.
         -5    1    3    3    0  502 -0.52913757355E+02  0.29430983735E+01  0.11343998913E+03  0.12527821471E+03  0.41800000000E+01 0.  1.
        -11    1    1    2    0    0 -0.68113925051E+01 -0.31362155502E+02  0.54930414390E+02  0.63618631631E+02  0.00000000000E+00 0. -1.
         11    1    1    2    0    0  0.84020001000E+01 -0.34423870592E+02  0.80140058076E+02  0.87624342398E+02  0.00000000000E+00 0.  1.
</event>
<event>
 7    1  0.2594791E-009  0.1198547E+03  0.7561462E-02  0.1243337E+00
          1   -1    0    0  501    0  0.00000000000E+00  0.00000000000E+00  0.19822412867E+03  0.19822412867E+03  0.00000000000E+00 0. -1.
         -1   -1    0    0    0  501 -0.00000000000E+00 -0.00000000000E+00 -0.82246087821E+02  0.82246087821E+02  0.00000000000E+00 0.  1.
         25    2    1    2    0    0  0.54111729126E+02 -0.63735934089E+01  0.10582890489E+03  0.17267246046E+03  0.12508924641E+03 0.  0.
          5    1    3    3  502    0 -0.40311777393E+02  0.60016602438E+01  0.35545000825E+02  0.54240011117E+02  0.41800000000E+01 0.  1.
         -5    1    3    3    0  502  0.94423506519E+02 -0.12375253653E+02  0.70283904067E+02  0.11843244934E+03  0.41800000000E+01 0.  1.
        -11    1    1    2    0    0 -0.70358209097E+02 -0.19369552439E+02  0.20235259755E+02  0.75729273642E+02  0.00000000000E+00 0. -1.
         11    1    1    2    0    0  0.16246479971E+02  0.25743145848E+02 -0.10086123797E+02  0.32068482391E+02  0.00000000000E+00 0.  1.
</event>
<event>
 7    1  0.2594791E-009  0.9238729E+02  0.7561462E-02  0.1297171E+00
          1   -1    0    0  501    0  0.00000000000E+00  0.00000000000E+00  0.30030550551E+03  0.30030550551E+03  0.00000000000E+00 0. -1.
         -1   -1    0    0    0  501 -0.00000000000E+00 -0.00000000000E+00 -0.46291280394E+02  0.46291280394E+02  0.00000000000E+00 0.  1.
         25    2    1    2    0    0 -0.34513582271E+02  0.23707320378E+02  0.11672146922E+03  0.17613004425E+03  0.12507864210E+03 0.  0.
          5    1    3    3  502    0 -0.59823535291E+02  0.50712407336E+02  0.34333839715E+02  0.85713992919E+02  0.41800000000E+01 0. -1.
         -5    1    3    3    0  502  0.25309953020E+02 -0.27005086958E+02  0.82387629501E+02  0.90416051331E+02  0.41800000000E+01 0. -1.
        -11    1    1    2    0    0  0.16868674253E+02 -0.40969247454E+02  0.16660733012E+02  0.47335097259E+02  0.00000000000E+00 0.  1.
         11    1    1    2    0    0  0.17644908018E+02  0.17261927076E+02  0.12063202289E+03  0.12313164440E+03  0.00000000000E+00 0. -1.
</event>
<event>
 7    1  0.2594791E-009  0.1427210E+03  0.7561462E-02  0.1209714E+00
          1   -1    0    0  501    0  0.00000000000E+00  0.00000000000E+00  0.10001130038E+04  0.10001130038E+04  0.00000000000E+00 0. -1.
         -1   -1    0    0    0  501 -0.00000000000E+00 -0.00000000000E+00 -0.28468944291E+02  0.28468944291E+02  0.00000000000E+00 0.  1.
         25    2    1    2    0    0  0.51538000143E+02 -0.10839728822E+03  0.68653749995E+03  0.70808711474E+03  0.12508991037E+03 0.  0.
          5    1    3    3  502    0  0.61903046082E+02 -0.34233348439E+02  0.14509080335E+03  0.16147050157E+03  0.41800000000E+01 0.  1.
         -5    1    3    3    0  502 -0.10365045940E+02 -0.74163939784E+02  0.54144669660E+03  0.54661661317E+03  0.41800000000E+01 0.  1.
        -11    1    1    2    0    0 -0.64970697688E+02  0.56918857258E+02  0.22042077860E+03  0.23674092909E+03  0.00000000000E+00 0. -1.
         11    1    1    2    0    0  0.13432697546E+02  0.51478430965E+02  0.64685780921E+02  0.83753904215E+02  0.00000000000E+00 0.  1.
</event>
<event>
 7    1  0.2594791E-009  0.1343431E+03  0.7561462E-02  0.1221150E+00
         -1   -1    0    0    0  501 -0.00000000000E+00  0.00000000000E+00  0.37067666532E+02  0.37067666532E+02  0.00000000000E+00 0.  1.
          1   -1    0    0  501    0  0.00000000000E+00 -0.00000000000E+00 -0.99733777448E+03  0.99733777448E+03  0.00000000000E+00 0. -1.
         25    2    1    2    0    0 -0.82183187187E+02 -0.65677990082E+02 -0.82169875598E+03  0.83779693921E+03  0.12508873303E+03 0.  0.
          5    1    3    3  502    0 -0.11149456617E+03 -0.71635994473E+02 -0.63798772688E+03  0.65161995522E+03  0.41800000000E+01 0. -1.
         -5    1    3    3    0  502  0.29311378987E+02  0.59580043909E+01 -0.18371102910E+03  0.18617698399E+03  0.41800000000E+01 0. -1.
        -11    1    1    2    0    0  0.10683833274E+02  0.14296907728E+02  0.12473829951E+02  0.21774808785E+02  0.00000000000E+00 0.  1.
         11    1    1    2    0    0  0.71499353913E+02  0.51381082354E+02 -0.15104518192E+03  0.17483369302E+03  0.00000000000E+00 0. -1.
</event>
<event>
 7    1  0.2594791E-009  0.1678993E+03  0.7561462E-02  0.1180056E+00
          2   -1    0    0  501    0  0.00000000000E+00  0.00000000000E+00  0.16015387836E+04  0.16015387836E+04  0.00000000000E+00 0. -1.
         -2   -1    0    0    0  501 -0.00000000000E+00 -0.00000000000E+00 -0.22950731421E+02  0.22950731421E+02  0.00000000000E+00 0.  1.
         25    2    1    2    0    0 -0.12596554806E+03 -0.49898993408E+02  0.11705950812E+04  0.11850303731E+04  0.12508761822E+03 0.  0.
          5    1    3    3  502    0 -0.95429522692E+02 -0.90439338397E+02  0.76153183351E+03  0.77280933844E+03  0.41800000000E+01 0.  1.
         -5    1    3    3    0  502 -0.30536025373E+02  0.40540344989E+02  0.40906324772E+03  0.41222103470E+03  0.41800000000E+01 0.  1.
        -11    1    1    2    0    0  0.92777443177E+02  0.68462368209E+02  0.36123245873E+03  0.37918813149E+03  0.00000000000E+00 0. -1.
         11    1    1    2    0    0  0.33188104888E+02 -0.18563374801E+02  0.46760512222E+02  0.60271010389E+02  0.00000000000E+00 0.  1.
</event>
<event>
 7    1  0.2594791E-009  0.9252490E+02  0.7561462E-02  0.1296850E+00
          2   -1    0    0  501    0  0.00000000000E+00  0.00000000000E+00  0.50292693486E+02  0.50292693486E+02  0.00000000000E+00 0. -1.
         -2   -1    0    0    0  501 -0.00000000000E+00 -0.00000000000E+00 -0.31507410215E+03  0.31507410215E+03  0.00000000000E+00 0.  1.
         25    2    1    2    0    0  0.17206073962E+02 -0.48137818352E+02 -0.94997428110E+02  0.16518076726E+03  0.12508747334E+03 0.  0.
          5    1    3    3  502    0 -0.43528244383E+01 -0.66313288154E+02 -0.61789838225E+00  0.66590190455E+02  0.41800000000E+01 0. -1.
         -5    1    3    3    0  502  0.21558898400E+02  0.18175469802E+02 -0.94379529728E+02  0.98590576803E+02  0.41800000000E+01 0. -1.
        -11    1    1    2    0    0  0.21851995081E+02 -0.64957430835E+01 -0.10292933862E+03  0.10542368385E+03  0.00000000000E+00 0. -1.
         11    1    1    2    0    0 -0.39058069043E+02  0.54633561435E+02 -0.66854641931E+02  0.94762344527E+02  0.00000000000E+00 0.  1.
</event>
<event>
 7    1  0.2594791E-009  0.8298351E+02  0.7561462E-02  0.1320792E+00
         -1   -1    0    0    0  501 -0.00000000000E+00  0.00000000000E+00  0.21677222245E+02  0.21677222245E+02  0.00000000000E+00 0.  1.
          1   -1    0    0  501    0  0.00000000000E+00 -0.00000000000E+00 -0.18135233761E+04  0.18135233761E+04  0.00000000000E+00 0. -1.
         25    2    1    2    0    0  0.19202735380E+02 -0.38839161156E+02 -0.16764967050E+04  0.16817149973E+04  0.12508758825E+03 0.  0.
          5    1    3    3  502    0  0.29548957778E+02 -0.63725183883E+01 -0.15591727146E+04  0.15594713130E+04  0.41800000000E+01 0. -1.
         -5    1    3    3    0  502 -0.10346222398E+02 -0.32466642768E+02 -0.11732399043E+03  0.12224368426E+03  0.41800000000E+01 0. -1.
        -11    1    1    2    0    0  0.18102090626E+02 -0.22775100497E+02 -0.36818500291E+02  0.46925396657E+02  0.00000000000E+00 0.  1.
         11    1    1    2    0    0 -0.37304826006E+02  0.61614261653E+02 -0.78530948603E+02  0.10656020444E+03  0.00000000000E+00 0. -1.
</event>
<event>
 7    1  0.2594791E-009  0.1999212E+03  0.7561462E-02  0.1149806E+00
          3   -1    0    0  501    0  0.00000000000E+00  0.00000000000E+00  0.95959952818E+02  0.95959952818E+02  0.00000000000E+00 0. -1.
         -3   -1    0    0    0  501 -0.00000000000E+00 -0.00000000000E+00 -0.83231683004E+03  0.83231683004E+03  0.00000000000E+00 0.  1.
         25    2    1    2    0    0  0.15589233446E+03 -0.10904087388E+03 -0.67092323424E+03  0.70850405075E+03  0.12509065335E+03 0.  0.
          5    1    3    3  502    0  0.10396146818E+03 -0.11277540739E+03 -0.33403866638E+03  0.36759431771E+03  0.41800000000E+01 0.  1.
         -5    1    3    3    0  502  0.51930866288E+02  0.37345335045E+01 -0.33688456787E+03  0.34090973304E+03  0.41800000000E+01 0.  1.
        -11    1    1    2    0    0 -0.12678414294E+02 -0.21498371572E+01  0.16407781397E+02  0.20846565165E+02  0.00000000000E+00 0. -1.
         11    1    1    2    0    0 -0.14321392017E+03  0.11119071104E+03 -0.81841424375E+02  0.19892616695E+03  0.00000000000E+00 0.  1.
</event>
<event>
 7    1  0.2594791E-009  0.1231961E+03  0.7561462E-02  0.1237916E+00
          2   -1    0    0  501    0  0.00000000000E+00  0.00000000000E+00  0.30431293046E+03  0.30431293046E+03  0.00000000000E+00 0. -1.
         -2   -1    0    0    0  501 -0.00000000000E+00 -0.00000000000E+00 -0.50760950080E+02  0.50760950080E+02  0.00000000000E+00 0.  1.
         25    2    1    2    0    0  0.57055251949E+02 -0.25762649973E+02  0.14454032326E+03  0.20114361080E+03  0.12509129150E+03 0.  0.
          5    1    3    3  502    0  0.64758018943E+02 -0.68580182001E+02  0.11296470737E+03  0.14722547297E+03  0.41800000000E+01 0. -1.
         -5    1    3    3    0  502 -0.77027669937E+01  0.42817532028E+02  0.31575615895E+02  0.53918137834E+02  0.41800000000E+01 0. -1.
        -11    1    1    2    0    0 -0.10430358663E+02  0.53172870377E+02  0.47901525097E+02  0.72323596652E+02  0.00000000000E+00 0.  1.
         11    1    1    2    0    0 -0.46624893286E+02 -0.27410220404E+02  0.61110132025E+02  0.81606673089E+02  0.00000000000E+00 0. -1.
</event>
<event>
 7    1  0.2594791E-009  0.1037840E+03  0.7561462E-02  0.1272534E+00
          2   -1    0    0  501    0  0.00000000000E+00  0.00000000000E+00  0.16433664009E+03  0.16433664009E+03  0.00000000000E+00 0. -1.
         -2   -1    0    0    0  501 -0.00000000000E+00 -0.00000000000E+00 -0.96657931902E+02  0.96657931902E+02  0.00000000000E+00 0.  1.
         25    2    1    2    0    0 -0.34933146663E+02 -0.53514727480E+02  0.22933079702E+02  0.14232996177E+03  0.12509093125E+03 0.  0.
          5    1    3    3  502    0  0.34806113986E+02  0.18737510031E+02  0.10061642918E+02  0.41003279274E+02  0.41800000000E+01 0.  1.
         -5    1    3    3    0  502 -0.69739260649E+02 -0.72252237511E+02  0.12871436784E+02  0.10132668250E+03  0.41800000000E+01 0.  1.
        -11    1    1    2    0    0  0.32995136488E+02  0.32858478147E+02  0.71181439781E+02  0.85059720123E+02  0.00000000000E+00 0. -1.
         11    1    1    2    0    0  0.19380101751E+01  0.20656249333E+02 -0.26435811292E+02  0.33604890100E+02  0.00000000000E+00 0.  1.
</event>
<event>
 7    1  0.2713186E-009  0.1201911E+03  0.7561462E-02  0.1242782E+00
          2   -1    0    0  501    0  0.00000000000E+00  0.00000000000E+00  0.27494408114E+03  0.27494408114E+03  0.00000000000E+00 0. -1.
         -2   -1    0    0    0  501 -0.00000000000E+00 -0.00000000000E+00 -0.70727070338E+02  0.70727070338E+02  0.00000000000E+00 0.  1.
         25    2    1    2    0    0 -0.41376316207E+02 -0.76651104168E+02  0.12198697699E+03  0.19523095778E+03  0.12508762132E+03 0.  0.
          5    1    3    3  502    0 -0.70517012121E+02 -0.25013148726E+01  0.41813297640E+02  0.82126304155E+02  0.41800000000E+01 0. -1.
         -5    1    3    3    0  502  0.29140695914E+02 -0.74149789295E+02  0.80173679352E+02  0.11310465363E+03  0.41800000000E+01 0. -1.
        -11    1    1    2    0    0  0.12363164159E+02  0.46330896428E+02 -0.10114795675E+02  0.49007232971E+02  0.00000000000E+00 0.  1.
         11    1    1    2    0    0  0.29013152048E+02  0.30320207739E+02  0.92344829483E+02  0.10143296072E+03  0.00000000000E+00 0. -1.
</event>
<event>
 7    1  0.2594791E-009  0.1681943E+03  0.7561462E-02  0.1179744E+00
          1   -1    0    0  501    0  0.00000000000E+00  0.00000000000E+00  0.57128363576E+03  0.57128363576E+03  0.00000000000E+00 0. -1.
         -1   -1    0    0    0  501 -0.00000000000E+00 -0.00000000000E+00 -0.18281482646E+03  0.18281482646E+03  0.00000000000E+00 0.  1.
         25    2    1    2    0    0 -0.11924713948E+03  0.81323105483E+02  0.51025224011E+03  0.54482887647E+03  0.12509128004E+03 0.  0.
          5    1    3    3  502    0 -0.13590235862E+03  0.82203764879E+02  0.50038536159E+03  0.52500465953E+03  0.41800000000E+01 0.  1.
         -5    1    3    3    0  502  0.16655219139E+02 -0.88065939557E+00  0.98668785224E+01  0.19824216941E+02  0.41800000000E+01 0.  1.
        -11    1    1    2    0    0  0.81168237873E-01  0.10108379223E+02 -0.33617620663E+02  0.35104562921E+02  0.00000000000E+00 0.  1.
         11    1    1    2    0    0  0.11916597124E+03 -0.91431484707E+02 -0.88165810151E+02  0.17416502283E+03  0.00000000000E+00 0. -1.
</event>
<event>
 7    1  0.2594791E-009  0.1423495E+03  0.7561462E-02  0.1210202E+00
         -2   -1    0    0    0  501 -0.00000000000E+00  0.00000000000E+00  0.96017087261E+02  0.96017087261E+02  0.00000000000E+00 0.  1.
          2   -1    0    0  501    0  0.00000000000E+00 -0.00000000000E+00 -0.30480844026E+03  0.30480844026E+03  0.00000000000E+00 0. -1.
         25    2    1    2    0    0 -0.68352145924E+02 -0.72018739896E+02 -0.95945584617E+01  0.15999568130E+03  0.12509135755E+03 0.  0.
          5    1    3    3  502    0 -0.10199507922E+03 -0.44779625708E+02  0.10741503441E+02  0.11198688923E+03  0.41800000000E+01 0.  1.
         -5    1    3    3    0  502  0.33642933294E+02 -0.27239114188E+02 -0.20336061903E+02  0.48008792071E+02  0.41800000000E+01 0.  1.
        -11    1    1    2    0    0  0.85455134523E+02  0.42065894485E+02 -0.11179345221E+03  0.14686693111E+03  0.00000000000E+00 0.  1.
         11    1    1    2    0    0 -0.17102988599E+02  0.29952845410E+02 -0.87403342321E+02  0.93962915111E+02  0.00000000000E+00 0. -1.
</event>
<event>
 7    1  0.2594791E-009  0.6813709E+02  0.7561462E-02  0.1366545E+00
         -1   -1    0    0    0  501 -0.00000000000E+00  0.00000000000E+00  0.46754483416E+02  0.46754483416E+02  0.00000000000E+00 0.  1.
          1   -1    0    0  501    0  0.00000000000E+00 -0.00000000000E+00 -0.29388373160E+03  0.29388373160E+03  0.00000000000E+00 0. -1.
         25    2    1    2    0    0  0.15437119598E+02  0.46136199070E+02 -0.14508912966E+03  0.19764571001E+03  0.12508444194E+03 0.  0.
          5    1    3    3  502    0  0.64970719203E+01  0.17444669495E+02 -0.16185814780E+03  0.16297871286E+03  0.41800000000E+01 0.  1.
         -5    1    3    3    0  502  0.89400476775E+01  0.28691529575E+02  0.16769018142E+02  0.34666997148E+02  0.41800000000E+01 0.  1.
        -11    1    1    2    0    0 -0.40852204796E+02 -0.89641892531E+01 -0.85208636104E+02  0.94919813487E+02  0.00000000000E+00 0. -1.
         11    1    1    2    0    0  0.25415085198E+02 -0.37172009817E+02 -0.16831482423E+02  0.48072691520E+02  0.00000000000E+00 0.  1.
</event>
<event>
 7    1  0.2594791E-009  0.1054378E+03  0.7561462E-02  0.1269259E+00
          2   -1    0    0  501    0  0.00000000000E+00  0.00000000000E+00  0.95902049062E+03  0.95902049062E+03  0.00000000000E+00 0. -1.
         -2   -1    0    0    0  501 -0.00000000000E+00 -0.00000000000E+00 -0.17370758226E+02  0.17370758226E+02  0.00000000000E+00 0.  1.
         25    2    1    2    0    0  0.47022098235E+02 -0.33004309154E+02  0.64393909106E+03  0.65848678744E+03  0.12508770564E+03 0.  0.
          5    1    3    3  502    0  0.44391229291E+02  0.27431558754E+02  0.11834803022E+03  0.12940942898E+03  0.41800000000E+01 0.  1.
         -5    1    3    3    0  502  0.26308689444E+01 -0.60435867908E+02  0.52559106084E+03  0.52907735846E+03  0.41800000000E+01 0.  1.
        -11    1    1    2    0    0 -0.22332000892E+01  0.49950581293E+02  0.22741922104E+03  0.23285091765E+03  0.00000000000E+00 0. -1.
         11    1    1    2    0    0 -0.44788898146E+02 -0.16946272139E+02  0.70291420297E+02  0.85053543747E+02  0.00000000000E+00 0.  1.
</event>
<event>
 7    1  0.2727813E-009  0.1183535E+03  0.7561462E-02  0.1245838E+00
         -2   -1    0    0    0  501 -0.00000000000E+00  0.00000000000E+00  0.62290233093E+02  0.62290233093E+02  0.00000000000E+00 0. -1.
          2   -1    0    0  501    0  0.00000000000E+00 -0.00000000000E+00 -0.28989681692E+03  0.28989681692E+03  0.00000000000E+00 0.  1.
         25    2    1    2    0    0 -0.78029916790E+02 -0.26404246556E+00 -0.10969243670E+03  0.18376192219E+03  0.12508907125E+03 0.  0.
          5    1    3    3  502    0 -0.22431609304E+02 -0.49532778169E+02 -0.42366869576E+01  0.54700046851E+02  0.41800000000E+01 0.  1.
         -5    1    3    3    0  502 -0.55598307486E+02  0.49268735703E+02 -0.10545574974E+03  0.12906187534E+03  0.41800000000E+01 0.  1.
        -11    1    1    2    0    0  0.73219489177E+02  0.28909458717E+02 -0.11482065947E+03  0.13921434639E+03  0.00000000000E+00 0.  1.
         11    1    1    2    0    0  0.48104276130E+01 -0.28645416252E+02 -0.30934876565E+01  0.29210781433E+02  0.00000000000E+00 0. -1.
</event>
<event>
 7    1  0.2594791E-009  0.1662313E+03  0.7561462E-02  0.1181836E+00
          1   -1    0    0  501    0  0.00000000000E+00  0.00000000000E+00  0.62251428976E+03  0.62251428976E+03  0.00000000000E+00 0. -1.
         -1   -1    0    0    0  501 -0.00000000000E+00 -0.00000000000E+00 -0.44645978745E+02  0.44645978745E+02  0.00000000000E+00 0.  1.
         25    2    1    2    0    0  0.12492199849E+03 -0.12006441436E+02  0.29814933646E+03  0.34682825721E+03  0.12508857991E+03 0.  0.
          5    1    3    3  502    0 -0.21537023011E+02  0.16102518810E+02  0.58749472871E+02  0.64746485888E+02  0.41800000000E+01 0.  1.
         -5    1    3    3    0  502  0.14645902150E+03 -0.28108960247E+02  0.23939986359E+03  0.28208177132E+03  0.41800000000E+01 0.  1.
        -11    1    1    2    0    0 -0.62968156249E+02 -0.40482293496E+02  0.13010588994E+03  0.15010445492E+03  0.00000000000E+00 0. -1.
         11    1    1    2    0    0 -0.61953842244E+02  0.52488734932E+02  0.14961308462E+03  0.17022755638E+03  0.00000000000E+00 0.  1.
</event>
<event>
 7    1  0.2594791E-009  0.9268364E+02  0.7561462E-02  0.1296480E+00
         -2   -1    0    0    0  501 -0.00000000000E+00  0.00000000000E+00  0.22858352064E+03  0.22858352064E+03  0.00000000000E+00 0.  1.
          2   -1    0    0  501    0  0.00000000000E+00 -0.00000000000E+00 -0.89415344550E+02  0.89415344550E+02  0.00000000000E+00 0. -1.
         25    2    1    2    0    0 -0.16050982560E+02  0.70504571731E+02  0.66698081911E+01  0.14464157517E+03  0.12509264667E+03 0.  0.
          5    1    3    3  502    0  0.13903354811E+02  0.42337575373E+02 -0.54684353484E+02  0.70665582000E+02  0.41800000000E+01 0.  1.
         -5    1    3    3    0  502 -0.29954337371E+02  0.28166996357E+02  0.61354161675E+02  0.73975993173E+02  0.41800000000E+01 0.  1.
        -11    1    1    2    0    0 -0.12588762182E+02 -0.69491596140E+02  0.51407488965E+02  0.87351524252E+02  0.00000000000E+00 0. -1.
         11    1    1    2    0    0  0.28639744742E+02 -0.10129755902E+01  0.81090878932E+02  0.86005765762E+02  0.00000000000E+00 0.  1.
</event>
<event>
 7    1  0.2594791E-009  0.9513021E+02  0.7561462E-02  0.1290883E+00
         -1   -1    0    0    0  501 -0.00000000000E+00  0.00000000000E+00  0.22948851736E+03  0.22948851736E+03  0.00000000000E+00 0.  1.
          1   -1    0    0  501    0  0.00000000000E+00 -0.00000000000E+00 -0.73117750175E+02  0.73117750175E+02  0.00000000000E+00 0. -1.
         25    2    1    2    0    0 -0.18241146033E+02 -0.20919276614E+02  0.12784271014E+02  0.12876555009E+03  0.12508706472E+03 0.  0.
          5    1    3    3  502    0 -0.68382709588E+02 -0.20298600698E+02  0.27145849522E+02  0.76436887084E+02  0.41800000000E+01 0.  1.
         -5    1    3    3    0  502  0.50141563555E+02 -0.62067591647E+00 -0.14361578508E+02  0.52328663002E+02  0.41800000000E+01 0.  1.
        -11    1    1    2    0    0  0.25732599657E+02 -0.16339879779E+02  0.59549436344E+01  0.31058327547E+02  0.00000000000E+00 0. -1.
         11    1    1    2    0    0 -0.74914536242E+01  0.37259156393E+02  0.13763155254E+03  0.14278238991E+03  0.00000000000E+00 0.  1.
</event>
<event>
 7    1  0.2594791E-009  0.1011666E+03  0.7561462E-02  0.1277862E+00
          1   -1    0    0  501    0  0.00000000000E+00  0.00000000000E+00  0.26054504097E+03  0.26054504097E+03  0.00000000000E+00 0. -1.
         -1   -1    0    0    0  501 -0.00000000000E+00 -0.00000000000E+00 -0.51808604623E+02  0.51808604623E+02  0.00000000000E+00 0.  1.
         25    2    1    2    0    0 -0.38424618314E+01 -0.40760695711E+02  0.11004156129E+03  0.17155459069E+03  0.12508250696E+03 0.  0.
          5    1    3    3  502    0  0.23198196019E+02 -0.76520648076E+02  0.94638705494E+02  0.12396581326E+03  0.41800000000E+01 0.  1.
         -5    1    3    3    0  502 -0.27040657851E+02  0.35759952366E+02  0.15402855801E+02  0.47588777427E+02  0.41800000000E+01 0.  1.
        -11    1    1    2    0    0  0.34708846945E+02  0.20394507225E+02  0.56207977609E+01  0.40647673349E+02  0.00000000000E+00 0.  1.
         11    1    1    2    0    0 -0.30866385114E+02  0.20366188485E+02  0.93074077288E+02  0.10015138155E+03  0.00000000000E+00 0. -1.
</event>
<event>
 7    1  0.2594791E-009  0.2221735E+03  0.7561462E-02  0.1132273E+00
          2   -1    0    0  501    0  0.00000000000E+00  0.00000000000E+00  0.35998315874E+02  0.35998315874E+02  0.00000000000E+00 0. -1.
         -2   -1    0    0    0  501 -0.00000000000E+00 -0.00000000000E+00 -0.14990715226E+04  0.14990715226E+04  0.00000000000E+00 0.  1.
         25    2    1    2    0    0  0.13635632759E+03 -0.15286312041E+03 -0.79437698359E+03  0.82984491349E+03  0.12509039425E+03 0.  0.
          5    1    3    3  502    0 -0.16381102221E+02  0.63293988535E+01 -0.40535200037E+02  0.44373152264E+02  0.41800000000E+01 0. -1.
         -5    1    3    3    0  502  0.15273742981E+03 -0.15919251926E+03 -0.75384178355E+03  0.78547176122E+03  0.41800000000E+01 0. -1.
        -11    1    1    2    0    0 -0.72165008095E+02  0.67313357498E+02 -0.46281971048E+03  0.47322400711E+03  0.00000000000E+00 0.  1.
         11    1    1    2    0    0 -0.64191319490E+02  0.85549762909E+02 -0.20587651261E+03  0.23200091784E+03  0.00000000000E+00 0. -1.
</event>
<event>
 7    1  0.2594791E-009  0.1420481E+03  0.7561462E-02  0.1210599E+00
         -1   -1    0    0    0  501 -0.00000000000E+00  0.00000000000E+00  0.10902531622E+03  0.10902531622E+03  0.00000000000E+00 0.  1.
          1   -1    0    0  501    0  0.00000000000E+00 -0.00000000000E+00 -0.24554131190E+03  0.24554131190E+03  0.00000000000E+00 0. -1.
         25    2    1    2    0    0 -0.34631956746E+02  0.93990773658E+02 -0.42150503543E+00  0.16026255610E+03  0.12510104420E+03 0.  0.
          5    1    3    3  502    0 -0.76416166086E+02  0.78056787753E+02  0.19650851376E+02  0.11106719099E+03  0.41800000000E+01 0.  1.
         -5    1    3    3    0  502  0.41784209340E+02  0.15933985906E+02 -0.20072356411E+02  0.49195365117E+02  0.41800000000E+01 0.  1.
        -11    1    1    2    0    0  0.23047998522E+02  0.10078354880E+02 -0.59407969846E+02  0.64514264734E+02  0.00000000000E+00 0.  1.
         11    1    1    2    0    0  0.11583958223E+02 -0.10406912854E+03 -0.76686520803E+02  0.12978980729E+03  0.00000000000E+00 0. -1.
</event>
<event>
 7    1  0.2594791E-009  0.7902729E+02  0.7561462E-02  0.1331835E+00
         -2   -1    0    0    0  501 -0.00000000000E+00  0.00000000000E+00  0.14636013002E+02  0.14636013002E+02  0.00000000000E+00 0.  1.
          2   -1    0    0  501    0  0.00000000000E+00 -0.00000000000E+00 -0.16636326887E+04  0.16636326887E+04  0.00000000000E+00 0. -1.
         25    2    1    2    0    0 -0.31864926049E+02  0.25240230325E+02 -0.14478326035E+04  0.14537980987E+04  0.12512881923E+03 0.  0.
          5    1    3    3  502    0  0.12061778006E+02  0.11370384940E+02 -0.12679109395E+04  0.12680261807E+04  0.41800000000E+01 0. -1.
         -5    1    3    3    0  502 -0.43926704055E+02  0.13869845385E+02 -0.17992166400E+03  0.18577191799E+03  0.41800000000E+01 0. -1.
        -11    1    1    2    0    0  0.59542393238E+02 -0.37420308015E+01 -0.15788821116E+03  0.16878384582E+03  0.00000000000E+00 0.  1.
         11    1    1    2    0    0 -0.27677467189E+02 -0.21498199524E+02 -0.43275861058E+02  0.55686757160E+02  0.00000000000E+00 0. -1.
</event>
<event>
 7    1  0.2594791E-009  0.3005041E+03  0.7561462E-02  0.1084989E+00
          2   -1    0    0  501    0  0.00000000000E+00  0.00000000000E+00  0.50495956845E+03  0.50495956845E+03  0.00000000000E+00 0. -1.
         -2   -1    0    0    0  501 -0.00000000000E+00 -0.00000000000E+00 -0.19523274835E+03  0.19523274835E+03  0.00000000000E+00 0.  1.
         25    2    1    2    0    0  0.11346461328E+03  0.25686893994E+03  0.59675775442E+02  0.31315070579E+03  0.12508515336E+03 0.  0.
          5    1    3    3  502    0  0.12603814331E+03  0.14181456795E+03  0.53497989945E+02  0.19717122655E+03  0.41800000000E+01 0.  1.
         -5    1    3    3    0  502 -0.12573530032E+02  0.11505437199E+03  0.61777854967E+01  0.11597947924E+03  0.41800000000E+01 0.  1.
        -11    1    1    2    0    0 -0.76270787769E+02 -0.24465909531E+03  0.21774773658E+03  0.33628764885E+03  0.00000000000E+00 0.  1.
         11    1    1    2    0    0 -0.37193825507E+02 -0.12209844627E+02  0.32303308077E+02  0.50753962155E+02  0.00000000000E+00 0. -1.
</event>
<event>
 7    1  0.2594791E-009  0.2201175E+03  0.7561462E-02  0.1133795E+00
         -1   -1    0    0    0  501 -0.00000000000E+00  0.00000000000E+00  0.85508924137E+02  0.85508924137E+02  0.00000000000E+00 0.  1.
          1   -1    0    0  501    0  0.00000000000E+00 -0.00000000000E+00 -0.59563420534E+03  0.59563420534E+03  0.00000000000E+00 0. -1.
         25    2    1    2    0    0  0.19695503751E+03  0.17082243741E+02 -0.23408958144E+03  0.33095089588E+03  0.12508986166E+03 0.  0.
          5    1    3    3  502    0  0.23132790587E+02 -0.41987282386E+02 -0.31455377965E+02  0.57488877928E+02  0.41800000000E+01 0. -1.
         -5    1    3    3    0  502  0.17382224693E+03  0.59069526126E+02 -0.20263420348E+03  0.27346201795E+03  0.41800000000E+01 0. -1.
        -11    1    1    2    0    0 -0.98222223380E+02 -0.41730904626E+02 -0.18538669026E+03  0.21390955681E+03  0.00000000000E+00 0.  1.
         11    1    1    2    0    0 -0.98732814134E+02  0.24648660885E+02 -0.90649009495E+02  0.13628267679E+03  0.00000000000E+00 0. -1.
</event>
<event>
 7    1  0.2594791E-009  0.2407008E+03  0.7561462E-02  0.1119327E+00
          1   -1    0    0  501    0  0.00000000000E+00  0.00000000000E+00  0.42154857826E+03  0.42154857826E+03  0.00000000000E+00 0.  1.
         -1   -1    0    0    0  501 -0.00000000000E+00 -0.00000000000E+00 -0.15614339410E+03  0.15614339410E+03  0.00000000000E+00 0. -1.
         25    2    1    2    0    0  0.21801490340E+03  0.37972116648E+02  0.21620229839E+03  0.33371098468E+03  0.12508879935E+03 0.  0.
          5    1    3    3  502    0  0.19669735834E+03  0.75584208464E+02  0.17826944197E+03  0.27604399955E+03  0.41800000000E+01 0.  1.
         -5    1    3    3    0  502  0.21317545058E+02 -0.37612091816E+02  0.37932856412E+02  0.57666985127E+02  0.41800000000E+01 0.  1.
        -11    1    1    2    0    0 -0.10633651446E+03 -0.44644067286E+02  0.62737088057E+02  0.13128781082E+03  0.00000000000E+00 0. -1.
         11    1    1    2    0    0 -0.11167838894E+03  0.66719506381E+01 -0.13534202285E+02  0.11269317687E+03  0.00000000000E+00 0.  1.
</event>
<event>
 7    1  0.2594791E-009  0.1561707E+03  0.7561462E-02  0.1193089E+00
         -1   -1    0    0    0  501 -0.00000000000E+00  0.00000000000E+00  0.93725618331E+02  0.93725618331E+02  0.00000000000E+00 0.  1.
          1   -1    0    0  501    0  0.00000000000E+00 -0.00000000000E+00 -0.28504570474E+03  0.28504570474E+03  0.00000000000E+00 0. -1.
         25    2    1    2    0    0  0.11961573014E+03 -0.22462199621E+02 -0.11128677313E+03  0.20699020191E+03  0.12509086500E+03 0.  0.
          5    1    3    3  502    0  0.34223219311E+02  0.42277426354E+02 -0.30739885974E+01  0.54640015785E+02  0.41800000000E+01 0. -1.
         -5    1    3    3    0  502  0.85392510832E+02 -0.64739625975E+02 -0.10821278453E+03  0.15235018613E+03  0.41800000000E+01 0. -1.
        -11    1    1    2    0    0 -0.11326057190E+03 -0.13468689357E+02 -0.70425102239E+02  0.13404871415E+03  0.00000000000E+00 0. -1.
         11    1    1    2    0    0 -0.63551582430E+01  0.35930888978E+02 -0.96082110418E+01  0.37732407006E+02  0.00000000000E+00 0.  1.
</event>
<event>
 7    1  0.2594791E-009  0.1068717E+03  0.7561462E-02  0.1266475E+00
          2   -1    0    0  501    0  0.00000000000E+00  0.00000000000E+00  0.10790339042E+04  0.10790339042E+04  0.00000000000E+00 0. -1.
         -2   -1    0    0    0  501 -0.00000000000E+00 -0.00000000000E+00 -0.14770600715E+02  0.14770600715E+02  0.00000000000E+00 0.  1.
         25    2    1    2    0    0  0.62229605348E+02 -0.87934635093E+01  0.64768030508E+03  0.66263662909E+03  0.12509067045E+03 0.  0.
          5    1    3    3  502    0  0.80839260586E+02 -0.18693955119E+02  0.23243946830E+03  0.24684008758E+03  0.41800000000E+01 0.  1.
         -5    1    3    3    0  502 -0.18609655238E+02  0.99004916099E+01  0.41524083678E+03  0.41579654151E+03  0.41800000000E+01 0.  1.
        -11    1    1    2    0    0  0.22123816595E+02 -0.73077535623E+01  0.59393936986E+02  0.63800519383E+02  0.00000000000E+00 0.  1.
         11    1    1    2    0    0 -0.84353421944E+02  0.16101217072E+02  0.35718906138E+03  0.36736735641E+03  0.00000000000E+00 0. -1.
</event>
<event>
 7    1  0.2594791E-009  0.7525709E+02  0.7561462E-02  0.1343077E+00
         -1   -1    0    0    0  501 -0.00000000000E+00  0.00000000000E+00  0.15956916430E+03  0.15956916430E+03  0.00000000000E+00 0.  1.
          1   -1    0    0  501    0  0.00000000000E+00 -0.00000000000E+00 -0.92389168006E+02  0.92389168006E+02  0.00000000000E+00 0. -1.
         25    2    1    2    0    0  0.41933737425E+02 -0.62173182759E+01  0.64717443138E+02  0.14710032070E+03  0.12511220373E+03 0.  0.
          5    1    3    3  502    0  0.19976472174E+02  0.49101931531E+01 -0.36904036830E+02  0.42456445584E+02  0.41800000000E+01 0. -1.
         -5    1    3    3    0  502  0.21957265251E+02 -0.11127511429E+02  0.10162147997E+03  0.10464387511E+03  0.41800000000E+01 0. -1.
        -11    1    1    2    0    0 -0.64513271747E+02  0.30531222349E+02  0.52108259368E+01  0.71563052454E+02  0.00000000000E+00 0.  1.
         11    1    1    2    0    0  0.22579534323E+02 -0.24313904073E+02 -0.27482727845E+01  0.33294959150E+02  0.00000000000E+00 0. -1.
</event>
<event>
 7    1  0.2594791E-009  0.9773864E+02  0.7561462E-02  0.1285124E+00
          1   -1    0    0  501    0  0.00000000000E+00  0.00000000000E+00  0.17026334617E+03  0.17026334617E+03  0.00000000000E+00 0. -1.
         -1   -1    0    0    0  501 -0.00000000000E+00 -0.00000000000E+00 -0.82485340886E+02  0.82485340886E+02  0.00000000000E+00 0.  1.
         25    2    1    2    0    0  0.12978408683E+02  0.31466128893E+02  0.13864117457E+02  0.13037558443E+03  0.12508806059E+03 0.  0.
          5    1    3    3  502    0  0.44314273256E+02  0.53734970171E+02  0.42997447892E+02  0.81960080275E+02  0.41800000000E+01 0. -1.
         -5    1    3    3    0  502 -0.31335864573E+02 -0.22268841278E+02 -0.29133330435E+02  0.48415504156E+02  0.41800000000E+01 0. -1.
        -11    1    1    2    0    0 -0.46546530586E+02 -0.25040486603E+02  0.70375034695E+02  0.88012788771E+02  0.00000000000E+00 0. -1.
         11    1    1    2    0    0  0.33568121903E+02 -0.64256422898E+01  0.35388531345E+01  0.34360313858E+02  0.00000000000E+00 0.  1.
</event>
<event>
 7    1  0.2594791E-009  0.6472688E+02  0.7561462E-02  0.1379002E+00
          2   -1    0    0  501    0  0.00000000000E+00  0.00000000000E+00  0.37144506021E+03  0.37144506021E+03  0.00000000000E+00 0. -1.
         -2   -1    0    0    0  501 -0.00000000000E+00 -0.00000000000E+00 -0.44471353802E+02  0.44471353802E+02  0.00000000000E+00 0.  1.
         25    2    1    2    0    0  0.22704414584E+02 -0.25448185091E+02  0.27764935736E+03  0.30642090595E+03  0.12506600415E+03 0.  0.
          5    1    3    3  502    0  0.22061295080E+02 -0.18151895956E+02  0.29001747522E+03  0.29145119729E+03  0.41800000000E+01 0. -1.
         -5    1    3    3    0  502  0.64311950391E+00 -0.72962891342E+01 -0.12368117863E+02  0.14969708658E+02  0.41800000000E+01 0. -1.
        -11    1    1    2    0    0 -0.55633815188E+02  0.16087330767E+02  0.48027781385E+02  0.75236901772E+02  0.00000000000E+00 0. -1.
         11    1    1    2    0    0  0.32929400603E+02  0.93608543239E+01  0.12965676697E+01  0.34258606298E+02  0.00000000000E+00 0.  1.
</event>
<event>
 7    1  0.2594791E-009  0.8821729E+02  0.7561462E-02  0.1307227E+00
         -1   -1    0    0    0  501 -0.00000000000E+00  0.00000000000E+00  0.82693193650E+02  0.82693193650E+02  0.00000000000E+00 0.  1.
          1   -1    0    0  501    0  0.00000000000E+00 -0.00000000000E+00 -0.28140696767E+03  0.28140696767E+03  0.00000000000E+00 0. -1.
         25    2    1    2    0    0 -0.21313413671E+02  0.62334501721E+02 -0.59003807307E+01  0.14150097576E+03  0.12509140634E+03 0.  0.
          5    1    3    3  502    0  0.23797414249E+02 -0.32641570305E+01 -0.46149875476E+02  0.52194396754E+02  0.41800000000E+01 0.  1.
         -5    1    3    3    0  502 -0.45110827920E+02  0.65598658752E+02  0.40249494745E+02  0.89306579001E+02  0.41800000000E+01 0.  1.
        -11    1    1    2    0    0 -0.47226906191E+01 -0.32037690358E+02 -0.17650518447E+03  0.17945137936E+03  0.00000000000E+00 0. -1.
         11    1    1    2    0    0  0.26036104290E+02 -0.30296811363E+02 -0.16308208823E+02  0.43147806206E+02  0.00000000000E+00 0.  1.
</event>
<event>
 7    1  0.2853971E-009  0.1489256E+03  0.7561462E-02  0.1201799E+00
         -4   -1    0    0    0  501 -0.00000000000E+00  0.00000000000E+00  0.57945035857E+02  0.57945035857E+02  0.00000000000E+00 0.  1.
          4   -1    0    0  501    0  0.00000000000E+00 -0.00000000000E+00 -0.56297692243E+03  0.56297692243E+03  0.00000000000E+00 0. -1.
         25    2    1    2    0    0 -0.87904323774E+02  0.67997595094E+02 -0.42404584167E+03  0.45586560563E+03  0.12509089287E+03 0.  0.
          5    1    3    3  502    0 -0.11867019868E+03  0.62494565902E+02 -0.36575458859E+03  0.38959219486E+03  0.41800000000E+01 0.  1.
         -5    1    3    3    0  502  0.30765874903E+02  0.55030291917E+01 -0.58291253076E+02  0.66273410761E+02  0.41800000000E+01 0.  1.
        -11    1    1    2    0    0  0.15130154972E+02 -0.56458081342E+02 -0.41465082383E+01  0.58597184820E+02  0.00000000000E+00 0.  1.
         11    1    1    2    0    0  0.72774168802E+02 -0.11539513752E+02 -0.76839536663E+02  0.10645916784E+03  0.00000000000E+00 0. -1.
</event>
<event>
 7    1  0.2594791E-009  0.1056547E+03  0.7561462E-02  0.1268835E+00
          2   -1    0    0  501    0  0.00000000000E+00  0.00000000000E+00  0.13476094069E+03  0.13476094069E+03  0.00000000000E+00 0. -1.
         -2   -1    0    0    0  501 -0.00000000000E+00 -0.00000000000E+00 -0.15005260446E+03  0.15005260446E+03  0.00000000000E+00 0.  1.
         25    2    1    2    0    0 -0.16841453831E+01 -0.77835017679E+02 -0.57566380513E+02  0.15818795944E+03  0.12509362902E+03 0.  0.
          5    1    3    3  502    0 -0.53627067835E+02 -0.51602604335E+02  0.23275203825E+01  0.74576007736E+02  0.41800000000E+01 0. -1.
         -5    1    3    3    0  502  0.51942922452E+02 -0.26232413345E+02 -0.59893900896E+02  0.83611951701E+02  0.41800000000E+01 0. -1.
        -11    1    1    2    0    0  0.36668976839E+01  0.11638527786E+02 -0.27707241402E+02  0.30275281894E+02  0.00000000000E+00 0.  1.
         11    1    1    2    0    0 -0.19827523008E+01  0.66196489893E+02  0.69981958146E+02  0.96350303823E+02  0.00000000000E+00 0. -1.
</event>
<event>
 7    1  0.2594791E-009  0.1097883E+03  0.7561462E-02  0.1260962E+00
         -2   -1    0    0    0  501 -0.00000000000E+00  0.00000000000E+00  0.34198644985E+02  0.34198644985E+02  0.00000000000E+00 0.  1.
          2   -1    0    0  501    0  0.00000000000E+00 -0.00000000000E+00 -0.47355815213E+03  0.47355815213E+03  0.00000000000E+00 0. -1.
         25    2    1    2    0    0 -0.38994255857E+02 -0.31036804303E+02 -0.33109541742E+03  0.35742918870E+03  0.12509042443E+03 0.  0.
          5    1    3    3  502    0 -0.83026924577E+02 -0.24690484910E+02 -0.17891620591E+03  0.19882547973E+03  0.41800000000E+01 0.  1.
         -5    1    3    3    0  502  0.44032668720E+02 -0.63463193931E+01 -0.15217921151E+03  0.15860370897E+03  0.41800000000E+01 0.  1.
        -11    1    1    2    0    0 -0.21022660647E+02  0.15666309602E+02 -0.76166710602E+02  0.80552798345E+02  0.00000000000E+00 0. -1.
         11    1    1    2    0    0  0.60016916505E+02  0.15370494701E+02 -0.32097379122E+02  0.69774810072E+02  0.00000000000E+00 0.  1.
</event>
<event>
 7    1  0.2594791E-009  0.1308456E+03  0.7561462E-02  0.1226206E+00
         -1   -1    0    0    0  501 -0.00000000000E+00  0.00000000000E+00  0.36870579684E+02  0.36870579684E+02  0.00000000000E+00 0.  1.
          1   -1    0    0  501    0  0.00000000000E+00 -0.00000000000E+00 -0.65900967952E+03  0.65900967952E+03  0.00000000000E+00 0. -1.
         25    2    1    2    0    0 -0.43256979086E+02  0.10310309773E+03 -0.35587031182E+03  0.39343662310E+03  0.12508909846E+03 0.  0.
          5    1    3    3  502    0 -0.29117732166E+02  0.10860251331E+02 -0.25117759515E+03  0.25312732782E+03  0.41800000000E+01 0. -1.
         -5    1    3    3    0  502 -0.14139246920E+02  0.92242846401E+02 -0.10469271667E+03  0.14030929527E+03  0.41800000000E+01 0. -1.
        -11    1    1    2    0    0 -0.17086817041E+02 -0.60980432482E+02 -0.79106401670E+02  0.10133309058E+03  0.00000000000E+00 0.  1.
         11    1    1    2    0    0  0.60343796127E+02 -0.42122665250E+02 -0.18716238634E+03  0.20111054552E+03  0.00000000000E+00 0. -1.
</event>
<event>
 7    1  0.2594791E-009  0.1558636E+03  0.7561462E-02  0.1193447E+00
         -1   -1    0    0    0  501 -0.00000000000E+00  0.00000000000E+00  0.24504782517E+03  0.24504782517E+03  0.00000000000E+00 0.  1.
          1   -1    0    0  501    0  0.00000000000E+00 -0.00000000000E+00 -0.13240255650E+03  0.13240255650E+03  0.00000000000E+00 0. -1.
         25    2    1    2    0    0 -0.10305215352E+03 -0.98437855591E+02  0.67603780050E+02  0.20131736425E+03  0.12509457348E+03 0.  0.
          5    1    3    3  502    0 -0.92238238752E+02 -0.59408895773E+02 -0.13447424149E+02  0.11061471512E+03  0.41800000000E+01 0.  1.
         -5    1    3    3    0  502 -0.10813914765E+02 -0.39028959818E+02  0.81051204199E+02  0.90702649130E+02  0.41800000000E+01 0.  1.
        -11    1    1    2    0    0 -0.28781198077E+01  0.40261632672E+02  0.37416209397E+02  0.55038671538E+02  0.00000000000E+00 0.  1.
         11    1    1    2    0    0  0.10593027332E+03  0.58176222919E+02  0.76252792244E+01  0.12109434588E+03  0.00000000000E+00 0. -1.
</event>
<event>
 7    1  0.2594791E-009  0.4991441E+02  0.7561462E-02  0.1445804E+00
         -1   -1    0    0    0  501 -0.00000000000E+00  0.00000000000E+00  0.19845470073E+02  0.19845470073E+02  0.00000000000E+00 0.  1.
          1   -1    0    0  501    0  0.00000000000E+00 -0.00000000000E+00 -0.15972424439E+04  0.15972424439E+04  0.00000000000E+00 0. -1.
         25    2    1    2    0    0  0.51374115245E+01 -0.29194779769E+02 -0.14563720297E+04  0.14620345794E+04  0.12508754648E+03 0.  0.
          5    1    3    3  502    0  0.86491883661E+01  0.11572504970E+01 -0.61072888505E+01  0.11441986943E+02  0.41800000000E+01 0. -1.
         -5    1    3    3    0  502 -0.35117768417E+01 -0.30352030266E+02 -0.14502647408E+04  0.14505925924E+04  0.41800000000E+01 0. -1.
        -11    1    1    2    0    0  0.21849448856E+02  0.36456632510E+01 -0.11535285809E+03  0.11746050888E+03  0.00000000000E+00 0. -1.
         11    1    1    2    0    0 -0.26986860380E+02  0.25549116518E+02 -0.56720860927E+01  0.37592825761E+02  0.00000000000E+00 0.  1.
</event>
<event>
 7    1  0.2594791E-009  0.2196642E+03  0.7561462E-02  0.1134134E+00
          1   -1    0    0  501    0  0.00000000000E+00  0.00000000000E+00  0.13915049254E+04  0.13915049254E+04  0.00000000000E+00 0. -1.
         -1   -1    0    0    0  501 -0.00000000000E+00 -0.00000000000E+00 -0.43183556329E+02  0.43183556329E+02  0.00000000000E+00 0.  1.
         25    2    1    2    0    0 -0.27436370730E+02  0.19721619358E+03  0.95981809734E+03  0.98820297670E+03  0.12508941493E+03 0.  0.
          5    1    3    3  502    0  0.31118715279E+02  0.15827964205E+03  0.58629674585E+03  0.60809716832E+03  0.41800000000E+01 0. -1.
         -5    1    3    3    0  502 -0.58555086009E+02  0.38936551529E+02  0.37352135149E+03  0.38010580838E+03  0.41800000000E+01 0. -1.
        -11    1    1    2    0    0  0.44951843029E+02 -0.16297157943E+03  0.36271030684E+03  0.40017392542E+03  0.00000000000E+00 0. -1.
         11    1    1    2    0    0 -0.17515472300E+02 -0.34244614143E+02  0.25792964874E+02  0.46311579596E+02  0.00000000000E+00 0.  1.
</event>
<event>
 7    1  0.2594791E-009  0.1083340E+03  0.7561462E-02  0.1263686E+00
          3   -1    0    0  501    0  0.00000000000E+00  0.00000000000E+00  0.55026132409E+02  0.55026132409E+02  0.00000000000E+00 0. -1.
         -3   -1    0    0    0  501 -0.00000000000E+00 -0.00000000000E+00 -0.38833378546E+03  0.38833378546E+03  0.00000000000E+00 0.  1.
         25    2    1    2    0    0  0.44367000368E+00 -0.94000278821E+02 -0.14259442123E+03  0.21170124817E+03  0.12509196716E+03 0.  0.
          5    1    3    3  502    0 -0.18954050092E+02 -0.16941775238E+02  0.18708168754E+02  0.31839405479E+02  0.41800000000E+01 0. -1.
         -5    1    3    3    0  502  0.19397720096E+02 -0.77058503583E+02 -0.16130258999E+03  0.17986184269E+03  0.41800000000E+01 0. -1.
        -11    1    1    2    0    0  0.28969970798E+02  0.35222620537E+02 -0.14392977677E+03  0.15098235939E+03  0.00000000000E+00 0.  1.
         11    1    1    2    0    0 -0.29413640801E+02  0.58777658284E+02 -0.46783455041E+02  0.80676310303E+02  0.00000000000E+00 0. -1.
</event>
<event>
 7    1  0.2594791E-009  0.7593978E+02  0.7561462E-02  0.1340985E+00
          2   -1    0    0  501    0  0.00000000000E+00  0.00000000000E+00  0.24227375904E+03  0.24227375904E+03  0.00000000000E+00 0. -1.
         -2   -1    0    0    0  501 -0.00000000000E+00 -0.00000000000E+00 -0.53314853326E+02  0.53314853326E+02  0.00000000000E+00 0.  1.
         25    2    1    2    0    0 -0.21460947421E+02  0.22143974181E+02  0.90730963797E+02  0.15757617775E+03  0.12508883302E+03 0.  0.
          5    1    3    3  502    0 -0.82930032484E+01 -0.28984099051E+02 -0.18897416531E+02  0.35825084120E+02  0.41800000000E+01 0. -1.
         -5    1    3    3    0  502 -0.13167944172E+02  0.51128073233E+02  0.10962838033E+03  0.12175109363E+03  0.41800000000E+01 0. -1.
        -11    1    1    2    0    0 -0.13016551481E+02 -0.30365727948E+02  0.97082053843E+02  0.10254966224E+03  0.00000000000E+00 0. -1.
         11    1    1    2    0    0  0.34477498902E+02  0.82217537668E+01  0.11458880723E+01  0.35462772382E+02  0.00000000000E+00 0.  1.
</event>
<event>
 7    1  0.2594791E-009  0.1172463E+03  0.7561462E-02  0.1247710E+00
          1   -1    0    0  501    0  0.00000000000E+00  0.00000000000E+00  0.41166025007E+03  0.41166025007E+03  0.00000000000E+00 0. -1.
         -1   -1    0    0    0  501 -0.00000000000E+00 -0.00000000000E+00 -0.42196986815E+02  0.42196986815E+02  0.00000000000E+00 0.  1.
         25    2    1    2    0    0 -0.50422013330E+02 -0.14637176466E+02  0.11486970468E+03  0.17775996466E+03  0.12508768773E+03 0.  0.
          5    1    3    3  502    0 -0.85610783166E+02  0.14581833238E+02  0.57360166107E+02  0.10416091931E+03  0.41800000000E+01 0. -1.
         -5    1    3    3    0  502  0.35188769836E+02 -0.29219009704E+02  0.57509538570E+02  0.73599045355E+02  0.41800000000E+01 0. -1.
        -11    1    1    2    0    0 -0.24942443306E+02  0.67723890752E+01  0.33063459251E+02  0.41966451714E+02  0.00000000000E+00 0.  1.
         11    1    1    2    0    0  0.75364456636E+02  0.78647873907E+01  0.22153009932E+03  0.23413082051E+03  0.00000000000E+00 0. -1.
</event>
<event>
 7    1  0.2594791E-009  0.1011889E+03  0.7561462E-02  0.1277815E+00
         -1   -1    0    0    0  501 -0.00000000000E+00  0.00000000000E+00  0.36857251665E+02  0.36857251665E+02  0.00000000000E+00 0.  1.
          1   -1    0    0  501    0  0.00000000000E+00 -0.00000000000E+00 -0.48923742713E+03  0.48923742713E+03  0.00000000000E+00 0. -1.
         25    2    1    2    0    0 -0.69970862387E+02 -0.32780739699E+02 -0.20017879881E+03  0.24837418703E+03  0.12509071433E+03 0.  0.
          5    1    3    3  502    0 -0.45865446963E+02  0.92351693764E+01 -0.19371264904E+03  0.19932634140E+03  0.41800000000E+01 0. -1.
         -5    1    3    3    0  502 -0.24105415424E+02 -0.42015909075E+02 -0.64661497755E+01  0.49047845632E+02  0.41800000000E+01 0. -1.
        -11    1    1    2    0    0  0.25158152056E+02  0.52200079814E+02 -0.18997955398E+03  0.19862027056E+03  0.00000000000E+00 0. -1.
         11    1    1    2    0    0  0.44812710331E+02 -0.19419340115E+02 -0.62221822670E+02  0.79100221201E+02  0.00000000000E+00 0.  1.
</event>
<event>
 7    1  0.2594791E-009  0.1378396E+03  0.7561462E-02  0.1216266E+00
         -1   -1    0    0    0  501 -0.00000000000E+00  0.00000000000E+00  0.38272903712E+03  0.38272903712E+03  0.00000000000E+00 0.  1.
          1   -1    0    0  501    0  0.00000000000E+00 -0.00000000000E+00 -0.61522501863E+02  0.61522501863E+02  0.00000000000E+00 0. -1.
         25    2    1    2    0    0  0.96194477664E+02  0.31856785218E+02  0.11899315941E+03  0.20018974885E+03  0.12509329023E+03 0.  0.
          5    1    3    3  502    0 -0.64903311166E+01 -0.32047203658E+02  0.52817833153E+02  0.62260288782E+02  0.41800000000E+01 0.  1.
         -5    1    3    3    0  502  0.10268480878E+03  0.63903988875E+02  0.66175326259E+02  0.13792946007E+03  0.41800000000E+01 0.  1.
        -11    1    1    2    0    0 -0.66511224202E+02  0.13135151907E+02  0.16549209562E+03  0.17884045648E+03  0.00000000000E+00 0.  1.
         11    1    1    2    0    0 -0.29683253462E+02 -0.44991937125E+02  0.36721280221E+02  0.65221333653E+02  0.00000000000E+00 0. -1.
</event>
<event>
 7    1  0.2594791E-009  0.1457298E+03  0.7561462E-02  0.1205821E+00
          1   -1    0    0  501    0  0.00000000000E+00  0.00000000000E+00  0.32816742419E+03  0.32816742419E+03  0.00000000000E+00 0. -1.
         -1   -1    0    0    0  501 -0.00000000000E+00 -0.00000000000E+00 -0.11602666929E+03  0.11602666929E+03  0.00000000000E+00 0.  1.
         25    2    1    2    0    0  0.13910127136E+03  0.27032935571E+02  0.22822146748E+02  0.19041220525E+03  0.12512399541E+03 0.  0.
          5    1    3    3  502    0  0.29209693798E+02  0.23029303721E+02 -0.47002264421E+02  0.60085275254E+02  0.41800000000E+01 0.  1.
         -5    1    3    3    0  502  0.10989157757E+03  0.40036318498E+01  0.69824411169E+02  0.13032693000E+03  0.41800000000E+01 0.  1.
        -11    1    1    2    0    0 -0.29112558750E+02 -0.16575657977E+02 -0.12255602508E+01  0.33523059411E+02  0.00000000000E+00 0.  1.
         11    1    1    2    0    0 -0.10998871261E+03 -0.10457277594E+02  0.19054416840E+03  0.22025882881E+03  0.00000000000E+00 0. -1.
</event>
<event>
 7    1  0.2594791E-009  0.1319611E+03  0.7561462E-02  0.1224575E+00
         -2   -1    0    0    0  501 -0.00000000000E+00  0.00000000000E+00  0.14368029582E+02  0.14368029582E+02  0.00000000000E+00 0.  1.
          2   -1    0    0  501    0  0.00000000000E+00 -0.00000000000E+00 -0.14842127093E+04  0.14842127093E+04  0.00000000000E+00 0. -1.
         25    2    1    2    0    0  0.57692536065E+02  0.50194909327E+02 -0.11048788139E+04  0.11145638692E+04  0.12508983773E+03 0.  0.
          5    1    3    3  502    0  0.62129393500E+02  0.88199637576E+02 -0.79128026827E+03  0.79861202906E+03  0.41800000000E+01 0.  1.
         -5    1    3    3    0  502 -0.44368574350E+01 -0.38004728249E+02 -0.31359854563E+03  0.31595184015E+03  0.41800000000E+01 0.  1.
        -11    1    1    2    0    0 -0.79651448332E+02 -0.52482835849E+02 -0.26507765601E+03  0.28171788192E+03  0.00000000000E+00 0.  1.
         11    1    1    2    0    0  0.21958912267E+02  0.22879265217E+01 -0.99888209801E+02  0.10229898774E+03  0.00000000000E+00 0. -1.
</event>
<event>
 7    1  0.2594791E-009  0.9487282E+02  0.7561462E-02  0.1291463E+00
          2   -1    0    0  501    0  0.00000000000E+00  0.00000000000E+00  0.49292276624E+03  0.49292276624E+03  0.00000000000E+00 0. -1.
         -2   -1    0    0    0  501 -0.00000000000E+00 -0.00000000000E+00 -0.41598281088E+02  0.41598281088E+02  0.00000000000E+00 0.  1.
         25    2    1    2    0    0 -0.57940365233E+02 -0.43084981799E+02  0.13628734483E+03  0.19858036768E+03  0.12508605232E+03 0.  0.
          5    1    3    3  502    0 -0.54915156332E+02 -0.37807155390E+02  0.48954194100E+01  0.66981287871E+02  0.41800000000E+01 0. -1.
         -5    1    3    3    0  502 -0.30252089013E+01 -0.52778264088E+01  0.13139192542E+03  0.13159907980E+03  0.41800000000E+01 0. -1.
        -11    1    1    2    0    0 -0.24395295111E+02  0.52692622496E+01  0.88636926843E+02  0.92083659508E+02  0.00000000000E+00 0.  1.
         11    1    1    2    0    0  0.82335660345E+02  0.37815719549E+02  0.22640021348E+03  0.24385702015E+03  0.00000000000E+00 0. -1.
</event>
<event>
 7    1  0.2594791E-009  0.2523543E+03  0.7561462E-02  0.1111826E+00
          2   -1    0    0  501    0  0.00000000000E+00  0.00000000000E+00  0.32540814242E+03  0.32540814242E+03  0.00000000000E+00 0. -1.
         -2   -1    0    0    0  501 -0.00000000000E+00 -0.00000000000E+00 -0.24106834279E+03  0.24106834279E+03  0.00000000000E+00 0.  1.
         25    2    1    2    0    0 -0.16500293986E+03  0.18832315463E+03  0.10602588357E+03  0.29930114823E+03  0.12509240030E+03 0.  0.
          5    1    3    3  502    0 -0.52247223430E+02  0.31578484148E+02  0.85414487559E+02  0.10507178547E+03  0.41800000000E+01 0. -1.
         -5    1    3    3    0  502 -0.11275571643E+03  0.15674467048E+03  0.20611396010E+02  0.19422936276E+03  0.41800000000E+01 0. -1.
        -11    1    1    2    0    0  0.75746338491E+02 -0.85873985143E+02 -0.55360942296E+02  0.12718759000E+03  0.00000000000E+00 0.  1.
         11    1    1    2    0    0  0.89256601369E+02 -0.10244916949E+03  0.33674858363E+02  0.13998774697E+03  0.00000000000E+00 0. -1.
</event>
<event>
 7    1  0.2594791E-009  0.8598206E+02  0.7561462E-02  0.1312884E+00
         -1   -1    0    0    0  501 -0.00000000000E+00  0.00000000000E+00  0.48484790647E+03  0.48484790647E+03  0.00000000000E+00 0.  1.
          1   -1    0    0  501    0  0.00000000000E+00 -0.00000000000E+00 -0.26598527634E+02  0.26598527634E+02  0.00000000000E+00 0. -1.
         25    2    1    2    0    0 -0.32921046611E+02  0.86175230607E+01  0.25234573959E+03  0.28369663503E+03  0.12508937376E+03 0.  0.
          5    1    3    3  502    0  0.23126486380E+02 -0.41986309745E+01 -0.98137573340E+00  0.23893479710E+02  0.41800000000E+01 0. -1.
         -5    1    3    3    0  502 -0.56047532991E+02  0.12816154035E+02  0.25332711532E+03  0.25980315532E+03  0.41800000000E+01 0. -1.
        -11    1    1    2    0    0  0.53512322014E+02  0.18299690740E+02  0.84309317591E+02  0.10152097478E+03  0.00000000000E+00 0.  1.
         11    1    1    2    0    0 -0.20591275403E+02 -0.26917213801E+02  0.12159432165E+03  0.12622882428E+03  0.00000000000E+00 0. -1.
</event>
<event>
 7    1  0.2594791E-009  0.1101504E+03  0.7561462E-02  0.1260292E+00
         -2   -1    0    0    0  501 -0.00000000000E+00  0.00000000000E+00  0.23788256263E+02  0.23788256263E+02  0.00000000000E+00 0.  1.
          2   -1    0    0  501    0  0.00000000000E+00 -0.00000000000E+00 -0.71047425585E+03  0.71047425585E+03  0.00000000000E+00 0. -1.
         25    2    1    2    0    0  0.74862453585E+02  0.19166221933E+02 -0.41831372053E+03  0.44340179290E+03  0.12508816950E+03 0.  0.
          5    1    3    3  502    0  0.32939775676E+02 -0.33972324671E+02 -0.32271987756E+03  0.32619739336E+03  0.41800000000E+01 0.  1.
         -5    1    3    3    0  502  0.41922677910E+02  0.53138546604E+02 -0.95593842969E+02  0.11720439954E+03  0.41800000000E+01 0.  1.
        -11    1    1    2    0    0 -0.10499227752E+02 -0.36783520392E+02 -0.15174444451E+03  0.15649165344E+03  0.00000000000E+00 0. -1.
         11    1    1    2    0    0 -0.64363225833E+02  0.17617298459E+02 -0.11662783455E+03  0.13436906577E+03  0.00000000000E+00 0.  1.
</event>
<event>
 7    1  0.2594791E-009  0.1220188E+03  0.7561462E-02  0.1239803E+00
         -2   -1    0    0    0  501 -0.00000000000E+00  0.00000000000E+00  0.19622084240E+02  0.19622084240E+02  0.00000000000E+00 0.  1.
          2   -1    0    0  501    0  0.00000000000E+00 -0.00000000000E+00 -0.98774504150E+03  0.98774504150E+03  0.00000000000E+00 0. -1.
         25    2    1    2    0    0 -0.40638701488E+02 -0.58948568657E+02 -0.71559189277E+03  0.72996240942E+03  0.12508766674E+03 0.  0.
          5    1    3    3  502    0 -0.81524546957E+02 -0.30669606192E+02 -0.33708200031E+03  0.34817901119E+03  0.41800000000E+01 0. -1.
         -5    1    3    3    0  502  0.40885845469E+02 -0.28278962465E+02 -0.37850989246E+03  0.38178339823E+03  0.41800000000E+01 0. -1.
        -11    1    1    2    0    0 -0.10589313226E+02 -0.14156805968E+02 -0.92368038086E+02  0.94044687089E+02  0.00000000000E+00 0.  1.
         11    1    1    2    0    0  0.51228014714E+02  0.73105374625E+02 -0.16016302641E+03  0.18336002923E+03  0.00000000000E+00 0. -1.
</event>
<event>
 7    1  0.2594791E-009  0.1153628E+03  0.7561462E-02  0.1250949E+00
         -2   -1    0    0    0  501 -0.00000000000E+00  0.00000000000E+00  0.25846573469E+02  0.25846573469E+02  0.00000000000E+00 0.  1.
          2   -1    0    0  501    0  0.00000000000E+00 -0.00000000000E+00 -0.60764534366E+03  0.60764534366E+03  0.00000000000E+00 0. -1.
         25    2    1    2    0    0 -0.21872794430E+02  0.55268314751E+02 -0.39150666529E+03  0.41527151863E+03  0.12505982356E+03 0.  0.
          5    1    3    3  502    0  0.47793716635E+02  0.42187928206E+02 -0.13914743099E+03  0.15311283613E+03  0.41800000000E+01 0.  1.
         -5    1    3    3    0  502 -0.69666511065E+02  0.13080386544E+02 -0.25235923430E+03  0.26215868250E+03  0.41800000000E+01 0.  1.
        -11    1    1    2    0    0  0.15001829830E+02 -0.74194997433E+02 -0.98394535159E+02  0.12414280926E+03  0.00000000000E+00 0.  1.
         11    1    1    2    0    0  0.68709645999E+01  0.18926682682E+02 -0.91897569744E+02  0.94077589237E+02  0.00000000000E+00 0. -1.
</event>
<event>
 7    1  0.2594791E-009  0.6815741E+02  0.7561462E-02  0.1366473E+00
          1   -1    0    0  501    0  0.00000000000E+00  0.00000000000E+00  0.20181895607E+03  0.20181895607E+03  0.00000000000E+00 0. -1.
         -1   -1    0    0    0  501 -0.00000000000E+00 -0.00000000000E+00 -0.70949123711E+02  0.70949123711E+02  0.00000000000E+00 0.  1.
         25    2    1    2    0    0 -0.14718128195E+02  0.46178140045E+02  0.87582864440E+02  0.16020419353E+03  0.12508229917E+03 0.  0.
          5    1    3    3  502    0  0.12135757936E+02  0.15261440920E+02  0.11104655505E+03  0.11282286111E+03  0.41800000000E+01 0.  1.
         -5    1    3    3    0  502 -0.26853886131E+02  0.30916699124E+02 -0.23463690613E+02  0.47381332424E+02  0.41800000000E+01 0.  1.
        -11    1    1    2    0    0 -0.12646592173E+02  0.76817917056E+01 -0.20126024346E+02  0.24980053511E+02  0.00000000000E+00 0.  1.
         11    1    1    2    0    0  0.27364720368E+02 -0.53859931750E+02  0.63412992262E+02  0.87583832735E+02  0.00000000000E+00 0. -1.
</event>
<event>
 7    1  0.2594791E-009  0.1396657E+03  0.7561462E-02  0.1213779E+00
          2   -1    0    0  501    0  0.00000000000E+00  0.00000000000E+00  0.15753565535E+03  0.15753565535E+03  0.00000000000E+00 0. -1.
         -2   -1    0    0    0  501 -0.00000000000E+00 -0.00000000000E+00 -0.16718153088E+03  0.16718153088E+03  0.00000000000E+00 0.  1.
         25    2    1    2    0    0 -0.39278476940E+02  0.94886065013E+02  0.56659640136E+02  0.17147932627E+03  0.12509468587E+03 0.  0.
          5    1    3    3  502    0  0.18049471447E+02  0.10018602201E+03  0.22278122964E+02  0.10429194402E+03  0.41800000000E+01 0. -1.
         -5    1    3    3    0  502 -0.57327948387E+02 -0.52999569946E+01  0.34381517172E+02  0.67187382249E+02  0.41800000000E+01 0. -1.
        -11    1    1    2    0    0  0.30671030712E+02 -0.10325707035E+03 -0.25487165827E+02  0.11069024493E+03  0.00000000000E+00 0. -1.
         11    1    1    2    0    0  0.86074462281E+01  0.83710053335E+01 -0.40818349841E+02  0.42547615028E+02  0.00000000000E+00 0.  1.
</event>
<event>
 7    1  0.2594791E-009  0.1261372E+03  0.7561462E-02  0.1233303E+00
         -2   -1    0    0    0  501 -0.00000000000E+00  0.00000000000E+00  0.39683298830E+02  0.39683298830E+02  0.00000000000E+00 0.  1.
          2   -1    0    0  501    0  0.00000000000E+00 -0.00000000000E+00 -0.46559470778E+03  0.46559470778E+03  0.00000000000E+00 0. -1.
         25    2    1    2    0    0  0.64216746747E+02  0.41510263224E+02 -0.21934990212E+03  0.26383450219E+03  0.12508945787E+03 0.  0.
          5    1    3    3  502    0  0.99069553513E+02  0.36677573696E+02 -0.19157842808E+03  0.21881450444E+03  0.41800000000E+01 0.  1.
         -5    1    3    3    0  502 -0.34852806766E+02  0.48326895272E+01 -0.27771474041E+02  0.45019997756E+02  0.41800000000E+01 0.  1.
        -11    1    1    2    0    0 -0.40344731981E+02 -0.65721070969E+02 -0.83028125031E+02  0.11331648651E+03  0.00000000000E+00 0.  1.
         11    1    1    2    0    0 -0.23872014766E+02  0.24210807746E+02 -0.12353338180E+03  0.12812701791E+03  0.00000000000E+00 0. -1.
</event>
<event>
 7    1  0.3779837E-009  0.1342393E+03  0.7561462E-02  0.1221298E+00
         -2   -1    0    0    0  501 -0.00000000000E+00  0.00000000000E+00  0.44017567804E+02  0.44017567804E+02  0.00000000000E+00 0.  1.
          2   -1    0    0  501    0  0.00000000000E+00 -0.00000000000E+00 -0.70083706940E+03  0.70083706940E+03  0.00000000000E+00 0. -1.
         25    2    1    2    0    0  0.12242105130E+03 -0.12873666326E+02 -0.21639467907E+03  0.27861484839E+03  0.12508769536E+03 0.  0.
          5    1    3    3  502    0  0.33100615645E+00  0.84420006317E-01 -0.12605991015E+03  0.12612965567E+03  0.41800000000E+01 0.  1.
         -5    1    3    3    0  502  0.12209004514E+03 -0.12958086332E+02 -0.90334768914E+02  0.15248519272E+03  0.41800000000E+01 0.  1.
        -11    1    1    2    0    0 -0.32434941456E+02  0.36071584832E+02 -0.24613742305E+03  0.25087211021E+03  0.00000000000E+00 0. -1.
         11    1    1    2    0    0 -0.89986109843E+02 -0.23197918506E+02 -0.19428739948E+03  0.21536767860E+03  0.00000000000E+00 0.  1.
</event>
<event>
 7    1  0.2594791E-009  0.3321314E+03  0.7561462E-02  0.1070198E+00
         -1   -1    0    0    0  501 -0.00000000000E+00  0.00000000000E+00  0.10426260462E+03  0.10426260462E+03  0.00000000000E+00 0.  1.
          1   -1    0    0  501    0  0.00000000000E+00 -0.00000000000E+00 -0.15735493205E+04  0.15735493205E+04  0.00000000000E+00 0. -1.
         25    2    1    2    0    0  0.30360956655E+03  0.90260189144E+02 -0.26966597441E+03  0.43439269605E+03  0.12510637865E+03 0.  0.
          5    1    3    3  502    0  0.30571335324E+03  0.64995441585E+02 -0.23411467233E+03  0.39052812188E+03  0.41800000000E+01 0.  1.
         -5    1    3    3    0  502 -0.21037866908E+01  0.25264747559E+02 -0.35551302072E+02  0.43864574165E+02  0.41800000000E+01 0.  1.
        -11    1    1    2    0    0 -0.18285125331E+03 -0.14470811972E+02 -0.72538216355E+03  0.74821338429E+03  0.00000000000E+00 0.  1.
         11    1    1    2    0    0 -0.12075831325E+03 -0.75789377172E+02 -0.47423857794E+03  0.49520584479E+03  0.00000000000E+00 0. -1.
</event>
<event>
 7    1  0.2594791E-009  0.1076443E+03  0.7561462E-02  0.1264996E+00
          2   -1    0    0  501    0  0.00000000000E+00  0.00000000000E+00  0.13698661158E+03  0.13698661158E+03  0.00000000000E+00 0. -1.
         -2   -1    0    0    0  501 -0.00000000000E+00 -0.00000000000E+00 -0.95689667897E+02  0.95689667897E+02  0.00000000000E+00 0.  1.
         25    2    1    2    0    0 -0.17246551878E+02 -0.11797711767E+02  0.55518704198E+02  0.13845735000E+03  0.12510588195E+03 0.  0.
          5    1    3    3  502    0 -0.56477073033E+02  0.33370654332E+02  0.38236659035E+02  0.76044558274E+02  0.41800000000E+01 0.  1.
         -5    1    3    3    0  502  0.39230521154E+02 -0.45168366099E+02  0.17282045163E+02  0.62412791727E+02  0.41800000000E+01 0.  1.
        -11    1    1    2    0    0 -0.35697299437E+02  0.74124669357E+01  0.67969087083E+01  0.37086922508E+02  0.00000000000E+00 0. -1.
         11    1    1    2    0    0  0.52943851315E+02  0.43852448317E+01 -0.21018669223E+02  0.57132006968E+02  0.00000000000E+00 0.  1.
</event>
<event>
 7    1  0.2594791E-009  0.1716579E+03  0.7561462E-02  0.1176130E+00
          1   -1    0    0  501    0  0.00000000000E+00  0.00000000000E+00  0.10349191189E+04  0.10349191189E+04  0.00000000000E+00 0. -1.
         -1   -1    0    0    0  501 -0.00000000000E+00 -0.00000000000E+00 -0.29645978376E+02  0.29645978376E+02  0.00000000000E+00 0.  1.
         25    2    1    2    0    0  0.21817499415E+02  0.13047725411E+03  0.47700470880E+03  0.51056988630E+03  0.12509116459E+03 0.  0.
          5    1    3    3  502    0  0.48339110346E+02  0.13437996202E+01  0.16061571786E+03  0.16778962009E+03  0.41800000000E+01 0.  1.
         -5    1    3    3    0  502 -0.26521610930E+02  0.12913345449E+03  0.31638899094E+03  0.34278026621E+03  0.41800000000E+01 0.  1.
        -11    1    1    2    0    0  0.34026000435E+02 -0.82567455798E+02  0.22856085191E+03  0.24538788986E+03  0.00000000000E+00 0.  1.
         11    1    1    2    0    0 -0.55843499851E+02 -0.47909798314E+02  0.29970757981E+03  0.30860732112E+03  0.00000000000E+00 0. -1.
</event>
<event>
 7    1  0.2594791E-009  0.1501938E+03  0.7561462E-02  0.1200235E+00
         -1   -1    0    0    0  501 -0.00000000000E+00  0.00000000000E+00  0.82645587710E+03  0.82645587710E+03  0.00000000000E+00 0.  1.
          1   -1    0    0  501    0  0.00000000000E+00 -0.00000000000E+00 -0.44979171349E+02  0.44979171349E+02  0.00000000000E+00 0. -1.
         25    2    1    2    0    0 -0.81116078177E+02  0.10285933724E+03  0.61364787462E+03  0.63982087316E+03  0.12508866579E+03 0.  0.
          5    1    3    3  502    0 -0.86492941443E+02  0.23483898720E+02  0.20963466166E+03  0.22802781889E+03  0.41800000000E+01 0. -1.
         -5    1    3    3    0  502  0.53768632664E+01  0.79375438522E+02  0.40401321296E+03  0.41179305427E+03  0.41800000000E+01 0. -1.
        -11    1    1    2    0    0  0.60308165419E+02 -0.75833378369E+02  0.50165835718E+02  0.10910722783E+03  0.00000000000E+00 0. -1.
         11    1    1    2    0    0  0.20807912758E+02 -0.27025958872E+02  0.11766299541E+03  0.12250694746E+03  0.00000000000E+00 0.  1.
</event>
<event>
 7    1  0.2594791E-009  0.8164619E+02  0.7561462E-02  0.1324444E+00
         -2   -1    0    0    0  501 -0.00000000000E+00  0.00000000000E+00  0.98336414703E+02  0.98336414703E+02  0.00000000000E+00 0.  1.
          2   -1    0    0  501    0  0.00000000000E+00 -0.00000000000E+00 -0.23306032944E+03  0.23306032944E+03  0.00000000000E+00 0. -1.
         25    2    1    2    0    0 -0.59671361376E+02 -0.12498938535E+02 -0.16625370246E+03  0.21680466186E+03  0.12508826080E+03 0.  0.
          5    1    3    3  502    0 -0.62014213503E+02 -0.37081801064E+02 -0.30131805373E+02  0.78397836332E+02  0.41800000000E+01 0. -1.
         -5    1    3    3    0  502  0.23428521270E+01  0.24582862529E+02 -0.13612189709E+03  0.13840682553E+03  0.41800000000E+01 0. -1.
        -11    1    1    2    0    0  0.14921451829E+02  0.14859901541E+02  0.58578912110E+02  0.62249139291E+02  0.00000000000E+00 0.  1.
         11    1    1    2    0    0  0.44749909547E+02 -0.23609630061E+01 -0.27049124382E+02  0.52342942987E+02  0.00000000000E+00 0. -1.
</event>
<event>
 7    1  0.2594791E-009  0.7052355E+02  0.7561462E-02  0.1358322E+00
         -1   -1    0    0    0  501 -0.00000000000E+00  0.00000000000E+00  0.52737867945E+02  0.52737867945E+02  0.00000000000E+00 0.  1.
          1   -1    0    0  501    0  0.00000000000E+00 -0.00000000000E+00 -0.22680633743E+03  0.22680633743E+03  0.00000000000E+00 0. -1.
         25    2    1    2    0    0 -0.50585838636E+01  0.19441953803E+02 -0.10832257467E+03  0.16668814694E+03  0.12509028462E+03 0.  0.
          5    1    3    3  502    0 -0.16367751076E+02 -0.39060308656E+02  0.48920130798E+00  0.42559637046E+02  0.41800000000E+01 0. -1.
         -5    1    3    3    0  502  0.11309167212E+02  0.58502262459E+02 -0.10881177598E+03  0.12412850989E+03  0.41800000000E+01 0. -1.
        -11    1    1    2    0    0 -0.13566008756E+02 -0.13672674773E+02  0.18306007747E+02  0.26572326745E+02  0.00000000000E+00 0.  1.
         11    1    1    2    0    0  0.18624592620E+02 -0.57692790295E+01 -0.84051902559E+02  0.86283731691E+02  0.00000000000E+00 0. -1.
</event>
<event>
 7    1  0.2594791E-009  0.1174675E+03  0.7561462E-02  0.1247334E+00
          1   -1    0    0  501    0  0.00000000000E+00  0.00000000000E+00  0.58924288525E+03  0.58924288525E+03  0.00000000000E+00 0. -1.
         -1   -1    0    0    0  501 -0.00000000000E+00 -0.00000000000E+00 -0.36504487136E+02  0.36504487136E+02  0.00000000000E+00 0.  1.
         25    2    1    2    0    0 -0.38797498126E+02 -0.45408313020E+01  0.11049984475E+03  0.17141466238E+03  0.12508759242E+03 0.  0.
          5    1    3    3  502    0 -0.59475682454E+02 -0.51995631721E+02  0.66221201829E+02  0.10316793345E+03  0.41800000000E+01 0. -1.
         -5    1    3    3    0  502  0.20678184328E+02  0.47454800419E+02  0.44278642922E+02  0.68246728925E+02  0.41800000000E+01 0. -1.
        -11    1    1    2    0    0  0.11104074342E+01 -0.43118393246E+02  0.19893011562E+03  0.20355249874E+03  0.00000000000E+00 0. -1.
         11    1    1    2    0    0  0.37687090692E+02  0.47659224548E+02  0.24330843774E+03  0.25078021127E+03  0.00000000000E+00 0.  1.
</event>
<event>
 7    1  0.2594791E-009  0.1006292E+03  0.7561462E-02  0.1278978E+00
         -1   -1    0    0    0  501 -0.00000000000E+00  0.00000000000E+00  0.33162391666E+03  0.33162391666E+03  0.00000000000E+00 0.  1.
          1   -1    0    0  501    0  0.00000000000E+00 -0.00000000000E+00 -0.46096174483E+02  0.46096174483E+02  0.00000000000E+00 0. -1.
         25    2    1    2    0    0  0.29149593247E+02 -0.48764792094E+02  0.13789640574E+03  0.19465605487E+03  0.12509139557E+03 0.  0.
          5    1    3    3  502    0  0.48834668341E+01 -0.86668475231E+02  0.63607135624E+02  0.10769685673E+03  0.41800000000E+01 0. -1.
         -5    1    3    3    0  502  0.24266126413E+02  0.37903683137E+02  0.74289270119E+02  0.86959198141E+02  0.41800000000E+01 0. -1.
        -11    1    1    2    0    0 -0.17888138426E+02  0.53888602202E+02  0.15738200874E+03  0.16731127762E+03  0.00000000000E+00 0.  1.
         11    1    1    2    0    0 -0.11261454821E+02 -0.51238101080E+01 -0.97506723073E+01  0.15752758652E+02  0.00000000000E+00 0. -1.
</event>
<event>
 7    1  0.2594791E-009  0.1328797E+03  0.7561462E-02  0.1223244E+00
         -2   -1    0    0    0  501 -0.00000000000E+00  0.00000000000E+00  0.41209551174E+02  0.41209551174E+02  0.00000000000E+00 0.  1.
          2   -1    0    0  501    0  0.00000000000E+00 -0.00000000000E+00 -0.69070569081E+03  0.69070569081E+03  0.00000000000E+00 0. -1.
         25    2    1    2    0    0  0.60285940046E+01  0.84484030361E+02 -0.13286574392E+03  0.20118038382E+03  0.12508535323E+03 0.  0.
          5    1    3    3  502    0  0.15710658949E+02  0.11495242029E+03 -0.11846593060E+03  0.16586902317E+03  0.41800000000E+01 0.  1.
         -5    1    3    3    0  502 -0.96820649448E+01 -0.30468389934E+02 -0.14399813325E+02  0.35311360644E+02  0.41800000000E+01 0.  1.
        -11    1    1    2    0    0 -0.22148573376E+02  0.79953271169E+01 -0.58036608652E+02  0.62631721213E+02  0.00000000000E+00 0.  1.
         11    1    1    2    0    0  0.16119979371E+02 -0.92479357478E+02 -0.45859378706E+03  0.46810313695E+03  0.00000000000E+00 0. -1.
</event>
<event>
 7    1  0.2594791E-009  0.1045364E+03  0.7561462E-02  0.1271036E+00
         -1   -1    0    0    0  501 -0.00000000000E+00  0.00000000000E+00  0.69470789492E+02  0.69470789492E+02  0.00000000000E+00 0.  1.
          1   -1    0    0  501    0  0.00000000000E+00 -0.00000000000E+00 -0.31636565420E+03  0.31636565420E+03  0.00000000000E+00 0. -1.
         25    2    1    2    0    0 -0.89768842645E+01 -0.30696533421E+02 -0.63900654992E+01  0.12927712459E+03  0.12509548509E+03 0.  0.
          5    1    3    3  502    0 -0.65238099048E+02 -0.11644521419E+01 -0.51815576929E+01  0.65587243092E+02  0.41800000000E+01 0. -1.
         -5    1    3    3    0  502  0.56261214784E+02 -0.29532081279E+02 -0.12085078063E+01  0.63689881494E+02  0.41800000000E+01 0. -1.
        -11    1    1    2    0    0 -0.20996281172E+02  0.42811573685E+02 -0.19496288129E+03  0.20070924180E+03  0.00000000000E+00 0. -1.
         11    1    1    2    0    0  0.29973165437E+02 -0.12115040264E+02 -0.45541917917E+02  0.55850077301E+02  0.00000000000E+00 0.  1.
</event>
<event>
 7    1  0.2594791E-009  0.7412051E+02  0.7561462E-02  0.1346616E+00
         -2   -1    0    0    0  501 -0.00000000000E+00  0.00000000000E+00  0.18413339904E+03  0.18413339904E+03  0.00000000000E+00 0.  1.
          2   -1    0    0  501    0  0.00000000000E+00 -0.00000000000E+00 -0.69319982263E+02  0.69319982263E+02  0.00000000000E+00 0. -1.
         25    2    1    2    0    0  0.54203971013E+01 -0.60313776294E+01  0.84363667062E+02  0.15109238628E+03  0.12508366260E+03 0.  0.
          5    1    3    3  502    0 -0.58967946445E+01 -0.40052803553E+02 -0.16535520075E+02  0.43930571174E+02  0.41800000000E+01 0. -1.
         -5    1    3    3    0  502  0.11317191746E+02  0.34021425923E+02  0.10089918714E+03  0.10716181510E+03  0.41800000000E+01 0. -1.
        -11    1    1    2    0    0  0.20217328679E+02  0.30112767771E+02  0.50268839632E+02  0.61987703617E+02  0.00000000000E+00 0.  1.
         11    1    1    2    0    0 -0.25637725780E+02 -0.24081390141E+02 -0.19819089916E+02  0.40373291412E+02  0.00000000000E+00 0. -1.
</event>
<event>
 7    1  0.2594791E-009  0.1377687E+03  0.7561462E-02  0.1216363E+00
          1   -1    0    0  501    0  0.00000000000E+00  0.00000000000E+00  0.39525347701E+03  0.39525347701E+03  0.00000000000E+00 0. -1.
         -1   -1    0    0    0  501 -0.00000000000E+00 -0.00000000000E+00 -0.69708541737E+02  0.69708541737E+02  0.00000000000E+00 0.  1.
         25    2    1    2    0    0 -0.89028795351E+02 -0.84046593794E+02  0.21118900543E+03  0.27429387951E+03  0.12508549072E+03 0.  0.
          5    1    3    3  502    0 -0.32424685191E+02 -0.25555722547E+02  0.18362658268E+03  0.18825687087E+03  0.41800000000E+01 0.  1.
         -5    1    3    3    0  502 -0.56604110160E+02 -0.58490871248E+02  0.27562422755E+02  0.86037008633E+02  0.41800000000E+01 0.  1.
        -11    1    1    2    0    0 -0.13423786769E+02 -0.72971857300E+01  0.10344754853E+02  0.18451583232E+02  0.00000000000E+00 0. -1.
         11    1    1    2    0    0  0.10245258212E+03  0.91343779524E+02  0.10401117498E+03  0.17221655600E+03  0.00000000000E+00 0.  1.
</event>
<event>
 7    1  0.2594791E-009  0.2566203E+03  0.7561462E-02  0.1109191E+00
         -1   -1    0    0    0  501 -0.00000000000E+00  0.00000000000E+00  0.15087073535E+03  0.15087073535E+03  0.00000000000E+00 0.  1.
          1   -1    0    0  501    0  0.00000000000E+00 -0.00000000000E+00 -0.62242889313E+03  0.62242889313E+03  0.00000000000E+00 0. -1.
         25    2    1    2    0    0 -0.15745108306E+02 -0.24232024736E+03 -0.43215326487E+03  0.51124453700E+03  0.12509005377E+03 0.  0.
          5    1    3    3  502    0 -0.15583847829E+01  0.12234734609E+02 -0.51210604360E+02  0.52840474004E+02  0.41800000000E+01 0.  1.
         -5    1    3    3    0  502 -0.14186723523E+02 -0.25455498197E+03 -0.38094266051E+03  0.45840406299E+03  0.41800000000E+01 0.  1.
        -11    1    1    2    0    0 -0.10734423387E+02  0.53546330879E+02  0.26052376014E+02  0.60507550702E+02  0.00000000000E+00 0. -1.
         11    1    1    2    0    0  0.26479531693E+02  0.18877391648E+03 -0.65457268917E+02  0.20154754079E+03  0.00000000000E+00 0.  1.
</event>
<event>
 7    1  0.2594791E-009  0.1299727E+03  0.7561462E-02  0.1227496E+00
         -1   -1    0    0    0  501 -0.00000000000E+00  0.00000000000E+00  0.19908070283E+02  0.19908070283E+02  0.00000000000E+00 0.  1.
          1   -1    0    0  501    0  0.00000000000E+00 -0.00000000000E+00 -0.11136899395E+04  0.11136899395E+04  0.00000000000E+00 0. -1.
         25    2    1    2    0    0 -0.30506721775E+02  0.87173801971E+02 -0.74219876013E+03  0.75831264000E+03  0.12509647723E+03 0.  0.
          5    1    3    3  502    0  0.29286942450E+02  0.70609963012E+02 -0.23123643767E+03  0.24358007796E+03  0.41800000000E+01 0. -1.
         -5    1    3    3    0  502 -0.59793664225E+02  0.16563838959E+02 -0.51096232246E+03  0.51473256204E+03  0.41800000000E+01 0. -1.
        -11    1    1    2    0    0 -0.19536378049E+02  0.12750632606E+01 -0.18104203798E+02  0.26665671729E+02  0.00000000000E+00 0.  1.
         11    1    1    2    0    0  0.50043099824E+02 -0.88448865232E+02 -0.33347890529E+03  0.34861969806E+03  0.00000000000E+00 0. -1.
</event>
<event>
 7    1  0.2594791E-009  0.6640980E+02  0.7561462E-02  0.1372746E+00
          1   -1    0    0  501    0  0.00000000000E+00  0.00000000000E+00  0.38179505998E+02  0.38179505998E+02  0.00000000000E+00 0. -1.
         -1   -1    0    0    0  501 -0.00000000000E+00 -0.00000000000E+00 -0.48270343132E+03  0.48270343132E+03  0.00000000000E+00 0.  1.
         25    2    1    2    0    0 -0.22608057507E+02  0.36483693060E+02 -0.37030931869E+03  0.39321470335E+03  0.12508647928E+03 0.  0.
          5    1    3    3  502    0 -0.10198251502E+02  0.20894411625E+02 -0.13156078281E+01  0.23659754749E+02  0.41800000000E+01 0. -1.
         -5    1    3    3    0  502 -0.12409806006E+02  0.15589281435E+02 -0.36899371086E+03  0.36955494860E+03  0.41800000000E+01 0. -1.
        -11    1    1    2    0    0 -0.44759022030E+01 -0.55540550909E+02 -0.11717645437E+02  0.56939351158E+02  0.00000000000E+00 0. -1.
         11    1    1    2    0    0  0.27083959710E+02  0.19056857849E+02 -0.62496961198E+02  0.70728882810E+02  0.00000000000E+00 0.  1.
</event>
<event>
 7    1  0.2594791E-009  0.1019156E+03  0.7561462E-02  0.1276318E+00
          3   -1    0    0  501    0  0.00000000000E+00  0.00000000000E+00  0.10023285666E+03  0.10023285666E+03  0.00000000000E+00 0. -1.
         -3   -1    0    0    0  501 -0.00000000000E+00 -0.00000000000E+00 -0.19305109966E+03  0.19305109966E+03  0.00000000000E+00 0.  1.
         25    2    1    2    0    0 -0.34572105680E+02 -0.51112239535E+02  0.11628145312E+02  0.13996409761E+03  0.12508814226E+03 0.  0.
          5    1    3    3  502    0  0.10340546415E+02 -0.44899192766E+02  0.58523068775E+02  0.74600847114E+02  0.41800000000E+01 0.  1.
         -5    1    3    3    0  502 -0.44912652095E+02 -0.62130467683E+01 -0.46894923463E+02  0.65363250492E+02  0.41800000000E+01 0.  1.
        -11    1    1    2    0    0  0.40204865079E+02 -0.17028020254E+02 -0.36222169316E+02  0.56731210103E+02  0.00000000000E+00 0.  1.
         11    1    1    2    0    0 -0.56327593986E+01  0.68140259788E+02 -0.68224218995E+02  0.96588648608E+02  0.00000000000E+00 0. -1.
</event>
<event>
 7    1  0.2594791E-009  0.2131585E+03  0.7561462E-02  0.1139089E+00
          1   -1    0    0  501    0  0.00000000000E+00  0.00000000000E+00  0.10707032437E+03  0.10707032437E+03  0.00000000000E+00 0. -1.
         -1   -1    0    0    0  501 -0.00000000000E+00 -0.00000000000E+00 -0.45939432339E+03  0.45939432339E+03  0.00000000000E+00 0.  1.
         25    2    1    2    0    0 -0.18685800999E+03  0.27923177962E+02 -0.23700363486E+03  0.32789621511E+03  0.12509830209E+03 0.  0.
          5    1    3    3  502    0 -0.14301307300E+03  0.75489916850E+02 -0.16946596382E+03  0.23428113856E+03  0.41800000000E+01 0.  1.
         -5    1    3    3    0  502 -0.43844936992E+02 -0.47566738887E+02 -0.67537671040E+02  0.93615076551E+02  0.41800000000E+01 0.  1.
        -11    1    1    2    0    0  0.54644247621E+02 -0.38866365617E+02 -0.73441099222E+02  0.99449400347E+02  0.00000000000E+00 0.  1.
         11    1    1    2    0    0  0.13221376237E+03  0.10943187655E+02 -0.41879264940E+02  0.13911903230E+03  0.00000000000E+00 0. -1.
</event>
<event>
 7    1  0.2594791E-009  0.8997805E+02  0.7561462E-02  0.1302905E+00
         -2   -1    0    0    0  501 -0.00000000000E+00  0.00000000000E+00  0.21587347934E+02  0.21587347934E+02  0.00000000000E+00 0.  1.
          2   -1    0    0  501    0  0.00000000000E+00 -0.00000000000E+00 -0.67091132144E+03  0.67091132144E+03  0.00000000000E+00 0. -1.
         25    2    1    2    0    0  0.49432028313E+02  0.24977533733E+02 -0.42231835871E+03  0.44392379181E+03  0.12509250265E+03 0.  0.
          5    1    3    3  502    0  0.73665119885E+02 -0.66138960466E+01 -0.37356610886E+03  0.38084039124E+03  0.41800000000E+01 0.  1.
         -5    1    3    3    0  502 -0.24233091573E+02  0.31591429780E+02 -0.48752249846E+02  0.63083400573E+02  0.41800000000E+01 0.  1.
        -11    1    1    2    0    0 -0.28444196346E+02 -0.32825963963E+02 -0.22120482429E+03  0.22542890344E+03  0.00000000000E+00 0. -1.
         11    1    1    2    0    0 -0.20987831967E+02  0.78484302292E+01 -0.58007905093E+01  0.23145974126E+02  0.00000000000E+00 0.  1.
</event>
<event>
 7    1  0.2594791E-009  0.1926060E+03  0.7561462E-02  0.1156132E+00
          4   -1    0    0  501    0  0.00000000000E+00  0.00000000000E+00  0.10512306173E+04  0.10512306173E+04  0.00000000000E+00 0. -1.
         -4   -1    0    0    0  501 -0.00000000000E+00 -0.00000000000E+00 -0.39768730123E+02  0.39768730123E+02  0.00000000000E+00 0.  1.
         25    2    1    2    0    0 -0.15512171732E+03 -0.37194123301E+02  0.70686714990E+03  0.73536125523E+03  0.12509539597E+03 0.  0.
          5    1    3    3  502    0 -0.13957304387E+03 -0.76769143975E+02  0.53210899509E+03  0.55545620088E+03  0.41800000000E+01 0. -1.
         -5    1    3    3    0  502 -0.15548673449E+02  0.39575020674E+02  0.17475815481E+03  0.17990505435E+03  0.41800000000E+01 0. -1.
        -11    1    1    2    0    0  0.12224899354E+03  0.66443007780E+02  0.24152652976E+03  0.27873742892E+03  0.00000000000E+00 0.  1.
         11    1    1    2    0    0  0.32872723779E+02 -0.29248884480E+02  0.63068207513E+02  0.76900663267E+02  0.00000000000E+00 0. -1.
</event>
<event>
 7    1  0.2594791E-009  0.6474313E+02  0.7561462E-02  0.1378940E+00
          1   -1    0    0  501    0  0.00000000000E+00  0.00000000000E+00  0.52568628222E+03  0.52568628222E+03  0.00000000000E+00 0. -1.
         -1   -1    0    0    0  501 -0.00000000000E+00 -0.00000000000E+00 -0.30105479980E+02  0.30105479980E+02  0.00000000000E+00 0.  1.
         25    2    1    2    0    0 -0.43749502592E+02 -0.37589975010E+02  0.33740570753E+03  0.36444138839E+03  0.12509152208E+03 0.  0.
          5    1    3    3  502    0  0.56135914367E+01 -0.60060597937E+01 -0.91200336319E+01  0.12970450128E+02  0.41800000000E+01 0.  1.
         -5    1    3    3    0  502 -0.49363094029E+02 -0.31583915216E+02  0.34652574116E+03  0.35147093826E+03  0.41800000000E+01 0.  1.
        -11    1    1    2    0    0  0.24832859928E+02  0.34246365580E+02  0.16547779510E+03  0.17079925397E+03  0.00000000000E+00 0. -1.
         11    1    1    2    0    0  0.18916642665E+02  0.33436094296E+01 -0.73027003876E+01  0.20551119840E+02  0.00000000000E+00 0.  1.
</event>
<event>
 7    1  0.2594791E-009  0.9669904E+02  0.7561462E-02  0.1287395E+00
         -3   -1    0    0    0  501 -0.00000000000E+00  0.00000000000E+00  0.29898702112E+03  0.29898702112E+03  0.00000000000E+00 0.  1.
          3   -1    0    0  501    0  0.00000000000E+00 -0.00000000000E+00 -0.46439333734E+02  0.46439333734E+02  0.00000000000E+00 0. -1.
         25    2    1    2    0    0  0.12560396173E+02  0.34509129348E+02  0.99200157813E+02  0.16381970993E+03  0.12509029735E+03 0.  0.
          5    1    3    3  502    0  0.25900216276E+02  0.61936257262E+02  0.82096866741E+01  0.67762766487E+02  0.41800000000E+01 0. -1.
         -5    1    3    3    0  502 -0.13339820103E+02 -0.27427127914E+02  0.90990471139E+02  0.96056943445E+02  0.41800000000E+01 0. -1.
        -11    1    1    2    0    0  0.31425516146E+02  0.97976556496E+01  0.36681685422E+02  0.49285932746E+02  0.00000000000E+00 0.  1.
         11    1    1    2    0    0 -0.43985912318E+02 -0.44306784998E+02  0.11666584415E+03  0.13232071218E+03  0.00000000000E+00 0. -1.
</event>
<event>
 7    1  0.2594791E-009  0.1184489E+03  0.7561462E-02  0.1245678E+00
         -4   -1    0    0    0  501 -0.00000000000E+00  0.00000000000E+00  0.88277415690E+03  0.88277415690E+03  0.00000000000E+00 0.  1.
          4   -1    0    0  501    0  0.00000000000E+00 -0.00000000000E+00 -0.25786878329E+02  0.25786878329E+02  0.00000000000E+00 0. -1.
         25    2    1    2    0    0  0.85400137866E+02 -0.10132339350E+02  0.62869857969E+03  0.64676586401E+03  0.12509328878E+03 0.  0.
          5    1    3    3  502    0  0.37646196647E+02 -0.48356463946E+02  0.50484173471E+03  0.50856487613E+03  0.41800000000E+01 0. -1.
         -5    1    3    3    0  502  0.47753941219E+02  0.38224124597E+02  0.12385684498E+03  0.13820098788E+03  0.41800000000E+01 0. -1.
        -11    1    1    2    0    0 -0.30158859128E+02 -0.32533900275E+02  0.15223228342E+03  0.15856443348E+03  0.00000000000E+00 0.  1.
         11    1    1    2    0    0 -0.55241278738E+02  0.42666239624E+02  0.76056415463E+02  0.10323073774E+03  0.00000000000E+00 0. -1.
</event>
<event>
 7    1  0.2594791E-009  0.1089430E+03  0.7561462E-02  0.1262540E+00
         -2   -1    0    0    0  501 -0.00000000000E+00  0.00000000000E+00  0.99795296611E+02  0.99795296611E+02  0.00000000000E+00 0.  1.
          2   -1    0    0  501    0  0.00000000000E+00 -0.00000000000E+00 -0.22284144143E+03  0.22284144143E+03  0.00000000000E+00 0. -1.
         25    2    1    2    0    0 -0.88568996123E+02  0.93752809816E+01 -0.11343522807E+03  0.19091168574E+03  0.12508939930E+03 0.  0.
          5    1    3    3  502    0 -0.75485427515E+02 -0.12619908983E+01 -0.14003329205E+03  0.15914282161E+03  0.41800000000E+01 0. -1.
         -5    1    3    3    0  502 -0.13083568608E+02  0.10637271880E+02  0.26598063978E+02  0.31768864127E+02  0.41800000000E+01 0. -1.
        -11    1    1    2    0    0  0.29050140402E+02 -0.46445796728E+02 -0.24550216060E+02  0.60031956487E+02  0.00000000000E+00 0. -1.
         11    1    1    2    0    0  0.59518855721E+02  0.37070515746E+02  0.14939299311E+02  0.71693095818E+02  0.00000000000E+00 0.  1.
</event>
<event>
 7    1  0.2594791E-009  0.1335627E+03  0.7561462E-02  0.1222263E+00
         -4   -1    0    0    0  501 -0.00000000000E+00  0.00000000000E+00  0.18265049202E+02  0.18265049202E+02  0.00000000000E+00 0.  1.
          4   -1    0    0  501    0  0.00000000000E+00 -0.00000000000E+00 -0.10579737205E+04  0.10579737205E+04  0.00000000000E+00 0. -1.
         25    2    1    2    0    0  0.71800653908E+02  0.44784255325E+02 -0.64195113322E+03  0.65947643484E+03  0.12508775816E+03 0.  0.
          5    1    3    3  502    0  0.11888382326E+02  0.76663851495E+02 -0.25416528170E+03  0.26577460861E+03  0.41800000000E+01 0. -1.
         -5    1    3    3    0  502  0.59912271582E+02 -0.31879596171E+02 -0.38778585152E+03  0.39370182623E+03  0.41800000000E+01 0. -1.
        -11    1    1    2    0    0  0.25834979201E+01 -0.46951508109E+02 -0.20035819428E+03  0.20580214914E+03  0.00000000000E+00 0. -1.
         11    1    1    2    0    0 -0.74384151828E+02  0.21672527836E+01 -0.19739934379E+03  0.21096018571E+03  0.00000000000E+00 0.  1.
</event>
<event>
 7    1  0.2594791E-009  0.9552871E+02  0.7561462E-02  0.1289990E+00
          1   -1    0    0  501    0  0.00000000000E+00  0.00000000000E+00  0.22423648786E+03  0.22423648786E+03  0.00000000000E+00 0. -1.
         -1   -1    0    0    0  501 -0.00000000000E+00 -0.00000000000E+00 -0.51909052573E+02  0.51909052573E+02  0.00000000000E+00 0.  1.
         25    2    1    2    0    0 -0.19254915138E+02 -0.32786259365E+01  0.99663216099E+02  0.16112663588E+03  0.12509010752E+03 0.  0.
          5    1    3    3  502    0  0.46727034491E+02 -0.52523136288E+01  0.76744036316E+01  0.47826471978E+02  0.41800000000E+01 0. -1.
         -5    1    3    3    0  502 -0.65981949630E+02  0.19736876923E+01  0.91988812468E+02  0.11330016390E+03  0.41800000000E+01 0. -1.
        -11    1    1    2    0    0 -0.40199255164E+01  0.36733222039E+02  0.68111277381E+01  0.37575003174E+02  0.00000000000E+00 0.  1.
         11    1    1    2    0    0  0.23274840655E+02 -0.33454596102E+02  0.65853091455E+02  0.77443901387E+02  0.00000000000E+00 0. -1.
</event>
<event>
 7    1  0.2594791E-009  0.6516135E+02  0.7561462E-02  0.1377366E+00
         -2   -1    0    0    0  501 -0.00000000000E+00  0.00000000000E+00  0.30430041549E+03  0.30430041549E+03  0.00000000000E+00 0.  1.
          2   -1    0    0  501    0  0.00000000000E+00 -0.00000000000E+00 -0.73625415366E+02  0.73625415366E+02  0.00000000000E+00 0. -1.
         25    2    1    2    0    0 -0.99311515463E+01  0.13515018310E+02 -0.23869830070E+01  0.12623121694E+03  0.12508932389E+03 0.  0.
          5    1    3    3  502    0 -0.18049240096E+02 -0.76396671908E+01 -0.60491657726E+02  0.63724819633E+02  0.41800000000E+01 0.  1.
         -5    1    3    3    0  502  0.81180885495E+01  0.21154685500E+02  0.58104674719E+02  0.62506397309E+02  0.41800000000E+01 0.  1.
        -11    1    1    2    0    0 -0.81104045835E+00 -0.49592163721E+02  0.17951254476E+03  0.18623854116E+03  0.00000000000E+00 0. -1.
         11    1    1    2    0    0  0.10742192005E+02  0.36077145412E+02  0.53549438376E+02  0.65456072755E+02  0.00000000000E+00 0.  1.
</event>
<event>
 7    1  0.2594791E-009  0.1391346E+03  0.7561462E-02  0.1214498E+00
          2   -1    0    0  501    0  0.00000000000E+00  0.00000000000E+00  0.70224161624E+03  0.70224161624E+03  0.00000000000E+00 0. -1.
         -2   -1    0    0    0  501 -0.00000000000E+00 -0.00000000000E+00 -0.34628662389E+02  0.34628662389E+02  0.00000000000E+00 0.  1.
         25    2    1    2    0    0 -0.10287248821E+03 -0.12143768920E+02  0.45937588156E+03  0.48724218337E+03  0.12509406355E+03 0.  0.
          5    1    3    3  502    0 -0.26219149585E+02 -0.63039290838E+02  0.15973621349E+03  0.17376572243E+03  0.41800000000E+01 0.  1.
         -5    1    3    3    0  502 -0.76653338621E+02  0.50895521917E+02  0.29963966808E+03  0.31347646093E+03  0.41800000000E+01 0.  1.
        -11    1    1    2    0    0  0.88271193885E+02 -0.12464206038E+02  0.20134262779E+03  0.22019539929E+03  0.00000000000E+00 0. -1.
         11    1    1    2    0    0  0.14601294320E+02  0.24607974958E+02  0.68944444978E+01  0.29432695974E+02  0.00000000000E+00 0.  1.
</event>
<event>
 7    1  0.2594791E-009  0.1090713E+03  0.7561462E-02  0.1262299E+00
          1   -1    0    0  501    0  0.00000000000E+00  0.00000000000E+00  0.32107096585E+03  0.32107096585E+03  0.00000000000E+00 0. -1.
         -1   -1    0    0    0  501 -0.00000000000E+00 -0.00000000000E+00 -0.10812591418E+03  0.10812591418E+03  0.00000000000E+00 0.  1.
         25    2    1    2    0    0  0.68937077595E+02  0.72907528903E+02 -0.18555610374E+02  0.16142591781E+03  0.12508472260E+03 0.  0.
          5    1    3    3  502    0  0.74484565490E+02  0.71332928729E+02 -0.59989704917E+02  0.11938414599E+03  0.41800000000E+01 0. -1.
         -5    1    3    3    0  502 -0.55474878949E+01  0.15746001732E+01  0.41434094543E+02  0.42041771826E+02  0.41800000000E+01 0. -1.
        -11    1    1    2    0    0  0.26291975016E+01 -0.16421828073E+02 -0.23311093639E+01  0.16793546011E+02  0.00000000000E+00 0.  1.
         11    1    1    2    0    0 -0.71566275096E+02 -0.56485700829E+02  0.23383177140E+03  0.25097741621E+03  0.00000000000E+00 0. -1.
</event>
<event>
 7    1  0.2594791E-009  0.5817415E+02  0.7561462E-02  0.1405658E+00
          2   -1    0    0  501    0  0.00000000000E+00  0.00000000000E+00  0.84723733231E+02  0.84723733231E+02  0.00000000000E+00 0. -1.
         -2   -1    0    0    0  501 -0.00000000000E+00 -0.00000000000E+00 -0.21991338934E+03  0.21991338934E+03  0.00000000000E+00 0.  1.
         25    2    1    2    0    0 -0.36306323590E+02 -0.12193945799E+02 -0.15619988667E+03  0.20373916339E+03  0.12507757854E+03 0.  0.
          5    1    3    3  502    0 -0.16396823549E+00 -0.29761540950E+01  0.21507349505E+02  0.22111600157E+02  0.41800000000E+01 0.  1.
         -5    1    3    3    0  502 -0.36142355355E+02 -0.92177917039E+01 -0.17770723618E+03  0.18162756323E+03  0.41800000000E+01 0.  1.
        -11    1    1    2    0    0  0.34599950108E+02  0.35931890879E+02 -0.19789304143E+02  0.53664456469E+02  0.00000000000E+00 0.  1.
         11    1    1    2    0    0  0.17063734820E+01 -0.23737945080E+02  0.40799534704E+02  0.47233502720E+02  0.00000000000E+00 0. -1.
</event>
<event>
 7    1  0.2594791E-009  0.3881493E+03  0.7561462E-02  0.1047962E+00
          1   -1    0    0  501    0  0.00000000000E+00  0.00000000000E+00  0.20992316857E+03  0.20992316857E+03  0.00000000000E+00 0. -1.
         -1   -1    0    0    0  501 -0.00000000000E+00 -0.00000000000E+00 -0.93037710113E+03  0.93037710113E+03  0.00000000000E+00 0.  1.
         25    2    1    2    0    0  0.37814115890E+03  0.51244696828E+02 -0.61887703680E+03  0.73774815458E+03  0.12508716125E+03 0.  0.
          5    1    3    3  502    0  0.14364870214E+03  0.60756273157E+02 -0.33386817968E+03  0.36852640089E+03  0.41800000000E+01 0.  1.
         -5    1    3    3    0  502  0.23449245676E+03 -0.95115763290E+01 -0.28500885712E+03  0.36922175369E+03  0.41800000000E+01 0.  1.
        -11    1    1    2    0    0 -0.68835066324E+02  0.11925506769E+02  0.31836211222E+01  0.69932964408E+02  0.00000000000E+00 0. -1.
         11    1    1    2    0    0 -0.30930609257E+03 -0.63170203597E+02 -0.10476051688E+03  0.33261915072E+03  0.00000000000E+00 0.  1.
</event>
<event>
 7    1  0.2594791E-009  0.4893528E+02  0.7561462E-02  0.1451170E+00
         -1   -1    0    0    0  501 -0.00000000000E+00  0.00000000000E+00  0.26913418968E+03  0.26913418968E+03  0.00000000000E+00 0.  1.
          1   -1    0    0  501    0  0.00000000000E+00 -0.00000000000E+00 -0.88296086237E+02  0.88296086237E+02  0.00000000000E+00 0. -1.
         25    2    1    2    0    0 -0.20431787379E+02  0.39736364304E+01  0.21718271834E+03  0.25149547328E+03  0.12509353386E+03 0.  0.
          5    1    3    3  502    0 -0.15141357571E+02 -0.27183314532E+02 -0.59105172033E+00  0.31400876424E+02  0.41800000000E+01 0. -1.
         -5    1    3    3    0  502 -0.52904298079E+01  0.31156950962E+02  0.21777377006E+03  0.22009459686E+03  0.41800000000E+01 0. -1.
        -11    1    1    2    0    0  0.22157352642E+02  0.71947531556E+01  0.30366543506E+02  0.38273224499E+02  0.00000000000E+00 0.  1.
         11    1    1    2    0    0 -0.17255652632E+01 -0.11168389586E+02 -0.66711158397E+02  0.67661578138E+02  0.00000000000E+00 0. -1.
</event>
<event>
 7    1  0.2594791E-009  0.7761034E+02  0.7561462E-02  0.1335973E+00
          1   -1    0    0  501    0  0.00000000000E+00  0.00000000000E+00  0.26349580034E+03  0.26349580034E+03  0.00000000000E+00 0. -1.
         -1   -1    0    0    0  501 -0.00000000000E+00 -0.00000000000E+00 -0.68905459125E+02  0.68905459125E+02  0.00000000000E+00 0.  1.
         25    2    1    2    0    0  0.10640846698E+02  0.29904956234E+02  0.19739256061E+03  0.23583270628E+03  0.12508280593E+03 0.  0.
          5    1    3    3  502    0  0.11100022669E+02  0.53417930057E+02  0.22251257323E+02  0.59070099096E+02  0.41800000000E+01 0.  1.
         -5    1    3    3    0  502 -0.45917597130E+00 -0.23512973822E+02  0.17514130328E+03  0.17676260718E+03  0.41800000000E+01 0.  1.
        -11    1    1    2    0    0 -0.31389934749E+02  0.88865798958E+01 -0.30436490623E+02  0.44617028893E+02  0.00000000000E+00 0. -1.
         11    1    1    2    0    0  0.20749088052E+02 -0.38791536130E+02  0.27634271229E+02  0.51951524296E+02  0.00000000000E+00 0.  1.
</event>
<event>
 7    1  0.2594791E-009  0.1271425E+03  0.7561462E-02  0.1231758E+00
         -2   -1    0    0    0  501 -0.00000000000E+00  0.00000000000E+00  0.13353338075E+03  0.13353338075E+03  0.00000000000E+00 0.  1.
          2   -1    0    0  501    0  0.00000000000E+00 -0.00000000000E+00 -0.15361716836E+03  0.15361716836E+03  0.00000000000E+00 0. -1.
         25    2    1    2    0    0  0.88331138830E+02  0.19166041533E+02 -0.32036634047E+02  0.15761917361E+03  0.12509088989E+03 0.  0.
          5    1    3    3  502    0  0.88250366073E+02 -0.36860439804E+02 -0.66309904105E+01  0.95959687204E+02  0.41800000000E+01 0.  1.
         -5    1    3    3    0  502  0.80772756805E-01  0.56026481337E+02 -0.25405643636E+02  0.61659486405E+02  0.41800000000E+01 0.  1.
        -11    1    1    2    0    0 -0.57123426382E+02 -0.35391717237E+02  0.45316760350E+02  0.81051022567E+02  0.00000000000E+00 0.  1.
         11    1    1    2    0    0 -0.31207712448E+02  0.16225675704E+02 -0.33363913912E+02  0.48480352926E+02  0.00000000000E+00 0. -1.
</event>
<event>
 7    1  0.2594791E-009  0.1073605E+03  0.7561462E-02  0.1265537E+00
         -1   -1    0    0    0  501 -0.00000000000E+00  0.00000000000E+00  0.45611349322E+02  0.45611349322E+02  0.00000000000E+00 0.  1.
          1   -1    0    0  501    0  0.00000000000E+00 -0.00000000000E+00 -0.41412662363E+03  0.41412662363E+03  0.00000000000E+00 0. -1.
         25    2    1    2    0    0 -0.21251797371E+02  0.61833860833E+02 -0.29377507147E+03  0.32590785550E+03  0.12504828036E+03 0.  0.
          5    1    3    3  502    0 -0.53544899403E+02 -0.14029579855E+02 -0.15238035849E+03  0.16217623567E+03  0.41800000000E+01 0. -1.
         -5    1    3    3    0  502  0.32293102033E+02  0.75863440688E+02 -0.14139471299E+03  0.16373161983E+03  0.41800000000E+01 0. -1.
        -11    1    1    2    0    0  0.26112412004E+02 -0.16129119324E+02 -0.81763373561E+02  0.87334161740E+02  0.00000000000E+00 0.  1.
         11    1    1    2    0    0 -0.48606146336E+01 -0.45704741509E+02  0.70231707214E+01  0.46495955716E+02  0.00000000000E+00 0. -1.
</event>
<event>
 7    1  0.2594791E-009  0.1061993E+03  0.7561462E-02  0.1267775E+00
         -2   -1    0    0    0  501 -0.00000000000E+00  0.00000000000E+00  0.26439560491E+03  0.26439560491E+03  0.00000000000E+00 0. -1.
          2   -1    0    0  501    0  0.00000000000E+00 -0.00000000000E+00 -0.63579859651E+02  0.63579859651E+02  0.00000000000E+00 0.  1.
         25    2    1    2    0    0  0.63293153761E+02 -0.14168387166E+02  0.14647509940E+03  0.20324719162E+03  0.12509076565E+03 0.  0.
          5    1    3    3  502    0 -0.28739132194E+02 -0.27471307405E+02  0.16197706285E+02  0.43132917113E+02  0.41800000000E+01 0.  1.
         -5    1    3    3    0  502  0.92032285955E+02  0.13302920239E+02  0.13027739311E+03  0.16011427451E+03  0.41800000000E+01 0.  1.
        -11    1    1    2    0    0 -0.26178813042E+02 -0.16712338474E+02  0.67826032173E+02  0.74598948718E+02  0.00000000000E+00 0. -1.
         11    1    1    2    0    0 -0.37114340719E+02  0.30880725640E+02 -0.13485386310E+02  0.50129324223E+02  0.00000000000E+00 0.  1.
</event>
<event>
 7    1  0.2594791E-009  0.1187664E+03  0.7561462E-02  0.1245146E+00
         -1   -1    0    0    0  501 -0.00000000000E+00  0.00000000000E+00  0.39393820608E+02  0.39393820608E+02  0.00000000000E+00 0.  1.
          1   -1    0    0  501    0  0.00000000000E+00 -0.00000000000E+00 -0.42081430537E+03  0.42081430537E+03  0.00000000000E+00 0. -1.
         25    2    1    2    0    0 -0.29438578292E+02  0.49510872663E+02 -0.30446501187E+03  0.33416368065E+03  0.12509382720E+03 0.  0.
          5    1    3    3  502    0 -0.58770075702E+02 -0.19944040967E+02 -0.13599100715E+03  0.14954167644E+03  0.41800000000E+01 0.  1.
         -5    1    3    3    0  502  0.29331497410E+02  0.69454913629E+02 -0.16847400473E+03  0.18462200420E+03  0.41800000000E+01 0.  1.
        -11    1    1    2    0    0 -0.20146750152E+02  0.98898264608E+01 -0.16767307106E+02  0.28015045898E+02  0.00000000000E+00 0.  1.
         11    1    1    2    0    0  0.49585328444E+02 -0.59400699123E+02 -0.60188165783E+02  0.98029399435E+02  0.00000000000E+00 0. -1.
</event>
<event>
 7    1  0.2594791E-009  0.8412712E+02  0.7561462E-02  0.1317731E+00
          1   -1    0    0  501    0  0.00000000000E+00  0.00000000000E+00  0.44134963646E+02  0.44134963646E+02  0.00000000000E+00 0. -1.
         -1   -1    0    0    0  501 -0.00000000000E+00 -0.00000000000E+00 -0.31738341214E+03  0.31738341214E+03  0.00000000000E+00 0.  1.
         25    2    1    2    0    0  0.33687183653E+02 -0.32611905322E+02 -0.16363534444E+03  0.21123928142E+03  0.12508855005E+03 0.  0.
          5    1    3    3  502    0  0.37226824565E+02  0.72109394919E+00  0.62872395048E+01  0.37991554644E+02  0.41800000000E+01 0. -1.
         -5    1    3    3    0  502 -0.35396409118E+01 -0.33332999271E+02 -0.16992258394E+03  0.17324772677E+03  0.41800000000E+01 0. -1.
        -11    1    1    2    0    0  0.18900205198E+02  0.39675086138E+02 -0.75001977951E+02  0.86928861221E+02  0.00000000000E+00 0.  1.
         11    1    1    2    0    0 -0.52587388851E+02 -0.70631808161E+01 -0.34611126101E+02  0.63350233144E+02  0.00000000000E+00 0. -1.
</event>
<event>
 7    1  0.2594791E-009  0.1068209E+03  0.7561462E-02  0.1266573E+00
          2   -1    0    0  501    0  0.00000000000E+00  0.00000000000E+00  0.63031010560E+03  0.63031010560E+03  0.00000000000E+00 0. -1.
         -2   -1    0    0    0  501 -0.00000000000E+00 -0.00000000000E+00 -0.31691347514E+02  0.31691347514E+02  0.00000000000E+00 0.  1.
         25    2    1    2    0    0 -0.43377573499E+02 -0.75718649325E+02  0.26957409008E+03  0.30972374839E+03  0.12507470783E+03 0.  0.
          5    1    3    3  502    0 -0.59357239949E+01 -0.20831973308E+02  0.23246018244E+03  0.23350463111E+03  0.41800000000E+01 0. -1.
         -5    1    3    3    0  502 -0.37441849504E+02 -0.54886676018E+02  0.37113907636E+02  0.76219117278E+02  0.41800000000E+01 0. -1.
        -11    1    1    2    0    0 -0.18587838690E+02  0.57485879726E+02  0.13920689627E+03  0.15175208099E+03  0.00000000000E+00 0.  1.
         11    1    1    2    0    0  0.61965412189E+02  0.18232769599E+02  0.18983777174E+03  0.20052562373E+03  0.00000000000E+00 0. -1.
</event>
<event>
 7    1  0.2594791E-009  0.8725390E+02  0.7561462E-02  0.1309641E+00
         -1   -1    0    0    0  501 -0.00000000000E+00  0.00000000000E+00  0.28356965860E+02  0.28356965860E+02  0.00000000000E+00 0.  1.
          1   -1    0    0  501    0  0.00000000000E+00 -0.00000000000E+00 -0.47792502684E+03  0.47792502684E+03  0.00000000000E+00 0. -1.
         25    2    1    2    0    0  0.19967285480E+02  0.33578518962E+02 -0.21178879474E+03  0.24905415289E+03  0.12508904057E+03 0.  0.
          5    1    3    3  502    0 -0.12808073798E+02  0.45342810628E+02 -0.15679187789E+02  0.49832986664E+02  0.41800000000E+01 0.  1.
         -5    1    3    3    0  502  0.32775359278E+02 -0.11764291667E+02 -0.19610960695E+03  0.19922116623E+03  0.41800000000E+01 0.  1.
        -11    1    1    2    0    0  0.56564313578E+01  0.26353159519E+02 -0.11613406510E+03  0.11922082582E+03  0.00000000000E+00 0. -1.
         11    1    1    2    0    0 -0.25623716837E+02 -0.59931678481E+02 -0.12164520114E+03  0.13800701399E+03  0.00000000000E+00 0.  1.
</event>
<event>
 7    1  0.2594791E-009  0.1306425E+03  0.7561462E-02  0.1226506E+00
         -2   -1    0    0    0  501 -0.00000000000E+00  0.00000000000E+00  0.39368886089E+02  0.39368886089E+02  0.00000000000E+00 0.  1.
          2   -1    0    0  501    0  0.00000000000E+00 -0.00000000000E+00 -0.54031176142E+03  0.54031176142E+03  0.00000000000E+00 0. -1.
         25    2    1    2    0    0  0.66914886307E+02  0.20294028936E+02 -0.38260671970E+03  0.40856606973E+03  0.12509549055E+03 0.  0.
          5    1    3    3  502    0  0.18284531002E+02 -0.51298279023E+02 -0.11564621111E+03  0.12789587972E+03  0.41800000000E+01 0.  1.
         -5    1    3    3    0  502  0.48630355305E+02  0.71592307959E+02 -0.26696050858E+03  0.28067019001E+03  0.41800000000E+01 0.  1.
        -11    1    1    2    0    0  0.25663419227E+02 -0.30073471496E+01 -0.44439128313E+02  0.51405168500E+02  0.00000000000E+00 0. -1.
         11    1    1    2    0    0 -0.92578305534E+02 -0.17286681786E+02 -0.73897027317E+02  0.11970940928E+03  0.00000000000E+00 0.  1.
</event>
<event>
 7    1  0.2594791E-009  0.1107456E+03  0.7561462E-02  0.1259195E+00
         -1   -1    0    0    0  501 -0.00000000000E+00  0.00000000000E+00  0.47954693046E+02  0.47954693046E+02  0.00000000000E+00 0.  1.
          1   -1    0    0  501    0  0.00000000000E+00 -0.00000000000E+00 -0.31699644521E+03  0.31699644521E+03  0.00000000000E+00 0. -1.
         25    2    1    2    0    0  0.13347214584E+02  0.58682251208E+02 -0.16070946800E+03  0.21235581736E+03  0.12508279385E+03 0.  0.
          5    1    3    3  502    0 -0.33857565151E+02 -0.21417158102E+02 -0.78266298800E+02  0.88023379321E+02  0.41800000000E+01 0.  1.
         -5    1    3    3    0  502  0.47204779735E+02  0.80099409309E+02 -0.82443169204E+02  0.12433243804E+03  0.41800000000E+01 0.  1.
        -11    1    1    2    0    0  0.27715491624E+01 -0.68966808919E+02 -0.11345457418E+03  0.13280076287E+03  0.00000000000E+00 0. -1.
         11    1    1    2    0    0 -0.16118763747E+02  0.10284557711E+02  0.51222900214E+01  0.19794558017E+02  0.00000000000E+00 0.  1.
</event>
<event>
 7    1  0.2594791E-009  0.1307513E+03  0.7561462E-02  0.1226345E+00
          1   -1    0    0  501    0  0.00000000000E+00  0.00000000000E+00  0.66766261442E+03  0.66766261442E+03  0.00000000000E+00 0. -1.
         -1   -1    0    0    0  501 -0.00000000000E+00 -0.00000000000E+00 -0.26356907192E+02  0.26356907192E+02  0.00000000000E+00 0.  1.
         25    2    1    2    0    0 -0.33256103698E+02 -0.67557465810E+02  0.33054937390E+03  0.36136352975E+03  0.12510288737E+03 0.  0.
          5    1    3    3  502    0 -0.18046911096E+02  0.35366896800E+02  0.12012056136E+03  0.12658171294E+03  0.41800000000E+01 0.  1.
         -5    1    3    3    0  502 -0.15209192602E+02 -0.10292436261E+03  0.21042881254E+03  0.23478181681E+03  0.41800000000E+01 0.  1.
        -11    1    1    2    0    0  0.45835301870E+01  0.84183130974E+02  0.24338036787E+03  0.25756904269E+03  0.00000000000E+00 0. -1.
         11    1    1    2    0    0  0.28672573511E+02 -0.16625665164E+02  0.67375965460E+02  0.75086949169E+02  0.00000000000E+00 0.  1.
</event>
<event>
 7    1  0.2594791E-009  0.1837623E+03  0.7561462E-02  0.1164211E+00
         -1   -1    0    0    0  501 -0.00000000000E+00  0.00000000000E+00  0.40575957100E+02  0.40575957100E+02  0.00000000000E+00 0.  1.
          1   -1    0    0  501    0  0.00000000000E+00 -0.00000000000E+00 -0.87656729693E+03  0.87656729693E+03  0.00000000000E+00 0. -1.
         25    2    1    2    0    0 -0.11795182180E+03 -0.90902681272E+02 -0.34430035579E+03  0.39543120665E+03  0.12508866642E+03 0.  0.
          5    1    3    3  502    0 -0.42316803562E+02 -0.10849315919E+03 -0.19793776934E+03  0.22969177257E+03  0.41800000000E+01 0. -1.
         -5    1    3    3    0  502 -0.75635018237E+02  0.17590477916E+02 -0.14636258646E+03  0.16573943409E+03  0.41800000000E+01 0. -1.
        -11    1    1    2    0    0  0.27651182748E+02 -0.17052876042E+02 -0.70420026377E+02  0.77552360400E+02  0.00000000000E+00 0. -1.
         11    1    1    2    0    0  0.90300639052E+02  0.10795555731E+03 -0.42127095766E+03  0.44415968697E+03  0.00000000000E+00 0.  1.
</event>
<event>
 7    1  0.2594791E-009  0.1787379E+03  0.7561462E-02  0.1169030E+00
          2   -1    0    0  501    0  0.00000000000E+00  0.00000000000E+00  0.28066883687E+03  0.28066883687E+03  0.00000000000E+00 0. -1.
         -2   -1    0    0    0  501 -0.00000000000E+00 -0.00000000000E+00 -0.14207491786E+03  0.14207491786E+03  0.00000000000E+00 0.  1.
         25    2    1    2    0    0 -0.28800656304E+02  0.16255250082E+03  0.45769397890E+02  0.21213581622E+03  0.12511583998E+03 0.  0.
          5    1    3    3  502    0  0.27679815726E+02  0.38832429929E+02 -0.29902450091E+02  0.56442525938E+02  0.41800000000E+01 0.  1.
         -5    1    3    3    0  502 -0.56480472030E+02  0.12372007089E+03  0.75671847982E+02  0.15569329028E+03  0.41800000000E+01 0.  1.
        -11    1    1    2    0    0  0.35629405580E+02 -0.53536942403E+02  0.76864597339E+02  0.10021888578E+03  0.00000000000E+00 0. -1.
         11    1    1    2    0    0 -0.68287492755E+01 -0.10901555842E+03  0.15959923782E+02  0.11038905272E+03  0.00000000000E+00 0.  1.
</event>
<event>
 7    1  0.2594791E-009  0.9464549E+02  0.7561462E-02  0.1291977E+00
         -1   -1    0    0    0  501 -0.00000000000E+00  0.00000000000E+00  0.43760291691E+02  0.43760291691E+02  0.00000000000E+00 0.  1.
          1   -1    0    0  501    0  0.00000000000E+00 -0.00000000000E+00 -0.42665441525E+03  0.42665441525E+03  0.00000000000E+00 0. -1.
         25    2    1    2    0    0 -0.42880369848E+01  0.10505110390E+02 -0.34950242090E+03  0.37138590150E+03  0.12508717364E+03 0.  0.
          5    1    3    3  502    0  0.71847381889E+00 -0.56815420968E+02 -0.18323609226E+03  0.19188915074E+03  0.41800000000E+01 0. -1.
         -5    1    3    3    0  502 -0.50065108037E+01  0.67320531359E+02 -0.16626632864E+03  0.17949675075E+03  0.41800000000E+01 0. -1.
        -11    1    1    2    0    0 -0.14827447896E+01  0.26846274799E+02  0.20073517042E+02  0.33553942975E+02  0.00000000000E+00 0.  1.
         11    1    1    2    0    0  0.57707817744E+01 -0.37351385189E+02 -0.53465219703E+02  0.65474862472E+02  0.00000000000E+00 0. -1.
</event>
<event>
 7    1  0.2594791E-009  0.1265529E+03  0.7561462E-02  0.1232662E+00
         -2   -1    0    0    0  501 -0.00000000000E+00  0.00000000000E+00  0.22564485798E+02  0.22564485798E+02  0.00000000000E+00 0.  1.
          2   -1    0    0  501    0  0.00000000000E+00 -0.00000000000E+00 -0.80568224460E+03  0.80568224460E+03  0.00000000000E+00 0. -1.
         25    2    1    2    0    0 -0.73768518102E+02 -0.20432007342E+02 -0.36337773957E+03  0.39185481834E+03  0.12509019089E+03 0.  0.
          5    1    3    3  502    0 -0.38045107488E+02  0.48139052319E+02 -0.10062898185E+03  0.11793414667E+03  0.41800000000E+01 0. -1.
         -5    1    3    3    0  502 -0.35723410614E+02 -0.68571059661E+02 -0.26274875771E+03  0.27392067167E+03  0.41800000000E+01 0. -1.
        -11    1    1    2    0    0  0.29869626851E+01 -0.28160340627E+02 -0.57220967747E+02  0.63844857900E+02  0.00000000000E+00 0.  1.
         11    1    1    2    0    0  0.70781555417E+02  0.48592347969E+02 -0.36251905149E+03  0.37254705416E+03  0.00000000000E+00 0. -1.
</event>
<event>
 7    1  0.2594791E-009  0.9348968E+02  0.7561462E-02  0.1294614E+00
         -4   -1    0    0    0  501 -0.00000000000E+00  0.00000000000E+00  0.13799627220E+03  0.13799627220E+03  0.00000000000E+00 0.  1.
          4   -1    0    0  501    0  0.00000000000E+00 -0.00000000000E+00 -0.11389539001E+03  0.11389539001E+03  0.00000000000E+00 0. -1.
         25    2    1    2    0    0  0.35771761974E+02  0.50574591142E+02  0.50890729046E+01  0.13967941042E+03  0.12508809220E+03 0.  0.
          5    1    3    3  502    0  0.41074005803E+02  0.69422893493E+02  0.46844006725E+02  0.93372616220E+02  0.41800000000E+01 0. -1.
         -5    1    3    3    0  502 -0.53022438294E+01 -0.18848302351E+02 -0.41754933820E+02  0.46306794204E+02  0.41800000000E+01 0. -1.
        -11    1    1    2    0    0  0.10892122585E+02  0.63279860021E+01  0.34746396831E+02  0.36959353809E+02  0.00000000000E+00 0.  1.
         11    1    1    2    0    0 -0.46663884558E+02 -0.56902577144E+02 -0.15734587544E+02  0.75252897970E+02  0.00000000000E+00 0. -1.
</event>
<event>
 7    1  0.2594791E-009  0.1204758E+03  0.7561462E-02  0.1242314E+00
         -1   -1    0    0    0  501 -0.00000000000E+00  0.00000000000E+00  0.28922506443E+02  0.28922506443E+02  0.00000000000E+00 0.  1.
          1   -1    0    0  501    0  0.00000000000E+00 -0.00000000000E+00 -0.72090029924E+03  0.72090029924E+03  0.00000000000E+00 0. -1.
         25    2    1    2    0    0 -0.29632547187E+02  0.84534914416E+02 -0.46566544496E+03  0.49042534009E+03  0.12509383665E+03 0.  0.
          5    1    3    3  502    0  0.41910365142E+01  0.89548305587E+02 -0.16529524411E+03  0.18808629388E+03  0.41800000000E+01 0. -1.
         -5    1    3    3    0  502 -0.33823583701E+02 -0.50133911707E+01 -0.30037020085E+03  0.30233904621E+03  0.41800000000E+01 0. -1.
        -11    1    1    2    0    0 -0.49128327493E+01 -0.81972823190E+02 -0.10536299658E+03  0.13358533121E+03  0.00000000000E+00 0. -1.
         11    1    1    2    0    0  0.34545379936E+02 -0.25620912265E+01 -0.12094935126E+03  0.12581213438E+03  0.00000000000E+00 0.  1.
</event>
<event>
 7    1  0.2594791E-009  0.1240377E+03  0.7561462E-02  0.1236581E+00
          3   -1    0    0  501    0  0.00000000000E+00  0.00000000000E+00  0.27811198425E+03  0.27811198425E+03  0.00000000000E+00 0. -1.
         -3   -1    0    0    0  501 -0.00000000000E+00 -0.00000000000E+00 -0.71746030787E+02  0.71746030787E+02  0.00000000000E+00 0.  1.
         25    2    1    2    0    0  0.10180926450E+02  0.83406162556E+02  0.15161067977E+03  0.21376126276E+03  0.12509132673E+03 0.  0.
          5    1    3    3  502    0 -0.56503672699E+02  0.25117259131E+02  0.59708366386E+02  0.86058719204E+02  0.41800000000E+01 0.  1.
         -5    1    3    3    0  502  0.66684599149E+02  0.58288903425E+02  0.91902313381E+02  0.12770254356E+03  0.41800000000E+01 0.  1.
        -11    1    1    2    0    0 -0.92144274325E+01  0.39824502125E+01  0.47335744540E+02  0.48388410738E+02  0.00000000000E+00 0. -1.
         11    1    1    2    0    0 -0.96649901748E+00 -0.87388612768E+02  0.74195291537E+01  0.87708341535E+02  0.00000000000E+00 0.  1.
</event>
<event>
 7    1  0.2679132E-009  0.8497633E+02  0.7561462E-02  0.1315494E+00
         -3   -1    0    0    0  501 -0.00000000000E+00  0.00000000000E+00  0.40328767628E+02  0.40328767628E+02  0.00000000000E+00 0.  1.
          3   -1    0    0  501    0  0.00000000000E+00 -0.00000000000E+00 -0.40555632210E+03  0.40555632210E+03  0.00000000000E+00 0. -1.
         25    2    1    2    0    0  0.54064604473E+02 -0.21308996433E+01 -0.27281364137E+03  0.30496398305E+03  0.12509286891E+03 0.  0.
          5    1    3    3  502    0  0.25201179121E+02 -0.24861133680E+02 -0.26472414815E+03  0.26711331380E+03  0.41800000000E+01 0. -1.
         -5    1    3    3    0  502  0.28863425352E+02  0.22730234037E+02 -0.80894932234E+01  0.37850669254E+02  0.41800000000E+01 0. -1.
        -11    1    1    2    0    0 -0.28952370381E+02 -0.39342070214E+02 -0.17902010330E+02  0.52024227176E+02  0.00000000000E+00 0.  1.
         11    1    1    2    0    0 -0.25112234092E+02  0.41472969857E+02 -0.74511902774E+02  0.88896879501E+02  0.00000000000E+00 0. -1.
</event>
<event>
 7    1  0.2594791E-009  0.1174875E+03  0.7561462E-02  0.1247300E+00
         -1   -1    0    0    0  501 -0.00000000000E+00  0.00000000000E+00  0.68123867293E+02  0.68123867293E+02  0.00000000000E+00 0.  1.
          1   -1    0    0  501    0  0.00000000000E+00 -0.00000000000E+00 -0.37962234893E+03  0.37962234893E+03  0.00000000000E+00 0. -1.
         25    2    1    2    0    0 -0.98564176149E+02  0.31920346780E+02 -0.24831533074E+03  0.29671706973E+03  0.12508681237E+03 0.  0.
          5    1    3    3  502    0 -0.78919302982E+02  0.46671694676E+01 -0.45943719382E+02  0.91533254092E+02  0.41800000000E+01 0.  1.
         -5    1    3    3    0  502 -0.19644873167E+02  0.27253177312E+02 -0.20237161136E+03  0.20518381564E+03  0.41800000000E+01 0.  1.
        -11    1    1    2    0    0  0.72579468504E+02 -0.51856652837E+02 -0.11635781205E+02  0.89957118096E+02  0.00000000000E+00 0.  1.
         11    1    1    2    0    0  0.25984707645E+02  0.19936306058E+02 -0.51547369686E+02  0.61072028394E+02  0.00000000000E+00 0. -1.
</event>
<event>
 7    1  0.2594791E-009  0.1493893E+03  0.7561462E-02  0.1201225E+00
         -1   -1    0    0    0  501 -0.00000000000E+00  0.00000000000E+00  0.56542985632E+02  0.56542985632E+02  0.00000000000E+00 0.  1.
          1   -1    0    0  501    0  0.00000000000E+00 -0.00000000000E+00 -0.56424412051E+03  0.56424412051E+03  0.00000000000E+00 0. -1.
         25    2    1    2    0    0  0.23279838691E+02 -0.12078860917E+03 -0.14742533194E+03  0.22915884408E+03  0.12509080032E+03 0.  0.
          5    1    3    3  502    0  0.47360885366E+02 -0.41985252496E+02 -0.38261981740E+01  0.63544685712E+02  0.41800000000E+01 0.  1.
         -5    1    3    3    0  502 -0.24081046675E+02 -0.78803356678E+02 -0.14359913377E+03  0.16561415837E+03  0.41800000000E+01 0.  1.
        -11    1    1    2    0    0  0.10700363821E+02  0.11828748497E+03 -0.26352806248E+03  0.28905616514E+03  0.00000000000E+00 0.  1.
         11    1    1    2    0    0 -0.33980202512E+02  0.25011242005E+01 -0.96747740448E+02  0.10257209692E+03  0.00000000000E+00 0. -1.
</event>
<event>
 7    1  0.2594791E-009  0.1608223E+03  0.7561462E-02  0.1187771E+00
          2   -1    0    0  501    0  0.00000000000E+00  0.00000000000E+00  0.15532940913E+03  0.15532940913E+03  0.00000000000E+00 0. -1.
         -2   -1    0    0    0  501 -0.00000000000E+00 -0.00000000000E+00 -0.21200604779E+03  0.21200604779E+03  0.00000000000E+00 0.  1.
         25    2    1    2    0    0  0.43331066663E+02 -0.13752093759E+03 -0.24630346754E+02  0.19247409759E+03  0.12510009851E+03 0.  0.
          5    1    3    3  502    0 -0.57598571819E+01 -0.41925769179E+02 -0.64938706244E+02  0.77623798185E+02  0.41800000000E+01 0. -1.
         -5    1    3    3    0  502  0.49090923845E+02 -0.95595168413E+02  0.40308359491E+02  0.11485029940E+03  0.41800000000E+01 0. -1.
        -11    1    1    2    0    0 -0.71005625923E+02  0.75416240508E+02 -0.24593208089E+02  0.10646236015E+03  0.00000000000E+00 0.  1.
         11    1    1    2    0    0  0.27674559260E+02  0.62104697084E+02 -0.74530838106E+01  0.68398999177E+02  0.00000000000E+00 0. -1.
</event>
<event>
 7    1  0.2594791E-009  0.1374749E+03  0.7561462E-02  0.1216768E+00
         -1   -1    0    0    0  501 -0.00000000000E+00  0.00000000000E+00  0.66923332935E+02  0.66923332935E+02  0.00000000000E+00 0.  1.
          1   -1    0    0  501    0  0.00000000000E+00 -0.00000000000E+00 -0.41189984958E+03  0.41189984958E+03  0.00000000000E+00 0. -1.
         25    2    1    2    0    0  0.92210366455E+02 -0.71764061313E+02 -0.23110589438E+03  0.28759394159E+03  0.12509000218E+03 0.  0.
          5    1    3    3  502    0 -0.81756402786E+00 -0.89530332300E+01  0.14474594270E+02  0.17544557397E+02  0.41800000000E+01 0.  1.
         -5    1    3    3    0  502  0.93027930483E+02 -0.62811028083E+02 -0.24558048865E+03  0.27004938419E+03  0.41800000000E+01 0.  1.
        -11    1    1    2    0    0 -0.11095015678E+03  0.44311840187E+02 -0.80057273297E+02  0.14381461497E+03  0.00000000000E+00 0.  1.
         11    1    1    2    0    0  0.18739790324E+02  0.27452221127E+02 -0.33813348969E+02  0.47414625957E+02  0.00000000000E+00 0. -1.
</event>
<event>
 7    1  0.2594791E-009  0.1219717E+03  0.7561462E-02  0.1239879E+00
         -2   -1    0    0    0  501 -0.00000000000E+00  0.00000000000E+00  0.25899467081E+02  0.25899467081E+02  0.00000000000E+00 0.  1.
          2   -1    0    0  501    0  0.00000000000E+00 -0.00000000000E+00 -0.59625944688E+03  0.59625944688E+03  0.00000000000E+00 0. -1.
         25    2    1    2    0    0  0.31147986192E+02  0.47503951992E+02 -0.26493016594E+03  0.29844480001E+03  0.12511787772E+03 0.  0.
          5    1    3    3  502    0  0.76398418220E+02  0.50711243898E+02 -0.18119987979E+03  0.20312365052E+03  0.41800000000E+01 0.  1.
         -5    1    3    3    0  502 -0.45250432028E+02 -0.32072919054E+01 -0.83730286157E+02  0.95321149489E+02  0.41800000000E+01 0.  1.
        -11    1    1    2    0    0 -0.42740383846E+02 -0.69581092432E+02 -0.24819101328E+03  0.26127963547E+03  0.00000000000E+00 0. -1.
         11    1    1    2    0    0  0.11592397654E+02  0.22077140439E+02 -0.57238800577E+02  0.62434478494E+02  0.00000000000E+00 0.  1.
</event>
<event>
 7    1  0.2594791E-009  0.1163471E+03  0.7561462E-02  0.1249248E+00
          4   -1    0    0  501    0  0.00000000000E+00  0.00000000000E+00  0.19413269518E+02  0.19413269518E+02  0.00000000000E+00 0.  1.
         -4   -1    0    0    0  501 -0.00000000000E+00 -0.00000000000E+00 -0.80048461091E+03  0.80048461091E+03  0.00000000000E+00 0. -1.
         25    2    1    2    0    0 -0.17615371508E+02  0.55371261692E+02 -0.39857077488E+03  0.42176184145E+03  0.12509240737E+03 0.  0.
          5    1    3    3  502    0 -0.21542496372E+02  0.92231298795E+02 -0.33395221214E+03  0.34714873472E+03  0.41800000000E+01 0. -1.
         -5    1    3    3    0  502  0.39271248638E+01 -0.36860037104E+02 -0.64618562742E+02  0.74613106729E+02  0.41800000000E+01 0. -1.
        -11    1    1    2    0    0  0.42904378968E+02 -0.37082721631E+01 -0.86832566923E+02  0.96924876556E+02  0.00000000000E+00 0.  1.
         11    1    1    2    0    0 -0.25289007460E+02 -0.51662989529E+02 -0.29566799960E+03  0.30121116243E+03  0.00000000000E+00 0. -1.
</event>
<event>
 7    1  0.2594791E-009  0.1614128E+03  0.7561462E-02  0.1187111E+00
          1   -1    0    0  501    0  0.00000000000E+00  0.00000000000E+00  0.66535764148E+03  0.66535764148E+03  0.00000000000E+00 0.  1.
         -1   -1    0    0    0  501 -0.00000000000E+00 -0.00000000000E+00 -0.56601751182E+02  0.56601751182E+02  0.00000000000E+00 0. -1.
         25    2    1    2    0    0  0.14194125148E+03 -0.27798623016E+02  0.45026555241E+03  0.48918912407E+03  0.12508736592E+03 0.  0.
          5    1    3    3  502    0  0.14240603946E+03 -0.49630502331E+02  0.43913136443E+03  0.46432369578E+03  0.41800000000E+01 0.  1.
         -5    1    3    3    0  502 -0.46478797930E+00  0.21831879315E+02  0.11134187977E+02  0.24865428293E+02  0.41800000000E+01 0.  1.
        -11    1    1    2    0    0 -0.10261290399E+03  0.37448487455E+02  0.15823304608E+03  0.19227452808E+03  0.00000000000E+00 0.  1.
         11    1    1    2    0    0 -0.39328347498E+02 -0.96498644388E+01  0.25729181783E+00  0.40495740512E+02  0.00000000000E+00 0. -1.
</event>
<event>
 7    1  0.2594791E-009  0.1418213E+03  0.7561462E-02  0.1210899E+00
          1   -1    0    0  501    0  0.00000000000E+00  0.00000000000E+00  0.31127305458E+03  0.31127305458E+03  0.00000000000E+00 0. -1.
         -1   -1    0    0    0  501 -0.00000000000E+00 -0.00000000000E+00 -0.92909977648E+02  0.92909977648E+02  0.00000000000E+00 0.  1.
         25    2    1    2    0    0  0.76681535114E+02 -0.88278824625E+02  0.43011207635E+02  0.17655113352E+03  0.12508848892E+03 0.  0.
          5    1    3    3  502    0  0.85643848246E+02 -0.10829997888E+03  0.57829551630E+02  0.14975140604E+03  0.41800000000E+01 0. -1.
         -5    1    3    3    0  502 -0.89623131317E+01  0.20021154255E+02 -0.14818343995E+02  0.26799727482E+02  0.41800000000E+01 0. -1.
        -11    1    1    2    0    0 -0.64652962932E+02  0.46332659838E+02  0.47744972401E+02  0.92770164240E+02  0.00000000000E+00 0.  1.
         11    1    1    2    0    0 -0.12028572183E+02  0.41946164787E+02  0.12760689690E+03  0.13486173447E+03  0.00000000000E+00 0. -1.
</event>
<event>
 7    1  0.2594791E-009  0.1105941E+03  0.7561462E-02  0.1259474E+00
          2   -1    0    0  501    0  0.00000000000E+00  0.00000000000E+00  0.47927020492E+03  0.47927020492E+03  0.00000000000E+00 0. -1.
         -2   -1    0    0    0  501 -0.00000000000E+00 -0.00000000000E+00 -0.28705289300E+02  0.28705289300E+02  0.00000000000E+00 0.  1.
         25    2    1    2    0    0  0.17157744405E+02 -0.43427547512E+02  0.26133674343E+03  0.29346890963E+03  0.12508703921E+03 0.  0.
          5    1    3    3  502    0  0.68614781342E+02 -0.59486998845E+01  0.12049405983E+03  0.13885123731E+03  0.41800000000E+01 0.  1.
         -5    1    3    3    0  502 -0.51457036937E+02 -0.37478847628E+02  0.14084268361E+03  0.15461767232E+03  0.41800000000E+01 0.  1.
        -11    1    1    2    0    0 -0.44155898205E+02  0.42640195764E+02  0.17161239432E+03  0.18226009855E+03  0.00000000000E+00 0.  1.
         11    1    1    2    0    0  0.26998153801E+02  0.78735174818E+00  0.17615777867E+02  0.32246486030E+02  0.00000000000E+00 0. -1.
</event>
<event>
 7    1  0.2594791E-009  0.1219657E+03  0.7561462E-02  0.1239889E+00
         -1   -1    0    0    0  501 -0.00000000000E+00  0.00000000000E+00  0.88915588996E+02  0.88915588996E+02  0.00000000000E+00 0.  1.
          1   -1    0    0  501    0  0.00000000000E+00 -0.00000000000E+00 -0.28326633914E+03  0.28326633914E+03  0.00000000000E+00 0. -1.
         25    2    1    2    0    0  0.76722576035E+02  0.11261955429E+02 -0.89141240721E-01  0.14717669694E+03  0.12509111424E+03 0.  0.
          5    1    3    3  502    0  0.10372851793E+03  0.99193361491E+00 -0.27215748472E+02  0.10732548033E+03  0.41800000000E+01 0.  1.
         -5    1    3    3    0  502 -0.27005941890E+02  0.10270021814E+02  0.27126607231E+02  0.39851216610E+02  0.41800000000E+01 0.  1.
        -11    1    1    2    0    0  0.63056246190E+01  0.20938052560E+02 -0.60317415343E+02  0.64158814987E+02  0.00000000000E+00 0. -1.
         11    1    1    2    0    0 -0.83028200654E+02 -0.32200007989E+02 -0.13394419356E+03  0.16084641621E+03  0.00000000000E+00 0.  1.
</event>
<event>
 7    1  0.2594791E-009  0.1632549E+03  0.7561462E-02  0.1185070E+00
          1   -1    0    0  501    0  0.00000000000E+00  0.00000000000E+00  0.15976326695E+04  0.15976326695E+04  0.00000000000E+00 0. -1.
         -1   -1    0    0    0  501 -0.00000000000E+00 -0.00000000000E+00 -0.25157927252E+02  0.25157927252E+02  0.00000000000E+00 0.  1.
         25    2    1    2    0    0  0.13142267408E+03 -0.72135676798E+02  0.11196008112E+04  0.11364987475E+04  0.12509177224E+03 0.  0.
          5    1    3    3  502    0  0.54092826855E+02 -0.77727527034E+02  0.86875946707E+03  0.87391537714E+03  0.41800000000E+01 0. -1.
         -5    1    3    3    0  502  0.77329847223E+02  0.55918502357E+01  0.25084134412E+03  0.26258337034E+03  0.41800000000E+01 0. -1.
        -11    1    1    2    0    0 -0.95046618678E+01  0.18668963521E+02  0.88525256673E+01  0.22742823195E+02  0.00000000000E+00 0.  1.
         11    1    1    2    0    0 -0.12191801221E+03  0.53466713277E+02  0.44402140540E+03  0.46354902608E+03  0.00000000000E+00 0. -1.
</event>
<event>
 7    1  0.2594791E-009  0.1547576E+03  0.7561462E-02  0.1194746E+00
         -1   -1    0    0    0  501 -0.00000000000E+00  0.00000000000E+00  0.25912327748E+03  0.25912327748E+03  0.00000000000E+00 0.  1.
          1   -1    0    0  501    0  0.00000000000E+00 -0.00000000000E+00 -0.93193344733E+02  0.93193344733E+02  0.00000000000E+00 0. -1.
         25    2    1    2    0    0 -0.63645085298E+02 -0.91171962264E+02  0.95213676447E+02  0.19255192453E+03  0.12509027089E+03 0.  0.
          5    1    3    3  502    0 -0.41149428273E+02 -0.12156744484E+03  0.81600914009E+02  0.15214499880E+03  0.41800000000E+01 0.  1.
         -5    1    3    3    0  502 -0.22495657026E+02  0.30395482575E+02  0.13612762438E+02  0.40406925733E+02  0.41800000000E+01 0.  1.
        -11    1    1    2    0    0  0.47713343580E+02 -0.27529484076E+01  0.19650138220E+02  0.51674653482E+02  0.00000000000E+00 0. -1.
         11    1    1    2    0    0  0.15931741719E+02  0.93924910672E+02  0.51066118076E+02  0.10809004420E+03  0.00000000000E+00 0.  1.
</event>
<event>
 7    1  0.2594791E-009  0.1241624E+03  0.7561462E-02  0.1236384E+00
          2   -1    0    0  501    0  0.00000000000E+00  0.00000000000E+00  0.66284871986E+02  0.66284871986E+02  0.00000000000E+00 0. -1.
         -2   -1    0    0    0  501 -0.00000000000E+00 -0.00000000000E+00 -0.28031869611E+03  0.28031869611E+03  0.00000000000E+00 0.  1.
         25    2    1    2    0    0 -0.77229047659E+02 -0.13047727302E+01 -0.15710337872E+03  0.21516486642E+03  0.12509364453E+03 0.  0.
          5    1    3    3  502    0  0.31485094134E+02 -0.75192027505E+01 -0.63974700597E+02  0.71819804226E+02  0.41800000000E+01 0. -1.
         -5    1    3    3    0  502 -0.10871414179E+03  0.62144300203E+01 -0.93128678119E+02  0.14334506219E+03  0.41800000000E+01 0. -1.
        -11    1    1    2    0    0  0.15059381343E+02  0.33480390675E+02 -0.48651751250E+02  0.60948457125E+02  0.00000000000E+00 0.  1.
         11    1    1    2    0    0  0.62169666316E+02 -0.32175617945E+02 -0.82786941545E+01  0.70490244551E+02  0.00000000000E+00 0. -1.
</event>
<event>
 7    1  0.2594791E-009  0.8797873E+02  0.7561462E-02  0.1307822E+00
          2   -1    0    0  501    0  0.00000000000E+00  0.00000000000E+00  0.65212911676E+03  0.65212911676E+03  0.00000000000E+00 0. -1.
         -2   -1    0    0    0  501 -0.00000000000E+00 -0.00000000000E+00 -0.19310409992E+02  0.19310409992E+02  0.00000000000E+00 0.  1.
         25    2    1    2    0    0  0.20456615289E+02  0.93560125700E+01  0.42327465065E+03  0.44194395497E+03  0.12508805447E+03 0.  0.
          5    1    3    3  502    0  0.52389868131E+02 -0.21056603734E+02  0.94229669986E+02  0.10993080528E+03  0.41800000000E+01 0.  1.
         -5    1    3    3    0  502 -0.31933252842E+02  0.30412616304E+02  0.32904498066E+03  0.33201314969E+03  0.41800000000E+01 0.  1.
        -11    1    1    2    0    0  0.26096630118E+02 -0.11327343059E+02  0.21215694183E+02  0.35488709246E+02  0.00000000000E+00 0.  1.
         11    1    1    2    0    0 -0.46553245407E+02  0.19713304894E+01  0.18832836193E+03  0.19400686253E+03  0.00000000000E+00 0. -1.
</event>
<event>
 7    1  0.2594791E-009  0.1188036E+03  0.7561462E-02  0.1245084E+00
         -2   -1    0    0    0  501 -0.00000000000E+00  0.00000000000E+00  0.46225102886E+03  0.46225102886E+03  0.00000000000E+00 0.  1.
          2   -1    0    0  501    0  0.00000000000E+00 -0.00000000000E+00 -0.31497745576E+02  0.31497745576E+02  0.00000000000E+00 0. -1.
         25    2    1    2    0    0 -0.23845667525E+02  0.48542105388E+02  0.23276656020E+03  0.26972631322E+03  0.12508821143E+03 0.  0.
          5    1    3    3  502    0 -0.42140704448E+02  0.84703225033E+02  0.17590274183E+03  0.19977417823E+03  0.41800000000E+01 0.  1.
         -5    1    3    3    0  502  0.18295036923E+02 -0.36161119645E+02  0.56863818374E+02  0.69952134993E+02  0.41800000000E+01 0.  1.
        -11    1    1    2    0    0  0.52410713290E+02 -0.86764736657E+01  0.77726475329E+02  0.94146529569E+02  0.00000000000E+00 0. -1.
         11    1    1    2    0    0 -0.28565045765E+02 -0.39865631723E+02  0.12026024775E+03  0.12987593164E+03  0.00000000000E+00 0.  1.
</event>
<event>
 7    1  0.2594791E-009  0.3060527E+03  0.7561462E-02  0.1082253E+00
          1   -1    0    0  501    0  0.00000000000E+00  0.00000000000E+00  0.52069421851E+03  0.52069421851E+03  0.00000000000E+00 0. -1.
         -1   -1    0    0    0  501 -0.00000000000E+00 -0.00000000000E+00 -0.18831338766E+03  0.18831338766E+03  0.00000000000E+00 0.  1.
         25    2    1    2    0    0  0.19442410718E+03 -0.21922154275E+03  0.15254490798E+03  0.35323588322E+03  0.12508725746E+03 0.  0.
          5    1    3    3  502    0  0.59803624362E+02  0.14506112205E+01  0.32301479694E+02  0.68113403602E+02  0.41800000000E+01 0. -1.
         -5    1    3    3    0  502  0.13462048282E+03 -0.22067215397E+03  0.12024342829E+03  0.28512247961E+03  0.41800000000E+01 0. -1.
        -11    1    1    2    0    0 -0.17171905295E+03  0.18378022272E+03  0.11063936896E+03  0.27477931758E+03  0.00000000000E+00 0.  1.
         11    1    1    2    0    0 -0.22705054234E+02  0.35441320035E+02  0.69196553912E+02  0.80992405365E+02  0.00000000000E+00 0. -1.
</event>
<event>
 7    1  0.2594791E-009  0.1297594E+03  0.7561462E-02  0.1227813E+00
          1   -1    0    0  501    0  0.00000000000E+00  0.00000000000E+00  0.46945219733E+03  0.46945219733E+03  0.00000000000E+00 0. -1.
         -1   -1    0    0    0  501 -0.00000000000E+00 -0.00000000000E+00 -0.37834553467E+02  0.37834553467E+02  0.00000000000E+00 0.  1.
         25    2    1    2    0    0 -0.66644451320E+02  0.34505397493E+02  0.25021368551E+03  0.28963274770E+03  0.12509250486E+03 0.  0.
          5    1    3    3  502    0  0.12966502318E+02 -0.33879087056E+02  0.99005632089E+02  0.10552492742E+03  0.41800000000E+01 0.  1.
         -5    1    3    3    0  502 -0.79610953639E+02  0.68384484549E+02  0.15120805342E+03  0.18410782027E+03  0.41800000000E+01 0.  1.
        -11    1    1    2    0    0  0.68548042205E+01  0.29557276949E+02  0.29689716133E+02  0.42451150816E+02  0.00000000000E+00 0.  1.
         11    1    1    2    0    0  0.59789647100E+02 -0.64062674442E+02  0.15171424222E+03  0.17520285228E+03  0.00000000000E+00 0. -1.
</event>
<event>
 7    1  0.2594791E-009  0.9086466E+02  0.7561462E-02  0.1300771E+00
         -1   -1    0    0    0  501 -0.00000000000E+00  0.00000000000E+00  0.16723537770E+02  0.16723537770E+02  0.00000000000E+00 0.  1.
          1   -1    0    0  501    0  0.00000000000E+00 -0.00000000000E+00 -0.92055455173E+03  0.92055455173E+03  0.00000000000E+00 0. -1.
         25    2    1    2    0    0  0.16592525972E+02  0.55974869197E+02 -0.58116504588E+03  0.59733595567E+03  0.12509570532E+03 0.  0.
          5    1    3    3  502    0  0.30834688417E+02  0.50505552404E+02 -0.57820840439E+03  0.58124351191E+03  0.41800000000E+01 0.  1.
         -5    1    3    3    0  502 -0.14242162445E+02  0.54693167932E+01 -0.29566414883E+01  0.16092443760E+02  0.41800000000E+01 0.  1.
        -11    1    1    2    0    0  0.28920081612E+02 -0.53732990093E+02 -0.19913240175E+03  0.20827222276E+03  0.00000000000E+00 0. -1.
         11    1    1    2    0    0 -0.45512607584E+02 -0.22418791041E+01 -0.12353356633E+03  0.13166991107E+03  0.00000000000E+00 0.  1.
</event>
<event>
 7    1  0.2594791E-009  0.1214587E+03  0.7561462E-02  0.1240710E+00
         -1   -1    0    0    0  501 -0.00000000000E+00  0.00000000000E+00  0.25478598699E+02  0.25478598699E+02  0.00000000000E+00 0.  1.
          1   -1    0    0  501    0  0.00000000000E+00 -0.00000000000E+00 -0.64017686090E+03  0.64017686090E+03  0.00000000000E+00 0. -1.
         25    2    1    2    0    0  0.87565119846E+01  0.63138329609E+02 -0.40855130516E+03  0.43200072315E+03  0.12508929087E+03 0.  0.
          5    1    3    3  502    0  0.53564680057E+02 -0.61597769584E+01 -0.11568429227E+03  0.12770060955E+03  0.41800000000E+01 0. -1.
         -5    1    3    3    0  502 -0.44808168072E+02  0.69298106567E+02 -0.29286701289E+03  0.30430011360E+03  0.41800000000E+01 0. -1.
        -11    1    1    2    0    0 -0.42846312399E+02 -0.57419019284E+02 -0.16521622249E+03  0.18008095523E+03  0.00000000000E+00 0.  1.
         11    1    1    2    0    0  0.34089800414E+02 -0.57193103248E+01 -0.40930734549E+02  0.53573781214E+02  0.00000000000E+00 0. -1.
</event>
<event>
 7    1  0.2594791E-009  0.1032031E+03  0.7561462E-02  0.1273701E+00
          1   -1    0    0  501    0  0.00000000000E+00  0.00000000000E+00  0.45775189990E+03  0.45775189990E+03  0.00000000000E+00 0. -1.
         -1   -1    0    0    0  501 -0.00000000000E+00 -0.00000000000E+00 -0.33649276326E+02  0.33649276326E+02  0.00000000000E+00 0.  1.
         25    2    1    2    0    0 -0.42123511874E+02  0.39748358890E+02  0.26735812953E+03  0.30080050273E+03  0.12508497403E+03 0.  0.
          5    1    3    3  502    0 -0.36303604410E+02  0.76915854364E+02  0.11086421376E+03  0.13979394349E+03  0.41800000000E+01 0. -1.
         -5    1    3    3    0  502 -0.58199074633E+01 -0.37167495474E+02  0.15649391577E+03  0.16100655923E+03  0.41800000000E+01 0. -1.
        -11    1    1    2    0    0  0.56314925810E+02 -0.21494989864E+02  0.15625063641E+03  0.16747437665E+03  0.00000000000E+00 0. -1.
         11    1    1    2    0    0 -0.14191413937E+02 -0.18253369026E+02  0.49385763765E+00  0.23126296843E+02  0.00000000000E+00 0.  1.
</event>
<event>
 7    1  0.2594791E-009  0.1538825E+03  0.7561462E-02  0.1195782E+00
         -2   -1    0    0    0  501 -0.00000000000E+00  0.00000000000E+00  0.10522623906E+03  0.10522623906E+03  0.00000000000E+00 0.  1.
          2   -1    0    0  501    0  0.00000000000E+00 -0.00000000000E+00 -0.27910034972E+03  0.27910034972E+03  0.00000000000E+00 0. -1.
         25    2    1    2    0    0  0.12153251902E+03  0.18779784617E+02 -0.14905879754E+03  0.23019532291E+03  0.12509407691E+03 0.  0.
          5    1    3    3  502    0  0.79000325732E+02 -0.41411700382E+02 -0.12282205373E+03  0.15185094559E+03  0.41800000000E+01 0.  1.
         -5    1    3    3    0  502  0.42532193287E+02  0.60191484999E+02 -0.26236743805E+02  0.78344377320E+02  0.41800000000E+01 0.  1.
        -11    1    1    2    0    0 -0.78636348922E+02 -0.48567842713E+02 -0.38530949300E+02  0.10013563188E+03  0.00000000000E+00 0. -1.
         11    1    1    2    0    0 -0.42896170097E+02  0.29788058096E+02  0.13715636183E+02  0.53995633991E+02  0.00000000000E+00 0.  1.
</event>
<event>
 7    1  0.2594791E-009  0.1021594E+03  0.7561462E-02  0.1275819E+00
         -2   -1    0    0    0  501 -0.00000000000E+00  0.00000000000E+00  0.49250998012E+02  0.49250998012E+02  0.00000000000E+00 0.  1.
          2   -1    0    0  501    0  0.00000000000E+00 -0.00000000000E+00 -0.24818439911E+03  0.24818439911E+03  0.00000000000E+00 0. -1.
         25    2    1    2    0    0  0.63726342199E+01 -0.85677861269E+00 -0.11539590781E+03  0.17030392006E+03  0.12508343260E+03 0.  0.
          5    1    3    3  502    0 -0.20786074374E+02 -0.52808698642E+02 -0.24260567610E+02  0.61861676997E+02  0.41800000000E+01 0. -1.
         -5    1    3    3    0  502  0.27158708594E+02  0.51951920029E+02 -0.91135340202E+02  0.10844224307E+03  0.41800000000E+01 0. -1.
        -11    1    1    2    0    0 -0.11148928815E+02 -0.43052823528E+02 -0.17732792975E+02  0.47877929927E+02  0.00000000000E+00 0.  1.
         11    1    1    2    0    0  0.47762945952E+01  0.43909602140E+02 -0.65804700312E+02  0.79253547134E+02  0.00000000000E+00 0. -1.
</event>
<event>
 7    1  0.2594791E-009  0.1150452E+03  0.7561462E-02  0.1251502E+00
          2   -1    0    0  501    0  0.00000000000E+00  0.00000000000E+00  0.22303791547E+03  0.22303791547E+03  0.00000000000E+00 0. -1.
         -2   -1    0    0    0  501 -0.00000000000E+00 -0.00000000000E+00 -0.77704266546E+02  0.77704266546E+02  0.00000000000E+00 0.  1.
         25    2    1    2    0    0  0.55826834514E+02 -0.51182832369E+02  0.93141883205E+02  0.17336747027E+03  0.12507818179E+03 0.  0.
          5    1    3    3  502    0 -0.22034643242E+02 -0.20008794329E+02 -0.17259211124E+02  0.34658766885E+02  0.41800000000E+01 0. -1.
         -5    1    3    3    0  502  0.77861477757E+02 -0.31174038039E+02  0.11040109433E+03  0.13870870339E+03  0.41800000000E+01 0. -1.
        -11    1    1    2    0    0 -0.29641494782E+02 -0.22918569874E+02  0.14046150217E+02  0.40014664736E+02  0.00000000000E+00 0.  1.
         11    1    1    2    0    0 -0.26185339732E+02  0.74101402243E+02  0.38145615499E+02  0.87360047007E+02  0.00000000000E+00 0. -1.
</event>
<event>
 7    1  0.2594791E-009  0.1226734E+03  0.7561462E-02  0.1238751E+00
          1   -1    0    0  501    0  0.00000000000E+00  0.00000000000E+00  0.37904563990E+02  0.37904563990E+02  0.00000000000E+00 0. -1.
         -1   -1    0    0    0  501 -0.00000000000E+00 -0.00000000000E+00 -0.47859140314E+03  0.47859140314E+03  0.00000000000E+00 0.  1.
         25    2    1    2    0    0 -0.67414382456E+02  0.11776605841E+02 -0.15674256008E+03  0.21189347049E+03  0.12508886958E+03 0.  0.
          5    1    3    3  502    0 -0.99625572078E+02 -0.29163940197E+01 -0.14148384250E+03  0.17311530855E+03  0.41800000000E+01 0.  1.
         -5    1    3    3    0  502  0.32211189622E+02  0.14692999861E+02 -0.15258717580E+02  0.38778161947E+02  0.41800000000E+01 0.  1.
        -11    1    1    2    0    0  0.77418375123E+02  0.17182931659E+02 -0.21490969421E+03  0.22907429933E+03  0.00000000000E+00 0. -1.
         11    1    1    2    0    0 -0.10003992667E+02 -0.28959537501E+02 -0.69034584868E+02  0.75528197314E+02  0.00000000000E+00 0.  1.
</event>
<event>
 7    1  0.2594791E-009  0.1229543E+03  0.7561462E-02  0.1238302E+00
          1   -1    0    0  501    0  0.00000000000E+00  0.00000000000E+00  0.39610591695E+03  0.39610591695E+03  0.00000000000E+00 0. -1.
         -1   -1    0    0    0  501 -0.00000000000E+00 -0.00000000000E+00 -0.63998404767E+02  0.63998404767E+02  0.00000000000E+00 0.  1.
         25    2    1    2    0    0 -0.63422471862E+02 -0.92999091110E+02  0.22233058281E+03  0.27883281998E+03  0.12508242307E+03 0.  0.
          5    1    3    3  502    0 -0.33775766284E+02 -0.96985759015E+02  0.22612728133E+03  0.24839094106E+03  0.41800000000E+01 0.  1.
         -5    1    3    3    0  502 -0.29646705578E+02  0.39866679053E+01 -0.37966985148E+01  0.30441878921E+02  0.41800000000E+01 0.  1.
        -11    1    1    2    0    0  0.40902503034E+02  0.52171436045E+02  0.11661954978E+03  0.13414541694E+03  0.00000000000E+00 0. -1.
         11    1    1    2    0    0  0.22519968829E+02  0.40827655065E+02 -0.68426204152E+01  0.47126084797E+02  0.00000000000E+00 0.  1.
</event>
<event>
 7    1  0.2594791E-009  0.1531983E+03  0.7561462E-02  0.1196597E+00
         -2   -1    0    0    0  501 -0.00000000000E+00  0.00000000000E+00  0.13555737459E+03  0.13555737459E+03  0.00000000000E+00 0.  1.
          2   -1    0    0  501    0  0.00000000000E+00 -0.00000000000E+00 -0.24985029527E+03  0.24985029527E+03  0.00000000000E+00 0. -1.
         25    2    1    2    0    0 -0.14041812143E+03  0.19485986374E+02 -0.14794141223E+02  0.18963432898E+03  0.12508141198E+03 0.  0.
          5    1    3    3  502    0 -0.44390526676E+01  0.10092456074E+02 -0.47880215212E+02  0.49310752042E+02  0.41800000000E+01 0. -1.
         -5    1    3    3    0  502 -0.13597906877E+03  0.93935302992E+01  0.33086073989E+02  0.14032357694E+03  0.41800000000E+01 0. -1.
        -11    1    1    2    0    0  0.74366420077E+02  0.25166516164E+02 -0.83203433070E+02  0.11439636902E+03  0.00000000000E+00 0. -1.
         11    1    1    2    0    0  0.66051701356E+02 -0.44652502538E+02 -0.16295346385E+02  0.81376971858E+02  0.00000000000E+00 0.  1.
</event>
<event>
 7    1  0.2594791E-009  0.1324719E+03  0.7561462E-02  0.1223833E+00
         -1   -1    0    0    0  501 -0.00000000000E+00  0.00000000000E+00  0.81171358855E+02  0.81171358855E+02  0.00000000000E+00 0.  1.
          1   -1    0    0  501    0  0.00000000000E+00 -0.00000000000E+00 -0.26691043503E+03  0.26691043503E+03  0.00000000000E+00 0. -1.
         25    2    1    2    0    0 -0.10470108823E+02  0.80791819074E+02 -0.33824753004E+02  0.15306350936E+03  0.12508949906E+03 0.  0.
          5    1    3    3  502    0 -0.23435360955E+02 -0.27162675552E+02 -0.24937628512E+02  0.43890600384E+02  0.41800000000E+01 0.  1.
         -5    1    3    3    0  502  0.12965252132E+02  0.10795449463E+03 -0.88871244916E+01  0.10917290898E+03  0.41800000000E+01 0.  1.
        -11    1    1    2    0    0 -0.22932734316E+02  0.86732517587E+01 -0.17454180060E+02  0.30096245627E+02  0.00000000000E+00 0.  1.
         11    1    1    2    0    0  0.33402843138E+02 -0.89465070833E+02 -0.13446014311E+03  0.16492203890E+03  0.00000000000E+00 0. -1.
</event>
<event>
 7    1  0.2594791E-009  0.1117880E+03  0.7561462E-02  0.1257294E+00
         -1   -1    0    0    0  501 -0.00000000000E+00  0.00000000000E+00  0.63302794351E+02  0.63302794351E+02  0.00000000000E+00 0.  1.
          1   -1    0    0  501    0  0.00000000000E+00 -0.00000000000E+00 -0.20799237215E+03  0.20799237215E+03  0.00000000000E+00 0. -1.
         25    2    1    2    0    0 -0.25020777917E+01 -0.32170257432E+02 -0.10579869529E+03  0.16697991437E+03  0.12509093501E+03 0.  0.
          5    1    3    3  502    0 -0.20422428505E+02 -0.77210089004E+02 -0.58155007204E+02  0.98883520836E+02  0.41800000000E+01 0. -1.
         -5    1    3    3    0  502  0.17920350714E+02  0.45039831572E+02 -0.47643688082E+02  0.68096393530E+02  0.41800000000E+01 0. -1.
        -11    1    1    2    0    0 -0.35976549043E+02  0.41931549562E+02 -0.12501534146E+02  0.56646758828E+02  0.00000000000E+00 0. -1.
         11    1    1    2    0    0  0.38478626835E+02 -0.97612921303E+01 -0.26389348372E+02  0.47668493312E+02  0.00000000000E+00 0.  1.
</event>
<event>
 7    1  0.3753131E-009  0.9615511E+02  0.7561462E-02  0.1288595E+00
         -1   -1    0    0    0  501 -0.00000000000E+00  0.00000000000E+00  0.53419496120E+02  0.53419496120E+02  0.00000000000E+00 0.  1.
          1   -1    0    0  501    0  0.00000000000E+00 -0.00000000000E+00 -0.30074033480E+03  0.30074033480E+03  0.00000000000E+00 0. -1.
         25    2    1    2    0    0  0.52118070630E+02 -0.18366112371E+02 -0.90624533908E+02  0.16405923583E+03  0.12509604048E+03 0.  0.
          5    1    3    3  502    0  0.79783925034E+02 -0.50180762184E+02 -0.64457029908E+02  0.11426182517E+03  0.41800000000E+01 0.  1.
         -5    1    3    3    0  502 -0.27665854403E+02  0.31814649813E+02 -0.26167504000E+02  0.49797410657E+02  0.41800000000E+01 0.  1.
        -11    1    1    2    0    0 -0.21931247561E+02  0.45487738313E+01  0.66898020992E+01  0.23375722771E+02  0.00000000000E+00 0.  1.
         11    1    1    2    0    0 -0.30186823070E+02  0.13817338540E+02 -0.16338610688E+03  0.16672487232E+03  0.00000000000E+00 0. -1.
</event>
<event>
 7    1  0.2594791E-009  0.1320334E+03  0.7561462E-02  0.1224469E+00
         -2   -1    0    0    0  501 -0.00000000000E+00  0.00000000000E+00  0.52155815248E+02  0.52155815248E+02  0.00000000000E+00 0.  1.
          2   -1    0    0  501    0  0.00000000000E+00 -0.00000000000E+00 -0.54914047474E+03  0.54914047474E+03  0.00000000000E+00 0. -1.
         25    2    1    2    0    0  0.17256399534E+02  0.77299308216E+02 -0.44769676393E+03  0.47154071687E+03  0.12508112910E+03 0.  0.
          5    1    3    3  502    0  0.64679906795E+02  0.16378534153E+02 -0.26192855883E+03  0.27032533927E+03  0.41800000000E+01 0.  1.
         -5    1    3    3    0  502 -0.47423507261E+02  0.60920774064E+02 -0.18576820510E+03  0.20121537759E+03  0.41800000000E+01 0.  1.
        -11    1    1    2    0    0 -0.48640907519E+01  0.20626079409E+02 -0.11067329703E+02  0.23907745970E+02  0.00000000000E+00 0.  1.
         11    1    1    2    0    0 -0.12392308782E+02 -0.97925387625E+02 -0.38220565864E+02  0.10584782716E+03  0.00000000000E+00 0. -1.
</event>
<event>
 7    1  0.2594791E-009  0.1208690E+03  0.7561462E-02  0.1241670E+00
         -1   -1    0    0    0  501 -0.00000000000E+00  0.00000000000E+00  0.33226617898E+02  0.33226617898E+02  0.00000000000E+00 0.  1.
          1   -1    0    0  501    0  0.00000000000E+00 -0.00000000000E+00 -0.60099109896E+03  0.60099109896E+03  0.00000000000E+00 0. -1.
         25    2    1    2    0    0 -0.16067393417E+02 -0.87000816665E+02 -0.27683525019E+03  0.31641400456E+03  0.12511100391E+03 0.  0.
          5    1    3    3  502    0 -0.23813612848E+02  0.19726995885E+02 -0.17360120326E+02  0.35708384187E+02  0.41800000000E+01 0.  1.
         -5    1    3    3    0  502  0.77462194303E+01 -0.10672781255E+03 -0.25947512987E+03  0.28070562037E+03  0.41800000000E+01 0.  1.
        -11    1    1    2    0    0 -0.13954046887E+02  0.64323520884E+02 -0.26255654361E+03  0.27068093645E+03  0.00000000000E+00 0. -1.
         11    1    1    2    0    0  0.30021440304E+02  0.22677295781E+02 -0.28372687256E+02  0.47122775852E+02  0.00000000000E+00 0.  1.
</event>
<event>
 7    1  0.2594791E-009  0.1030396E+03  0.7561462E-02  0.1274031E+00
         -1   -1    0    0    0  501 -0.00000000000E+00  0.00000000000E+00  0.25229142575E+02  0.25229142575E+02  0.00000000000E+00 0.  1.
          1   -1    0    0  501    0  0.00000000000E+00 -0.00000000000E+00 -0.51622740031E+03  0.51622740031E+03  0.00000000000E+00 0. -1.
         25    2    1    2    0    0 -0.29222532452E+02  0.23126703218E+01 -0.32958998128E+03  0.35374123945E+03  0.12507599244E+03 0.  0.
          5    1    3    3  502    0  0.59300124480E+01 -0.51932858221E+02 -0.78296947327E+02  0.94234129546E+02  0.41800000000E+01 0.  1.
         -5    1    3    3    0  502 -0.35152544900E+02  0.54245528543E+02 -0.25129303395E+03  0.25950710991E+03  0.41800000000E+01 0.  1.
        -11    1    1    2    0    0  0.36443630768E+01 -0.41724260444E+02 -0.41636076586E+02  0.59057244816E+02  0.00000000000E+00 0.  1.
         11    1    1    2    0    0  0.25578169375E+02  0.39411590122E+02 -0.11977219987E+03  0.12865805862E+03  0.00000000000E+00 0. -1.
</event>
<event>
 7    1  0.2594791E-009  0.1084666E+03  0.7561462E-02  0.1263436E+00
         -1   -1    0    0    0  501 -0.00000000000E+00  0.00000000000E+00  0.37915846313E+02  0.37915846313E+02  0.00000000000E+00 0.  1.
          1   -1    0    0  501    0  0.00000000000E+00 -0.00000000000E+00 -0.51929314909E+03  0.51929314909E+03  0.00000000000E+00 0. -1.
         25    2    1    2    0    0  0.77796639630E+02  0.20394682930E+02 -0.19283260046E+03  0.24351474012E+03  0.12508699623E+03 0.  0.
          5    1    3    3  502    0  0.21550702525E+02 -0.31861320852E+02 -0.31246164039E+01  0.38817678619E+02  0.41800000000E+01 0.  1.
         -5    1    3    3    0  502  0.56245937106E+02  0.52256003782E+02 -0.18970798406E+03  0.20469706150E+03  0.41800000000E+01 0.  1.
        -11    1    1    2    0    0 -0.19181939543E+02  0.21869924970E+02 -0.19274857139E+02  0.34896425899E+02  0.00000000000E+00 0.  1.
         11    1    1    2    0    0 -0.58614700087E+02 -0.42264607900E+02 -0.26926984517E+03  0.27879782938E+03  0.00000000000E+00 0. -1.
</event>
<event>
 7    1  0.2594791E-009  0.1010991E+03  0.7561462E-02  0.1278002E+00
          1   -1    0    0  501    0  0.00000000000E+00  0.00000000000E+00  0.53399964307E+02  0.53399964307E+02  0.00000000000E+00 0. -1.
         -1   -1    0    0    0  501 -0.00000000000E+00 -0.00000000000E+00 -0.31061912298E+03  0.31061912298E+03  0.00000000000E+00 0.  1.
         25    2    1    2    0    0  0.38359429907E+02 -0.25143957577E+02 -0.21551634978E+03  0.25337520662E+03  0.12509210143E+03 0.  0.
          5    1    3    3  502    0 -0.42737784927E+02 -0.29180796444E+02 -0.82330504976E+02  0.97333558401E+02  0.41800000000E+01 0. -1.
         -5    1    3    3    0  502  0.81097214834E+02  0.40368388671E+01 -0.13318584480E+03  0.15604164822E+03  0.41800000000E+01 0. -1.
        -11    1    1    2    0    0 -0.33418991960E+02 -0.88922920416E+01 -0.61794129852E+02  0.70812543843E+02  0.00000000000E+00 0.  1.
         11    1    1    2    0    0 -0.49404379475E+01  0.34036249618E+02  0.20091320961E+02  0.39831336823E+02  0.00000000000E+00 0. -1.
</event>
<event>
 7    1  0.3456386E-009  0.6718283E+02  0.7561462E-02  0.1369944E+00
          1   -1    0    0  501    0  0.00000000000E+00  0.00000000000E+00  0.32775896011E+03  0.32775896011E+03  0.00000000000E+00 0. -1.
         -1   -1    0    0    0  501 -0.00000000000E+00 -0.00000000000E+00 -0.40234997646E+02  0.40234997646E+02  0.00000000000E+00 0.  1.
         25    2    1    2    0    0 -0.32406242130E+02  0.69707219475E+01  0.19317408705E+03  0.23251496785E+03  0.12509287299E+03 0.  0.
          5    1    3    3  502    0 -0.11928337849E+02  0.31089036489E+02 -0.30630420017E+01  0.33699674478E+02  0.41800000000E+01 0.  1.
         -5    1    3    3    0  502 -0.20477904281E+02 -0.24118314541E+02  0.19623712905E+03  0.19881529337E+03  0.41800000000E+01 0.  1.
        -11    1    1    2    0    0  0.42391349212E+02 -0.24321262407E+02  0.11449755863E+02  0.50196087521E+02  0.00000000000E+00 0.  1.
         11    1    1    2    0    0 -0.99851070821E+01  0.17350540460E+02  0.82900119551E+02  0.85282902385E+02  0.00000000000E+00 0. -1.
</event>
<event>
 7    1  0.2601156E-009  0.1690993E+03  0.7561462E-02  0.1178790E+00
          2   -1    0    0  501    0  0.00000000000E+00  0.00000000000E+00  0.62493350368E+03  0.62493350368E+03  0.00000000000E+00 0. -1.
         -2   -1    0    0    0  501 -0.00000000000E+00 -0.00000000000E+00 -0.71407067322E+02  0.71407067322E+02  0.00000000000E+00 0.  1.
         25    2    1    2    0    0 -0.12940387244E+03  0.95287861766E+02  0.15146695156E+03  0.25380222095E+03  0.12509273016E+03 0.  0.
          5    1    3    3  502    0 -0.90438845124E+02  0.82439084968E+02  0.30767869620E+02  0.12625181836E+03  0.41800000000E+01 0. -1.
         -5    1    3    3    0  502 -0.38965027320E+02  0.12848776798E+02  0.12069908194E+03  0.12755040259E+03  0.41800000000E+01 0. -1.
        -11    1    1    2    0    0  0.99150426872E+02 -0.10333220695E+03  0.25764543134E+03  0.29477028418E+03  0.00000000000E+00 0.  1.
         11    1    1    2    0    0  0.30253445572E+02  0.80443451817E+01  0.14441405345E+03  0.14776806588E+03  0.00000000000E+00 0. -1.
</event>
<event>
 7    1  0.2594791E-009  0.1624519E+03  0.7561462E-02  0.1185956E+00
          1   -1    0    0  501    0  0.00000000000E+00  0.00000000000E+00  0.39342516497E+03  0.39342516497E+03  0.00000000000E+00 0. -1.
         -1   -1    0    0    0  501 -0.00000000000E+00 -0.00000000000E+00 -0.68544554740E+02  0.68544554740E+02  0.00000000000E+00 0.  1.
         25    2    1    2    0    0  0.92008874618E+02  0.81818245580E+02  0.18230782674E+03  0.25306913051E+03  0.12509189744E+03 0.  0.
          5    1    3    3  502    0  0.11188328943E+03  0.95978014791E+02  0.13623880697E+03  0.20076885889E+03  0.41800000000E+01 0.  1.
         -5    1    3    3    0  502 -0.19874414810E+02 -0.14159769211E+02  0.46069019769E+02  0.52300271612E+02  0.41800000000E+01 0.  1.
        -11    1    1    2    0    0 -0.36596107473E+02  0.16245374400E+02  0.38307606514E+02  0.55413536147E+02  0.00000000000E+00 0.  1.
         11    1    1    2    0    0 -0.55412767145E+02 -0.98063619980E+02  0.10426517697E+03  0.15348705305E+03  0.00000000000E+00 0. -1.
</event>
<event>
 7    1  0.2594791E-009  0.1699709E+03  0.7561462E-02  0.1177878E+00
          2   -1    0    0  501    0  0.00000000000E+00  0.00000000000E+00  0.63555828906E+03  0.63555828906E+03  0.00000000000E+00 0. -1.
         -2   -1    0    0    0  501 -0.00000000000E+00 -0.00000000000E+00 -0.50068995524E+02  0.50068995524E+02  0.00000000000E+00 0.  1.
         25    2    1    2    0    0 -0.77431239325E+02  0.11671847278E+03  0.33934680816E+03  0.38784193366E+03  0.12508521327E+03 0.  0.
          5    1    3    3  502    0  0.69844181924E+01  0.94082471494E+02  0.22377136374E+03  0.24288143027E+03  0.41800000000E+01 0. -1.
         -5    1    3    3    0  502 -0.84415657517E+02  0.22636001288E+02  0.11557544442E+03  0.14496050338E+03  0.41800000000E+01 0. -1.
        -11    1    1    2    0    0  0.12986319169E+02 -0.85357386547E+02  0.18268024815E+03  0.20205593529E+03  0.00000000000E+00 0. -1.
         11    1    1    2    0    0  0.64444920156E+02 -0.31361086235E+02  0.63462237222E+02  0.95729415631E+02  0.00000000000E+00 0.  1.
</event>
<event>
 7    1  0.2594791E-009  0.1385522E+03  0.7561462E-02  0.1215290E+00
          1   -1    0    0  501    0  0.00000000000E+00  0.00000000000E+00  0.10211327944E+03  0.10211327944E+03  0.00000000000E+00 0. -1.
         -1   -1    0    0    0  501 -0.00000000000E+00 -0.00000000000E+00 -0.25704774683E+03  0.25704774683E+03  0.00000000000E+00 0.  1.
         25    2    1    2    0    0  0.59154597085E+02  0.10244228457E+03 -0.68937915342E+02  0.18546329948E+03  0.12510200341E+03 0.  0.
          5    1    3    3  502    0  0.59427254803E+02  0.21206935603E+02  0.18650358243E+02  0.65929060312E+02  0.41800000000E+01 0.  1.
         -5    1    3    3    0  502 -0.27265771797E+00  0.81235348965E+02 -0.87588273585E+02  0.11953423917E+03  0.41800000000E+01 0.  1.
        -11    1    1    2    0    0 -0.42550365728E+02 -0.17555649880E+02 -0.72901204000E+02  0.86216703781E+02  0.00000000000E+00 0.  1.
         11    1    1    2    0    0 -0.16604231357E+02 -0.84886634688E+02 -0.13095348047E+02  0.87481023016E+02  0.00000000000E+00 0. -1.
</event>
<event>
 7    1  0.2594791E-009  0.1554726E+03  0.7561462E-02  0.1193905E+00
         -2   -1    0    0    0  501 -0.00000000000E+00  0.00000000000E+00  0.24087610724E+02  0.24087610724E+02  0.00000000000E+00 0.  1.
          2   -1    0    0  501    0  0.00000000000E+00 -0.00000000000E+00 -0.12766631364E+04  0.12766631364E+04  0.00000000000E+00 0. -1.
         25    2    1    2    0    0 -0.42022216852E+02 -0.12150199754E+03 -0.94625855152E+03  0.96311064978E+03  0.12509306645E+03 0.  0.
          5    1    3    3  502    0  0.20873444233E+02  0.16027055605E+02 -0.19091741799E+03  0.19276799547E+03  0.41800000000E+01 0.  1.
         -5    1    3    3    0  502 -0.62895661085E+02 -0.13752905315E+03 -0.75534113353E+03  0.77034265431E+03  0.41800000000E+01 0.  1.
        -11    1    1    2    0    0  0.42472172019E+01  0.64438228586E+02 -0.90107956782E+02  0.11085922620E+03  0.00000000000E+00 0.  1.
         11    1    1    2    0    0  0.37774999650E+02  0.57063768955E+02 -0.21620901735E+03  0.22678087112E+03  0.00000000000E+00 0. -1.
</event>
<event>
 7    1  0.2594791E-009  0.1371129E+03  0.7561462E-02  0.1217267E+00
         -2   -1    0    0    0  501 -0.00000000000E+00  0.00000000000E+00  0.38376962259E+02  0.38376962259E+02  0.00000000000E+00 0. -1.
          2   -1    0    0  501    0  0.00000000000E+00 -0.00000000000E+00 -0.62526963815E+03  0.62526963815E+03  0.00000000000E+00 0.  1.
         25    2    1    2    0    0 -0.99047495052E+02 -0.24589629843E+02 -0.22907901196E+03  0.28024976829E+03  0.12509069802E+03 0.  0.
          5    1    3    3  502    0  0.25444807968E+02 -0.91475769749E+01 -0.12841784251E+02  0.30224166487E+02  0.41800000000E+01 0.  1.
         -5    1    3    3    0  502 -0.12449230302E+03 -0.15442052868E+02 -0.21623722771E+03  0.25002560180E+03  0.41800000000E+01 0.  1.
        -11    1    1    2    0    0  0.36883031907E+02 -0.22641108680E+02 -0.22674445596E+03  0.23083766190E+03  0.00000000000E+00 0.  1.
         11    1    1    2    0    0  0.62164463145E+02  0.47230738523E+02 -0.13106920797E+03  0.15255917022E+03  0.00000000000E+00 0. -1.
</event>
<event>
 7    1  0.2594791E-009  0.9241047E+02  0.7561462E-02  0.1297117E+00
          2   -1    0    0  501    0  0.00000000000E+00  0.00000000000E+00  0.10061650374E+04  0.10061650374E+04  0.00000000000E+00 0.  1.
         -2   -1    0    0    0  501 -0.00000000000E+00 -0.00000000000E+00 -0.19928957572E+02  0.19928957572E+02  0.00000000000E+00 0. -1.
         25    2    1    2    0    0  0.41143144637E+02  0.30502507274E+02  0.81029409870E+03  0.82149059586E+03  0.12508841432E+03 0.  0.
          5    1    3    3  502    0  0.71879040472E+02 -0.12582158417E+02  0.31546718235E+03  0.32382390695E+03  0.41800000000E+01 0. -1.
         -5    1    3    3    0  502 -0.30735895835E+02  0.43084665690E+02  0.49482691635E+03  0.49766668892E+03  0.41800000000E+01 0. -1.
        -11    1    1    2    0    0 -0.11655534853E+02  0.48324830520E+01 -0.80340638456E+01  0.14958294255E+02  0.00000000000E+00 0. -1.
         11    1    1    2    0    0 -0.29487609784E+02 -0.35334990326E+02  0.18397604501E+03  0.18964510489E+03  0.00000000000E+00 0.  1.
</event>
<event>
 7    1  0.2594791E-009  0.1838878E+03  0.7561462E-02  0.1164093E+00
         -1   -1    0    0    0  501 -0.00000000000E+00  0.00000000000E+00  0.48671874313E+02  0.48671874313E+02  0.00000000000E+00 0.  1.
          1   -1    0    0  501    0  0.00000000000E+00 -0.00000000000E+00 -0.97069789881E+03  0.97069789881E+03  0.00000000000E+00 0. -1.
         25    2    1    2    0    0 -0.53794530405E+02 -0.16836511324E+03 -0.61325109181E+03  0.65035769283E+03  0.12509022408E+03 0.  0.
          5    1    3    3  502    0 -0.31962450855E+02 -0.14174272367E+03 -0.28166305259E+03  0.31696079501E+03  0.41800000000E+01 0.  1.
         -5    1    3    3    0  502 -0.21832079550E+02 -0.26622389574E+02 -0.33158803922E+03  0.33339689782E+03  0.41800000000E+01 0.  1.
        -11    1    1    2    0    0  0.24928106615E+02  0.10167675928E+02 -0.82330861666E+01  0.28152723509E+02  0.00000000000E+00 0.  1.
         11    1    1    2    0    0  0.28866423790E+02  0.15819743732E+03 -0.30054184652E+03  0.34085935678E+03  0.00000000000E+00 0. -1.
</event>
<event>
 7    1  0.2594791E-009  0.2357821E+03  0.7561462E-02  0.1122635E+00
         -2   -1    0    0    0  501 -0.00000000000E+00  0.00000000000E+00  0.14707992803E+03  0.14707992803E+03  0.00000000000E+00 0.  1.
          2   -1    0    0  501    0  0.00000000000E+00 -0.00000000000E+00 -0.44530884275E+03  0.44530884275E+03  0.00000000000E+00 0. -1.
         25    2    1    2    0    0  0.16675479362E+03 -0.15183285169E+03 -0.92072699125E+02  0.27383412844E+03  0.12508945569E+03 0.  0.
          5    1    3    3  502    0  0.23843913882E+02 -0.84445578145E+02 -0.73784916176E+02  0.11472259652E+03  0.41800000000E+01 0. -1.
         -5    1    3    3    0  502  0.14291087974E+03 -0.67387273541E+02 -0.18287782949E+02  0.15911153191E+03  0.41800000000E+01 0. -1.
        -11    1    1    2    0    0 -0.83531099874E+02  0.81385003311E+02 -0.16490176476E+03  0.20197414545E+03  0.00000000000E+00 0. -1.
         11    1    1    2    0    0 -0.83223693746E+02  0.70447848376E+02 -0.41254450843E+02  0.11658049689E+03  0.00000000000E+00 0.  1.
</event>
<event>
 7    1  0.2935243E-009  0.1091161E+03  0.7561462E-02  0.1262216E+00
         -1   -1    0    0    0  501 -0.00000000000E+00  0.00000000000E+00  0.40026009145E+02  0.40026009145E+02  0.00000000000E+00 0.  1.
          1   -1    0    0  501    0  0.00000000000E+00 -0.00000000000E+00 -0.44110574501E+03  0.44110574501E+03  0.00000000000E+00 0. -1.
         25    2    1    2    0    0 -0.35244487017E+02 -0.63864836778E+02 -0.18494287338E+03  0.23488832712E+03  0.12509104109E+03 0.  0.
          5    1    3    3  502    0 -0.32349964007E+02 -0.10066395111E+03 -0.15219597820E+03  0.18536676996E+03  0.41800000000E+01 0.  1.
         -5    1    3    3    0  502 -0.28945230100E+01  0.36799114336E+02 -0.32746895182E+02  0.49521557159E+02  0.41800000000E+01 0.  1.
        -11    1    1    2    0    0  0.14900491468E+02  0.10705970875E+02  0.40746792566E+01  0.18794825602E+02  0.00000000000E+00 0.  1.
         11    1    1    2    0    0  0.20343995549E+02  0.53158865903E+02 -0.22021154174E+03  0.22744860143E+03  0.00000000000E+00 0. -1.
</event>
<event>
 7    1  0.2594791E-009  0.2899304E+03  0.7561462E-02  0.1090385E+00
          1   -1    0    0  501    0  0.00000000000E+00  0.00000000000E+00  0.48546091153E+03  0.48546091153E+03  0.00000000000E+00 0. -1.
         -1   -1    0    0    0  501 -0.00000000000E+00 -0.00000000000E+00 -0.18282121597E+03  0.18282121597E+03  0.00000000000E+00 0.  1.
         25    2    1    2    0    0 -0.25151337783E+03 -0.10209759380E+03  0.90068414390E+02  0.31216014759E+03  0.12509492629E+03 0.  0.
          5    1    3    3  502    0  0.11296717417E+02  0.71821571772E+01  0.18339990365E+01  0.14143378613E+02  0.41800000000E+01 0.  1.
         -5    1    3    3    0  502 -0.26281009525E+03 -0.10927975097E+03  0.88234415354E+02  0.29801676898E+03  0.41800000000E+01 0.  1.
        -11    1    1    2    0    0  0.13466637627E+03  0.93652135065E+02  0.15463156381E+03  0.22542554387E+03  0.00000000000E+00 0. -1.
         11    1    1    2    0    0  0.11684700156E+03  0.84454587325E+01  0.57939717360E+02  0.13069643605E+03  0.00000000000E+00 0.  1.
</event>
<event>
 7    1  0.2594791E-009  0.1380515E+03  0.7561462E-02  0.1215975E+00
          2   -1    0    0  501    0  0.00000000000E+00  0.00000000000E+00  0.36562073038E+03  0.36562073038E+03  0.00000000000E+00 0.  1.
         -2   -1    0    0    0  501 -0.00000000000E+00 -0.00000000000E+00 -0.74199693087E+02  0.74199693087E+02  0.00000000000E+00 0. -1.
         25    2    1    2    0    0 -0.84813512936E+02  0.76765261075E+02  0.21856474438E+03  0.27660668392E+03  0.12511783573E+03 0.  0.
          5    1    3    3  502    0 -0.83841186813E+02  0.87684567666E+02  0.23009802528E+03  0.26015476480E+03  0.41800000000E+01 0. -1.
         -5    1    3    3    0  502 -0.97232612294E+00 -0.10919306591E+02 -0.11533280894E+02  0.16451919119E+02  0.41800000000E+01 0. -1.
        -11    1    1    2    0    0  0.10267164482E+03 -0.67380385305E+02  0.49648842779E+02  0.13246354428E+03  0.00000000000E+00 0. -1.
         11    1    1    2    0    0 -0.17858131880E+02 -0.93848757698E+01  0.23207450130E+02  0.30750195267E+02  0.00000000000E+00 0.  1.
</event>
<event>
 7    1  0.2594791E-009  0.1101894E+03  0.7561462E-02  0.1260220E+00
         -3   -1    0    0    0  501 -0.00000000000E+00  0.00000000000E+00  0.30913270802E+03  0.30913270802E+03  0.00000000000E+00 0.  1.
          3   -1    0    0  501    0  0.00000000000E+00 -0.00000000000E+00 -0.54047875834E+02  0.54047875834E+02  0.00000000000E+00 0. -1.
         25    2    1    2    0    0 -0.11764827850E+02 -0.64013403981E+02  0.19302819243E+03  0.23904315771E+03  0.12508245725E+03 0.  0.
          5    1    3    3  502    0  0.12104287763E+02  0.28169642586E+02  0.97185797901E+01  0.32434021318E+02  0.41800000000E+01 0. -1.
         -5    1    3    3    0  502 -0.23869115613E+02 -0.92183046567E+02  0.18330961264E+03  0.20660913639E+03  0.41800000000E+01 0. -1.
        -11    1    1    2    0    0  0.28909601593E+02  0.70179081223E+02  0.70918910123E+02  0.10387665916E+03  0.00000000000E+00 0.  1.
         11    1    1    2    0    0 -0.17144773743E+02 -0.61656772419E+01 -0.88622703682E+01  0.20260766980E+02  0.00000000000E+00 0. -1.
</event>
<event>
 7    1  0.2594791E-009  0.1149757E+03  0.7561462E-02  0.1251624E+00
          2   -1    0    0  501    0  0.00000000000E+00  0.00000000000E+00  0.34872997950E+03  0.34872997950E+03  0.00000000000E+00 0. -1.
         -2   -1    0    0    0  501 -0.00000000000E+00 -0.00000000000E+00 -0.42084209754E+02  0.42084209754E+02  0.00000000000E+00 0.  1.
         25    2    1    2    0    0 -0.18307928283E+01 -0.39102883653E+02  0.12028063136E+03  0.17790327071E+03  0.12509898536E+03 0.  0.
          5    1    3    3  502    0 -0.49223953232E+02  0.19250474058E+02  0.32210715727E+02  0.62036931991E+02  0.41800000000E+01 0. -1.
         -5    1    3    3    0  502  0.47393160404E+02 -0.58353357711E+02  0.88069915632E+02  0.11586633872E+03  0.41800000000E+01 0. -1.
        -11    1    1    2    0    0  0.19488397902E+02 -0.26956141435E+02  0.77720915552E+02  0.84539765365E+02  0.00000000000E+00 0.  1.
         11    1    1    2    0    0 -0.17657605073E+02  0.66059025088E+02  0.10864422284E+03  0.12837115318E+03  0.00000000000E+00 0. -1.
</event>
<event>
 7    1  0.2594791E-009  0.1503395E+03  0.7561462E-02  0.1200056E+00
         -2   -1    0    0    0  501 -0.00000000000E+00  0.00000000000E+00  0.19167795429E+02  0.19167795429E+02  0.00000000000E+00 0.  1.
          2   -1    0    0  501    0  0.00000000000E+00 -0.00000000000E+00 -0.31736192884E+04  0.31736192884E+04  0.00000000000E+00 0. -1.
         25    2    1    2    0    0  0.89894203472E+02 -0.81184299987E+02 -0.28164114625E+04  0.28217881320E+04  0.12507148960E+03 0.  0.
          5    1    3    3  502    0  0.93493391558E+02 -0.97108532130E+02 -0.17309910055E+04  0.17362368545E+04  0.41800000000E+01 0.  1.
         -5    1    3    3    0  502 -0.35991880859E+01  0.15924232143E+02 -0.10854204569E+04  0.10855512775E+04  0.41800000000E+01 0.  1.
        -11    1    1    2    0    0 -0.35897019417E+02  0.87518211840E+02 -0.17215115500E+03  0.19642824027E+03  0.00000000000E+00 0.  1.
         11    1    1    2    0    0 -0.53997184055E+02 -0.63339118526E+01 -0.16588887552E+03  0.17457071160E+03  0.00000000000E+00 0. -1.
</event>
<event>
 7    1  0.2594791E-009  0.8220471E+02  0.7561462E-02  0.1322909E+00
          1   -1    0    0  501    0  0.00000000000E+00  0.00000000000E+00  0.14723411100E+02  0.14723411100E+02  0.00000000000E+00 0. -1.
         -1   -1    0    0    0  501 -0.00000000000E+00 -0.00000000000E+00 -0.10241254537E+04  0.10241254537E+04  0.00000000000E+00 0.  1.
         25    2    1    2    0    0 -0.10232634158E+02  0.34011157552E+01 -0.80436504147E+03  0.81410488413E+03  0.12508944015E+03 0.  0.
          5    1    3    3  502    0  0.29112929128E+02  0.14737225275E+02 -0.58581125125E+02  0.67186077963E+02  0.41800000000E+01 0.  1.
         -5    1    3    3    0  502 -0.39345563285E+02 -0.11336109520E+02 -0.74578391634E+03  0.74691880617E+03  0.41800000000E+01 0.  1.
        -11    1    1    2    0    0 -0.37006166281E+02 -0.17667611912E+02 -0.72129375970E+02  0.82971366937E+02  0.00000000000E+00 0.  1.
         11    1    1    2    0    0  0.47238800439E+02  0.14266496156E+02 -0.13290762521E+03  0.14177261378E+03  0.00000000000E+00 0. -1.
</event>
<event>
 7    1  0.2594791E-009  0.1114180E+03  0.7561462E-02  0.1257966E+00
          2   -1    0    0  501    0  0.00000000000E+00  0.00000000000E+00  0.22871826299E+03  0.22871826299E+03  0.00000000000E+00 0. -1.
         -2   -1    0    0    0  501 -0.00000000000E+00 -0.00000000000E+00 -0.84474586334E+02  0.84474586334E+02  0.00000000000E+00 0.  1.
         25    2    1    2    0    0 -0.86897689435E+02  0.11279112936E+01  0.61153353786E+02  0.16413439127E+03  0.12509150692E+03 0.  0.
          5    1    3    3  502    0  0.48549729472E+00  0.23177395283E+02  0.69640862933E+02  0.73517001773E+02  0.41800000000E+01 0. -1.
         -5    1    3    3    0  502 -0.87383186730E+02 -0.22049483989E+02 -0.84875091468E+01  0.90617389495E+02  0.41800000000E+01 0. -1.
        -11    1    1    2    0    0  0.18286408534E+02  0.28873280788E+02  0.62762557256E+02  0.71464660314E+02  0.00000000000E+00 0. -1.
         11    1    1    2    0    0  0.68611280901E+02 -0.30001192081E+02  0.20327765614E+02  0.77593797742E+02  0.00000000000E+00 0.  1.
</event>
<event>
 7    1  0.2594791E-009  0.1027109E+03  0.7561462E-02  0.1274696E+00
         -4   -1    0    0    0  501 -0.00000000000E+00  0.00000000000E+00  0.22572593624E+03  0.22572593624E+03  0.00000000000E+00 0.  1.
          4   -1    0    0  501    0  0.00000000000E+00 -0.00000000000E+00 -0.21139964766E+03  0.21139964766E+03  0.00000000000E+00 0. -1.
         25    2    1    2    0    0 -0.76157479595E+02  0.67149410868E+02  0.16839415827E+03  0.23304414133E+03  0.12507587374E+03 0.  0.
          5    1    3    3  502    0 -0.59935479472E+02  0.59856233495E+02  0.18800060671E+03  0.20624434759E+03  0.41800000000E+01 0.  1.
         -5    1    3    3    0  502 -0.16222000123E+02  0.72931773732E+01 -0.19606448445E+02  0.26799793745E+02  0.41800000000E+01 0.  1.
        -11    1    1    2    0    0  0.35054749179E+02 -0.22497580741E+02 -0.13374267501E+03  0.14007883387E+03  0.00000000000E+00 0. -1.
         11    1    1    2    0    0  0.41102730416E+02 -0.44651830128E+02 -0.20325194684E+02  0.64002608699E+02  0.00000000000E+00 0.  1.
</event>
<event>
 7    1  0.2594791E-009  0.2894006E+03  0.7561462E-02  0.1090662E+00
          2   -1    0    0  501    0  0.00000000000E+00  0.00000000000E+00  0.83809044746E+03  0.83809044746E+03  0.00000000000E+00 0. -1.
         -2   -1    0    0    0  501 -0.00000000000E+00 -0.00000000000E+00 -0.10554433786E+03  0.10554433786E+03  0.00000000000E+00 0.  1.
         25    2    1    2    0    0  0.20640477923E+03 -0.18221012821E+03  0.39948898085E+03  0.50104138750E+03  0.12509021727E+03 0.  0.
          5    1    3    3  502    0  0.18950702172E+03 -0.12105869187E+03  0.36493983460E+03  0.42868015284E+03  0.41800000000E+01 0. -1.
         -5    1    3    3    0  502  0.16897757518E+02 -0.61151436344E+02  0.34549146249E+02  0.72361234667E+02  0.41800000000E+01 0. -1.
        -11    1    1    2    0    0 -0.13309855158E+03  0.17013844945E+03  0.26450888090E+03  0.34150734178E+03  0.00000000000E+00 0.  1.
         11    1    1    2    0    0 -0.73306227657E+02  0.12071678763E+02  0.68548247848E+02  0.10108605603E+03  0.00000000000E+00 0. -1.
</event>
<event>
 7    1  0.2594791E-009  0.9972126E+02  0.7561462E-02  0.1280883E+00
         -1   -1    0    0    0  501 -0.00000000000E+00  0.00000000000E+00  0.75797365730E+02  0.75797365730E+02  0.00000000000E+00 0.  1.
          1   -1    0    0  501    0  0.00000000000E+00 -0.00000000000E+00 -0.18477117452E+03  0.18477117452E+03  0.00000000000E+00 0. -1.
         25    2    1    2    0    0 -0.45180247909E+02  0.14741997581E+02 -0.54922671504E+02  0.14464985081E+03  0.12509395749E+03 0.  0.
          5    1    3    3  502    0 -0.65789006627E+02  0.54691199295E+02 -0.50140716694E+02  0.99251622374E+02  0.41800000000E+01 0. -1.
         -5    1    3    3    0  502  0.20608758718E+02 -0.39949201715E+02 -0.47819548104E+01  0.45398228439E+02  0.41800000000E+01 0. -1.
        -11    1    1    2    0    0  0.51302413223E+02 -0.24710524237E+02  0.36340870829E+01  0.57059216604E+02  0.00000000000E+00 0.  1.
         11    1    1    2    0    0 -0.61221653141E+01  0.99685266564E+01 -0.57685224371E+02  0.58859472837E+02  0.00000000000E+00 0. -1.
</event>
<event>
 7    1  0.2594791E-009  0.1416944E+03  0.7561462E-02  0.1211067E+00
         -1   -1    0    0    0  501 -0.00000000000E+00  0.00000000000E+00  0.15864179177E+03  0.15864179177E+03  0.00000000000E+00 0.  1.
          1   -1    0    0  501    0  0.00000000000E+00 -0.00000000000E+00 -0.18844945815E+03  0.18844945815E+03  0.00000000000E+00 0. -1.
         25    2    1    2    0    0 -0.73991474059E+02  0.10134960993E+03  0.28761231264E+02  0.17950548120E+03  0.12509407536E+03 0.  0.
          5    1    3    3  502    0 -0.69870955510E+02  0.95168447989E+02 -0.28570853600E+02  0.12154320216E+03  0.41800000000E+01 0.  1.
         -5    1    3    3    0  502 -0.41205185489E+01  0.61811619376E+01  0.57332084864E+02  0.57962279034E+02  0.41800000000E+01 0.  1.
        -11    1    1    2    0    0 -0.21572890721E+01  0.16377738911E+02 -0.31198551800E+01  0.16811238037E+02  0.00000000000E+00 0.  1.
         11    1    1    2    0    0  0.76148763131E+02 -0.11772734884E+03 -0.55449042463E+02  0.15077453068E+03  0.00000000000E+00 0. -1.
</event>
<event>
 7    1  0.2594791E-009  0.1628369E+03  0.7561462E-02  0.1185531E+00
          2   -1    0    0  501    0  0.00000000000E+00  0.00000000000E+00  0.19296287588E+03  0.19296287588E+03  0.00000000000E+00 0. -1.
         -2   -1    0    0    0  501 -0.00000000000E+00 -0.00000000000E+00 -0.16376785048E+03  0.16376785048E+03  0.00000000000E+00 0.  1.
         25    2    1    2    0    0 -0.80908283367E+02  0.95109045087E+02  0.77821657312E+02  0.19311945333E+03  0.12508809749E+03 0.  0.
          5    1    3    3  502    0 -0.10231148996E+03  0.37281060682E+02  0.72925499762E+02  0.13112253574E+03  0.41800000000E+01 0.  1.
         -5    1    3    3    0  502  0.21403206589E+02  0.57827984405E+02  0.48961575500E+01  0.61996917596E+02  0.41800000000E+01 0.  1.
        -11    1    1    2    0    0  0.81180193374E+02 -0.25218416288E+02 -0.37208074193E+02  0.92793497086E+02  0.00000000000E+00 0. -1.
         11    1    1    2    0    0 -0.27191000748E+00 -0.69890628799E+02 -0.11418557712E+02  0.70817775941E+02  0.00000000000E+00 0.  1.
</event>
<event>
 7    1  0.2594791E-009  0.2381190E+03  0.7561462E-02  0.1121052E+00
          3   -1    0    0  501    0  0.00000000000E+00  0.00000000000E+00  0.66231676132E+03  0.66231676132E+03  0.00000000000E+00 0.  1.
         -3   -1    0    0    0  501 -0.00000000000E+00 -0.00000000000E+00 -0.91894364582E+02  0.91894364582E+02  0.00000000000E+00 0. -1.
         25    2    1    2    0    0  0.32404605451E+02  0.21735358944E+03  0.25325593605E+03  0.35788231531E+03  0.12509412924E+03 0.  0.
          5    1    3    3  502    0 -0.41805544696E+02  0.13295687980E+03  0.15563880579E+03  0.20896446043E+03  0.41800000000E+01 0.  1.
         -5    1    3    3    0  502  0.74210150147E+02  0.84396709643E+02  0.97617130257E+02  0.14891785488E+03  0.41800000000E+01 0.  1.
        -11    1    1    2    0    0 -0.33997928499E+02 -0.79340688847E+02  0.18985744108E+03  0.20855850974E+03  0.00000000000E+00 0.  1.
         11    1    1    2    0    0  0.15933230487E+01 -0.13801290060E+03  0.12730901960E+03  0.18777030085E+03  0.00000000000E+00 0. -1.
</event>
<event>
 7    1  0.2594791E-009  0.1432100E+03  0.7561462E-02  0.1209074E+00
         -1   -1    0    0    0  501 -0.00000000000E+00  0.00000000000E+00  0.82438708142E+02  0.82438708142E+02  0.00000000000E+00 0.  1.
          1   -1    0    0  501    0  0.00000000000E+00 -0.00000000000E+00 -0.32439905691E+03  0.32439905691E+03  0.00000000000E+00 0. -1.
         25    2    1    2    0    0 -0.42317576450E+01 -0.96945238601E+02 -0.37196924673E+02  0.16262832730E+03  0.12509226424E+03 0.  0.
          5    1    3    3  502    0  0.39418920192E+02  0.76540318847E+01 -0.27389357716E+02  0.48786112668E+02  0.41800000000E+01 0. -1.
         -5    1    3    3    0  502 -0.43650677837E+02 -0.10459927049E+03 -0.98075669570E+01  0.11384221463E+03  0.41800000000E+01 0. -1.
        -11    1    1    2    0    0  0.29323910818E+02 -0.30977988043E+01 -0.54272566582E+02  0.61765682919E+02  0.00000000000E+00 0. -1.
         11    1    1    2    0    0 -0.25092153173E+02  0.10004303741E+03 -0.15049085751E+03  0.18244375484E+03  0.00000000000E+00 0.  1.
</event>
<event>
 7    1  0.2594791E-009  0.2542668E+03  0.7561462E-02  0.1110638E+00
          1   -1    0    0  501    0  0.00000000000E+00  0.00000000000E+00  0.56369313561E+03  0.56369313561E+03  0.00000000000E+00 0. -1.
         -1   -1    0    0    0  501 -0.00000000000E+00 -0.00000000000E+00 -0.12431020790E+03  0.12431020790E+03  0.00000000000E+00 0.  1.
         25    2    1    2    0    0  0.23859164768E+03 -0.34126426515E+02  0.23480077766E+03  0.35898586153E+03  0.12509538865E+03 0.  0.
          5    1    3    3  502    0  0.10428156743E+03  0.42125435778E+02  0.67406708374E+02  0.13118816402E+03  0.41800000000E+01 0.  1.
         -5    1    3    3    0  502  0.13431008025E+03 -0.76251862293E+02  0.16739406929E+03  0.22779769751E+03  0.41800000000E+01 0.  1.
        -11    1    1    2    0    0 -0.47579541303E+02  0.12898225488E+02  0.13660115849E+01  0.49315747576E+02  0.00000000000E+00 0.  1.
         11    1    1    2    0    0 -0.19101210637E+03  0.21228201027E+02  0.20321613846E+03  0.27970173441E+03  0.00000000000E+00 0. -1.
</event>
<event>
 7    1  0.2594791E-009  0.1179273E+03  0.7561462E-02  0.1246556E+00
         -1   -1    0    0    0  501 -0.00000000000E+00  0.00000000000E+00  0.59784624175E+02  0.59784624175E+02  0.00000000000E+00 0.  1.
          1   -1    0    0  501    0  0.00000000000E+00 -0.00000000000E+00 -0.31687537801E+03  0.31687537801E+03  0.00000000000E+00 0. -1.
         25    2    1    2    0    0  0.26093549156E+02 -0.68987864193E+02 -0.68300585034E+02  0.16048203040E+03  0.12509721601E+03 0.  0.
          5    1    3    3  502    0 -0.10835542893E+01 -0.10146910042E+03 -0.56944973644E+02  0.11643605478E+03  0.41800000000E+01 0.  1.
         -5    1    3    3    0  502  0.27177103446E+02  0.32481236227E+02 -0.11355611390E+02  0.44045975623E+02  0.41800000000E+01 0.  1.
        -11    1    1    2    0    0 -0.32410835566E+02  0.12250728274E+02 -0.12874547891E+03  0.13332644504E+03  0.00000000000E+00 0.  1.
         11    1    1    2    0    0  0.63172864097E+01  0.56737135920E+02 -0.60044689886E+02  0.82851526742E+02  0.00000000000E+00 0. -1.
</event>
<event>
 7    1  0.2594791E-009  0.1389318E+03  0.7561462E-02  0.1214774E+00
         -2   -1    0    0    0  501 -0.00000000000E+00  0.00000000000E+00  0.34323042033E+03  0.34323042033E+03  0.00000000000E+00 0.  1.
          2   -1    0    0  501    0  0.00000000000E+00 -0.00000000000E+00 -0.59453604532E+02  0.59453604532E+02  0.00000000000E+00 0. -1.
         25    2    1    2    0    0 -0.73724784097E+02 -0.56251836373E+02  0.14904530410E+03  0.21555033533E+03  0.12509129267E+03 0.  0.
          5    1    3    3  502    0 -0.80268255871E+02  0.12489358562E+02  0.52624956407E+02  0.96880521338E+02  0.41800000000E+01 0.  1.
         -5    1    3    3    0  502  0.65434717739E+01 -0.68741194935E+02  0.96420347694E+02  0.11866981399E+03  0.41800000000E+01 0.  1.
        -11    1    1    2    0    0  0.93584255597E+02  0.40394464171E+02  0.12112541105E+03  0.15830695131E+03  0.00000000000E+00 0.  1.
         11    1    1    2    0    0 -0.19859471500E+02  0.15857372202E+02  0.13606100641E+02  0.28826738214E+02  0.00000000000E+00 0. -1.
</event>
<event>
 7    1  0.2594791E-009  0.9979408E+02  0.7561462E-02  0.1280730E+00
          2   -1    0    0  501    0  0.00000000000E+00  0.00000000000E+00  0.47976807020E+03  0.47976807020E+03  0.00000000000E+00 0. -1.
         -2   -1    0    0    0  501 -0.00000000000E+00 -0.00000000000E+00 -0.38692446910E+02  0.38692446910E+02  0.00000000000E+00 0.  1.
         25    2    1    2    0    0  0.18104922935E+02 -0.68390017897E+02  0.31257421770E+03  0.34402710628E+03  0.12508807101E+03 0.  0.
          5    1    3    3  502    0 -0.21269397027E+02 -0.47936067349E+02  0.35675065986E+02  0.63564428227E+02  0.41800000000E+01 0.  1.
         -5    1    3    3    0  502  0.39374319961E+02 -0.20453950548E+02  0.27689915171E+03  0.28046267806E+03  0.41800000000E+01 0.  1.
        -11    1    1    2    0    0  0.21689273764E+02  0.57050348714E+02  0.30872984622E+02  0.68398158340E+02  0.00000000000E+00 0. -1.
         11    1    1    2    0    0 -0.39794196699E+02  0.11339669183E+02  0.97628420970E+02  0.10603525248E+03  0.00000000000E+00 0.  1.
</event>
<event>
 7    1  0.2594791E-009  0.2336699E+03  0.7561462E-02  0.1124083E+00
          2   -1    0    0  501    0  0.00000000000E+00  0.00000000000E+00  0.28307627483E+03  0.28307627483E+03  0.00000000000E+00 0. -1.
         -2   -1    0    0    0  501 -0.00000000000E+00 -0.00000000000E+00 -0.27139872201E+03  0.27139872201E+03  0.00000000000E+00 0.  1.
         25    2    1    2    0    0 -0.17522144546E+03  0.12885615624E+03 -0.12624071689E+03  0.28087589986E+03  0.12509232017E+03 0.  0.
          5    1    3    3  502    0 -0.81169867514E+02  0.10926741167E+03 -0.12478062052E+03  0.18470406141E+03  0.41800000000E+01 0.  1.
         -5    1    3    3    0  502 -0.94051577948E+02  0.19588744577E+02 -0.14600963785E+01  0.96171838446E+02  0.41800000000E+01 0.  1.
        -11    1    1    2    0    0  0.82695412778E+02 -0.84202792201E+01  0.35311708664E+02  0.90312508355E+02  0.00000000000E+00 0. -1.
         11    1    1    2    0    0  0.92526032684E+02 -0.12043587702E+03  0.10260656105E+03  0.18328658863E+03  0.00000000000E+00 0.  1.
</event>
<event>
 7    1  0.2594791E-009  0.1036670E+03  0.7561462E-02  0.1272769E+00
         -2   -1    0    0    0  501 -0.00000000000E+00  0.00000000000E+00  0.37223019489E+02  0.37223019489E+02  0.00000000000E+00 0.  1.
          2   -1    0    0  501    0  0.00000000000E+00 -0.00000000000E+00 -0.43442716254E+03  0.43442716254E+03  0.00000000000E+00 0. -1.
         25    2    1    2    0    0 -0.36011817557E+02 -0.54789947758E+01 -0.11877643427E+03  0.17630321628E+03  0.12509241521E+03 0.  0.
          5    1    3    3  502    0 -0.46638038022E+02  0.52983009671E+02 -0.65670497956E+02  0.96500738889E+02  0.41800000000E+01 0. -1.
         -5    1    3    3    0  502  0.10626220465E+02 -0.58462004447E+02 -0.53105936316E+02  0.79802477388E+02  0.41800000000E+01 0. -1.
        -11    1    1    2    0    0 -0.13564991567E+02  0.21094973824E+02 -0.20961048243E+02  0.32685967330E+02  0.00000000000E+00 0.  1.
         11    1    1    2    0    0  0.49576809124E+02 -0.15615979048E+02 -0.25746666054E+03  0.26266099843E+03  0.00000000000E+00 0. -1.
</event>
<event>
 7    1  0.2594791E-009  0.5928494E+02  0.7561462E-02  0.1400857E+00
         -1   -1    0    0    0  501 -0.00000000000E+00  0.00000000000E+00  0.77522433133E+02  0.77522433133E+02  0.00000000000E+00 0. -1.
          1   -1    0    0  501    0  0.00000000000E+00 -0.00000000000E+00 -0.16098560869E+03  0.16098560869E+03  0.00000000000E+00 0.  1.
         25    2    1    2    0    0 -0.75386203221E+01 -0.28188665285E+02 -0.48391068639E+02  0.13725979872E+03  0.12508846939E+03 0.  0.
          5    1    3    3  502    0 -0.19206473618E+01 -0.35475277910E+02  0.36887641608E+02  0.51384382184E+02  0.41800000000E+01 0.  1.
         -5    1    3    3    0  502 -0.56179729603E+01  0.72866126252E+01 -0.85278710247E+02  0.85875416535E+02  0.41800000000E+01 0.  1.
        -11    1    1    2    0    0 -0.28428283929E+02  0.22549053596E+02 -0.50101992375E+02  0.61861432129E+02  0.00000000000E+00 0.  1.
         11    1    1    2    0    0  0.35966904251E+02  0.56396116891E+01  0.15029885461E+02  0.39386810970E+02  0.00000000000E+00 0. -1.
</event>
<event>
 7    1  0.2594791E-009  0.1056503E+03  0.7561462E-02  0.1268844E+00
          1   -1    0    0  501    0  0.00000000000E+00  0.00000000000E+00  0.15412548963E+03  0.15412548963E+03  0.00000000000E+00 0. -1.
         -1   -1    0    0    0  501 -0.00000000000E+00 -0.00000000000E+00 -0.10860812076E+03  0.10860812076E+03  0.00000000000E+00 0.  1.
         25    2    1    2    0    0 -0.51173673426E+02 -0.31933596989E+02  0.62461762656E+02  0.15226281720E+03  0.12507595388E+03 0.  0.
          5    1    3    3  502    0 -0.63182957510E+02 -0.55656545709E+02  0.83076614696E+02  0.11835934061E+03  0.41800000000E+01 0. -1.
         -5    1    3    3    0  502  0.12009284083E+02  0.23722948720E+02 -0.20614852040E+02  0.33903476589E+02  0.41800000000E+01 0. -1.
        -11    1    1    2    0    0  0.70972998640E+02  0.11991985527E+02 -0.31792940649E+02  0.78687771146E+02  0.00000000000E+00 0.  1.
         11    1    1    2    0    0 -0.19799325213E+02  0.19941611462E+02  0.14848546859E+02  0.31783022047E+02  0.00000000000E+00 0. -1.
</event>
<event>
 7    1  0.2594791E-009  0.1327913E+03  0.7561462E-02  0.1223372E+00
          1   -1    0    0  501    0  0.00000000000E+00  0.00000000000E+00  0.20520763964E+03  0.20520763964E+03  0.00000000000E+00 0. -1.
         -1   -1    0    0    0  501 -0.00000000000E+00 -0.00000000000E+00 -0.10013195379E+03  0.10013195379E+03  0.00000000000E+00 0.  1.
         25    2    1    2    0    0  0.85993358385E+02  0.13991535544E+02  0.25254427276E+02  0.15451726800E+03  0.12508868557E+03 0.  0.
          5    1    3    3  502    0  0.73270804248E+02 -0.41427602295E+02  0.43256801619E+02  0.94728455458E+02  0.41800000000E+01 0.  1.
         -5    1    3    3    0  502  0.12722554137E+02  0.55419137840E+02 -0.18002374343E+02  0.59788812538E+02  0.41800000000E+01 0.  1.
        -11    1    1    2    0    0 -0.12110938441E+02 -0.43185728632E+02  0.12156848853E+02  0.46470108257E+02  0.00000000000E+00 0.  1.
         11    1    1    2    0    0 -0.73882419945E+02  0.29194193088E+02  0.67664409724E+02  0.10435221718E+03  0.00000000000E+00 0. -1.
</event>
<event>
 7    1  0.2594791E-009  0.1302961E+03  0.7561462E-02  0.1227017E+00
          1   -1    0    0  501    0  0.00000000000E+00  0.00000000000E+00  0.92362144151E+03  0.92362144151E+03  0.00000000000E+00 0. -1.
         -1   -1    0    0    0  501 -0.00000000000E+00 -0.00000000000E+00 -0.22817305168E+02  0.22817305168E+02  0.00000000000E+00 0.  1.
         25    2    1    2    0    0 -0.94848456962E+02 -0.32461281153E+02  0.48915261258E+03  0.51475030582E+03  0.12509050480E+03 0.  0.
          5    1    3    3  502    0 -0.36529594671E+02  0.28455217547E+02  0.34157978953E+03  0.34472936589E+03  0.41800000000E+01 0. -1.
         -5    1    3    3    0  502 -0.58318862291E+02 -0.60916498700E+02  0.14757282305E+03  0.17002093993E+03  0.41800000000E+01 0. -1.
        -11    1    1    2    0    0  0.22679588162E+02  0.50426822418E+02  0.19086026695E+03  0.19870800094E+03  0.00000000000E+00 0.  1.
         11    1    1    2    0    0  0.72168868800E+02 -0.17965541265E+02  0.22079125681E+03  0.23298043991E+03  0.00000000000E+00 0. -1.
</event>
<event>
 7    1  0.2594791E-009  0.1437881E+03  0.7561462E-02  0.1208321E+00
         -2   -1    0    0    0  501 -0.00000000000E+00  0.00000000000E+00  0.17457006584E+02  0.17457006584E+02  0.00000000000E+00 0.  1.
          2   -1    0    0  501    0  0.00000000000E+00 -0.00000000000E+00 -0.13661854778E+04  0.13661854778E+04  0.00000000000E+00 0. -1.
         25    2    1    2    0    0  0.13163944139E+02  0.10237460183E+03 -0.88943800967E+03  0.90410242600E+03  0.12508946855E+03 0.  0.
          5    1    3    3  502    0 -0.40734502119E+02  0.77107797643E+00 -0.13961285056E+03  0.14549609846E+03  0.41800000000E+01 0.  1.
         -5    1    3    3    0  502  0.53898446259E+02  0.10160352385E+03 -0.74982515910E+03  0.75860632755E+03  0.41800000000E+01 0.  1.
        -11    1    1    2    0    0 -0.43000518322E+02 -0.27789627794E+02 -0.11305566144E+03  0.12410838236E+03  0.00000000000E+00 0. -1.
         11    1    1    2    0    0  0.29836574183E+02 -0.74584974033E+02 -0.34623480009E+03  0.35543167600E+03  0.00000000000E+00 0.  1.
</event>
<event>
 7    1  0.2594791E-009  0.1201695E+03  0.7561462E-02  0.1242818E+00
         -1   -1    0    0    0  501 -0.00000000000E+00  0.00000000000E+00  0.68515459685E+02  0.68515459685E+02  0.00000000000E+00 0.  1.
          1   -1    0    0  501    0  0.00000000000E+00 -0.00000000000E+00 -0.25012261103E+03  0.25012261103E+03  0.00000000000E+00 0. -1.
         25    2    1    2    0    0  0.45650089822E+02 -0.48880624795E+02 -0.64258314614E+02  0.15572162816E+03  0.12508736266E+03 0.  0.
          5    1    3    3  502    0  0.49421479265E+02  0.32526581320E+02 -0.18315748468E+02  0.62075761349E+02  0.41800000000E+01 0. -1.
         -5    1    3    3    0  502 -0.37713894425E+01 -0.81407206115E+02 -0.45942566146E+02  0.93645866807E+02  0.41800000000E+01 0. -1.
        -11    1    1    2    0    0 -0.10782377664E+02  0.61429144806E+02 -0.10797337534E+03  0.12469181722E+03  0.00000000000E+00 0. -1.
         11    1    1    2    0    0 -0.34867712158E+02 -0.12548520010E+02 -0.93754613846E+01  0.38224625332E+02  0.00000000000E+00 0.  1.
</event>
<event>
 7    1  0.2594791E-009  0.1451504E+03  0.7561462E-02  0.1206562E+00
         -1   -1    0    0    0  501 -0.00000000000E+00  0.00000000000E+00  0.13643371820E+03  0.13643371820E+03  0.00000000000E+00 0.  1.
          1   -1    0    0  501    0  0.00000000000E+00 -0.00000000000E+00 -0.22346016367E+03  0.22346016367E+03  0.00000000000E+00 0. -1.
         25    2    1    2    0    0  0.11565508372E+03 -0.28258234362E+02 -0.11545252611E+03  0.20773065432E+03  0.12509241688E+03 0.  0.
          5    1    3    3  502    0  0.32447103056E+02  0.46430259373E+02 -0.18662973932E+02  0.59785972252E+02  0.41800000000E+01 0. -1.
         -5    1    3    3    0  502  0.83207980660E+02 -0.74688493735E+02 -0.96789552176E+02  0.14794468207E+03  0.41800000000E+01 0. -1.
        -11    1    1    2    0    0 -0.65541789633E+02  0.32924853265E+01  0.59108129475E+02  0.88319520028E+02  0.00000000000E+00 0.  1.
         11    1    1    2    0    0 -0.50113294082E+02  0.24965749035E+02 -0.30682048833E+02  0.63843707515E+02  0.00000000000E+00 0. -1.
</event>
<event>
 7    1  0.2594791E-009  0.1257481E+03  0.7561462E-02  0.1233905E+00
         -2   -1    0    0    0  501 -0.00000000000E+00  0.00000000000E+00  0.29501171739E+02  0.29501171739E+02  0.00000000000E+00 0.  1.
          2   -1    0    0  501    0  0.00000000000E+00 -0.00000000000E+00 -0.93616310034E+03  0.93616310034E+03  0.00000000000E+00 0. -1.
         25    2    1    2    0    0 -0.88172947569E+02 -0.66615534195E+02 -0.31197495474E+03  0.35382267431E+03  0.12510001755E+03 0.  0.
          5    1    3    3  502    0 -0.57348404360E+02 -0.23515199933E+02 -0.28953867635E+03  0.29612821820E+03  0.41800000000E+01 0. -1.
         -5    1    3    3    0  502 -0.30824543209E+02 -0.43100334262E+02 -0.22436278385E+02  0.57694456105E+02  0.41800000000E+01 0. -1.
        -11    1    1    2    0    0  0.36012971037E+02 -0.15283227024E+02 -0.93823903604E+02  0.10165350952E+03  0.00000000000E+00 0. -1.
         11    1    1    2    0    0  0.52159976532E+02  0.81898761219E+02 -0.50086307026E+03  0.51018808825E+03  0.00000000000E+00 0.  1.
</event>
<event>
 7    1  0.2594791E-009  0.1717070E+03  0.7561462E-02  0.1176079E+00
          2   -1    0    0  501    0  0.00000000000E+00  0.00000000000E+00  0.34760895617E+03  0.34760895617E+03  0.00000000000E+00 0.  1.
         -2   -1    0    0    0  501 -0.00000000000E+00 -0.00000000000E+00 -0.10094658024E+03  0.10094658024E+03  0.00000000000E+00 0. -1.
         25    2    1    2    0    0  0.14387859409E+03 -0.19764720052E+02  0.18579633372E+03  0.26694262094E+03  0.12508553575E+03 0.  0.
          5    1    3    3  502    0  0.87037900320E+02 -0.59805722442E+02  0.16182435579E+03  0.19327937049E+03  0.41800000000E+01 0. -1.
         -5    1    3    3    0  502  0.56840693774E+02  0.40041002390E+02  0.23971977926E+02  0.73663250450E+02  0.41800000000E+01 0. -1.
        -11    1    1    2    0    0 -0.39124402018E+02  0.45696374541E+02  0.57348830406E+01  0.60429846623E+02  0.00000000000E+00 0. -1.
         11    1    1    2    0    0 -0.10475419208E+03 -0.25931654489E+02  0.55131159174E+02  0.12118306884E+03  0.00000000000E+00 0.  1.
</event>
<event>
 7    1  0.2594791E-009  0.1807647E+03  0.7561462E-02  0.1167065E+00
          1   -1    0    0  501    0  0.00000000000E+00  0.00000000000E+00  0.33079495470E+03  0.33079495470E+03  0.00000000000E+00 0. -1.
         -1   -1    0    0    0  501 -0.00000000000E+00 -0.00000000000E+00 -0.14947390667E+03  0.14947390667E+03  0.00000000000E+00 0.  1.
         25    2    1    2    0    0 -0.13481241042E+03 -0.80880735551E+02 -0.28402941475E+02  0.20290563525E+03  0.12509152787E+03 0.  0.
          5    1    3    3  502    0 -0.62951734423E+02  0.22702053330E+02 -0.36805358017E+02  0.76487978605E+02  0.41800000000E+01 0. -1.
         -5    1    3    3    0  502 -0.71860675998E+02 -0.10358278888E+03  0.84024165416E+01  0.12641765664E+03  0.41800000000E+01 0. -1.
        -11    1    1    2    0    0  0.99460147342E+02  0.87384977807E+02  0.20047439034E+03  0.24024661587E+03  0.00000000000E+00 0. -1.
         11    1    1    2    0    0  0.35352263079E+02 -0.65042422560E+01  0.92495991649E+01  0.37116610255E+02  0.00000000000E+00 0.  1.
</event>
<event>
 7    1  0.2594791E-009  0.2228915E+03  0.7561462E-02  0.1131745E+00
          1   -1    0    0  501    0  0.00000000000E+00  0.00000000000E+00  0.86456307095E+03  0.86456307095E+03  0.00000000000E+00 0. -1.
         -1   -1    0    0    0  501 -0.00000000000E+00 -0.00000000000E+00 -0.59588988999E+02  0.59588988999E+02  0.00000000000E+00 0.  1.
         25    2    1    2    0    0 -0.12604726801E+03 -0.15175155912E+03  0.46947999308E+03  0.52438038032E+03  0.12508744900E+03 0.  0.
          5    1    3    3  502    0 -0.14099446509E+03 -0.94201683109E+02  0.29874212390E+03  0.34353707992E+03  0.41800000000E+01 0. -1.
         -5    1    3    3    0  502  0.14947197079E+02 -0.57549876010E+02  0.17073786918E+03  0.18084330040E+03  0.41800000000E+01 0. -1.
        -11    1    1    2    0    0  0.80923988913E+02  0.15112724484E+03  0.25054909481E+03  0.30358357173E+03  0.00000000000E+00 0.  1.
         11    1    1    2    0    0  0.45123279097E+02  0.62431428120E+00  0.84944994056E+02  0.96188107893E+02  0.00000000000E+00 0. -1.
</event>
<event>
 7    1  0.2594791E-009  0.7532023E+02  0.7561462E-02  0.1342882E+00
         -1   -1    0    0    0  501 -0.00000000000E+00  0.00000000000E+00  0.14183841467E+02  0.14183841467E+02  0.00000000000E+00 0.  1.
          1   -1    0    0  501    0  0.00000000000E+00 -0.00000000000E+00 -0.99316455118E+03  0.99316455118E+03  0.00000000000E+00 0. -1.
         25    2    1    2    0    0  0.68379388799E+01  0.27222762695E+02 -0.72512220254E+03  0.73636760990E+03  0.12508881672E+03 0.  0.
          5    1    3    3  502    0 -0.18230555986E+02  0.29518520550E+02 -0.69891852394E+03  0.69979159164E+03  0.41800000000E+01 0.  1.
         -5    1    3    3    0  502  0.25068494866E+02 -0.22957578547E+01 -0.26203678601E+02  0.36576018252E+02  0.41800000000E+01 0.  1.
        -11    1    1    2    0    0 -0.72115354756E+01  0.31063545932E+02 -0.53177906180E+02  0.62006772497E+02  0.00000000000E+00 0. -1.
         11    1    1    2    0    0  0.37359659567E+00 -0.58286308628E+02 -0.20068060099E+03  0.20897401025E+03  0.00000000000E+00 0.  1.
</event>
<event>
 7    1  0.2594791E-009  0.1538309E+03  0.7561462E-02  0.1195843E+00
          2   -1    0    0  501    0  0.00000000000E+00  0.00000000000E+00  0.23765891057E+03  0.23765891057E+03  0.00000000000E+00 0. -1.
         -2   -1    0    0    0  501 -0.00000000000E+00 -0.00000000000E+00 -0.11275804390E+03  0.11275804390E+03  0.00000000000E+00 0.  1.
         25    2    1    2    0    0  0.10215844188E+03 -0.63701102306E+02  0.41220352721E+02  0.17843952467E+03  0.12508944321E+03 0.  0.
          5    1    3    3  502    0  0.23788898047E+02  0.31218277197E+02  0.38660966243E+02  0.55250658026E+02  0.41800000000E+01 0.  1.
         -5    1    3    3    0  502  0.78369543833E+02 -0.94919379503E+02  0.25593864783E+01  0.12318886664E+03  0.41800000000E+01 0.  1.
        -11    1    1    2    0    0 -0.94831025597E+02  0.81968322832E+02  0.54274081098E+02  0.13659211267E+03  0.00000000000E+00 0.  1.
         11    1    1    2    0    0 -0.73274162829E+01 -0.18267220526E+02  0.29406432850E+02  0.35385317126E+02  0.00000000000E+00 0. -1.
</event>
<event>
 7    1  0.2594791E-009  0.1006427E+03  0.7561462E-02  0.1278950E+00
         -1   -1    0    0    0  501 -0.00000000000E+00  0.00000000000E+00  0.35373565454E+02  0.35373565454E+02  0.00000000000E+00 0.  1.
          1   -1    0    0  501    0  0.00000000000E+00 -0.00000000000E+00 -0.38399526722E+03  0.38399526722E+03  0.00000000000E+00 0. -1.
         25    2    1    2    0    0 -0.42843845190E+02  0.17181830402E+02 -0.17647608797E+03  0.22118117130E+03  0.12508593266E+03 0.  0.
          5    1    3    3  502    0 -0.38912216851E+02  0.53941307967E+02 -0.17106131681E+03  0.18358450870E+03  0.41800000000E+01 0.  1.
         -5    1    3    3    0  502 -0.39316283386E+01 -0.36759477565E+02 -0.54147711555E+01  0.37596662603E+02  0.41800000000E+01 0.  1.
        -11    1    1    2    0    0  0.42178715934E+02 -0.49545257936E+02 -0.10284869259E+03  0.12170304117E+03  0.00000000000E+00 0.  1.
         11    1    1    2    0    0  0.66512925639E+00  0.32363427535E+02 -0.69296921207E+02  0.76484620203E+02  0.00000000000E+00 0. -1.
</event>
<event>
 7    1  0.2594791E-009  0.1537309E+03  0.7561462E-02  0.1195962E+00
         -2   -1    0    0    0  501 -0.00000000000E+00  0.00000000000E+00  0.17646782881E+02  0.17646782881E+02  0.00000000000E+00 0.  1.
          2   -1    0    0  501    0  0.00000000000E+00 -0.00000000000E+00 -0.15086763070E+04  0.15086763070E+04  0.00000000000E+00 0. -1.
         25    2    1    2    0    0  0.11700151980E+03 -0.33379017412E+02 -0.83974068263E+03  0.85768014959E+03  0.12508921014E+03 0.  0.
          5    1    3    3  502    0  0.13613849727E+03 -0.37779871476E+02 -0.57265048219E+03  0.58983646571E+03  0.41800000000E+01 0.  1.
         -5    1    3    3    0  502 -0.19136977463E+02  0.44008540638E+01 -0.26709020044E+03  0.26784368388E+03  0.41800000000E+01 0.  1.
        -11    1    1    2    0    0 -0.57829295449E+02  0.58042320939E+02 -0.27550519823E+03  0.28743043103E+03  0.00000000000E+00 0.  1.
         11    1    1    2    0    0 -0.59172224356E+02 -0.24663303527E+02 -0.37578364326E+03  0.38121250926E+03  0.00000000000E+00 0. -1.
</event>
<event>
 7    1  0.2594791E-009  0.1080121E+03  0.7561462E-02  0.1264296E+00
         -2   -1    0    0    0  501 -0.00000000000E+00  0.00000000000E+00  0.56551851595E+02  0.56551851595E+02  0.00000000000E+00 0.  1.
          2   -1    0    0  501    0  0.00000000000E+00 -0.00000000000E+00 -0.28767041096E+03  0.28767041096E+03  0.00000000000E+00 0. -1.
         25    2    1    2    0    0  0.43587698925E+02  0.66355162229E+01 -0.20538973709E+03  0.24448783561E+03  0.12508173361E+03 0.  0.
          5    1    3    3  502    0  0.22281608816E+02 -0.54365051918E+02 -0.14263098024E+03  0.15431493085E+03  0.41800000000E+01 0. -1.
         -5    1    3    3    0  502  0.21306090109E+02  0.61000568141E+02 -0.62758756859E+02  0.90172904754E+02  0.41800000000E+01 0. -1.
        -11    1    1    2    0    0  0.22668172383E+02  0.88437503718E+01  0.53800381826E+01  0.24919927180E+02  0.00000000000E+00 0.  1.
         11    1    1    2    0    0 -0.66255871307E+02 -0.15479266595E+02 -0.31108860455E+02  0.74814499770E+02  0.00000000000E+00 0. -1.
</event>
<event>
 7    1  0.2594791E-009  0.1079386E+03  0.7561462E-02  0.1264436E+00
          2   -1    0    0  501    0  0.00000000000E+00  0.00000000000E+00  0.59507522677E+03  0.59507522677E+03  0.00000000000E+00 0. -1.
         -2   -1    0    0    0  501 -0.00000000000E+00 -0.00000000000E+00 -0.27675261191E+02  0.27675261191E+02  0.00000000000E+00 0.  1.
         25    2    1    2    0    0  0.56324583074E+02  0.27197518817E+02  0.38916539812E+03  0.41351861176E+03  0.12504307853E+03 0.  0.
          5    1    3    3  502    0 -0.28352607791E+02  0.27047940911E+02  0.22833531795E+03  0.23171092183E+03  0.41800000000E+01 0.  1.
         -5    1    3    3    0  502  0.84677190865E+02  0.14957790580E+00  0.16083008018E+03  0.18180768993E+03  0.41800000000E+01 0.  1.
        -11    1    1    2    0    0 -0.59750112753E+02  0.43952546364E+01  0.52874819697E+02  0.79907076003E+02  0.00000000000E+00 0.  1.
         11    1    1    2    0    0  0.34255296788E+01 -0.31592773453E+02  0.12535974776E+03  0.12932480019E+03  0.00000000000E+00 0. -1.
</event>
<event>
 7    1  0.2594791E-009  0.6681871E+02  0.7561462E-02  0.1371258E+00
         -3   -1    0    0    0  501 -0.00000000000E+00  0.00000000000E+00  0.12661611166E+03  0.12661611166E+03  0.00000000000E+00 0.  1.
          3   -1    0    0  501    0  0.00000000000E+00 -0.00000000000E+00 -0.99637980356E+02  0.99637980356E+02  0.00000000000E+00 0. -1.
         25    2    1    2    0    0 -0.14574426714E+01 -0.30237375520E+02  0.16145030679E+02  0.12970963821E+03  0.12508998846E+03 0.  0.
          5    1    3    3  502    0  0.92962396040E+01  0.17672391499E+02 -0.46044856503E+02  0.50362036322E+02  0.41800000000E+01 0.  1.
         -5    1    3    3    0  502 -0.10753682275E+02 -0.47909767019E+02  0.62189887182E+02  0.79347601892E+02  0.41800000000E+01 0.  1.
        -11    1    1    2    0    0  0.26681362342E+02  0.27932366007E+02 -0.29715307890E+02  0.48735117628E+02  0.00000000000E+00 0. -1.
         11    1    1    2    0    0 -0.25223919670E+02  0.23050095123E+01  0.40548408519E+02  0.47809336178E+02  0.00000000000E+00 0.  1.
</event>
<event>
 7    1  0.2594791E-009  0.8878336E+02  0.7561462E-02  0.1305825E+00
         -2   -1    0    0    0  501 -0.00000000000E+00  0.00000000000E+00  0.84309703750E+02  0.84309703750E+02  0.00000000000E+00 0. -1.
          2   -1    0    0  501    0  0.00000000000E+00 -0.00000000000E+00 -0.17071572924E+03  0.17071572924E+03  0.00000000000E+00 0.  1.
         25    2    1    2    0    0 -0.90470327122E+01  0.10149485836E+02  0.44771481640E+01  0.12590562417E+03  0.12508925005E+03 0.  0.
          5    1    3    3  502    0 -0.57067794073E+02 -0.13657163695E+02  0.30403202526E+02  0.66219924225E+02  0.41800000000E+01 0.  1.
         -5    1    3    3    0  502  0.48020761360E+02  0.23806649530E+02 -0.25926054362E+02  0.59685699948E+02  0.41800000000E+01 0.  1.
        -11    1    1    2    0    0  0.27130705865E+02 -0.28406420587E+02 -0.95270666814E+02  0.10305095772E+03  0.00000000000E+00 0.  1.
         11    1    1    2    0    0 -0.18083673153E+02  0.18256934751E+02  0.43874931643E+01  0.26068851096E+02  0.00000000000E+00 0. -1.
</event>
<event>
 7    1  0.2594791E-009  0.6188987E+02  0.7561462E-02  0.1390068E+00
         -3   -1    0    0    0  501 -0.00000000000E+00  0.00000000000E+00  0.42153525673E+03  0.42153525673E+03  0.00000000000E+00 0.  1.
          3   -1    0    0  501    0  0.00000000000E+00 -0.00000000000E+00 -0.28315990051E+02  0.28315990051E+02  0.00000000000E+00 0. -1.
         25    2    1    2    0    0 -0.38772301505E+01 -0.22954705167E+01  0.25541043014E+03  0.28443109604E+03  0.12508500498E+03 0.  0.
          5    1    3    3  502    0 -0.38852077306E+02 -0.82534967604E+01  0.24353021031E+03  0.24678338650E+03  0.41800000000E+01 0. -1.
         -5    1    3    3    0  502  0.34974847155E+02  0.59580262437E+01  0.11880219831E+02  0.37647709538E+02  0.41800000000E+01 0. -1.
        -11    1    1    2    0    0  0.23959659924E-01  0.25044331208E+02  0.14001947467E+03  0.14224159865E+03  0.00000000000E+00 0.  1.
         11    1    1    2    0    0  0.38532704906E+01 -0.22748860691E+02 -0.22106381289E+01  0.23178552094E+02  0.00000000000E+00 0. -1.
</event>
<event>
 7    1  0.2612150E-009  0.1355351E+03  0.7561462E-02  0.1219466E+00
         -2   -1    0    0    0  501 -0.00000000000E+00  0.00000000000E+00  0.14202110156E+03  0.14202110156E+03  0.00000000000E+00 0.  1.
          2   -1    0    0  501    0  0.00000000000E+00 -0.00000000000E+00 -0.19676788136E+03  0.19676788136E+03  0.00000000000E+00 0. -1.
         25    2    1    2    0    0 -0.68491832575E+02 -0.89502069847E+02  0.29967993973E+02  0.17101772507E+03  0.12508888835E+03 0.  0.
          5    1    3    3  502    0 -0.37088941572E+02  0.16909206902E+02 -0.24087560660E+02  0.47530977725E+02  0.41800000000E+01 0.  1.
         -5    1    3    3    0  502 -0.31402891003E+02 -0.10641127675E+03  0.54055554633E+02  0.12348674734E+03  0.41800000000E+01 0.  1.
        -11    1    1    2    0    0  0.26737963874E+02  0.65870644638E+02 -0.78323583923E+00  0.71094823971E+02  0.00000000000E+00 0.  1.
         11    1    1    2    0    0  0.41753868701E+02  0.23631425209E+02 -0.83931537926E+02  0.96676433879E+02  0.00000000000E+00 0. -1.
</event>
<event>
 7    1  0.2594791E-009  0.1103493E+03  0.7561462E-02  0.1259924E+00
          2   -1    0    0  501    0  0.00000000000E+00  0.00000000000E+00  0.17331821578E+02  0.17331821578E+02  0.00000000000E+00 0. -1.
         -2   -1    0    0    0  501 -0.00000000000E+00 -0.00000000000E+00 -0.85812169814E+03  0.85812169814E+03  0.00000000000E+00 0.  1.
         25    2    1    2    0    0  0.44974420554E+02 -0.23460328159E+02 -0.55761311643E+03  0.57371913347E+03  0.12509264962E+03 0.  0.
          5    1    3    3  502    0  0.69311132902E+02  0.19185462601E+02 -0.19707502601E+03  0.20982886693E+03  0.41800000000E+01 0. -1.
         -5    1    3    3    0  502 -0.24336712348E+02 -0.42645790760E+02 -0.36053809042E+03  0.36389026654E+03  0.41800000000E+01 0. -1.
        -11    1    1    2    0    0 -0.24312189017E+02 -0.32004973066E+02 -0.16148792871E+03  0.16641439828E+03  0.00000000000E+00 0.  1.
         11    1    1    2    0    0 -0.20662231537E+02  0.55465301225E+02 -0.12168883143E+03  0.13531998798E+03  0.00000000000E+00 0. -1.
</event>
<event>
 7    1  0.2594791E-009  0.5349165E+02  0.7561462E-02  0.1427370E+00
          1   -1    0    0  501    0  0.00000000000E+00  0.00000000000E+00  0.18973256484E+03  0.18973256484E+03  0.00000000000E+00 0. -1.
         -1   -1    0    0    0  501 -0.00000000000E+00 -0.00000000000E+00 -0.70276172115E+02  0.70276172115E+02  0.00000000000E+00 0.  1.
         25    2    1    2    0    0  0.96294703512E+01  0.25741859627E+01  0.24669855520E+02  0.12789203185E+03  0.12509363256E+03 0.  0.
          5    1    3    3  502    0 -0.11835324030E+02 -0.60333509928E+01 -0.48803515799E+02  0.50751667691E+02  0.41800000000E+01 0.  1.
         -5    1    3    3    0  502  0.21464794381E+02  0.86075369555E+01  0.73473371319E+02  0.77140364163E+02  0.41800000000E+01 0.  1.
        -11    1    1    2    0    0  0.29243171297E+02  0.57466925225E+01  0.51581551790E+00  0.29806938925E+02  0.00000000000E+00 0.  1.
         11    1    1    2    0    0 -0.38872641648E+02 -0.83208784852E+01  0.94270721688E+02  0.10230976618E+03  0.00000000000E+00 0. -1.
</event>
<event>
 7    1  0.2594791E-009  0.1033137E+03  0.7561462E-02  0.1273478E+00
          1   -1    0    0  501    0  0.00000000000E+00  0.00000000000E+00  0.29876702159E+02  0.29876702159E+02  0.00000000000E+00 0. -1.
         -1   -1    0    0    0  501 -0.00000000000E+00 -0.00000000000E+00 -0.44068718294E+03  0.44068718294E+03  0.00000000000E+00 0.  1.
         25    2    1    2    0    0 -0.35421505416E+02 -0.20857188100E+02 -0.29752427739E+03  0.32535770054E+03  0.12508889768E+03 0.  0.
          5    1    3    3  502    0 -0.65370565566E+02 -0.50777132417E+02 -0.23931985656E+03  0.25326486958E+03  0.41800000000E+01 0. -1.
         -5    1    3    3    0  502  0.29949060150E+02  0.29919944317E+02 -0.58204420826E+02  0.72092830958E+02  0.41800000000E+01 0. -1.
        -11    1    1    2    0    0  0.56331159476E+02  0.86384761122E+01 -0.10525176401E+03  0.11969025284E+03  0.00000000000E+00 0.  1.
         11    1    1    2    0    0 -0.20909654060E+02  0.12218711988E+02 -0.80344393872E+01  0.25515931725E+02  0.00000000000E+00 0. -1.
</event>
<event>
 7    1  0.2594791E-009  0.6592829E+02  0.7561462E-02  0.1374513E+00
         -2   -1    0    0    0  501 -0.00000000000E+00  0.00000000000E+00  0.16750909950E+02  0.16750909950E+02  0.00000000000E+00 0. -1.
          2   -1    0    0  501    0  0.00000000000E+00 -0.00000000000E+00 -0.82602815619E+03  0.82602815619E+03  0.00000000000E+00 0.  1.
         25    2    1    2    0    0  0.28478029227E+02  0.33965020609E+02 -0.53096372360E+03  0.54729750601E+03  0.12508982185E+03 0.  0.
          5    1    3    3  502    0  0.75812374752E+01  0.40329424896E+00  0.49034478409E+01  0.99576105887E+01  0.41800000000E+01 0.  1.
         -5    1    3    3    0  502  0.20896791751E+02  0.33561726360E+02 -0.53586717144E+03  0.53733989542E+03  0.41800000000E+01 0.  1.
        -11    1    1    2    0    0 -0.50556553246E+02 -0.11322515976E+02 -0.24129174459E+03  0.24679114743E+03  0.00000000000E+00 0.  1.
         11    1    1    2    0    0  0.22078524020E+02 -0.22642504633E+02 -0.37021778057E+02  0.48690412706E+02  0.00000000000E+00 0. -1.
</event>
<event>
 7    1  0.2594791E-009  0.1287354E+03  0.7561462E-02  0.1229344E+00
         -3   -1    0    0    0  501 -0.00000000000E+00  0.00000000000E+00  0.57056490986E+02  0.57056490986E+02  0.00000000000E+00 0.  1.
          3   -1    0    0  501    0  0.00000000000E+00 -0.00000000000E+00 -0.35170805735E+03  0.35170805735E+03  0.00000000000E+00 0. -1.
         25    2    1    2    0    0 -0.64730125922E+02  0.55238638513E+02 -0.18800821808E+03  0.24132512934E+03  0.12509768822E+03 0.  0.
          5    1    3    3  502    0 -0.88028324440E+02  0.75317015555E+02 -0.16896349058E+03  0.20490918058E+03  0.41800000000E+01 0.  1.
         -5    1    3    3    0  502  0.23298198518E+02 -0.20078377041E+02 -0.19044727503E+02  0.36415948765E+02  0.41800000000E+01 0.  1.
        -11    1    1    2    0    0 -0.27524597625E+01  0.13735986857E+02 -0.57439430813E+02  0.59123105313E+02  0.00000000000E+00 0. -1.
         11    1    1    2    0    0  0.67482585684E+02 -0.68974625370E+02 -0.49203917472E+02  0.10831631368E+03  0.00000000000E+00 0.  1.
</event>
<event>
 7    1  0.2594791E-009  0.1183478E+03  0.7561462E-02  0.1245848E+00
          2   -1    0    0  501    0  0.00000000000E+00  0.00000000000E+00  0.36948193570E+02  0.36948193570E+02  0.00000000000E+00 0. -1.
         -2   -1    0    0    0  501 -0.00000000000E+00 -0.00000000000E+00 -0.42761197285E+03  0.42761197285E+03  0.00000000000E+00 0.  1.
         25    2    1    2    0    0  0.33097987302E+02  0.51454764266E+02 -0.24864810007E+03  0.28498533065E+03  0.12509073302E+03 0.  0.
          5    1    3    3  502    0  0.51966563671E+02 -0.18601531526E+02 -0.16571906928E+03  0.17471926922E+03  0.41800000000E+01 0.  1.
         -5    1    3    3    0  502 -0.18868576369E+02  0.70056295791E+02 -0.82929030794E+02  0.11026606143E+03  0.41800000000E+01 0.  1.
        -11    1    1    2    0    0 -0.63764037738E+02 -0.26178641439E+02 -0.76719498487E+02  0.10313610049E+03  0.00000000000E+00 0. -1.
         11    1    1    2    0    0  0.30666050436E+02 -0.25276122827E+02 -0.65296180717E+02  0.76438735277E+02  0.00000000000E+00 0.  1.
</event>
<event>
 7    1  0.2594791E-009  0.1095389E+03  0.7561462E-02  0.1261426E+00
          2   -1    0    0  501    0  0.00000000000E+00  0.00000000000E+00  0.71202532812E+03  0.71202532812E+03  0.00000000000E+00 0. -1.
         -2   -1    0    0    0  501 -0.00000000000E+00 -0.00000000000E+00 -0.33854422217E+02  0.33854422217E+02  0.00000000000E+00 0.  1.
         25    2    1    2    0    0 -0.22922476077E+02 -0.67223447260E+02  0.57885624591E+03  0.59646108865E+03  0.12508734980E+03 0.  0.
          5    1    3    3  502    0 -0.60884426723E+01  0.21917031644E+02  0.34217733347E+03  0.34295805188E+03  0.41800000000E+01 0.  1.
         -5    1    3    3    0  502 -0.16834033405E+02 -0.89140478903E+02  0.23667891244E+03  0.25350303677E+03  0.41800000000E+01 0.  1.
        -11    1    1    2    0    0  0.50221082145E+02  0.28454529675E+02  0.28964964987E+02  0.64581627012E+02  0.00000000000E+00 0.  1.
         11    1    1    2    0    0 -0.27298606068E+02  0.38768917585E+02  0.70349695011E+02  0.84837034673E+02  0.00000000000E+00 0. -1.
</event>
<event>
 7    1  0.2594791E-009  0.1028584E+03  0.7561462E-02  0.1274397E+00
         -2   -1    0    0    0  501 -0.00000000000E+00  0.00000000000E+00  0.45286858987E+02  0.45286858987E+02  0.00000000000E+00 0. -1.
          2   -1    0    0  501    0  0.00000000000E+00 -0.00000000000E+00 -0.27026437309E+03  0.27026437309E+03  0.00000000000E+00 0.  1.
         25    2    1    2    0    0  0.10369906896E+02 -0.76923270246E+01 -0.10025387343E+03  0.16081600667E+03  0.12507694432E+03 0.  0.
          5    1    3    3  502    0  0.76094500218E+00  0.56918416956E+02 -0.64884232038E+02  0.86415977650E+02  0.41800000000E+01 0.  1.
         -5    1    3    3    0  502  0.96089618933E+01 -0.64610743981E+02 -0.35369641389E+02  0.74400029021E+02  0.41800000000E+01 0.  1.
        -11    1    1    2    0    0  0.28523325981E+02 -0.20519458869E+02 -0.22339567885E+02  0.41637538479E+02  0.00000000000E+00 0.  1.
         11    1    1    2    0    0 -0.38893232877E+02  0.28211785894E+02 -0.10238407279E+03  0.11309768693E+03  0.00000000000E+00 0. -1.
</event>
<event>
 7    1  0.2594791E-009  0.1200794E+03  0.7561462E-02  0.1242966E+00
          2   -1    0    0  501    0  0.00000000000E+00  0.00000000000E+00  0.64895284665E+03  0.64895284665E+03  0.00000000000E+00 0. -1.
         -2   -1    0    0    0  501 -0.00000000000E+00 -0.00000000000E+00 -0.27204927936E+02  0.27204927936E+02  0.00000000000E+00 0.  1.
         25    2    1    2    0    0 -0.69698049664E+02 -0.55449191062E+01  0.43012292740E+03  0.45336547769E+03  0.12508380962E+03 0.  0.
          5    1    3    3  502    0  0.31828878469E+02  0.78932793358E+01  0.18077594991E+03  0.18377376807E+03  0.41800000000E+01 0. -1.
         -5    1    3    3    0  502 -0.10152692813E+03 -0.13438198442E+02  0.24934697749E+03  0.26959170962E+03  0.41800000000E+01 0. -1.
        -11    1    1    2    0    0  0.75877704908E+02  0.28330558465E+02  0.10274582580E+03  0.13083100307E+03  0.00000000000E+00 0.  1.
         11    1    1    2    0    0 -0.61796552438E+01 -0.22785639359E+02  0.88879165520E+02  0.91961293833E+02  0.00000000000E+00 0. -1.
</event>
<event>
 7    1  0.2594791E-009  0.1071157E+03  0.7561462E-02  0.1266006E+00
         -1   -1    0    0    0  501 -0.00000000000E+00  0.00000000000E+00  0.31775162695E+02  0.31775162695E+02  0.00000000000E+00 0.  1.
          1   -1    0    0  501    0  0.00000000000E+00 -0.00000000000E+00 -0.38480834581E+03  0.38480834581E+03  0.00000000000E+00 0. -1.
         25    2    1    2    0    0 -0.29368009571E+02 -0.60136972104E+01 -0.21433488624E+03  0.24997042911E+03  0.12508847840E+03 0.  0.
          5    1    3    3  502    0  0.38299183828E+02  0.26936753147E+02 -0.12219143206E+03  0.13092224647E+03  0.41800000000E+01 0. -1.
         -5    1    3    3    0  502 -0.67667193399E+02 -0.32950450357E+02 -0.92143454177E+02  0.11904818264E+03  0.41800000000E+01 0. -1.
        -11    1    1    2    0    0  0.45287610752E+02  0.36026218233E+02 -0.95366893051E+02  0.11155133517E+03  0.00000000000E+00 0.  1.
         11    1    1    2    0    0 -0.15919601181E+02 -0.30012521023E+02 -0.43331403825E+02  0.55061744227E+02  0.00000000000E+00 0. -1.
</event>
<event>
 7    1  0.2594791E-009  0.1254158E+03  0.7561462E-02  0.1234421E+00
         -1   -1    0    0    0  501 -0.00000000000E+00  0.00000000000E+00  0.34161775283E+02  0.34161775283E+02  0.00000000000E+00 0.  1.
          1   -1    0    0  501    0  0.00000000000E+00 -0.00000000000E+00 -0.51462113550E+03  0.51462113550E+03  0.00000000000E+00 0. -1.
         25    2    1    2    0    0  0.68191427367E+02  0.29911899934E+02 -0.29108879097E+03  0.32546464956E+03  0.12509900623E+03 0.  0.
          5    1    3    3  502    0  0.97342816083E+02 -0.35398875238E+01 -0.23030880315E+03  0.25009552546E+03  0.41800000000E+01 0.  1.
         -5    1    3    3    0  502 -0.29151388716E+02  0.33451787458E+02 -0.60779987823E+02  0.75369124103E+02  0.41800000000E+01 0.  1.
        -11    1    1    2    0    0 -0.24625306684E+02 -0.53737775147E+02 -0.14553714587E+03  0.15708346518E+03  0.00000000000E+00 0.  1.
         11    1    1    2    0    0 -0.43566120683E+02  0.23825875212E+02 -0.43833423378E+02  0.66234796036E+02  0.00000000000E+00 0. -1.
</event>
<event>
 7    1  0.2594791E-009  0.1018372E+03  0.7561462E-02  0.1276479E+00
         -2   -1    0    0    0  501 -0.00000000000E+00  0.00000000000E+00  0.29422456789E+02  0.29422456789E+02  0.00000000000E+00 0.  1.
          2   -1    0    0  501    0  0.00000000000E+00 -0.00000000000E+00 -0.55956280708E+03  0.55956280708E+03  0.00000000000E+00 0. -1.
         25    2    1    2    0    0 -0.12697223806E+02 -0.57910300016E+02 -0.23017199275E+03  0.26859160508E+03  0.12508989461E+03 0.  0.
          5    1    3    3  502    0 -0.36754722291E+02 -0.55341749756E+02 -0.23440780835E+03  0.24367624401E+03  0.41800000000E+01 0. -1.
         -5    1    3    3    0  502  0.24057498485E+02 -0.25685502593E+01  0.42358155986E+01  0.24915361077E+02  0.41800000000E+01 0. -1.
        -11    1    1    2    0    0  0.11371781615E+01  0.84006050845E+02 -0.22579746004E+03  0.24092073949E+03  0.00000000000E+00 0. -1.
         11    1    1    2    0    0  0.11560045644E+02 -0.26095750829E+02 -0.74170897496E+02  0.79472919300E+02  0.00000000000E+00 0.  1.
</event>
<event>
 7    1  0.2594791E-009  0.1399176E+03  0.7561462E-02  0.1213440E+00
          3   -1    0    0  501    0  0.00000000000E+00  0.00000000000E+00  0.15875697912E+02  0.15875697912E+02  0.00000000000E+00 0.  1.
         -3   -1    0    0    0  501 -0.00000000000E+00 -0.00000000000E+00 -0.12904802523E+04  0.12904802523E+04  0.00000000000E+00 0. -1.
         25    2    1    2    0    0 -0.64935548863E+02  0.66138048620E+02 -0.74383855560E+03  0.75995323327E+03  0.12506899293E+03 0.  0.
          5    1    3    3  502    0  0.32582532059E+02  0.39077670036E+02 -0.32845029563E+03  0.33239397526E+03  0.41800000000E+01 0.  1.
         -5    1    3    3    0  502 -0.97518080922E+02  0.27060378584E+02 -0.41538825997E+03  0.42755925802E+03  0.41800000000E+01 0.  1.
        -11    1    1    2    0    0  0.27969347627E+02 -0.82468755436E+02 -0.31149021923E+03  0.32343397581E+03  0.00000000000E+00 0. -1.
         11    1    1    2    0    0  0.36966201235E+02  0.16330706816E+02 -0.21927577957E+03  0.22296874114E+03  0.00000000000E+00 0.  1.
</event>
<event>
 7    1  0.2594791E-009  0.2548226E+03  0.7561462E-02  0.1110294E+00
         -1   -1    0    0    0  501 -0.00000000000E+00  0.00000000000E+00  0.19635913569E+03  0.19635913569E+03  0.00000000000E+00 0.  1.
          1   -1    0    0  501    0  0.00000000000E+00 -0.00000000000E+00 -0.39665237018E+03  0.39665237018E+03  0.00000000000E+00 0. -1.
         25    2    1    2    0    0 -0.16482783832E+03 -0.17243185535E+03 -0.20266306098E+03  0.33707540902E+03  0.12508618650E+03 0.  0.
          5    1    3    3  502    0 -0.49796596159E+02  0.12502069505E+02 -0.38051284774E+02  0.64041981574E+02  0.41800000000E+01 0. -1.
         -5    1    3    3    0  502 -0.11503124216E+03 -0.18493392486E+03 -0.16461177620E+03  0.27303342744E+03  0.41800000000E+01 0. -1.
        -11    1    1    2    0    0  0.41422080657E+02  0.62812480201E+02  0.42019327598E+02  0.86179001658E+02  0.00000000000E+00 0.  1.
         11    1    1    2    0    0  0.12340575766E+03  0.10961937515E+03 -0.39649501115E+02  0.16975709520E+03  0.00000000000E+00 0. -1.
</event>
<event>
 7    1  0.2868577E-009  0.1282596E+03  0.7561462E-02  0.1230061E+00
         -1   -1    0    0    0  501 -0.00000000000E+00  0.00000000000E+00  0.71137536986E+02  0.71137536986E+02  0.00000000000E+00 0.  1.
          1   -1    0    0  501    0  0.00000000000E+00 -0.00000000000E+00 -0.39680900598E+03  0.39680900598E+03  0.00000000000E+00 0. -1.
         25    2    1    2    0    0 -0.11828496570E+03  0.29491125353E+02 -0.22860144669E+03  0.28769342031E+03  0.12509125898E+03 0.  0.
          5    1    3    3  502    0 -0.89562217489E+01  0.90118992885E+01  0.14860442031E+02  0.19993333243E+02  0.41800000000E+01 0. -1.
         -5    1    3    3    0  502 -0.10932874396E+03  0.20479226064E+02 -0.24346188872E+03  0.26770008707E+03  0.41800000000E+01 0. -1.
        -11    1    1    2    0    0  0.55132407195E+02 -0.39597641532E+02 -0.94361557708E+02  0.11623966238E+03  0.00000000000E+00 0. -1.
         11    1    1    2    0    0  0.63152558509E+02  0.10106516179E+02 -0.27084645928E+01  0.64013460272E+02  0.00000000000E+00 0.  1.
</event>
<event>
 7    1  0.2594791E-009  0.9938454E+02  0.7561462E-02  0.1281596E+00
         -2   -1    0    0    0  501 -0.00000000000E+00  0.00000000000E+00  0.15672450599E+02  0.15672450599E+02  0.00000000000E+00 0.  1.
          2   -1    0    0  501    0  0.00000000000E+00 -0.00000000000E+00 -0.98665315545E+03  0.98665315545E+03  0.00000000000E+00 0. -1.
         25    2    1    2    0    0  0.47558379440E+02  0.29711020006E+02 -0.62451956201E+03  0.63938795432E+03  0.12509088148E+03 0.  0.
          5    1    3    3  502    0  0.64662862564E+02  0.11442488311E+02 -0.60162575486E+03  0.60521338192E+03  0.41800000000E+01 0.  1.
         -5    1    3    3    0  502 -0.17104483124E+02  0.18268531695E+02 -0.22893807145E+02  0.34174572401E+02  0.41800000000E+01 0.  1.
        -11    1    1    2    0    0 -0.47363560853E+02  0.24540827860E+02 -0.15405696084E+03  0.16303099801E+03  0.00000000000E+00 0.  1.
         11    1    1    2    0    0 -0.19481858758E+00 -0.54251847866E+02 -0.19240418200E+03  0.19990665372E+03  0.00000000000E+00 0. -1.
</event>
<event>
 7    1  0.2594791E-009  0.7323913E+02  0.7561462E-02  0.1349412E+00
          1   -1    0    0  501    0  0.00000000000E+00  0.00000000000E+00  0.23862822669E+03  0.23862822669E+03  0.00000000000E+00 0. -1.
         -1   -1    0    0    0  501 -0.00000000000E+00 -0.00000000000E+00 -0.64450311205E+02  0.64450311205E+02  0.00000000000E+00 0.  1.
         25    2    1    2    0    0 -0.19993275917E+02 -0.38056809644E+02  0.50540610558E+02  0.14159606964E+03  0.12508813605E+03 0.  0.
          5    1    3    3  502    0 -0.12730854300E+02 -0.22335025157E+02 -0.40870873299E+02  0.48464715868E+02  0.41800000000E+01 0. -1.
         -5    1    3    3    0  502 -0.72624216163E+01 -0.15721784488E+02  0.91411483856E+02  0.93131353775E+02  0.41800000000E+01 0. -1.
        -11    1    1    2    0    0  0.52074787148E+02  0.46093168787E+02  0.71519730715E+02  0.99756882203E+02  0.00000000000E+00 0.  1.
         11    1    1    2    0    0 -0.32081511231E+02 -0.80363591434E+01  0.52117574214E+02  0.61725586049E+02  0.00000000000E+00 0. -1.
</event>
<event>
 7    1  0.2594791E-009  0.2434960E+03  0.7561462E-02  0.1117486E+00
          1   -1    0    0  501    0  0.00000000000E+00  0.00000000000E+00  0.19310301395E+04  0.19310301395E+04  0.00000000000E+00 0. -1.
         -1   -1    0    0    0  501 -0.00000000000E+00 -0.00000000000E+00 -0.39958155124E+02  0.39958155124E+02  0.00000000000E+00 0.  1.
         25    2    1    2    0    0 -0.19850228700E+03  0.78798576231E+02  0.13060508082E+04  0.13292956614E+04  0.12508344523E+03 0.  0.
          5    1    3    3  502    0 -0.13772889219E+03  0.88970891471E+02  0.65118453659E+03  0.67152352183E+03  0.41800000000E+01 0.  1.
         -5    1    3    3    0  502 -0.60773394812E+02 -0.10172315241E+02  0.65486627156E+03  0.65777213953E+03  0.41800000000E+01 0.  1.
        -11    1    1    2    0    0  0.19819836551E+03 -0.16469038670E+02  0.47995060387E+03  0.51952517118E+03  0.00000000000E+00 0.  1.
         11    1    1    2    0    0  0.30392148885E+00 -0.62329537561E+02  0.10507057239E+03  0.12216746213E+03  0.00000000000E+00 0. -1.
</event>
<event>
 7    1  0.2594791E-009  0.9325579E+02  0.7561462E-02  0.1295154E+00
         -1   -1    0    0    0  501 -0.00000000000E+00  0.00000000000E+00  0.79509485262E+02  0.79509485262E+02  0.00000000000E+00 0.  1.
          1   -1    0    0  501    0  0.00000000000E+00 -0.00000000000E+00 -0.17216628609E+03  0.17216628609E+03  0.00000000000E+00 0. -1.
         25    2    1    2    0    0  0.32305142664E+01 -0.13918515136E+02 -0.96254350031E+02  0.15848182683E+03  0.12508968083E+03 0.  0.
          5    1    3    3  502    0  0.10789212012E+02  0.54444569721E+02 -0.54566830765E+02  0.77946325684E+02  0.41800000000E+01 0. -1.
         -5    1    3    3    0  502 -0.75586977460E+01 -0.68363084857E+02 -0.41687519266E+02  0.80535501149E+02  0.41800000000E+01 0. -1.
        -11    1    1    2    0    0  0.28247679203E+02  0.21174939440E+01 -0.33006194303E+02  0.43495103441E+02  0.00000000000E+00 0.  1.
         11    1    1    2    0    0 -0.31478193470E+02  0.11801021192E+02  0.36603743510E+02  0.49698841075E+02  0.00000000000E+00 0. -1.
</event>
<event>
 7    1  0.2594791E-009  0.1716411E+03  0.7561462E-02  0.1176147E+00
          2   -1    0    0  501    0  0.00000000000E+00  0.00000000000E+00  0.13342785660E+04  0.13342785660E+04  0.00000000000E+00 0. -1.
         -2   -1    0    0    0  501 -0.00000000000E+00 -0.00000000000E+00 -0.24830341571E+02  0.24830341571E+02  0.00000000000E+00 0.  1.
         25    2    1    2    0    0 -0.33317388257E+02  0.13651308904E+03  0.83286057421E+03  0.85384307537E+03  0.12508153115E+03 0.  0.
          5    1    3    3  502    0  0.37490964897E+02  0.10229622868E+03  0.50873146899E+03  0.52028383676E+03  0.41800000000E+01 0.  1.
         -5    1    3    3    0  502 -0.70808353154E+02  0.34216860369E+02  0.32412910522E+03  0.33355923861E+03  0.41800000000E+01 0.  1.
        -11    1    1    2    0    0 -0.19634147768E+02 -0.53977324744E+02  0.92703762667E+02  0.10905521059E+03  0.00000000000E+00 0.  1.
         11    1    1    2    0    0  0.52951536024E+02 -0.82535764301E+02  0.38388388758E+03  0.39621062164E+03  0.00000000000E+00 0. -1.
</event>
<event>
 7    1  0.2594791E-009  0.9363843E+02  0.7561462E-02  0.1294272E+00
          1   -1    0    0  501    0  0.00000000000E+00  0.00000000000E+00  0.17390135770E+03  0.17390135770E+03  0.00000000000E+00 0. -1.
         -1   -1    0    0    0  501 -0.00000000000E+00 -0.00000000000E+00 -0.78407921950E+02  0.78407921950E+02  0.00000000000E+00 0.  1.
         25    2    1    2    0    0 -0.92162185906E+00 -0.28174406506E+02  0.16620784063E+02  0.12930514399E+03  0.12509565632E+03 0.  0.
          5    1    3    3  502    0  0.31506222205E+02  0.26631736638E+02  0.43464688602E+02  0.60071149392E+02  0.41800000000E+01 0.  1.
         -5    1    3    3    0  502 -0.32427844064E+02 -0.54806143144E+02 -0.26843904539E+02  0.69233994597E+02  0.41800000000E+01 0.  1.
        -11    1    1    2    0    0  0.34690668185E+02  0.33002395843E+02  0.74573713430E+02  0.88621889650E+02  0.00000000000E+00 0. -1.
         11    1    1    2    0    0 -0.33769046325E+02 -0.48279893361E+01  0.42989382602E+01  0.34382246013E+02  0.00000000000E+00 0.  1.
</event>
<event>
 7    1  0.2594791E-009  0.1865662E+03  0.7561462E-02  0.1161595E+00
          2   -1    0    0  501    0  0.00000000000E+00  0.00000000000E+00  0.10188761520E+04  0.10188761520E+04  0.00000000000E+00 0. -1.
         -2   -1    0    0    0  501 -0.00000000000E+00 -0.00000000000E+00 -0.36068592451E+02  0.36068592451E+02  0.00000000000E+00 0.  1.
         25    2    1    2    0    0 -0.15062003624E+03  0.47797779335E+02  0.55246377810E+03  0.58807668189E+03  0.12508770778E+03 0.  0.
          5    1    3    3  502    0 -0.85045732793E+02 -0.30886851491E+02  0.17646018774E+03  0.19834929927E+03  0.41800000000E+01 0. -1.
         -5    1    3    3    0  502 -0.65574303442E+02  0.78684630825E+02  0.37600359036E+03  0.38972738262E+03  0.41800000000E+01 0. -1.
        -11    1    1    2    0    0  0.77801595633E+02  0.20233693970E+02  0.21654042118E+03  0.23098104827E+03  0.00000000000E+00 0.  1.
         11    1    1    2    0    0  0.72818440603E+02 -0.68031473305E+02  0.21380336026E+03  0.23588701429E+03  0.00000000000E+00 0. -1.
</event>
<event>
 7    1  0.2594791E-009  0.1141591E+03  0.7561462E-02  0.1253056E+00
         -1   -1    0    0    0  501 -0.00000000000E+00  0.00000000000E+00  0.13925428425E+02  0.13925428425E+02  0.00000000000E+00 0.  1.
          1   -1    0    0  501    0  0.00000000000E+00 -0.00000000000E+00 -0.12816616745E+04  0.12816616745E+04  0.00000000000E+00 0. -1.
         25    2    1    2    0    0  0.10798645419E+02 -0.57213395366E+02 -0.94824938627E+03  0.95823505556E+03  0.12509012662E+03 0.  0.
          5    1    3    3  502    0 -0.44525074155E+02 -0.65705083576E+02 -0.64011653649E+03  0.64503200922E+03  0.41800000000E+01 0. -1.
         -5    1    3    3    0  502  0.55323719574E+02  0.84916882101E+01 -0.30813284978E+03  0.31320304633E+03  0.41800000000E+01 0. -1.
        -11    1    1    2    0    0 -0.20422300038E+02 -0.11424856182E+02 -0.22780868778E+02  0.32658316856E+02  0.00000000000E+00 0.  1.
         11    1    1    2    0    0  0.96236546187E+01  0.68638251548E+02 -0.29670599104E+03  0.30469373053E+03  0.00000000000E+00 0. -1.
</event>
<event>
 7    1  0.2594791E-009  0.9718933E+02  0.7561462E-02  0.1286320E+00
         -1   -1    0    0    0  501 -0.00000000000E+00  0.00000000000E+00  0.62842982431E+02  0.62842982431E+02  0.00000000000E+00 0.  1.
          1   -1    0    0  501    0  0.00000000000E+00 -0.00000000000E+00 -0.21722899991E+03  0.21722899991E+03  0.00000000000E+00 0. -1.
         25    2    1    2    0    0  0.14349924613E+02 -0.86216133755E+01 -0.13498918466E+03  0.18479607637E+03  0.12508899756E+03 0.  0.
          5    1    3    3  502    0 -0.29952246333E+02  0.30849186123E+02 -0.11368100194E+03  0.12161271294E+03  0.41800000000E+01 0. -1.
         -5    1    3    3    0  502  0.44302170946E+02 -0.39470799499E+02 -0.21308182715E+02  0.63183363429E+02  0.41800000000E+01 0. -1.
        -11    1    1    2    0    0  0.24056261403E+02 -0.29173107948E+02 -0.16667627799E+02  0.41322920474E+02  0.00000000000E+00 0.  1.
         11    1    1    2    0    0 -0.38406186016E+02  0.37794721324E+02 -0.27292050194E+01  0.53952985499E+02  0.00000000000E+00 0. -1.
</event>
<event>
 7    1  0.2594791E-009  0.1346091E+03  0.7561462E-02  0.1220773E+00
          1   -1    0    0  501    0  0.00000000000E+00  0.00000000000E+00  0.50685410916E+02  0.50685410916E+02  0.00000000000E+00 0. -1.
         -1   -1    0    0    0  501 -0.00000000000E+00 -0.00000000000E+00 -0.48837165716E+03  0.48837165716E+03  0.00000000000E+00 0.  1.
         25    2    1    2    0    0 -0.35363706781E+02 -0.10191280189E+03 -0.29395425003E+03  0.33718277506E+03  0.12508521791E+03 0.  0.
          5    1    3    3  502    0 -0.46553913428E+02  0.10822301904E+02 -0.56987903032E+02  0.74494849258E+02  0.41800000000E+01 0.  1.
         -5    1    3    3    0  502  0.11190206647E+02 -0.11273510379E+03 -0.23696634700E+03  0.26268792580E+03  0.41800000000E+01 0.  1.
        -11    1    1    2    0    0  0.16806677292E+02  0.48136997377E+02 -0.41621643464E+01  0.51156216925E+02  0.00000000000E+00 0. -1.
         11    1    1    2    0    0  0.18557029489E+02  0.53775804509E+02 -0.13956983186E+03  0.15071807609E+03  0.00000000000E+00 0.  1.
</event>
<event>
 7    1  0.2594791E-009  0.9780844E+02  0.7561462E-02  0.1284973E+00
          3   -1    0    0  501    0  0.00000000000E+00  0.00000000000E+00  0.10165279849E+03  0.10165279849E+03  0.00000000000E+00 0. -1.
         -3   -1    0    0    0  501 -0.00000000000E+00 -0.00000000000E+00 -0.22543597282E+03  0.22543597282E+03  0.00000000000E+00 0.  1.
         25    2    1    2    0    0 -0.70008838782E+01 -0.83005951952E+02 -0.13812131131E+03  0.20411666477E+03  0.12508843178E+03 0.  0.
          5    1    3    3  502    0 -0.13065626379E+02 -0.87846923635E+02 -0.15859985825E+03  0.18182183593E+03  0.41800000000E+01 0. -1.
         -5    1    3    3    0  502  0.60647425006E+01  0.48409716829E+01  0.20478546937E+02  0.22294828842E+02  0.41800000000E+01 0. -1.
        -11    1    1    2    0    0 -0.21319682782E+02  0.22017321114E+02  0.40525459054E+02  0.50809488627E+02  0.00000000000E+00 0.  1.
         11    1    1    2    0    0  0.28320566661E+02  0.60988630838E+02 -0.26187322076E+02  0.72162617919E+02  0.00000000000E+00 0. -1.
</event>
<event>
 7    1  0.2594791E-009  0.1113970E+03  0.7561462E-02  0.1258005E+00
          2   -1    0    0  501    0  0.00000000000E+00  0.00000000000E+00  0.86764682926E+02  0.86764682926E+02  0.00000000000E+00 0. -1.
         -2   -1    0    0    0  501 -0.00000000000E+00 -0.00000000000E+00 -0.22300040081E+03  0.22300040081E+03  0.00000000000E+00 0.  1.
         25    2    1    2    0    0 -0.10491470213E+02 -0.73732450537E+02 -0.25536500464E+02  0.14780358523E+03  0.12508893532E+03 0.  0.
          5    1    3    3  502    0 -0.53227025637E+02 -0.67569739898E+02  0.16175061902E+02  0.87623575798E+02  0.41800000000E+01 0.  1.
         -5    1    3    3    0  502  0.42735555424E+02 -0.61627106395E+01 -0.41711562367E+02  0.60180009429E+02  0.41800000000E+01 0.  1.
        -11    1    1    2    0    0  0.29915891928E+02  0.65863073497E+02 -0.11912859843E+03  0.13937190536E+03  0.00000000000E+00 0.  1.
         11    1    1    2    0    0 -0.19424421716E+02  0.78693770404E+01  0.84293810153E+01  0.22589593141E+02  0.00000000000E+00 0. -1.
</event>
<event>
 7    1  0.2594791E-009  0.1815612E+03  0.7561462E-02  0.1166301E+00
         -2   -1    0    0    0  501 -0.00000000000E+00  0.00000000000E+00  0.39077617275E+02  0.39077617275E+02  0.00000000000E+00 0.  1.
          2   -1    0    0  501    0  0.00000000000E+00 -0.00000000000E+00 -0.86329516243E+03  0.86329516243E+03  0.00000000000E+00 0. -1.
         25    2    1    2    0    0  0.59282833839E+02 -0.13444146982E+03 -0.42984442057E+03  0.47117171379E+03  0.12509034651E+03 0.  0.
          5    1    3    3  502    0  0.94579307303E+02 -0.65732503254E+02 -0.24302804151E+03  0.26897231961E+03  0.41800000000E+01 0. -1.
         -5    1    3    3    0  502 -0.35296473464E+02 -0.68708966569E+02 -0.18681637905E+03  0.20219939419E+03  0.41800000000E+01 0. -1.
        -11    1    1    2    0    0 -0.77370174949E+02  0.72673814209E+02 -0.28718211960E+03  0.30617184237E+03  0.00000000000E+00 0. -1.
         11    1    1    2    0    0  0.18087341110E+02  0.61767655614E+02 -0.10719100499E+03  0.12502922354E+03  0.00000000000E+00 0.  1.
</event>
<event>
 7    1  0.2594791E-009  0.6870313E+02  0.7561462E-02  0.1364559E+00
          2   -1    0    0  501    0  0.00000000000E+00  0.00000000000E+00  0.30196992378E+03  0.30196992378E+03  0.00000000000E+00 0. -1.
         -2   -1    0    0    0  501 -0.00000000000E+00 -0.00000000000E+00 -0.60608899129E+02  0.60608899129E+02  0.00000000000E+00 0.  1.
         25    2    1    2    0    0  0.42846283423E+02  0.33675712436E+02  0.21698544847E+03  0.25632015962E+03  0.12508989474E+03 0.  0.
          5    1    3    3  502    0  0.37411659311E+02  0.39217783270E+02  0.23233993883E+03  0.23861472367E+03  0.41800000000E+01 0.  1.
         -5    1    3    3    0  502  0.54346241115E+01 -0.55420708341E+01 -0.15354490351E+02  0.17705435954E+02  0.41800000000E+01 0.  1.
        -11    1    1    2    0    0 -0.23870688233E+02  0.10554699624E+02 -0.25822654089E+02  0.36715404193E+02  0.00000000000E+00 0.  1.
         11    1    1    2    0    0 -0.18975595189E+02 -0.44230412060E+02  0.50198230263E+02  0.69543259093E+02  0.00000000000E+00 0. -1.
</event>
<event>
 7    1  0.2594791E-009  0.7240853E+02  0.7561462E-02  0.1352089E+00
          1   -1    0    0  501    0  0.00000000000E+00  0.00000000000E+00  0.16654349610E+04  0.16654349610E+04  0.00000000000E+00 0. -1.
         -1   -1    0    0    0  501 -0.00000000000E+00 -0.00000000000E+00 -0.25125415459E+02  0.25125415459E+02  0.00000000000E+00 0.  1.
         25    2    1    2    0    0 -0.42381978066E+02  0.28214495472E+01  0.15492573386E+04  0.15548785480E+04  0.12507919518E+03 0.  0.
          5    1    3    3  502    0 -0.25904154061E+02  0.12037583115E+02  0.15169614323E+04  0.15172361017E+04  0.41800000000E+01 0. -1.
         -5    1    3    3    0  502 -0.16477824005E+02 -0.92161335682E+01  0.32295906275E+02  0.37642446307E+02  0.41800000000E+01 0. -1.
        -11    1    1    2    0    0  0.54235506445E+02  0.29813830156E+02  0.75532308827E+02  0.97649804427E+02  0.00000000000E+00 0. -1.
         11    1    1    2    0    0 -0.11853528379E+02 -0.32635279703E+02  0.15519898091E+02  0.38032024046E+02  0.00000000000E+00 0.  1.
</event>
<event>
 7    1  0.2594791E-009  0.8530624E+02  0.7561462E-02  0.1314634E+00
          2   -1    0    0  501    0  0.00000000000E+00  0.00000000000E+00  0.63188322859E+03  0.63188322859E+03  0.00000000000E+00 0. -1.
         -2   -1    0    0    0  501 -0.00000000000E+00 -0.00000000000E+00 -0.21261874147E+02  0.21261874147E+02  0.00000000000E+00 0.  1.
         25    2    1    2    0    0  0.29652739811E+02  0.25834401141E+02  0.42085290757E+03  0.44080752925E+03  0.12508959498E+03 0.  0.
          5    1    3    3  502    0  0.88968492884E+01 -0.22501132259E+02  0.35756147616E+03  0.35840359445E+03  0.41800000000E+01 0. -1.
         -5    1    3    3    0  502  0.20755890523E+02  0.48335533400E+02  0.63291431406E+02  0.82403934796E+02  0.41800000000E+01 0. -1.
        -11    1    1    2    0    0 -0.28538469600E+02 -0.56132149981E+02  0.10652728822E+03  0.12374702277E+03  0.00000000000E+00 0.  1.
         11    1    1    2    0    0 -0.11142702114E+01  0.30297748841E+02  0.83241158653E+02  0.88590550720E+02  0.00000000000E+00 0. -1.
</event>
<event>
 7    1  0.2594791E-009  0.1147370E+03  0.7561462E-02  0.1252041E+00
         -1   -1    0    0    0  501 -0.00000000000E+00  0.00000000000E+00  0.22275398390E+02  0.22275398390E+02  0.00000000000E+00 0.  1.
          1   -1    0    0  501    0  0.00000000000E+00 -0.00000000000E+00 -0.96397492100E+03  0.96397492100E+03  0.00000000000E+00 0. -1.
         25    2    1    2    0    0  0.77059733793E+02  0.23115778915E+02 -0.69576687589E+03  0.71148585344E+03  0.12509209509E+03 0.  0.
          5    1    3    3  502    0  0.12769640643E+02 -0.34384681259E+02 -0.43976771012E+03  0.44131449250E+03  0.41800000000E+01 0.  1.
         -5    1    3    3    0  502  0.64290093150E+02  0.57500460173E+02 -0.25599916577E+03  0.27017136094E+03  0.41800000000E+01 0.  1.
        -11    1    1    2    0    0 -0.22768785997E+02 -0.42779395679E+02 -0.18320663703E+03  0.18950769420E+03  0.00000000000E+00 0. -1.
         11    1    1    2    0    0 -0.54290947796E+02  0.19663616765E+02 -0.62726009688E+02  0.85256771744E+02  0.00000000000E+00 0.  1.
</event>
<event>
 7    1  0.2594791E-009  0.9721012E+02  0.7561462E-02  0.1286275E+00
          2   -1    0    0  501    0  0.00000000000E+00  0.00000000000E+00  0.33681145753E+03  0.33681145753E+03  0.00000000000E+00 0. -1.
         -2   -1    0    0    0  501 -0.00000000000E+00 -0.00000000000E+00 -0.40658835466E+02  0.40658835466E+02  0.00000000000E+00 0.  1.
         25    2    1    2    0    0  0.11825035866E+02  0.38477527582E+02  0.17539442505E+03  0.21915940262E+03  0.12508911948E+03 0.  0.
          5    1    3    3  502    0 -0.45689549290E+02 -0.43386658053E+01  0.24846652987E+02  0.52356351095E+02  0.41800000000E+01 0. -1.
         -5    1    3    3    0  502  0.57514585156E+02  0.42816193387E+02  0.15054777207E+03  0.16680305152E+03  0.41800000000E+01 0. -1.
        -11    1    1    2    0    0  0.91112145024E+01 -0.51205665726E+02  0.12316026151E+03  0.13369175161E+03  0.00000000000E+00 0. -1.
         11    1    1    2    0    0 -0.20936250368E+02  0.12728138145E+02 -0.24020645011E+01  0.24619138774E+02  0.00000000000E+00 0.  1.
</event>
<event>
 7    1  0.2594791E-009  0.1116977E+03  0.7561462E-02  0.1257458E+00
         -3   -1    0    0    0  501 -0.00000000000E+00  0.00000000000E+00  0.49561367470E+03  0.49561367470E+03  0.00000000000E+00 0.  1.
          3   -1    0    0  501    0  0.00000000000E+00 -0.00000000000E+00 -0.37614714983E+02  0.37614714983E+02  0.00000000000E+00 0. -1.
         25    2    1    2    0    0  0.12034825942E+01 -0.76406710656E+02  0.31118292555E+03  0.34398099255E+03  0.12509466924E+03 0.  0.
          5    1    3    3  502    0 -0.33918897644E+02  0.54155248591E+01  0.21138609169E+02  0.40547906536E+02  0.41800000000E+01 0.  1.
         -5    1    3    3    0  502  0.35122380238E+02 -0.81822235515E+02  0.29004431638E+03  0.30343308601E+03  0.41800000000E+01 0.  1.
        -11    1    1    2    0    0 -0.32038412579E+02  0.48116580147E+02  0.29928858272E+02  0.65095327967E+02  0.00000000000E+00 0.  1.
         11    1    1    2    0    0  0.30834929984E+02  0.28290130509E+02  0.11688717589E+03  0.12415206917E+03  0.00000000000E+00 0. -1.
</event>
<event>
 7    1  0.2594791E-009  0.1351255E+03  0.7561462E-02  0.1220043E+00
          1   -1    0    0  501    0  0.00000000000E+00  0.00000000000E+00  0.28397499913E+03  0.28397499913E+03  0.00000000000E+00 0. -1.
         -1   -1    0    0    0  501 -0.00000000000E+00 -0.00000000000E+00 -0.86315469640E+02  0.86315469640E+02  0.00000000000E+00 0.  1.
         25    2    1    2    0    0 -0.32967144494E+02  0.10247017061E+03  0.14390547087E+03  0.21895813637E+03  0.12508761911E+03 0.  0.
          5    1    3    3  502    0  0.29469547212E+02  0.73884058175E+02  0.12392883594E+03  0.14731984606E+03  0.41800000000E+01 0.  1.
         -5    1    3    3    0  502 -0.62436691706E+02  0.28586112435E+02  0.19976634933E+02  0.71638290310E+02  0.41800000000E+01 0.  1.
        -11    1    1    2    0    0 -0.16181256826E+02 -0.19218393041E+02 -0.18026199477E+02  0.30921247891E+02  0.00000000000E+00 0.  1.
         11    1    1    2    0    0  0.49148401321E+02 -0.83251777569E+02  0.71780258089E+02  0.12041108451E+03  0.00000000000E+00 0. -1.
</event>
<event>
 7    1  0.2594791E-009  0.1677589E+03  0.7561462E-02  0.1180205E+00
          1   -1    0    0  501    0  0.00000000000E+00  0.00000000000E+00  0.39760315139E+03  0.39760315139E+03  0.00000000000E+00 0. -1.
         -1   -1    0    0    0  501 -0.00000000000E+00 -0.00000000000E+00 -0.86655562903E+02  0.86655562903E+02  0.00000000000E+00 0.  1.
         25    2    1    2    0    0 -0.58644323518E+02 -0.13686948248E+03  0.12520914109E+03  0.23129371902E+03  0.12508814305E+03 0.  0.
          5    1    3    3  502    0  0.27553235879E+02 -0.66135096267E+02  0.88251983033E+02  0.11374935901E+03  0.41800000000E+01 0.  1.
         -5    1    3    3    0  502 -0.86197559397E+02 -0.70734386215E+02  0.36957158053E+02  0.11754436001E+03  0.41800000000E+01 0.  1.
        -11    1    1    2    0    0  0.35825593047E+02  0.45068420190E+02  0.17876221179E+02  0.60284284015E+02  0.00000000000E+00 0.  1.
         11    1    1    2    0    0  0.22818730470E+02  0.91801062293E+02  0.16786222622E+03  0.19268071125E+03  0.00000000000E+00 0. -1.
</event>
<event>
 7    1  0.2594791E-009  0.1348456E+03  0.7561462E-02  0.1220438E+00
         -2   -1    0    0    0  501 -0.00000000000E+00  0.00000000000E+00  0.66753842226E+02  0.66753842226E+02  0.00000000000E+00 0.  1.
          2   -1    0    0  501    0  0.00000000000E+00 -0.00000000000E+00 -0.32263422499E+03  0.32263422499E+03  0.00000000000E+00 0. -1.
         25    2    1    2    0    0  0.27994935617E+02 -0.83810173258E+02 -0.75556184828E+02  0.17077423205E+03  0.12508892718E+03 0.  0.
          5    1    3    3  502    0 -0.28451203113E+02 -0.90350582043E+02 -0.58018232832E+02  0.11115883399E+03  0.41800000000E+01 0.  1.
         -5    1    3    3    0  502  0.56446138730E+02  0.65404087852E+01 -0.17537951996E+02  0.59615398051E+02  0.41800000000E+01 0.  1.
        -11    1    1    2    0    0 -0.18681923530E+02 -0.11628533659E+02 -0.65038067452E+02  0.68659939410E+02  0.00000000000E+00 0. -1.
         11    1    1    2    0    0 -0.93130120870E+01  0.95438706918E+02 -0.11528613049E+03  0.14995389577E+03  0.00000000000E+00 0.  1.
</event>
<event>
 7    1  0.2594791E-009  0.1066268E+03  0.7561462E-02  0.1266947E+00
         -1   -1    0    0    0  501 -0.00000000000E+00  0.00000000000E+00  0.39168890498E+03  0.39168890498E+03  0.00000000000E+00 0.  1.
          1   -1    0    0  501    0  0.00000000000E+00 -0.00000000000E+00 -0.34016031371E+02  0.34016031371E+02  0.00000000000E+00 0. -1.
         25    2    1    2    0    0  0.15356983950E+02  0.29260500773E+02  0.22546564171E+03  0.25994250268E+03  0.12507331947E+03 0.  0.
          5    1    3    3  502    0  0.10247760954E+02  0.72942901532E+02  0.18820463024E+03  0.20214880344E+03  0.41800000000E+01 0. -1.
         -5    1    3    3    0  502  0.51092229953E+01 -0.43682400759E+02  0.37261011476E+02  0.57793699241E+02  0.41800000000E+01 0. -1.
        -11    1    1    2    0    0  0.31472246678E+02 -0.36187548553E+02  0.91591240321E+02  0.10338760218E+03  0.00000000000E+00 0. -1.
         11    1    1    2    0    0 -0.46829230627E+02  0.69270477804E+01  0.40615991574E+02  0.62374831492E+02  0.00000000000E+00 0.  1.
</event>
<event>
 7    1  0.2594791E-009  0.9905908E+02  0.7561462E-02  0.1282287E+00
         -1   -1    0    0    0  501 -0.00000000000E+00  0.00000000000E+00  0.39854588899E+02  0.39854588899E+02  0.00000000000E+00 0.  1.
          1   -1    0    0  501    0  0.00000000000E+00 -0.00000000000E+00 -0.30073004289E+03  0.30073004289E+03  0.00000000000E+00 0. -1.
         25    2    1    2    0    0 -0.61582499993E+01  0.38666318037E+01 -0.14847642726E+03  0.19428145489E+03  0.12508860610E+03 0.  0.
          5    1    3    3  502    0  0.72712347404E+01 -0.56916652555E+02 -0.43347651931E+02  0.72033794296E+02  0.41800000000E+01 0. -1.
         -5    1    3    3    0  502 -0.13429484740E+02  0.60783284359E+02 -0.10512877533E+03  0.12224766059E+03  0.41800000000E+01 0. -1.
        -11    1    1    2    0    0 -0.35019838009E+02  0.67691766155E+01 -0.12613944840E+02  0.37832821871E+02  0.00000000000E+00 0.  1.
         11    1    1    2    0    0  0.41178088009E+02 -0.10635808419E+02 -0.99785081894E+02  0.10847035503E+03  0.00000000000E+00 0. -1.
</event>
<event>
 7    1  0.2594791E-009  0.1657014E+03  0.7561462E-02  0.1182406E+00
          2   -1    0    0  501    0  0.00000000000E+00  0.00000000000E+00  0.55883270215E+03  0.55883270215E+03  0.00000000000E+00 0. -1.
         -2   -1    0    0    0  501 -0.00000000000E+00 -0.00000000000E+00 -0.58012389622E+02  0.58012389622E+02  0.00000000000E+00 0.  1.
         25    2    1    2    0    0 -0.38605928248E+02  0.13594928834E+02  0.23685474902E+03  0.27096524676E+03  0.12508698187E+03 0.  0.
          5    1    3    3  502    0 -0.22465452778E+02  0.57899398886E+02  0.55042476026E+02  0.83091416687E+02  0.41800000000E+01 0. -1.
         -5    1    3    3    0  502 -0.16140475471E+02 -0.44304470052E+02  0.18181227300E+03  0.18787383007E+03  0.41800000000E+01 0. -1.
        -11    1    1    2    0    0 -0.59843934989E+02  0.70406244780E+02  0.89376622630E+02  0.12855549981E+03  0.00000000000E+00 0.  1.
         11    1    1    2    0    0  0.98449863237E+02 -0.84001173613E+02  0.17458894087E+03  0.21732434520E+03  0.00000000000E+00 0. -1.
</event>
<event>
 7    1  0.2594791E-009  0.1093767E+03  0.7561462E-02  0.1261729E+00
         -2   -1    0    0    0  501 -0.00000000000E+00  0.00000000000E+00  0.46476343797E+03  0.46476343797E+03  0.00000000000E+00 0. -1.
          2   -1    0    0  501    0  0.00000000000E+00 -0.00000000000E+00 -0.49862899724E+02  0.49862899724E+02  0.00000000000E+00 0.  1.
         25    2    1    2    0    0  0.68300426383E+01  0.48998916871E+02  0.64417929206E+02  0.14915084454E+03  0.12509500984E+03 0.  0.
          5    1    3    3  502    0  0.60764171255E+01 -0.33171685210E+02  0.57228332665E+02  0.66557028212E+02  0.41800000000E+01 0. -1.
         -5    1    3    3    0  502  0.75362551280E+00  0.82170602081E+02  0.71895965404E+01  0.82593816331E+02  0.41800000000E+01 0. -1.
        -11    1    1    2    0    0 -0.48411205974E+02 -0.25093539390E+02  0.15954286492E+03  0.16860384435E+03  0.00000000000E+00 0.  1.
         11    1    1    2    0    0  0.41581163336E+02 -0.23905377481E+02  0.19093974413E+03  0.19687164881E+03  0.00000000000E+00 0. -1.
</event>
<event>
 7    1  0.2594791E-009  0.1468171E+03  0.7561462E-02  0.1204440E+00
         -2   -1    0    0    0  501 -0.00000000000E+00  0.00000000000E+00  0.22175834362E+03  0.22175834362E+03  0.00000000000E+00 0. -1.
          2   -1    0    0  501    0  0.00000000000E+00 -0.00000000000E+00 -0.12461128576E+03  0.12461128576E+03  0.00000000000E+00 0.  1.
         25    2    1    2    0    0  0.58041621743E+02 -0.11060804066E+03  0.56290449366E+02  0.18552223463E+03  0.12508763463E+03 0.  0.
          5    1    3    3  502    0  0.74715168007E+02 -0.44052662615E+02 -0.13135130455E+02  0.87823672583E+02  0.41800000000E+01 0.  1.
         -5    1    3    3    0  502 -0.16673546265E+02 -0.66555378049E+02  0.69425579821E+02  0.97698562046E+02  0.41800000000E+01 0.  1.
        -11    1    1    2    0    0 -0.37701563462E+02  0.11149772069E+03  0.28532289551E+01  0.11773398202E+03  0.00000000000E+00 0.  1.
         11    1    1    2    0    0 -0.20340058281E+02 -0.88968002212E+00  0.38003379536E+02  0.43113412734E+02  0.00000000000E+00 0. -1.
</event>
<event>
 7    1  0.2594791E-009  0.1081914E+03  0.7561462E-02  0.1263956E+00
         -2   -1    0    0    0  501 -0.00000000000E+00  0.00000000000E+00  0.28242917563E+02  0.28242917563E+02  0.00000000000E+00 0.  1.
          2   -1    0    0  501    0  0.00000000000E+00 -0.00000000000E+00 -0.84802605251E+03  0.84802605251E+03  0.00000000000E+00 0. -1.
         25    2    1    2    0    0 -0.84100063898E+02  0.45387288997E+02 -0.27434488528E+03  0.31629945221E+03  0.12508957046E+03 0.  0.
          5    1    3    3  502    0 -0.52846105627E+02  0.17794444514E+02 -0.21345103224E+02  0.59853479157E+02  0.41800000000E+01 0. -1.
         -5    1    3    3    0  502 -0.31253958271E+02  0.27592844482E+02 -0.25299978205E+03  0.25644597305E+03  0.41800000000E+01 0. -1.
        -11    1    1    2    0    0 -0.90812091951E+01 -0.20033173546E+02 -0.42610444071E+02  0.47952542651E+02  0.00000000000E+00 0.  1.
         11    1    1    2    0    0  0.93181273093E+02 -0.25354115451E+02 -0.50282780560E+03  0.51201697522E+03  0.00000000000E+00 0. -1.
</event>
<event>
 7    1  0.2594791E-009  0.1332072E+03  0.7561462E-02  0.1222773E+00
          2   -1    0    0  501    0  0.00000000000E+00  0.00000000000E+00  0.16713101795E+04  0.16713101795E+04  0.00000000000E+00 0. -1.
         -2   -1    0    0    0  501 -0.00000000000E+00 -0.00000000000E+00 -0.13237027754E+02  0.13237027754E+02  0.00000000000E+00 0.  1.
         25    2    1    2    0    0  0.27510793647E+02  0.90281889679E+02  0.11072828891E+04  0.11183161684E+04  0.12509193707E+03 0.  0.
          5    1    3    3  502    0 -0.27143436462E+02  0.72971707042E+02  0.89495694117E+03  0.89834683454E+03  0.41800000000E+01 0. -1.
         -5    1    3    3    0  502  0.54654230109E+02  0.17310182637E+02  0.21232594789E+03  0.21996933386E+03  0.41800000000E+01 0. -1.
        -11    1    1    2    0    0  0.30691980419E+02 -0.54767561021E+02  0.24297260666E+03  0.25095252736E+03  0.00000000000E+00 0.  1.
         11    1    1    2    0    0 -0.58202774065E+02 -0.35514328658E+02  0.30781765601E+03  0.31527851148E+03  0.00000000000E+00 0. -1.
</event>
<event>
 7    1  0.2594791E-009  0.1298948E+03  0.7561462E-02  0.1227612E+00
          2   -1    0    0  501    0  0.00000000000E+00  0.00000000000E+00  0.17717170859E+04  0.17717170859E+04  0.00000000000E+00 0. -1.
         -2   -1    0    0    0  501 -0.00000000000E+00 -0.00000000000E+00 -0.12575849436E+02  0.12575849436E+02  0.00000000000E+00 0.  1.
         25    2    1    2    0    0 -0.71118442455E+02  0.17830474775E+02  0.13657320192E+04  0.13734073004E+04  0.12509158968E+03 0.  0.
          5    1    3    3  502    0  0.29558847631E+02  0.28272671641E+02  0.52167426895E+03  0.52329206446E+03  0.41800000000E+01 0. -1.
         -5    1    3    3    0  502 -0.10067729009E+03 -0.10442196866E+02  0.84405775028E+03  0.85011523597E+03  0.41800000000E+01 0. -1.
        -11    1    1    2    0    0  0.50627017294E+01 -0.45479796171E+02  0.12592304027E+03  0.13398005404E+03  0.00000000000E+00 0. -1.
         11    1    1    2    0    0  0.66055740726E+02  0.27649321395E+02  0.26748617701E+03  0.27690558092E+03  0.00000000000E+00 0.  1.
</event>
<event>
 7    1  0.2594791E-009  0.1670640E+03  0.7561462E-02  0.1180945E+00
         -2   -1    0    0    0  501 -0.00000000000E+00  0.00000000000E+00  0.18879647372E+03  0.18879647372E+03  0.00000000000E+00 0.  1.
          2   -1    0    0  501    0  0.00000000000E+00 -0.00000000000E+00 -0.20466112082E+03  0.20466112082E+03  0.00000000000E+00 0. -1.
         25    2    1    2    0    0  0.11766274662E+03 -0.88212995039E+02 -0.80208997916E+02  0.20906097146E+03  0.12508777720E+03 0.  0.
          5    1    3    3  502    0  0.28776165565E+02  0.19069158849E+02  0.17414587139E+02  0.38890111456E+02  0.41800000000E+01 0. -1.
         -5    1    3    3    0  502  0.88886581053E+02 -0.10728215389E+03 -0.97623585056E+02  0.17017086000E+03  0.41800000000E+01 0. -1.
        -11    1    1    2    0    0 -0.96221729114E+02  0.97155755307E+02  0.78026508993E+02  0.15743569496E+03  0.00000000000E+00 0.  1.
         11    1    1    2    0    0 -0.21441017505E+02 -0.89427602678E+01 -0.13682158176E+02  0.26960928122E+02  0.00000000000E+00 0. -1.
</event>
<event>
 7    1  0.2594791E-009  0.1014894E+03  0.7561462E-02  0.1277195E+00
          2   -1    0    0  501    0  0.00000000000E+00  0.00000000000E+00  0.14440473856E+03  0.14440473856E+03  0.00000000000E+00 0. -1.
         -2   -1    0    0    0  501 -0.00000000000E+00 -0.00000000000E+00 -0.12814312308E+03  0.12814312308E+03  0.00000000000E+00 0.  1.
         25    2    1    2    0    0 -0.80566829944E+00 -0.74977945526E+02 -0.30034911107E+02  0.14890521613E+03  0.12509326956E+03 0.  0.
          5    1    3    3  502    0 -0.18425863035E+02 -0.93180353656E+00 -0.63055628785E+02  0.65832100132E+02  0.41800000000E+01 0. -1.
         -5    1    3    3    0  502  0.17620194735E+02 -0.74046141989E+02  0.33020717678E+02  0.83073116000E+02  0.41800000000E+01 0. -1.
        -11    1    1    2    0    0 -0.29472397528E+02  0.71524769169E+02  0.12891848163E+02  0.78425853963E+02  0.00000000000E+00 0.  1.
         11    1    1    2    0    0  0.30278065828E+02  0.34531763569E+01  0.33404678423E+02  0.45216791547E+02  0.00000000000E+00 0. -1.
</event>
<event>
 7    1  0.2594791E-009  0.1271289E+03  0.7561462E-02  0.1231779E+00
         -3   -1    0    0    0  501 -0.00000000000E+00  0.00000000000E+00  0.39948818189E+03  0.39948818189E+03  0.00000000000E+00 0.  1.
          3   -1    0    0  501    0  0.00000000000E+00 -0.00000000000E+00 -0.52884045243E+02  0.52884045243E+02  0.00000000000E+00 0. -1.
         25    2    1    2    0    0  0.46753043932E+02 -0.84105280630E+02  0.18923639586E+03  0.24640833792E+03  0.12508840925E+03 0.  0.
          5    1    3    3  502    0 -0.22872516265E+02  0.17077489459E+02  0.67590182178E+02  0.73489439876E+02  0.41800000000E+01 0.  1.
         -5    1    3    3    0  502  0.69625560197E+02 -0.10118277009E+03  0.12164621368E+03  0.17291889804E+03  0.41800000000E+01 0.  1.
        -11    1    1    2    0    0 -0.42590023950E+02  0.40702056700E+02  0.15076272584E+03  0.16186403882E+03  0.00000000000E+00 0.  1.
         11    1    1    2    0    0 -0.41630199821E+01  0.43403223930E+02  0.66050149461E+01  0.44099850400E+02  0.00000000000E+00 0. -1.
</event>
<event>
 7    1  0.2594791E-009  0.1124013E+03  0.7561462E-02  0.1256187E+00
          4   -1    0    0  501    0  0.00000000000E+00  0.00000000000E+00  0.12192229943E+03  0.12192229943E+03  0.00000000000E+00 0.  1.
         -4   -1    0    0    0  501 -0.00000000000E+00 -0.00000000000E+00 -0.19460709621E+03  0.19460709621E+03  0.00000000000E+00 0. -1.
         25    2    1    2    0    0  0.48606643875E+02 -0.80101501145E+02  0.17820659467E+02  0.15730127635E+03  0.12508900561E+03 0.  0.
          5    1    3    3  502    0  0.58908872853E+02 -0.15637931575E+02  0.54876048259E+02  0.82119749618E+02  0.41800000000E+01 0. -1.
         -5    1    3    3    0  502 -0.10302228978E+02 -0.64463569570E+02 -0.37055388792E+02  0.75181526735E+02  0.41800000000E+01 0. -1.
        -11    1    1    2    0    0 -0.28298065799E+02  0.70224982347E+02 -0.10913782796E+02  0.76494701310E+02  0.00000000000E+00 0.  1.
         11    1    1    2    0    0 -0.20308578076E+02  0.98765187984E+01 -0.79591673455E+02  0.82733417978E+02  0.00000000000E+00 0. -1.
</event>
<event>
 7    1  0.2594791E-009  0.1039907E+03  0.7561462E-02  0.1272121E+00
          2   -1    0    0  501    0  0.00000000000E+00  0.00000000000E+00  0.10052791105E+04  0.10052791105E+04  0.00000000000E+00 0. -1.
         -2   -1    0    0    0  501 -0.00000000000E+00 -0.00000000000E+00 -0.13307061144E+02  0.13307061144E+02  0.00000000000E+00 0.  1.
         25    2    1    2    0    0  0.38400712853E+01  0.94512885097E+01  0.73552880341E+03  0.74615890845E+03  0.12508566273E+03 0.  0.
          5    1    3    3  502    0  0.59243373331E+02  0.17613625053E+02  0.25768168519E+03  0.26502328266E+03  0.41800000000E+01 0. -1.
         -5    1    3    3    0  502 -0.55403302045E+02 -0.81623365433E+01  0.47784711822E+03  0.48113562579E+03  0.41800000000E+01 0. -1.
        -11    1    1    2    0    0  0.33435738362E+02 -0.32025103612E+02  0.16063108108E+03  0.16717027268E+03  0.00000000000E+00 0.  1.
         11    1    1    2    0    0 -0.37275809647E+02  0.22573815103E+02  0.95812164874E+02  0.10525699051E+03  0.00000000000E+00 0. -1.
</event>
<event>
 7    1  0.2594791E-009  0.1172565E+03  0.7561462E-02  0.1247693E+00
          1   -1    0    0  501    0  0.00000000000E+00  0.00000000000E+00  0.22382896009E+03  0.22382896009E+03  0.00000000000E+00 0. -1.
         -1   -1    0    0    0  501 -0.00000000000E+00 -0.00000000000E+00 -0.10803137384E+03  0.10803137384E+03  0.00000000000E+00 0.  1.
         25    2    1    2    0    0 -0.60563367266E+02 -0.53866868286E+02 -0.17026306309E+02  0.15002510138E+03  0.12509226588E+03 0.  0.
          5    1    3    3  502    0 -0.97759174716E+02 -0.27469154731E+02 -0.14326819876E+01  0.10164121054E+03  0.41800000000E+01 0. -1.
         -5    1    3    3    0  502  0.37195807450E+02 -0.26397713555E+02 -0.15593624321E+02  0.48383890834E+02  0.41800000000E+01 0. -1.
        -11    1    1    2    0    0  0.49481836252E+02  0.23548148024E+02  0.13860189471E+03  0.14904178143E+03  0.00000000000E+00 0. -1.
         11    1    1    2    0    0  0.11081531015E+02  0.30318720262E+02 -0.57780021493E+01  0.32793451126E+02  0.00000000000E+00 0.  1.
</event>
<event>
 7    1  0.2594791E-009  0.1238414E+03  0.7561462E-02  0.1236891E+00
          1   -1    0    0  501    0  0.00000000000E+00  0.00000000000E+00  0.10854190140E+03  0.10854190140E+03  0.00000000000E+00 0. -1.
         -1   -1    0    0    0  501 -0.00000000000E+00 -0.00000000000E+00 -0.25086807369E+03  0.25086807369E+03  0.00000000000E+00 0.  1.
         25    2    1    2    0    0  0.30608603472E+02  0.90061985462E+02  0.11026161693E+02  0.15751370270E+03  0.12506375361E+03 0.  0.
          5    1    3    3  502    0 -0.21522158088E+02 -0.27688195978E+01 -0.35045309295E+02  0.41430855099E+02  0.41800000000E+01 0. -1.
         -5    1    3    3    0  502  0.52130761560E+02  0.92830805060E+02  0.46071470988E+02  0.11608284760E+03  0.41800000000E+01 0. -1.
        -11    1    1    2    0    0  0.18123641268E+02 -0.17987370474E+01  0.18619092507E+00  0.18213634860E+02  0.00000000000E+00 0. -1.
         11    1    1    2    0    0 -0.48732244740E+02 -0.88263248415E+02 -0.15353852491E+03  0.18368263753E+03  0.00000000000E+00 0.  1.
</event>
<event>
 7    1  0.2594791E-009  0.9777701E+02  0.7561462E-02  0.1285041E+00
         -2   -1    0    0    0  501 -0.00000000000E+00  0.00000000000E+00  0.68111643902E+03  0.68111643902E+03  0.00000000000E+00 0.  1.
          2   -1    0    0  501    0  0.00000000000E+00 -0.00000000000E+00 -0.18454958536E+02  0.18454958536E+02  0.00000000000E+00 0. -1.
         25    2    1    2    0    0 -0.16498172853E+02 -0.23382400772E+02  0.36512733599E+03  0.38702023412E+03  0.12509102190E+03 0.  0.
          5    1    3    3  502    0  0.34196007817E+01  0.47314175646E+02  0.85395406567E+02  0.97776135888E+02  0.41800000000E+01 0.  1.
         -5    1    3    3    0  502 -0.19917773634E+02 -0.70696576418E+02  0.27973192942E+03  0.28924409823E+03  0.41800000000E+01 0.  1.
        -11    1    1    2    0    0 -0.26449771712E+02  0.15630690721E+02  0.35678170525E+02  0.47083338540E+02  0.00000000000E+00 0. -1.
         11    1    1    2    0    0  0.42947944565E+02  0.77517100512E+01  0.26185597397E+03  0.26546782490E+03  0.00000000000E+00 0.  1.
</event>
<event>
 7    1  0.2594791E-009  0.1121601E+03  0.7561462E-02  0.1256621E+00
         -2   -1    0    0    0  501 -0.00000000000E+00  0.00000000000E+00  0.53088627307E+02  0.53088627307E+02  0.00000000000E+00 0.  1.
          2   -1    0    0  501    0  0.00000000000E+00 -0.00000000000E+00 -0.30377945542E+03  0.30377945542E+03  0.00000000000E+00 0. -1.
         25    2    1    2    0    0 -0.67667093348E+02 -0.12023637974E+02 -0.12424896554E+03  0.18922895061E+03  0.12508551841E+03 0.  0.
          5    1    3    3  502    0  0.19792184908E+02 -0.27490656506E+02 -0.85833155554E+02  0.92370286191E+02  0.41800000000E+01 0.  1.
         -5    1    3    3    0  502 -0.87459278257E+02  0.15467018532E+02 -0.38415809988E+02  0.96858664416E+02  0.41800000000E+01 0.  1.
        -11    1    1    2    0    0  0.76582907439E+02  0.29168563620E+02 -0.12331686799E+03  0.14806348890E+03  0.00000000000E+00 0. -1.
         11    1    1    2    0    0 -0.89158140907E+01 -0.17144925646E+02 -0.31249945830E+01  0.19575643219E+02  0.00000000000E+00 0.  1.
</event>
<event>
 7    1  0.2594791E-009  0.8097888E+02  0.7561462E-02  0.1326296E+00
          2   -1    0    0  501    0  0.00000000000E+00  0.00000000000E+00  0.63743038238E+03  0.63743038238E+03  0.00000000000E+00 0. -1.
         -2   -1    0    0    0  501 -0.00000000000E+00 -0.00000000000E+00 -0.25154222099E+02  0.25154222099E+02  0.00000000000E+00 0.  1.
         25    2    1    2    0    0 -0.62786221298E+02 -0.14242364562E+02  0.33715115219E+03  0.36532146452E+03  0.12507565102E+03 0.  0.
          5    1    3    3  502    0 -0.54716814302E+02  0.10227162646E+02  0.44177813509E+02  0.71187612894E+02  0.41800000000E+01 0.  1.
         -5    1    3    3    0  502 -0.80694069967E+01 -0.24469527208E+02  0.29297333868E+03  0.29413385162E+03  0.41800000000E+01 0.  1.
        -11    1    1    2    0    0  0.36167737181E+02  0.31789218455E+02  0.25512094528E+03  0.25962541544E+03  0.00000000000E+00 0. -1.
         11    1    1    2    0    0  0.26618484118E+02 -0.17546853893E+02  0.20004062809E+02  0.37637724521E+02  0.00000000000E+00 0.  1.
</event>
<event>
 7    1  0.2594791E-009  0.1391820E+03  0.7561462E-02  0.1214434E+00
         -2   -1    0    0    0  501 -0.00000000000E+00  0.00000000000E+00  0.64257002842E+02  0.64257002842E+02  0.00000000000E+00 0. -1.
          2   -1    0    0  501    0  0.00000000000E+00 -0.00000000000E+00 -0.44050396615E+03  0.44050396615E+03  0.00000000000E+00 0.  1.
         25    2    1    2    0    0 -0.71441386963E+02  0.10433903331E+03 -0.16985735696E+03  0.24594653079E+03  0.12509064175E+03 0.  0.
          5    1    3    3  502    0 -0.76420362171E+02  0.38717817355E+02 -0.29210410746E+02  0.90608286768E+02  0.41800000000E+01 0.  1.
         -5    1    3    3    0  502  0.49789752084E+01  0.65621215951E+02 -0.14064694622E+03  0.15533824402E+03  0.41800000000E+01 0.  1.
        -11    1    1    2    0    0  0.90241558941E+01 -0.17724181612E+02  0.62751980958E+01  0.20855697413E+02  0.00000000000E+00 0. -1.
         11    1    1    2    0    0  0.62417231069E+02 -0.86614851694E+02 -0.21266480445E+03  0.23795874079E+03  0.00000000000E+00 0.  1.
</event>
<event>
 7    1  0.2594791E-009  0.6682659E+02  0.7561462E-02  0.1371229E+00
         -1   -1    0    0    0  501 -0.00000000000E+00  0.00000000000E+00  0.27281429056E+02  0.27281429056E+02  0.00000000000E+00 0.  1.
          1   -1    0    0  501    0  0.00000000000E+00 -0.00000000000E+00 -0.57739148950E+03  0.57739148950E+03  0.00000000000E+00 0. -1.
         25    2    1    2    0    0  0.59020627328E+01  0.36571301714E+02 -0.18197225402E+03  0.22391177259E+03  0.12510110397E+03 0.  0.
          5    1    3    3  502    0  0.54974730937E+01  0.10025559620E+02 -0.19406086612E+03  0.19444234676E+03  0.41800000000E+01 0. -1.
         -5    1    3    3    0  502  0.40458963915E+00  0.26545742094E+02  0.12088612092E+02  0.29469425824E+02  0.41800000000E+01 0. -1.
        -11    1    1    2    0    0  0.39614452266E+02 -0.27413329324E+02 -0.14334177418E+03  0.15122056632E+03  0.00000000000E+00 0.  1.
         11    1    1    2    0    0 -0.45516514999E+02 -0.91579723894E+01 -0.22479603224E+03  0.22954057965E+03  0.00000000000E+00 0. -1.
</event>
<event>
 7    1  0.2594791E-009  0.1062575E+03  0.7561462E-02  0.1267662E+00
         -4   -1    0    0    0  501 -0.00000000000E+00  0.00000000000E+00  0.60866045571E+02  0.60866045571E+02  0.00000000000E+00 0.  1.
          4   -1    0    0  501    0  0.00000000000E+00 -0.00000000000E+00 -0.23813845871E+03  0.23813845871E+03  0.00000000000E+00 0. -1.
         25    2    1    2    0    0 -0.11951995273E+02  0.34694589776E+02 -0.51812378187E+02  0.14028005224E+03  0.12508959099E+03 0.  0.
          5    1    3    3  502    0 -0.59278511986E+02  0.33858842477E+02  0.20853456337E+01  0.68426488026E+02  0.41800000000E+01 0. -1.
         -5    1    3    3    0  502  0.47326516713E+02  0.83574729877E+00 -0.53897723820E+02  0.71853564218E+02  0.41800000000E+01 0. -1.
        -11    1    1    2    0    0  0.32457737871E+02 -0.57441079267E+02 -0.93765397301E+02  0.11465135004E+03  0.00000000000E+00 0.  1.
         11    1    1    2    0    0 -0.20505742598E+02  0.22746489492E+02 -0.31694637647E+02  0.44073101993E+02  0.00000000000E+00 0. -1.
</event>
<event>
 7    1  0.2594791E-009  0.1287712E+03  0.7561462E-02  0.1229291E+00
          2   -1    0    0  501    0  0.00000000000E+00  0.00000000000E+00  0.13166330638E+04  0.13166330638E+04  0.00000000000E+00 0. -1.
         -2   -1    0    0    0  501 -0.00000000000E+00 -0.00000000000E+00 -0.13131346548E+02  0.13131346548E+02  0.00000000000E+00 0.  1.
         25    2    1    2    0    0 -0.42440220153E+02  0.57733636480E+02  0.80617241417E+03  0.81896025777E+03  0.12509035683E+03 0.  0.
          5    1    3    3  502    0 -0.29328671121E+02  0.97304249874E+02  0.60222129104E+03  0.61075055773E+03  0.41800000000E+01 0. -1.
         -5    1    3    3    0  502 -0.13111549033E+02 -0.39570613394E+02  0.20395112314E+03  0.20820970004E+03  0.41800000000E+01 0. -1.
        -11    1    1    2    0    0  0.47158836982E+02  0.81693341026E+01  0.26386765741E+03  0.26817314286E+03  0.00000000000E+00 0. -1.
         11    1    1    2    0    0 -0.47186168285E+01 -0.65902970583E+02  0.23346164568E+03  0.24263100973E+03  0.00000000000E+00 0.  1.
</event>
<event>
 7    1  0.2594791E-009  0.9708130E+02  0.7561462E-02  0.1286556E+00
          3   -1    0    0  501    0  0.00000000000E+00  0.00000000000E+00  0.19440824130E+03  0.19440824130E+03  0.00000000000E+00 0. -1.
         -3   -1    0    0    0  501 -0.00000000000E+00 -0.00000000000E+00 -0.79083959092E+02  0.79083959092E+02  0.00000000000E+00 0.  1.
         25    2    1    2    0    0 -0.56260076271E+02  0.89501702416E+01  0.45017934213E+02  0.14460489348E+03  0.12505462441E+03 0.  0.
          5    1    3    3  502    0 -0.95654079231E+02  0.61824091185E+01  0.21069716547E+02  0.98231005347E+02  0.41800000000E+01 0. -1.
         -5    1    3    3    0  502  0.39394002960E+02  0.27677611231E+01  0.23948217666E+02  0.46373888129E+02  0.41800000000E+01 0. -1.
        -11    1    1    2    0    0  0.22908649331E+02 -0.10321578123E+02  0.87713540779E+02  0.91241473164E+02  0.00000000000E+00 0. -1.
         11    1    1    2    0    0  0.33351426941E+02  0.13714078812E+01 -0.17407192782E+02  0.37645833755E+02  0.00000000000E+00 0.  1.
</event>
<event>
 7    1  0.2594791E-009  0.6023283E+02  0.7561462E-02  0.1396857E+00
          1   -1    0    0  501    0  0.00000000000E+00  0.00000000000E+00  0.67646895479E+02  0.67646895479E+02  0.00000000000E+00 0. -1.
         -1   -1    0    0    0  501 -0.00000000000E+00 -0.00000000000E+00 -0.24968074903E+03  0.24968074903E+03  0.00000000000E+00 0.  1.
         25    2    1    2    0    0  0.23141441323E+02 -0.16841191911E+02 -0.18094894090E+03  0.22183004006E+03  0.12508755097E+03 0.  0.
          5    1    3    3  502    0 -0.10692365201E+02 -0.31597563043E+02 -0.18159108750E+03  0.18467682075E+03  0.41800000000E+01 0. -1.
         -5    1    3    3    0  502  0.33833806524E+02  0.14756371132E+02  0.64214659266E+00  0.37153219311E+02  0.41800000000E+01 0. -1.
        -11    1    1    2    0    0  0.58039864023E+00  0.24702220196E+02 -0.41313486795E+02  0.48138765423E+02  0.00000000000E+00 0.  1.
         11    1    1    2    0    0 -0.23721839964E+02 -0.78610282857E+01  0.40228574143E+02  0.47358839033E+02  0.00000000000E+00 0. -1.
</event>
<event>
 7    1  0.2594791E-009  0.1072607E+03  0.7561462E-02  0.1265728E+00
          2   -1    0    0  501    0  0.00000000000E+00  0.00000000000E+00  0.10899766286E+04  0.10899766286E+04  0.00000000000E+00 0.  1.
         -2   -1    0    0    0  501 -0.00000000000E+00 -0.00000000000E+00 -0.16731169904E+02  0.16731169904E+02  0.00000000000E+00 0. -1.
         25    2    1    2    0    0  0.29629694204E+02 -0.42122904314E+02  0.84361228143E+03  0.85438946362E+03  0.12508963314E+03 0.  0.
          5    1    3    3  502    0  0.64401018138E+02  0.54274090834E+01  0.26620064171E+03  0.27396569485E+03  0.41800000000E+01 0. -1.
         -5    1    3    3    0  502 -0.34771323935E+02 -0.47550313397E+02  0.57741163971E+03  0.58042376876E+03  0.41800000000E+01 0. -1.
        -11    1    1    2    0    0 -0.25787355496E+02 -0.17365395652E+02  0.14803564694E+03  0.15126499078E+03  0.00000000000E+00 0.  1.
         11    1    1    2    0    0 -0.38423387076E+01  0.59488299966E+02  0.81597530321E+02  0.10105334410E+03  0.00000000000E+00 0. -1.
</event>
<event>
 7    1  0.2594791E-009  0.7760918E+02  0.7561462E-02  0.1335976E+00
          1   -1    0    0  501    0  0.00000000000E+00  0.00000000000E+00  0.24919918802E+03  0.24919918802E+03  0.00000000000E+00 0. -1.
         -1   -1    0    0    0  501 -0.00000000000E+00 -0.00000000000E+00 -0.49382200542E+02  0.49382200542E+02  0.00000000000E+00 0.  1.
         25    2    1    2    0    0 -0.15401140377E+02 -0.15106237582E+02  0.13120040153E+03  0.18255548790E+03  0.12509023647E+03 0.  0.
          5    1    3    3  502    0 -0.52856207396E+01  0.49469503607E+02  0.20584924349E+02  0.54003528442E+02  0.41800000000E+01 0. -1.
         -5    1    3    3    0  502 -0.10115519637E+02 -0.64575741190E+02  0.11061547718E+03  0.12855195945E+03  0.41800000000E+01 0. -1.
        -11    1    1    2    0    0 -0.69356517432E+01  0.16002125404E+02  0.85973095301E+02  0.87724252053E+02  0.00000000000E+00 0. -1.
         11    1    1    2    0    0  0.22336792120E+02 -0.89588782124E+00 -0.17356509353E+02  0.28301648611E+02  0.00000000000E+00 0.  1.
</event>
<event>
 7    1  0.2594791E-009  0.1208209E+03  0.7561462E-02  0.1241749E+00
          2   -1    0    0  501    0  0.00000000000E+00  0.00000000000E+00  0.10163855153E+04  0.10163855153E+04  0.00000000000E+00 0.  1.
         -2   -1    0    0    0  501 -0.00000000000E+00 -0.00000000000E+00 -0.19041398100E+02  0.19041398100E+02  0.00000000000E+00 0. -1.
         25    2    1    2    0    0 -0.56965094188E+02  0.55151468950E+02  0.68781800919E+03  0.70358181043E+03  0.12508814375E+03 0.  0.
          5    1    3    3  502    0 -0.56614250232E+02  0.91621535504E+02  0.43722713920E+03  0.45031624749E+03  0.41800000000E+01 0. -1.
         -5    1    3    3    0  502 -0.35084395568E+00 -0.36470066554E+02  0.25059086999E+03  0.25326556294E+03  0.41800000000E+01 0. -1.
        -11    1    1    2    0    0  0.33110333998E+02  0.40160349755E+01  0.29129060807E+02  0.44282332119E+02  0.00000000000E+00 0.  1.
         11    1    1    2    0    0  0.23854760190E+02 -0.59167503925E+02  0.28039704722E+03  0.28756277088E+03  0.00000000000E+00 0. -1.
</event>
<event>
 7    1  0.2594791E-009  0.2566874E+03  0.7561462E-02  0.1109150E+00
          2   -1    0    0  501    0  0.00000000000E+00  0.00000000000E+00  0.87579860629E+03  0.87579860629E+03  0.00000000000E+00 0.  1.
         -2   -1    0    0    0  501 -0.00000000000E+00 -0.00000000000E+00 -0.90651953093E+02  0.90651953093E+02  0.00000000000E+00 0. -1.
         25    2    1    2    0    0  0.16994769600E+03 -0.17160604919E+03  0.56467871475E+03  0.62676961044E+03  0.12508892112E+03 0.  0.
          5    1    3    3  502    0  0.14736253144E+03 -0.62811317358E+02  0.31353886076E+03  0.35211513297E+03  0.41800000000E+01 0. -1.
         -5    1    3    3    0  502  0.22585164562E+02 -0.10879473183E+03  0.25113985398E+03  0.27465447747E+03  0.41800000000E+01 0. -1.
        -11    1    1    2    0    0 -0.16730181990E+02  0.23426939300E+02 -0.52117463361E+01  0.29255474261E+02  0.00000000000E+00 0.  1.
         11    1    1    2    0    0 -0.15321751401E+03  0.14817910989E+03  0.22567968479E+03  0.31042547468E+03  0.00000000000E+00 0. -1.
</event>
<event>
 7    1  0.2594791E-009  0.6625785E+02  0.7561462E-02  0.1373301E+00
          1   -1    0    0  501    0  0.00000000000E+00  0.00000000000E+00  0.20153772811E+03  0.20153772811E+03  0.00000000000E+00 0. -1.
         -1   -1    0    0    0  501 -0.00000000000E+00 -0.00000000000E+00 -0.72921222172E+02  0.72921222172E+02  0.00000000000E+00 0.  1.
         25    2    1    2    0    0  0.27999727568E+02  0.25731393811E+02  0.31089780968E+02  0.13438756625E+03  0.12508938449E+03 0.  0.
          5    1    3    3  502    0  0.16296015067E+01  0.36874494815E+02  0.73904242155E+02  0.82714529422E+02  0.41800000000E+01 0.  1.
         -5    1    3    3    0  502  0.26370126062E+02 -0.11143101003E+02 -0.42814461187E+02  0.51673036830E+02  0.41800000000E+01 0.  1.
        -11    1    1    2    0    0 -0.40612667532E+02 -0.33543220782E+01  0.16187191220E+01  0.40783090764E+02  0.00000000000E+00 0.  1.
         11    1    1    2    0    0  0.12612939964E+02 -0.22377071733E+02  0.95908005846E+02  0.99288293263E+02  0.00000000000E+00 0. -1.
</event>
<event>
 7    1  0.2594791E-009  0.1051283E+03  0.7561462E-02  0.1269867E+00
         -1   -1    0    0    0  501 -0.00000000000E+00  0.00000000000E+00  0.15922863789E+03  0.15922863789E+03  0.00000000000E+00 0.  1.
          1   -1    0    0  501    0  0.00000000000E+00 -0.00000000000E+00 -0.94090376929E+02  0.94090376929E+02  0.00000000000E+00 0. -1.
         25    2    1    2    0    0 -0.20432977754E+02 -0.51902552372E+02  0.31674074604E+02  0.14057944306E+03  0.12509177145E+03 0.  0.
          5    1    3    3  502    0 -0.68748720820E+02 -0.94236093006E+01  0.30974998089E+02  0.76105938883E+02  0.41800000000E+01 0.  1.
         -5    1    3    3    0  502  0.48315743066E+02 -0.42478943071E+02  0.69907651520E+00  0.64473504174E+02  0.41800000000E+01 0.  1.
        -11    1    1    2    0    0 -0.79141367803E+01  0.46802890018E+02 -0.20394547144E+02  0.51663155422E+02  0.00000000000E+00 0. -1.
         11    1    1    2    0    0  0.28347114534E+02  0.50996623545E+01  0.53858733500E+02  0.61076416339E+02  0.00000000000E+00 0.  1.
</event>
<event>
 7    1  0.2594791E-009  0.1398927E+03  0.7561462E-02  0.1213473E+00
         -2   -1    0    0    0  501 -0.00000000000E+00  0.00000000000E+00  0.95250982892E+02  0.95250982892E+02  0.00000000000E+00 0.  1.
          2   -1    0    0  501    0  0.00000000000E+00 -0.00000000000E+00 -0.22948187676E+03  0.22948187676E+03  0.00000000000E+00 0. -1.
         25    2    1    2    0    0  0.10038183291E+03  0.42315659009E+01 -0.65225342822E+02  0.17320624807E+03  0.12510651660E+03 0.  0.
          5    1    3    3  502    0  0.43463070115E+02  0.64171856534E+02 -0.28959486694E+02  0.82844371592E+02  0.41800000000E+01 0. -1.
         -5    1    3    3    0  502  0.56918762797E+02 -0.59940290633E+02 -0.36265856128E+02  0.90361876476E+02  0.41800000000E+01 0. -1.
        -11    1    1    2    0    0 -0.99028255280E+02  0.14969905005E+02 -0.24602679924E+02  0.10313091321E+03  0.00000000000E+00 0.  1.
         11    1    1    2    0    0 -0.13535776321E+01 -0.19201470906E+02 -0.44402871120E+02  0.48395698373E+02  0.00000000000E+00 0. -1.
</event>
<event>
 7    1  0.2594791E-009  0.1200437E+03  0.7561462E-02  0.1243025E+00
          2   -1    0    0  501    0  0.00000000000E+00  0.00000000000E+00  0.63641085614E+03  0.63641085614E+03  0.00000000000E+00 0. -1.
         -2   -1    0    0    0  501 -0.00000000000E+00 -0.00000000000E+00 -0.26861624439E+02  0.26861624439E+02  0.00000000000E+00 0.  1.
         25    2    1    2    0    0  0.49986259421E+01 -0.58013463152E+02  0.30803447625E+03  0.33752479381E+03  0.12508876731E+03 0.  0.
          5    1    3    3  502    0  0.27860375663E+02  0.25666866374E+02  0.17169556533E+03  0.17587446693E+03  0.41800000000E+01 0. -1.
         -5    1    3    3    0  502 -0.22861749721E+02 -0.83680329526E+02  0.13633891092E+03  0.16165032688E+03  0.41800000000E+01 0. -1.
        -11    1    1    2    0    0 -0.42994247319E+02  0.63554160699E+02  0.13914189583E+03  0.15889651922E+03  0.00000000000E+00 0.  1.
         11    1    1    2    0    0  0.37995621376E+02 -0.55406975470E+01  0.16237285962E+03  0.16685116755E+03  0.00000000000E+00 0. -1.
</event>
<event>
 7    1  0.2594791E-009  0.1126103E+03  0.7561462E-02  0.1255811E+00
          2   -1    0    0  501    0  0.00000000000E+00  0.00000000000E+00  0.84841211386E+03  0.84841211386E+03  0.00000000000E+00 0. -1.
         -2   -1    0    0    0  501 -0.00000000000E+00 -0.00000000000E+00 -0.23629272685E+02  0.23629272685E+02  0.00000000000E+00 0.  1.
         25    2    1    2    0    0 -0.35433975553E+02  0.21704977022E+02  0.69687614612E+03  0.70923169365E+03  0.12508620862E+03 0.  0.
          5    1    3    3  502    0  0.46794483305E+02  0.13502077953E+02  0.27709494627E+03  0.28137361537E+03  0.41800000000E+01 0. -1.
         -5    1    3    3    0  502 -0.82228458858E+02  0.82028990689E+01  0.41978119985E+03  0.42785807828E+03  0.41800000000E+01 0. -1.
        -11    1    1    2    0    0  0.54309337718E+02  0.11395185523E+02  0.44568741563E+02  0.71173921776E+02  0.00000000000E+00 0.  1.
         11    1    1    2    0    0 -0.18875362165E+02 -0.33100162545E+02  0.83337953489E+02  0.91635771122E+02  0.00000000000E+00 0. -1.
</event>
<event>
 7    1  0.2594791E-009  0.9407316E+02  0.7561462E-02  0.1293277E+00
          2   -1    0    0  501    0  0.00000000000E+00  0.00000000000E+00  0.32875347240E+02  0.32875347240E+02  0.00000000000E+00 0. -1.
         -2   -1    0    0    0  501 -0.00000000000E+00 -0.00000000000E+00 -0.40509046693E+03  0.40509046693E+03  0.00000000000E+00 0.  1.
         25    2    1    2    0    0 -0.38173540546E+02  0.10456655896E+02 -0.21944033416E+03  0.25567249658E+03  0.12509118435E+03 0.  0.
          5    1    3    3  502    0  0.32778490560E+02 -0.15164637148E+02 -0.14544657181E+03  0.14992189071E+03  0.41800000000E+01 0.  1.
         -5    1    3    3    0  502 -0.70952031106E+02  0.25621293044E+02 -0.73993762350E+02  0.10575060587E+03  0.41800000000E+01 0.  1.
        -11    1    1    2    0    0  0.18057853251E+02 -0.38033623199E+02 -0.22736435961E+02  0.47849640311E+02  0.00000000000E+00 0. -1.
         11    1    1    2    0    0  0.20115687295E+02  0.27576967303E+02 -0.13003834957E+03  0.13444367728E+03  0.00000000000E+00 0.  1.
</event>
<event>
 7    1  0.2594791E-009  0.1646790E+03  0.7561462E-02  0.1183513E+00
         -1   -1    0    0    0  501 -0.00000000000E+00  0.00000000000E+00  0.40648518918E+03  0.40648518918E+03  0.00000000000E+00 0.  1.
          1   -1    0    0  501    0  0.00000000000E+00 -0.00000000000E+00 -0.79890215059E+02  0.79890215059E+02  0.00000000000E+00 0. -1.
         25    2    1    2    0    0  0.89512276187E+02  0.10163495420E+03  0.10926836984E+03  0.21431076157E+03  0.12508962536E+03 0.  0.
          5    1    3    3  502    0  0.92767308638E+02  0.12413195931E+03  0.73111460343E+02  0.17139800147E+03  0.41800000000E+01 0.  1.
         -5    1    3    3    0  502 -0.32550324515E+01 -0.22497005108E+02  0.36156909497E+02  0.42912760101E+02  0.41800000000E+01 0.  1.
        -11    1    1    2    0    0 -0.79438897764E+02 -0.40318839661E+02  0.73866891161E+02  0.11572581786E+03  0.00000000000E+00 0. -1.
         11    1    1    2    0    0 -0.10073378422E+02 -0.61316114539E+02  0.14345971312E+03  0.15633882481E+03  0.00000000000E+00 0.  1.
</event>
<event>
 7    1  0.2594791E-009  0.9800586E+02  0.7561462E-02  0.1284546E+00
         -1   -1    0    0    0  501 -0.00000000000E+00  0.00000000000E+00  0.14679335957E+03  0.14679335957E+03  0.00000000000E+00 0.  1.
          1   -1    0    0  501    0  0.00000000000E+00 -0.00000000000E+00 -0.11012195961E+03  0.11012195961E+03  0.00000000000E+00 0. -1.
         25    2    1    2    0    0  0.27059070593E+02 -0.13657698838E+02 -0.38334623470E+02  0.13427716769E+03  0.12506833479E+03 0.  0.
          5    1    3    3  502    0  0.31507583104E+02 -0.52681046482E+02  0.19232917429E+02  0.64462376347E+02  0.41800000000E+01 0.  1.
         -5    1    3    3    0  502 -0.44485125113E+01  0.39023347644E+02 -0.57567540899E+02  0.69814791342E+02  0.41800000000E+01 0.  1.
        -11    1    1    2    0    0 -0.49711767682E+02  0.37371858141E+02  0.60545232729E+02  0.86796548510E+02  0.00000000000E+00 0. -1.
         11    1    1    2    0    0  0.22652697089E+02 -0.23714159303E+02  0.14460790692E+02  0.35841602982E+02  0.00000000000E+00 0.  1.
</event>
<event>
 7    1  0.2594791E-009  0.6665804E+02  0.7561462E-02  0.1371841E+00
          1   -1    0    0  501    0  0.00000000000E+00  0.00000000000E+00  0.14821140064E+03  0.14821140064E+03  0.00000000000E+00 0. -1.
         -1   -1    0    0    0  501 -0.00000000000E+00 -0.00000000000E+00 -0.14016574792E+03  0.14016574792E+03  0.00000000000E+00 0.  1.
         25    2    1    2    0    0 -0.34534687895E+02 -0.25663614605E+02 -0.82042837047E+02  0.15567858736E+03  0.12511406663E+03 0.  0.
          5    1    3    3  502    0 -0.32306331636E+02 -0.31626904439E+02  0.22629241329E+02  0.50729824672E+02  0.41800000000E+01 0. -1.
         -5    1    3    3    0  502 -0.22283562586E+01  0.59632898338E+01 -0.10467207838E+03  0.10494876268E+03  0.41800000000E+01 0. -1.
        -11    1    1    2    0    0  0.76558623336E+00 -0.21928523729E+02 -0.36860578196E+01  0.22249343754E+02  0.00000000000E+00 0.  1.
         11    1    1    2    0    0  0.33769101662E+02  0.47592138334E+02  0.93774547588E+02  0.11044921744E+03  0.00000000000E+00 0. -1.
</event>
<event>
 7    1  0.2594791E-009  0.9274776E+02  0.7561462E-02  0.1296331E+00
          1   -1    0    0  501    0  0.00000000000E+00  0.00000000000E+00  0.27567635498E+03  0.27567635498E+03  0.00000000000E+00 0. -1.
         -1   -1    0    0    0  501 -0.00000000000E+00 -0.00000000000E+00 -0.62621468156E+02  0.62621468156E+02  0.00000000000E+00 0.  1.
         25    2    1    2    0    0 -0.60170949482E+02 -0.24048712556E+02  0.16420785895E+03  0.21635702275E+03  0.12508899478E+03 0.  0.
          5    1    3    3  502    0 -0.10018033394E+02  0.94580792710E+01  0.15444329600E+03  0.15511292768E+03  0.41800000000E+01 0.  1.
         -5    1    3    3    0  502 -0.50152916088E+02 -0.33506791827E+02  0.97645629507E+01  0.61244095065E+02  0.41800000000E+01 0.  1.
        -11    1    1    2    0    0  0.78527454527E+02 -0.22571953478E+01  0.26750985561E+02  0.82989585333E+02  0.00000000000E+00 0.  1.
         11    1    1    2    0    0 -0.18356505044E+02  0.26305907904E+02  0.22096042315E+02  0.38951215052E+02  0.00000000000E+00 0. -1.
</event>
<event>
 7    1  0.2594791E-009  0.8812295E+02  0.7561462E-02  0.1307462E+00
          1   -1    0    0  501    0  0.00000000000E+00  0.00000000000E+00  0.24638267240E+03  0.24638267240E+03  0.00000000000E+00 0. -1.
         -1   -1    0    0    0  501 -0.00000000000E+00 -0.00000000000E+00 -0.64761755312E+02  0.64761755312E+02  0.00000000000E+00 0.  1.
         25    2    1    2    0    0 -0.58920803619E+02 -0.11150929190E+02  0.68033263968E+02  0.15450552310E+03  0.12508967720E+03 0.  0.
          5    1    3    3  502    0 -0.79719115013E+02  0.16231982720E+02  0.83424686960E+02  0.11660088060E+03  0.41800000000E+01 0. -1.
         -5    1    3    3    0  502  0.20798311394E+02 -0.27382911910E+02 -0.15391422992E+02  0.37904642502E+02  0.41800000000E+01 0. -1.
        -11    1    1    2    0    0  0.34158630360E+02  0.41368334895E+01  0.12414215448E+03  0.12882235807E+03  0.00000000000E+00 0. -1.
         11    1    1    2    0    0  0.24762173259E+02  0.70140957003E+01 -0.10554501356E+02  0.27816546549E+02  0.00000000000E+00 0.  1.
</event>
<event>
 7    1  0.2594791E-009  0.1388560E+03  0.7561462E-02  0.1214877E+00
          2   -1    0    0  501    0  0.00000000000E+00  0.00000000000E+00  0.97219160958E+03  0.97219160958E+03  0.00000000000E+00 0. -1.
         -2   -1    0    0    0  501 -0.00000000000E+00 -0.00000000000E+00 -0.28548260354E+02  0.28548260354E+02  0.00000000000E+00 0.  1.
         25    2    1    2    0    0  0.63420261856E+02 -0.10706966006E+03  0.44909409064E+03  0.48251294248E+03  0.12508875127E+03 0.  0.
          5    1    3    3  502    0  0.51492200553E+02 -0.20113799222E+02  0.32937445544E+03  0.33400750879E+03  0.41800000000E+01 0. -1.
         -5    1    3    3    0  502  0.11928061304E+02 -0.86955860841E+02  0.11971963521E+03  0.14850543369E+03  0.41800000000E+01 0. -1.
        -11    1    1    2    0    0 -0.40843995022E+00  0.48101154361E+02  0.69613817611E+02  0.84616614660E+02  0.00000000000E+00 0.  1.
         11    1    1    2    0    0 -0.63011821906E+02  0.58968505702E+02  0.42493544098E+03  0.43361031280E+03  0.00000000000E+00 0. -1.
</event>
<event>
 7    1  0.2594791E-009  0.8823868E+02  0.7561462E-02  0.1307174E+00
          1   -1    0    0  501    0  0.00000000000E+00  0.00000000000E+00  0.19026457333E+03  0.19026457333E+03  0.00000000000E+00 0. -1.
         -1   -1    0    0    0  501 -0.00000000000E+00 -0.00000000000E+00 -0.11268346985E+03  0.11268346985E+03  0.00000000000E+00 0.  1.
         25    2    1    2    0    0  0.65812383630E+02 -0.46384622357E+02  0.98140009206E+02  0.17820032242E+03  0.12506434533E+03 0.  0.
          5    1    3    3  502    0  0.49017921184E+02 -0.35662310721E+02  0.12821391918E+03  0.14188318602E+03  0.41800000000E+01 0.  1.
         -5    1    3    3    0  502  0.16794462447E+02 -0.10722311636E+02 -0.30073909971E+02  0.36317136405E+02  0.41800000000E+01 0.  1.
        -11    1    1    2    0    0 -0.68650724944E+02  0.23898405363E+02 -0.49531954016E+02  0.87962891510E+02  0.00000000000E+00 0.  1.
         11    1    1    2    0    0  0.28383413134E+01  0.22486216995E+02  0.28973048290E+02  0.36784829256E+02  0.00000000000E+00 0. -1.
</event>
<event>
 7    1  0.2594791E-009  0.1458621E+03  0.7561462E-02  0.1205652E+00
         -1   -1    0    0    0  501 -0.00000000000E+00  0.00000000000E+00  0.19531498284E+02  0.19531498284E+02  0.00000000000E+00 0.  1.
          1   -1    0    0  501    0  0.00000000000E+00 -0.00000000000E+00 -0.15162994951E+04  0.15162994951E+04  0.00000000000E+00 0. -1.
         25    2    1    2    0    0  0.10941577249E+03 -0.68570676987E+02 -0.95931986020E+03  0.97601996276E+03  0.12508646816E+03 0.  0.
          5    1    3    3  502    0  0.71205861109E+02 -0.15843796431E+02 -0.80715043182E+03  0.81045085756E+03  0.41800000000E+01 0. -1.
         -5    1    3    3    0  502  0.38209911378E+02 -0.52726880556E+02 -0.15216942838E+03  0.16556910520E+03  0.41800000000E+01 0. -1.
        -11    1    1    2    0    0 -0.60429802245E+02 -0.95684983305E+01 -0.27207281045E+03  0.27886722888E+03  0.00000000000E+00 0.  1.
         11    1    1    2    0    0 -0.48985970242E+02  0.78139175317E+02 -0.26537532617E+03  0.28094380175E+03  0.00000000000E+00 0. -1.
</event>
<event>
 7    1  0.2698154E-009  0.1432334E+03  0.7561462E-02  0.1209043E+00
         -1   -1    0    0    0  501 -0.00000000000E+00  0.00000000000E+00  0.20210109870E+03  0.20210109870E+03  0.00000000000E+00 0.  1.
          1   -1    0    0  501    0  0.00000000000E+00 -0.00000000000E+00 -0.12835436955E+03  0.12835436955E+03  0.00000000000E+00 0. -1.
         25    2    1    2    0    0 -0.29071795414E+02 -0.10775608483E+03  0.79954800686E+02  0.18573250496E+03  0.12508896889E+03 0.  0.
          5    1    3    3  502    0 -0.27575326773E+02 -0.13310144899E+03  0.83766129377E+02  0.15972047834E+03  0.41800000000E+01 0.  1.
         -5    1    3    3    0  502 -0.14964686408E+01  0.25345364155E+02 -0.38113286915E+01  0.26012026621E+02  0.41800000000E+01 0.  1.
        -11    1    1    2    0    0  0.33442288353E+02  0.24706231352E+02 -0.37377139782E+02  0.55909168266E+02  0.00000000000E+00 0. -1.
         11    1    1    2    0    0 -0.43704929388E+01  0.83049853480E+02  0.31169068248E+02  0.88813795026E+02  0.00000000000E+00 0.  1.
</event>
<event>
 7    1  0.2594791E-009  0.1336900E+03  0.7561462E-02  0.1222081E+00
          2   -1    0    0  501    0  0.00000000000E+00  0.00000000000E+00  0.42113432936E+03  0.42113432936E+03  0.00000000000E+00 0.  1.
         -2   -1    0    0    0  501 -0.00000000000E+00 -0.00000000000E+00 -0.49259571413E+02  0.49259571413E+02  0.00000000000E+00 0. -1.
         25    2    1    2    0    0  0.44450318973E+01 -0.89390634308E+02  0.15202511662E+03  0.21626040610E+03  0.12508590389E+03 0.  0.
          5    1    3    3  502    0  0.45422576932E+02 -0.18029523400E+01  0.14129908033E+02  0.47786900227E+02  0.41800000000E+01 0. -1.
         -5    1    3    3    0  502 -0.40977545034E+02 -0.87587681968E+02  0.13789520859E+03  0.16847350587E+03  0.41800000000E+01 0. -1.
        -11    1    1    2    0    0 -0.78356901512E+01 -0.16882885620E+02  0.54087319332E+02  0.57200244576E+02  0.00000000000E+00 0.  1.
         11    1    1    2    0    0  0.33906582539E+01  0.10627351993E+03  0.16576232199E+03  0.19693325010E+03  0.00000000000E+00 0. -1.
</event>
<event>
 7    1  0.2594791E-009  0.8181222E+02  0.7561462E-02  0.1323986E+00
         -2   -1    0    0    0  501 -0.00000000000E+00  0.00000000000E+00  0.30969740817E+03  0.30969740817E+03  0.00000000000E+00 0.  1.
          2   -1    0    0  501    0  0.00000000000E+00 -0.00000000000E+00 -0.75538472979E+02  0.75538472979E+02  0.00000000000E+00 0. -1.
         25    2    1    2    0    0  0.49355085727E+02 -0.33894920895E+02  0.25920377678E+03  0.29397194563E+03  0.12509243290E+03 0.  0.
          5    1    3    3  502    0  0.32324898884E+02 -0.46265702105E+02  0.30549796704E+02  0.64313114975E+02  0.41800000000E+01 0.  1.
         -5    1    3    3    0  502  0.17030186843E+02  0.12370781210E+02  0.22865398008E+03  0.22965883065E+03  0.41800000000E+01 0.  1.
        -11    1    1    2    0    0 -0.23389001660E+02  0.49870858196E+02 -0.62199652673E+01  0.55433165738E+02  0.00000000000E+00 0. -1.
         11    1    1    2    0    0 -0.25966084068E+02 -0.15975937301E+02 -0.18824876325E+02  0.35830769781E+02  0.00000000000E+00 0.  1.
</event>
<event>
 7    1  0.2594791E-009  0.1092302E+03  0.7561462E-02  0.1262002E+00
         -2   -1    0    0    0  501 -0.00000000000E+00  0.00000000000E+00  0.98844276711E+03  0.98844276711E+03  0.00000000000E+00 0.  1.
          2   -1    0    0  501    0  0.00000000000E+00 -0.00000000000E+00 -0.25432211589E+02  0.25432211589E+02  0.00000000000E+00 0. -1.
         25    2    1    2    0    0  0.75165607760E+02  0.28805455763E+01  0.79708483970E+03  0.81033944954E+03  0.12509042999E+03 0.  0.
          5    1    3    3  502    0 -0.31425087467E+01 -0.28751282616E+02  0.45919132269E+02  0.54429318585E+02  0.41800000000E+01 0.  1.
         -5    1    3    3    0  502  0.78308116506E+02  0.31631828193E+02  0.75116570743E+03  0.75591013096E+03  0.41800000000E+01 0.  1.
        -11    1    1    2    0    0  0.33944493658E+01 -0.23269527197E+02  0.61181345165E+01  0.24298657420E+02  0.00000000000E+00 0. -1.
         11    1    1    2    0    0 -0.78560057125E+02  0.20388981621E+02  0.15980758131E+03  0.17923687174E+03  0.00000000000E+00 0.  1.
</event>
<event>
 7    1  0.2594791E-009  0.9787561E+02  0.7561462E-02  0.1284828E+00
         -2   -1    0    0    0  501 -0.00000000000E+00  0.00000000000E+00  0.29330195028E+03  0.29330195028E+03  0.00000000000E+00 0.  1.
          2   -1    0    0  501    0  0.00000000000E+00 -0.00000000000E+00 -0.62407256110E+02  0.62407256110E+02  0.00000000000E+00 0. -1.
         25    2    1    2    0    0 -0.85469503350E+02  0.71649071651E+01  0.11212228800E+03  0.18861394256E+03  0.12508972764E+03 0.  0.
          5    1    3    3  502    0 -0.65195273338E+02 -0.68697291206E+01  0.13786985475E+03  0.15271930491E+03  0.41800000000E+01 0.  1.
         -5    1    3    3    0  502 -0.20274230012E+02  0.14034636286E+02 -0.25747566748E+02  0.35894637646E+02  0.41800000000E+01 0.  1.
        -11    1    1    2    0    0  0.54072210698E+02  0.25466039670E+02  0.28747560852E+02  0.66323038239E+02  0.00000000000E+00 0.  1.
         11    1    1    2    0    0  0.31397292652E+02 -0.32630946836E+02  0.90024845319E+02  0.10077222560E+03  0.00000000000E+00 0. -1.
</event>
<event>
 7    1  0.2594791E-009  0.9533089E+02  0.7561462E-02  0.1290433E+00
          3   -1    0    0  501    0  0.00000000000E+00  0.00000000000E+00  0.28473556228E+03  0.28473556228E+03  0.00000000000E+00 0. -1.
         -3   -1    0    0    0  501 -0.00000000000E+00 -0.00000000000E+00 -0.73801723603E+02  0.73801723603E+02  0.00000000000E+00 0.  1.
         25    2    1    2    0    0  0.86626448649E+01  0.78547885480E+02  0.48941936532E+02  0.15584489923E+03  0.12508999855E+03 0.  0.
          5    1    3    3  502    0  0.21103429472E+02  0.10378848253E+02  0.77261697493E+02  0.80869756560E+02  0.41800000000E+01 0. -1.
         -5    1    3    3    0  502 -0.12440784607E+02  0.68169037226E+02 -0.28319760961E+02  0.74975142673E+02  0.41800000000E+01 0. -1.
        -11    1    1    2    0    0  0.21024206002E+02 -0.11352027721E+02  0.11032124208E+03  0.11287897158E+03  0.00000000000E+00 0. -1.
         11    1    1    2    0    0 -0.29686850867E+02 -0.67195857758E+02  0.51670660061E+02  0.89813415064E+02  0.00000000000E+00 0.  1.
</event>
<event>
 7    1  0.2594791E-009  0.1277696E+03  0.7561462E-02  0.1230803E+00
         -1   -1    0    0    0  501 -0.00000000000E+00  0.00000000000E+00  0.92544068656E+02  0.92544068656E+02  0.00000000000E+00 0.  1.
          1   -1    0    0  501    0  0.00000000000E+00 -0.00000000000E+00 -0.25216364064E+03  0.25216364064E+03  0.00000000000E+00 0. -1.
         25    2    1    2    0    0  0.83138796044E+02 -0.42753309009E+02 -0.14525467152E+03  0.21327300963E+03  0.12508617908E+03 0.  0.
          5    1    3    3  502    0  0.14012460380E+02 -0.66929717390E+02 -0.11514097033E+03  0.13398078804E+03  0.41800000000E+01 0. -1.
         -5    1    3    3    0  502  0.69126335664E+02  0.24176408381E+02 -0.30113701197E+02  0.79292221588E+02  0.41800000000E+01 0. -1.
        -11    1    1    2    0    0 -0.42493526273E+02  0.56568005015E+02 -0.40158128555E+02  0.81353022412E+02  0.00000000000E+00 0. -1.
         11    1    1    2    0    0 -0.40645269771E+02 -0.13814696006E+02  0.25793228100E+02  0.50081677251E+02  0.00000000000E+00 0.  1.
</event>
<event>
 7    1  0.2594791E-009  0.9566785E+02  0.7561462E-02  0.1289679E+00
         -1   -1    0    0    0  501 -0.00000000000E+00  0.00000000000E+00  0.13249342730E+03  0.13249342730E+03  0.00000000000E+00 0.  1.
          1   -1    0    0  501    0  0.00000000000E+00 -0.00000000000E+00 -0.15775009209E+03  0.15775009209E+03  0.00000000000E+00 0. -1.
         25    2    1    2    0    0  0.96362705899E+01 -0.34515174077E+02 -0.10133285313E+03  0.16492299215E+03  0.12508833384E+03 0.  0.
          5    1    3    3  502    0  0.26181965370E+02  0.28282242489E+02  0.61736895241E+01  0.39255157536E+02  0.41800000000E+01 0.  1.
         -5    1    3    3    0  502 -0.16545694780E+02 -0.62797416566E+02 -0.10750654266E+03  0.12566783462E+03  0.41800000000E+01 0.  1.
        -11    1    1    2    0    0 -0.27597878846E+02  0.54215002702E+02  0.21396370679E+02  0.64488092800E+02  0.00000000000E+00 0. -1.
         11    1    1    2    0    0  0.17961608256E+02 -0.19699828625E+02  0.54679817670E+02  0.60832434437E+02  0.00000000000E+00 0.  1.
</event>
<event>
 7    1  0.2594791E-009  0.1364522E+03  0.7561462E-02  0.1218184E+00
         -2   -1    0    0    0  501 -0.00000000000E+00  0.00000000000E+00  0.70812450035E+03  0.70812450035E+03  0.00000000000E+00 0.  1.
          2   -1    0    0  501    0  0.00000000000E+00 -0.00000000000E+00 -0.33427013024E+02  0.33427013024E+02  0.00000000000E+00 0. -1.
         25    2    1    2    0    0  0.57602041022E+02  0.88583842909E+02  0.33427125491E+03  0.37222198404E+03  0.12508733425E+03 0.  0.
          5    1    3    3  502    0  0.44782616099E+02  0.10439518571E+03  0.33246849310E+03  0.35136392644E+03  0.41800000000E+01 0.  1.
         -5    1    3    3    0  502  0.12819424922E+02 -0.15811342802E+02  0.18027618133E+01  0.20858057597E+02  0.41800000000E+01 0.  1.
        -11    1    1    2    0    0  0.45976054461E+01 -0.74546933276E+02  0.13561310550E+03  0.15482021063E+03  0.00000000000E+00 0. -1.
         11    1    1    2    0    0 -0.62199646468E+02 -0.14036909633E+02  0.20481312692E+03  0.21450931870E+03  0.00000000000E+00 0.  1.
</event>
<event>
 7    1  0.2594791E-009  0.1140472E+03  0.7561462E-02  0.1253253E+00
          3   -1    0    0  501    0  0.00000000000E+00  0.00000000000E+00  0.90494089912E+02  0.90494089912E+02  0.00000000000E+00 0. -1.
         -3   -1    0    0    0  501 -0.00000000000E+00 -0.00000000000E+00 -0.22163557789E+03  0.22163557789E+03  0.00000000000E+00 0.  1.
         25    2    1    2    0    0 -0.92829506184E+01  0.76286345604E+02 -0.16826401630E+02  0.14776930780E+03  0.12508741279E+03 0.  0.
          5    1    3    3  502    0 -0.15644239029E+02 -0.30016437852E+02  0.13936552565E+02  0.36843298625E+02  0.41800000000E+01 0.  1.
         -5    1    3    3    0  502  0.63612884110E+01  0.10630278346E+03 -0.30762954195E+02  0.11092600918E+03  0.41800000000E+01 0.  1.
        -11    1    1    2    0    0  0.25287256595E+02 -0.35378199562E+02 -0.11225607849E+03  0.12038475613E+03  0.00000000000E+00 0.  1.
         11    1    1    2    0    0 -0.16004305976E+02 -0.40908146042E+02 -0.20590078554E+01  0.43975603870E+02  0.00000000000E+00 0. -1.
</event>
<event>
 7    1  0.2594791E-009  0.1438675E+03  0.7561462E-02  0.1208218E+00
         -2   -1    0    0    0  501 -0.00000000000E+00  0.00000000000E+00  0.12609140794E+04  0.12609140794E+04  0.00000000000E+00 0.  1.
          2   -1    0    0  501    0  0.00000000000E+00 -0.00000000000E+00 -0.17347114990E+02  0.17347114990E+02  0.00000000000E+00 0. -1.
         25    2    1    2    0    0  0.30418576443E+02 -0.95304743650E+02  0.64342618004E+03  0.66306372896E+03  0.12509186844E+03 0.  0.
          5    1    3    3  502    0 -0.21203030261E+02  0.20129292224E+02  0.72455043441E+02  0.78242971683E+02  0.41800000000E+01 0.  1.
         -5    1    3    3    0  502  0.51621606704E+02 -0.11543403587E+03  0.57097113660E+03  0.58482075728E+03  0.41800000000E+01 0.  1.
        -11    1    1    2    0    0 -0.53126000811E+02  0.26783056111E+02  0.20256290873E+03  0.21111948288E+03  0.00000000000E+00 0. -1.
         11    1    1    2    0    0  0.22707424368E+02  0.68521687539E+02  0.39757787564E+03  0.40407798255E+03  0.00000000000E+00 0.  1.
</event>
<event>
 7    1  0.2594791E-009  0.1126074E+03  0.7561462E-02  0.1255816E+00
         -1   -1    0    0    0  501 -0.00000000000E+00  0.00000000000E+00  0.79547634748E+03  0.79547634748E+03  0.00000000000E+00 0.  1.
          1   -1    0    0  501    0  0.00000000000E+00 -0.00000000000E+00 -0.19283447475E+02  0.19283447475E+02  0.00000000000E+00 0. -1.
         25    2    1    2    0    0  0.19529762033E+02 -0.46225692531E+02  0.52703563663E+03  0.54399685205E+03  0.12509111280E+03 0.  0.
          5    1    3    3  502    0  0.50118938030E+02 -0.73650037166E+02  0.41788920102E+03  0.42729976908E+03  0.41800000000E+01 0. -1.
         -5    1    3    3    0  502 -0.30589175996E+02  0.27424344635E+02  0.10914643561E+03  0.11669708297E+03  0.41800000000E+01 0. -1.
        -11    1    1    2    0    0 -0.16927759872E+02 -0.21273765578E+02  0.13829818585E+03  0.14094506152E+03  0.00000000000E+00 0.  1.
         11    1    1    2    0    0 -0.26020021610E+01  0.67499458109E+02  0.11085907752E+03  0.12981788139E+03  0.00000000000E+00 0. -1.
</event>
<event>
 7    1  0.2594791E-009  0.1919357E+03  0.7561462E-02  0.1156727E+00
         -2   -1    0    0    0  501 -0.00000000000E+00  0.00000000000E+00  0.14407267872E+02  0.14407267872E+02  0.00000000000E+00 0.  1.
          2   -1    0    0  501    0  0.00000000000E+00 -0.00000000000E+00 -0.29528818106E+04  0.29528818106E+04  0.00000000000E+00 0. -1.
         25    2    1    2    0    0  0.57351349324E+02  0.14914180915E+03 -0.20399113719E+04  0.20499797490E+04  0.12508440923E+03 0.  0.
          5    1    3    3  502    0  0.92082058443E+02  0.13222190540E+03 -0.14885987994E+04  0.14972994342E+04  0.41800000000E+01 0. -1.
         -5    1    3    3    0  502 -0.34730709120E+02  0.16919903748E+02 -0.55131257254E+03  0.55268031477E+03  0.41800000000E+01 0. -1.
        -11    1    1    2    0    0 -0.80110052161E+02 -0.13517365791E+03 -0.73813830570E+03  0.75467721351E+03  0.00000000000E+00 0.  1.
         11    1    1    2    0    0  0.22758702837E+02 -0.13968151239E+02 -0.16042486507E+03  0.16263211595E+03  0.00000000000E+00 0. -1.
</event>
<event>
 7    1  0.2594791E-009  0.6493201E+02  0.7561462E-02  0.1378227E+00
          2   -1    0    0  501    0  0.00000000000E+00  0.00000000000E+00  0.26559066176E+03  0.26559066176E+03  0.00000000000E+00 0. -1.
         -2   -1    0    0    0  501 -0.00000000000E+00 -0.00000000000E+00 -0.54846321614E+02  0.54846321614E+02  0.00000000000E+00 0.  1.
         25    2    1    2    0    0 -0.22170674299E+02 -0.33613301731E+02  0.76989464804E+02  0.15230219824E+03  0.12508872470E+03 0.  0.
          5    1    3    3  502    0 -0.71093554049E+01 -0.16322229449E+02 -0.34153526270E+02  0.38741371493E+02  0.41800000000E+01 0.  1.
         -5    1    3    3    0  502 -0.15061318894E+02 -0.17291072282E+02  0.11114299107E+03  0.11356082675E+03  0.41800000000E+01 0.  1.
        -11    1    1    2    0    0  0.28611220922E+02 -0.19590592507E+02  0.97365245392E+02  0.10335562049E+03  0.00000000000E+00 0. -1.
         11    1    1    2    0    0 -0.64405466221E+01  0.53203894238E+02  0.36389629946E+02  0.64779164632E+02  0.00000000000E+00 0.  1.
</event>
<event>
 7    1  0.2594791E-009  0.7810683E+02  0.7561462E-02  0.1334511E+00
          1   -1    0    0  501    0  0.00000000000E+00  0.00000000000E+00  0.13616147782E+03  0.13616147782E+03  0.00000000000E+00 0. -1.
         -1   -1    0    0    0  501 -0.00000000000E+00 -0.00000000000E+00 -0.91223094638E+02  0.91223094638E+02  0.00000000000E+00 0.  1.
         25    2    1    2    0    0  0.96367020846E+01  0.14741502310E+02  0.92426965135E+01  0.12666206248E+03  0.12509065798E+03 0.  0.
          5    1    3    3  502    0  0.20434902185E+02  0.52955112884E+02 -0.35197086335E+02  0.66918879955E+02  0.41800000000E+01 0. -1.
         -5    1    3    3    0  502 -0.10798200100E+02 -0.38213610574E+02  0.44439782849E+02  0.59743182524E+02  0.41800000000E+01 0. -1.
        -11    1    1    2    0    0  0.10410901844E+02 -0.31540242679E+02 -0.20295122866E+02  0.38923846131E+02  0.00000000000E+00 0.  1.
         11    1    1    2    0    0 -0.20047603929E+02  0.16798740369E+02  0.55990809535E+02  0.61798663850E+02  0.00000000000E+00 0. -1.
</event>
<event>
 7    1  0.4034609E-009  0.1220164E+03  0.7561462E-02  0.1239807E+00
          2   -1    0    0  501    0  0.00000000000E+00  0.00000000000E+00  0.42271359895E+03  0.42271359895E+03  0.00000000000E+00 0. -1.
         -2   -1    0    0    0  501 -0.00000000000E+00 -0.00000000000E+00 -0.47380719191E+02  0.47380719191E+02  0.00000000000E+00 0.  1.
         25    2    1    2    0    0 -0.85208693207E+02 -0.29222579216E+02  0.21128837524E+03  0.26154546836E+03  0.12509505975E+03 0.  0.
          5    1    3    3  502    0  0.43648415466E+01  0.39587527827E+02  0.42381803361E+02  0.58308780276E+02  0.41800000000E+01 0. -1.
         -5    1    3    3    0  502 -0.89573534754E+02 -0.68810107043E+02  0.16890657188E+03  0.20323668809E+03  0.41800000000E+01 0. -1.
        -11    1    1    2    0    0  0.36917014117E+02  0.61097994138E+01  0.15383275420E+01  0.37450794809E+02  0.00000000000E+00 0.  1.
         11    1    1    2    0    0  0.48291679091E+02  0.23112779802E+02  0.16250617698E+03  0.17109805497E+03  0.00000000000E+00 0. -1.
</event>
<event>
 7    1  0.2594791E-009  0.8921192E+02  0.7561462E-02  0.1304771E+00
          1   -1    0    0  501    0  0.00000000000E+00  0.00000000000E+00  0.27195831365E+03  0.27195831365E+03  0.00000000000E+00 0. -1.
         -1   -1    0    0    0  501 -0.00000000000E+00 -0.00000000000E+00 -0.54942598927E+02  0.54942598927E+02  0.00000000000E+00 0.  1.
         25    2    1    2    0    0 -0.52322765760E+02  0.23777340140E+02  0.13022609965E+03  0.18949742376E+03  0.12508957934E+03 0.  0.
          5    1    3    3  502    0  0.33690958812E+00  0.18347504182E+02 -0.21601810220E+02  0.28650567578E+02  0.41800000000E+01 0.  1.
         -5    1    3    3    0  502 -0.52659675348E+02  0.54298359579E+01  0.15182790987E+03  0.16084685618E+03  0.41800000000E+01 0.  1.
        -11    1    1    2    0    0  0.42393720564E+02  0.29922104329E+02  0.40827309956E+02  0.66025972988E+02  0.00000000000E+00 0. -1.
         11    1    1    2    0    0  0.99290451966E+01 -0.53699444469E+02  0.45962305115E+02  0.71377515831E+02  0.00000000000E+00 0.  1.
</event>
<event>
 7    1  0.2594791E-009  0.1343969E+03  0.7561462E-02  0.1221074E+00
         -2   -1    0    0    0  501 -0.00000000000E+00  0.00000000000E+00  0.36810061193E+02  0.36810061193E+02  0.00000000000E+00 0.  1.
          2   -1    0    0  501    0  0.00000000000E+00 -0.00000000000E+00 -0.56914283344E+03  0.56914283344E+03  0.00000000000E+00 0. -1.
         25    2    1    2    0    0  0.89013555787E+02 -0.12450694378E+01 -0.35784623035E+03  0.38939225517E+03  0.12508972980E+03 0.  0.
          5    1    3    3  502    0 -0.27221791711E+02 -0.57678868171E+01 -0.13582636214E+03  0.13871037277E+03  0.41800000000E+01 0. -1.
         -5    1    3    3    0  502  0.11623534750E+03  0.45228173793E+01 -0.22201986821E+03  0.25068188240E+03  0.41800000000E+01 0. -1.
        -11    1    1    2    0    0 -0.14543993274E+02  0.38379144241E+02 -0.34080737374E+02  0.53347756401E+02  0.00000000000E+00 0. -1.
         11    1    1    2    0    0 -0.74469562513E+02 -0.37134074803E+02 -0.14040580452E+03  0.16321288306E+03  0.00000000000E+00 0.  1.
</event>
<event>
 7    1  0.2594791E-009  0.1308776E+03  0.7561462E-02  0.1226159E+00
         -2   -1    0    0    0  501 -0.00000000000E+00  0.00000000000E+00  0.31068131298E+02  0.31068131298E+02  0.00000000000E+00 0.  1.
          2   -1    0    0  501    0  0.00000000000E+00 -0.00000000000E+00 -0.67176616377E+03  0.67176616377E+03  0.00000000000E+00 0. -1.
         25    2    1    2    0    0 -0.46986744223E+01 -0.83914789906E+02 -0.46870289731E+03  0.49233520165E+03  0.12509106813E+03 0.  0.
          5    1    3    3  502    0  0.31118887147E+02 -0.97312639961E+02 -0.24714866433E+03  0.26746601600E+03  0.41800000000E+01 0.  1.
         -5    1    3    3    0  502 -0.35817561569E+02  0.13397850055E+02 -0.22155423298E+03  0.22486918565E+03  0.41800000000E+01 0.  1.
        -11    1    1    2    0    0  0.40151139750E+02  0.74048576538E+02 -0.11244978800E+03  0.14050003748E+03  0.00000000000E+00 0. -1.
         11    1    1    2    0    0 -0.35452465327E+02  0.98662133681E+01 -0.59545347155E+02  0.69999055936E+02  0.00000000000E+00 0.  1.
</event>
<event>
 7    1  0.2594791E-009  0.1406715E+03  0.7561462E-02  0.1212428E+00
         -1   -1    0    0    0  501 -0.00000000000E+00  0.00000000000E+00  0.47079440859E+02  0.47079440859E+02  0.00000000000E+00 0.  1.
          1   -1    0    0  501    0  0.00000000000E+00 -0.00000000000E+00 -0.57098980442E+03  0.57098980442E+03  0.00000000000E+00 0. -1.
         25    2    1    2    0    0  0.67380352226E+02 -0.70799001934E+02 -0.40877838308E+03  0.43852315852E+03  0.12510069363E+03 0.  0.
          5    1    3    3  502    0 -0.15019723236E+02 -0.74247859286E+02 -0.18210996614E+03  0.19728114168E+03  0.41800000000E+01 0.  1.
         -5    1    3    3    0  502  0.82400075462E+02  0.34488573519E+01 -0.22666841694E+03  0.24124201685E+03  0.41800000000E+01 0.  1.
        -11    1    1    2    0    0 -0.76854185128E+01 -0.15885724722E+02  0.64017288833E+01  0.18772427663E+02  0.00000000000E+00 0.  1.
         11    1    1    2    0    0 -0.59694933713E+02  0.86684726656E+02 -0.12153370937E+03  0.16077365910E+03  0.00000000000E+00 0. -1.
</event>
<event>
 7    1  0.2594791E-009  0.1242526E+03  0.7561462E-02  0.1236242E+00
         -3   -1    0    0    0  501 -0.00000000000E+00  0.00000000000E+00  0.25533299842E+03  0.25533299842E+03  0.00000000000E+00 0.  1.
          3   -1    0    0  501    0  0.00000000000E+00 -0.00000000000E+00 -0.10074491164E+03  0.10074491164E+03  0.00000000000E+00 0. -1.
         25    2    1    2    0    0  0.11206320854E+02 -0.71697874003E+02  0.18626651120E+03  0.23581021325E+03  0.12508028108E+03 0.  0.
          5    1    3    3  502    0 -0.20888084762E+02  0.23854708802E+02  0.93273305270E+02  0.98603960838E+02  0.41800000000E+01 0.  1.
         -5    1    3    3    0  502  0.32094405615E+02 -0.95552582804E+02  0.92993205927E+02  0.13720625241E+03  0.41800000000E+01 0.  1.
        -11    1    1    2    0    0  0.15504937241E+02 -0.16998223929E+02 -0.24637552405E+01  0.23138988428E+02  0.00000000000E+00 0.  1.
         11    1    1    2    0    0 -0.26711258095E+02  0.88696097932E+02 -0.29214669179E+02  0.97128708385E+02  0.00000000000E+00 0. -1.
</event>
<event>
 7    1  0.2594791E-009  0.7945532E+02  0.7561462E-02  0.1330604E+00
         -3   -1    0    0    0  501 -0.00000000000E+00  0.00000000000E+00  0.26909786686E+02  0.26909786686E+02  0.00000000000E+00 0.  1.
          3   -1    0    0  501    0  0.00000000000E+00 -0.00000000000E+00 -0.44831454019E+03  0.44831454019E+03  0.00000000000E+00 0. -1.
         25    2    1    2    0    0  0.11906910813E+02  0.99217409073E+01 -0.23037636986E+03  0.26260350971E+03  0.12508843294E+03 0.  0.
          5    1    3    3  502    0  0.26477527111E+02  0.39551984062E+02 -0.23829502131E+02  0.53392288366E+02  0.41800000000E+01 0. -1.
         -5    1    3    3    0  502 -0.14570616299E+02 -0.29630243154E+02 -0.20654686773E+03  0.20921122135E+03  0.41800000000E+01 0. -1.
        -11    1    1    2    0    0  0.30004237229E+02  0.97522846729E+01 -0.24988276961E+02  0.40246432060E+02  0.00000000000E+00 0.  1.
         11    1    1    2    0    0 -0.41911148042E+02 -0.19674025580E+02 -0.16604010669E+03  0.17237438511E+03  0.00000000000E+00 0. -1.
</event>
<event>
 7    1  0.2594791E-009  0.9248875E+02  0.7561462E-02  0.1296934E+00
         -1   -1    0    0    0  501 -0.00000000000E+00  0.00000000000E+00  0.10753710704E+03  0.10753710704E+03  0.00000000000E+00 0.  1.
          1   -1    0    0  501    0  0.00000000000E+00 -0.00000000000E+00 -0.11648042231E+03  0.11648042231E+03  0.00000000000E+00 0. -1.
         25    2    1    2    0    0  0.10353649265E+02 -0.27642223473E+02 -0.93189684033E+01  0.12886181319E+03  0.12508890101E+03 0.  0.
          5    1    3    3  502    0 -0.40160008070E+02 -0.30867267073E+02 -0.44112698784E+02  0.67297971877E+02  0.41800000000E+01 0.  1.
         -5    1    3    3    0  502  0.50513657335E+02  0.32250436009E+01  0.34793730381E+02  0.61563841315E+02  0.41800000000E+01 0.  1.
        -11    1    1    2    0    0 -0.44442694644E+02  0.13388401718E+02 -0.22621282825E+02  0.51634531511E+02  0.00000000000E+00 0. -1.
         11    1    1    2    0    0  0.34089045378E+02  0.14253821755E+02  0.22996935962E+02  0.43521184647E+02  0.00000000000E+00 0.  1.
</event>
<event>
 7    1  0.2594791E-009  0.9954411E+02  0.7561462E-02  0.1281258E+00
          2   -1    0    0  501    0  0.00000000000E+00  0.00000000000E+00  0.27918756696E+02  0.27918756696E+02  0.00000000000E+00 0. -1.
         -2   -1    0    0    0  501 -0.00000000000E+00 -0.00000000000E+00 -0.51143561117E+03  0.51143561117E+03  0.00000000000E+00 0.  1.
         25    2    1    2    0    0  0.84575523971E+01 -0.38452830961E+02 -0.34482117166E+03  0.36891632756E+03  0.12508983139E+03 0.  0.
          5    1    3    3  502    0  0.31993720944E+02 -0.76819589055E+02 -0.25659197529E+03  0.26978095119E+03  0.41800000000E+01 0.  1.
         -5    1    3    3    0  502 -0.23536168547E+02  0.38366758094E+02 -0.88229196367E+02  0.99135376371E+02  0.41800000000E+01 0.  1.
        -11    1    1    2    0    0 -0.32649407234E+02  0.12175513235E+02 -0.12872059686E+03  0.13335373625E+03  0.00000000000E+00 0.  1.
         11    1    1    2    0    0  0.24191854836E+02  0.26277317727E+02 -0.99750859520E+01  0.37084304053E+02  0.00000000000E+00 0. -1.
</event>
<event>
 7    1  0.2594791E-009  0.7847506E+02  0.7561462E-02  0.1333436E+00
         -1   -1    0    0    0  501 -0.00000000000E+00  0.00000000000E+00  0.26695803362E+02  0.26695803362E+02  0.00000000000E+00 0.  1.
          1   -1    0    0  501    0  0.00000000000E+00 -0.00000000000E+00 -0.48197664729E+03  0.48197664729E+03  0.00000000000E+00 0. -1.
         25    2    1    2    0    0 -0.26146181490E+02  0.15009425660E+02 -0.29464755119E+03  0.32151751935E+03  0.12508968847E+03 0.  0.
          5    1    3    3  502    0  0.16641424003E+02 -0.23329494075E+02 -0.24121765119E+03  0.24294985065E+03  0.41800000000E+01 0. -1.
         -5    1    3    3    0  502 -0.42787605493E+02  0.38338919735E+02 -0.53429900001E+02  0.78567668696E+02  0.41800000000E+01 0. -1.
        -11    1    1    2    0    0  0.32302756512E+02 -0.36084615261E+02 -0.35343990022E+02  0.59956360526E+02  0.00000000000E+00 0.  1.
         11    1    1    2    0    0 -0.61565750221E+01  0.21075189601E+02 -0.12528930272E+03  0.12719857078E+03  0.00000000000E+00 0. -1.
</event>
<event>
 7    1  0.2594791E-009  0.1269491E+03  0.7561462E-02  0.1232054E+00
          1   -1    0    0  501    0  0.00000000000E+00  0.00000000000E+00  0.30396146289E+03  0.30396146289E+03  0.00000000000E+00 0. -1.
         -1   -1    0    0    0  501 -0.00000000000E+00 -0.00000000000E+00 -0.58461654420E+02  0.58461654420E+02  0.00000000000E+00 0.  1.
         25    2    1    2    0    0  0.18589129664E+02 -0.75217060823E+02  0.15635173791E+03  0.21470036308E+03  0.12508884034E+03 0.  0.
          5    1    3    3  502    0  0.53925084154E+02  0.46396736594E+00  0.10051664551E+03  0.11414551411E+03  0.41800000000E+01 0. -1.
         -5    1    3    3    0  502 -0.35335954490E+02 -0.75681028189E+02  0.55835092405E+02  0.10055484897E+03  0.41800000000E+01 0. -1.
        -11    1    1    2    0    0 -0.53518243264E+02  0.48174580701E+02  0.66787420496E+02  0.98211771822E+02  0.00000000000E+00 0.  1.
         11    1    1    2    0    0  0.34929113600E+02  0.27042480122E+02  0.22360650060E+02  0.49510982409E+02  0.00000000000E+00 0. -1.
</event>
<event>
 7    1  0.2594791E-009  0.2119351E+03  0.7561462E-02  0.1140043E+00
         -2   -1    0    0    0  501 -0.00000000000E+00  0.00000000000E+00  0.40122365918E+02  0.40122365918E+02  0.00000000000E+00 0.  1.
          2   -1    0    0  501    0  0.00000000000E+00 -0.00000000000E+00 -0.15012394346E+04  0.15012394346E+04  0.00000000000E+00 0. -1.
         25    2    1    2    0    0 -0.18456207172E+03  0.62681814400E+02 -0.10756817660E+04  0.11003323490E+04  0.12509135955E+03 0.  0.
          5    1    3    3  502    0  0.73913783235E+01  0.22515069316E+02 -0.27186117835E+03  0.27292404348E+03  0.41800000000E+01 0. -1.
         -5    1    3    3    0  502 -0.19195345004E+03  0.40166745084E+02 -0.80382058770E+03  0.82740830549E+03  0.41800000000E+01 0. -1.
        -11    1    1    2    0    0  0.16029381942E+03 -0.30214228933E+02 -0.24098578019E+03  0.29100026534E+03  0.00000000000E+00 0.  1.
         11    1    1    2    0    0  0.24268252295E+02 -0.32467585467E+02 -0.14444952246E+03  0.15002918621E+03  0.00000000000E+00 0. -1.
</event>
<event>
 7    1  0.2594791E-009  0.1175999E+03  0.7561462E-02  0.1247110E+00
         -2   -1    0    0    0  501 -0.00000000000E+00  0.00000000000E+00  0.61755890085E+02  0.61755890085E+02  0.00000000000E+00 0.  1.
          2   -1    0    0  501    0  0.00000000000E+00 -0.00000000000E+00 -0.36810711352E+03  0.36810711352E+03  0.00000000000E+00 0. -1.
         25    2    1    2    0    0 -0.25980916434E+02 -0.62210770188E+02 -0.27692344513E+03  0.31125655704E+03  0.12509541118E+03 0.  0.
          5    1    3    3  502    0 -0.48020905886E+01 -0.89751660352E+02 -0.25389234423E+03  0.26936446586E+03  0.41800000000E+01 0.  1.
         -5    1    3    3    0  502 -0.21178825846E+02  0.27540890165E+02 -0.23031100895E+02  0.41892091183E+02  0.41800000000E+01 0.  1.
        -11    1    1    2    0    0  0.55738623261E+02  0.57535308827E+02 -0.35920765558E+02  0.87791840641E+02  0.00000000000E+00 0. -1.
         11    1    1    2    0    0 -0.29757706826E+02  0.46754613604E+01  0.64929872498E+01  0.30814605919E+02  0.00000000000E+00 0.  1.
</event>
<event>
 7    1  0.2594791E-009  0.1369092E+03  0.7561462E-02  0.1217549E+00
          2   -1    0    0  501    0  0.00000000000E+00  0.00000000000E+00  0.73188174816E+03  0.73188174816E+03  0.00000000000E+00 0.  1.
         -2   -1    0    0    0  501 -0.00000000000E+00 -0.00000000000E+00 -0.27568551797E+02  0.27568551797E+02  0.00000000000E+00 0. -1.
         25    2    1    2    0    0 -0.81848699877E+02 -0.42940365280E+02  0.43931940762E+03  0.46603963847E+03  0.12509323749E+03 0.  0.
          5    1    3    3  502    0 -0.84091942331E+02 -0.81056205965E+02  0.31879360773E+03  0.33954145552E+03  0.41800000000E+01 0. -1.
         -5    1    3    3    0  502  0.22432424545E+01  0.38115840684E+02  0.12052579990E+03  0.12649818294E+03  0.41800000000E+01 0. -1.
        -11    1    1    2    0    0  0.83090563408E+02  0.78900129825E+01  0.13455759556E+03  0.15834153136E+03  0.00000000000E+00 0.  1.
         11    1    1    2    0    0 -0.12418635317E+01  0.35050352298E+02  0.13043619319E+03  0.13506913013E+03  0.00000000000E+00 0. -1.
</event>
<event>
 7    1  0.2594791E-009  0.1159166E+03  0.7561462E-02  0.1249990E+00
         -1   -1    0    0    0  501 -0.00000000000E+00  0.00000000000E+00  0.25291010471E+02  0.25291010471E+02  0.00000000000E+00 0.  1.
          1   -1    0    0  501    0  0.00000000000E+00 -0.00000000000E+00 -0.64133469719E+03  0.64133469719E+03  0.00000000000E+00 0. -1.
         25    2    1    2    0    0  0.18110238753E+02  0.52368075993E+02 -0.44304241260E+03  0.46368703526E+03  0.12509472883E+03 0.  0.
          5    1    3    3  502    0 -0.89843794828E+00  0.91748640477E+02 -0.27176918506E+03  0.28687032361E+03  0.41800000000E+01 0.  1.
         -5    1    3    3    0  502  0.19008676701E+02 -0.39380564485E+02 -0.17127322754E+03  0.17681671165E+03  0.41800000000E+01 0.  1.
        -11    1    1    2    0    0 -0.37229355626E+02 -0.63736941429E+02 -0.16221118155E+03  0.17821585239E+03  0.00000000000E+00 0. -1.
         11    1    1    2    0    0  0.19119116873E+02  0.11368865436E+02 -0.10790092567E+02  0.24722820004E+02  0.00000000000E+00 0.  1.
</event>
<event>
 7    1  0.2594791E-009  0.1298135E+03  0.7561462E-02  0.1227733E+00
          1   -1    0    0  501    0  0.00000000000E+00  0.00000000000E+00  0.67810710209E+03  0.67810710209E+03  0.00000000000E+00 0. -1.
         -1   -1    0    0    0  501 -0.00000000000E+00 -0.00000000000E+00 -0.32489528232E+02  0.32489528232E+02  0.00000000000E+00 0.  1.
         25    2    1    2    0    0  0.84457265031E+02 -0.54409232516E+02  0.34337467901E+03  0.37900832140E+03  0.12509094013E+03 0.  0.
          5    1    3    3  502    0 -0.31011355026E+01  0.15055488959E+02  0.18181753649E+03  0.18251403717E+03  0.41800000000E+01 0. -1.
         -5    1    3    3    0  502  0.87558400533E+02 -0.69464721475E+02  0.16155714252E+03  0.19649428423E+03  0.41800000000E+01 0. -1.
        -11    1    1    2    0    0 -0.38415836031E+02 -0.20787920550E+02  0.63401727231E+02  0.76991513264E+02  0.00000000000E+00 0.  1.
         11    1    1    2    0    0 -0.46041429000E+02  0.75197153067E+02  0.23884116762E+03  0.25459679566E+03  0.00000000000E+00 0. -1.
</event>
<event>
 7    1  0.2594791E-009  0.1302648E+03  0.7561462E-02  0.1227063E+00
         -1   -1    0    0    0  501 -0.00000000000E+00  0.00000000000E+00  0.70942187924E+02  0.70942187924E+02  0.00000000000E+00 0.  1.
          1   -1    0    0  501    0  0.00000000000E+00 -0.00000000000E+00 -0.37111215635E+03  0.37111215635E+03  0.00000000000E+00 0. -1.
         25    2    1    2    0    0  0.79346700568E+02 -0.67899864085E+02 -0.24185973150E+03  0.29163287740E+03  0.12508922826E+03 0.  0.
          5    1    3    3  502    0  0.63394990855E+02 -0.13108140037E+02 -0.28716169270E+02  0.70942504736E+02  0.41800000000E+01 0. -1.
         -5    1    3    3    0  502  0.15951709714E+02 -0.54791724048E+02 -0.21314356223E+03  0.22069037267E+03  0.41800000000E+01 0. -1.
        -11    1    1    2    0    0 -0.73697885967E+02  0.34881593609E+01 -0.35300299080E+02  0.81790321963E+02  0.00000000000E+00 0. -1.
         11    1    1    2    0    0 -0.56488146018E+01  0.64411704724E+02 -0.23009937846E+02  0.68631144909E+02  0.00000000000E+00 0.  1.
</event>
<event>
 7    1  0.2594791E-009  0.1037818E+03  0.7561462E-02  0.1272539E+00
          2   -1    0    0  501    0  0.00000000000E+00  0.00000000000E+00  0.11215610224E+04  0.11215610224E+04  0.00000000000E+00 0.  1.
         -2   -1    0    0    0  501 -0.00000000000E+00 -0.00000000000E+00 -0.22018701826E+02  0.22018701826E+02  0.00000000000E+00 0. -1.
         25    2    1    2    0    0  0.72173064122E+02  0.27596652261E+02  0.86654905222E+03  0.87893442139E+03  0.12509168956E+03 0.  0.
          5    1    3    3  502    0  0.57127990032E+01 -0.52203680268E+01  0.64914013423E+03  0.64919971856E+03  0.41800000000E+01 0.  1.
         -5    1    3    3    0  502  0.66460265119E+02  0.32817020288E+02  0.21740891799E+03  0.22973470283E+03  0.41800000000E+01 0.  1.
        -11    1    1    2    0    0 -0.86777579512E-01 -0.49258601749E+02  0.10864122793E+03  0.11928677120E+03  0.00000000000E+00 0.  1.
         11    1    1    2    0    0 -0.72086286543E+02  0.21661949488E+02  0.12435204042E+03  0.14535853163E+03  0.00000000000E+00 0. -1.
</event>
<event>
 7    1  0.2594791E-009  0.1283845E+03  0.7561462E-02  0.1229873E+00
         -1   -1    0    0    0  501 -0.00000000000E+00  0.00000000000E+00  0.41423130523E+02  0.41423130523E+02  0.00000000000E+00 0.  1.
          1   -1    0    0  501    0  0.00000000000E+00 -0.00000000000E+00 -0.40447749543E+03  0.40447749543E+03  0.00000000000E+00 0. -1.
         25    2    1    2    0    0 -0.24653886822E+02  0.67839884390E+02 -0.19753339524E+03  0.24470336148E+03  0.12510087463E+03 0.  0.
          5    1    3    3  502    0  0.41060112344E+02  0.65565959071E+02 -0.12145261008E+03  0.14405914310E+03  0.41800000000E+01 0.  1.
         -5    1    3    3    0  502 -0.65713999166E+02  0.22739253190E+01 -0.76080785158E+02  0.10064421838E+03  0.41800000000E+01 0.  1.
        -11    1    1    2    0    0 -0.21987763968E+02 -0.62748861946E+02 -0.83898687821E+02  0.10705078822E+03  0.00000000000E+00 0.  1.
         11    1    1    2    0    0  0.46641650790E+02 -0.50910224441E+01 -0.81622281844E+02  0.94146476256E+02  0.00000000000E+00 0. -1.
</event>
<event>
 7    1  0.2594791E-009  0.2738667E+03  0.7561462E-02  0.1099087E+00
         -2   -1    0    0    0  501 -0.00000000000E+00  0.00000000000E+00  0.93927372946E+02  0.93927372946E+02  0.00000000000E+00 0. -1.
          2   -1    0    0  501    0  0.00000000000E+00 -0.00000000000E+00 -0.10341511939E+04  0.10341511939E+04  0.00000000000E+00 0.  1.
         25    2    1    2    0    0  0.22606902189E+03 -0.13733245332E+03 -0.70259554154E+03  0.76108902754E+03  0.12509439419E+03 0.  0.
          5    1    3    3  502    0  0.41527146887E+02 -0.52686988099E+02 -0.71531484368E+02  0.98156244323E+02  0.41800000000E+01 0. -1.
         -5    1    3    3    0  502  0.18454187500E+03 -0.84645465216E+02 -0.63106405717E+03  0.66293278322E+03  0.41800000000E+01 0. -1.
        -11    1    1    2    0    0 -0.20919125770E+03  0.90983849994E+02 -0.21191790684E+03  0.31136512730E+03  0.00000000000E+00 0.  1.
         11    1    1    2    0    0 -0.16877764188E+02  0.46348603321E+02 -0.25710372584E+02  0.55624412017E+02  0.00000000000E+00 0. -1.
</event>
<event>
 7    1  0.2594791E-009  0.9697607E+02  0.7561462E-02  0.1286786E+00
          1   -1    0    0  501    0  0.00000000000E+00  0.00000000000E+00  0.41192113620E+03  0.41192113620E+03  0.00000000000E+00 0. -1.
         -1   -1    0    0    0  501 -0.00000000000E+00 -0.00000000000E+00 -0.36977973678E+02  0.36977973678E+02  0.00000000000E+00 0.  1.
         25    2    1    2    0    0 -0.40600048775E+02  0.57932638080E+01  0.13665623972E+03  0.18974834761E+03  0.12509029419E+03 0.  0.
          5    1    3    3  502    0 -0.45321166940E+02 -0.31842586377E+02  0.87010502939E+01  0.56224008717E+02  0.41800000000E+01 0. -1.
         -5    1    3    3    0  502  0.47211181650E+01  0.37635850185E+02  0.12795518942E+03  0.13352433889E+03  0.41800000000E+01 0. -1.
        -11    1    1    2    0    0  0.21375092230E+02  0.42880159119E+02  0.90994459318E+02  0.10283770826E+03  0.00000000000E+00 0.  1.
         11    1    1    2    0    0  0.19224956544E+02 -0.48673422927E+02  0.14729246349E+03  0.15631305401E+03  0.00000000000E+00 0. -1.
</event>
<event>
 7    1  0.2594791E-009  0.1156468E+03  0.7561462E-02  0.1250456E+00
          3   -1    0    0  501    0  0.00000000000E+00  0.00000000000E+00  0.10956961169E+03  0.10956961169E+03  0.00000000000E+00 0. -1.
         -3   -1    0    0    0  501 -0.00000000000E+00 -0.00000000000E+00 -0.31598326597E+03  0.31598326597E+03  0.00000000000E+00 0.  1.
         25    2    1    2    0    0  0.77249112186E+02 -0.46127962743E+02 -0.24652716059E+03  0.29071957744E+03  0.12508803906E+03 0.  0.
          5    1    3    3  502    0  0.28224385234E+02  0.33352496506E+02 -0.15024382116E+03  0.15652374625E+03  0.41800000000E+01 0. -1.
         -5    1    3    3    0  502  0.49024726952E+02 -0.79480459249E+02 -0.96283339430E+02  0.13419583118E+03  0.41800000000E+01 0. -1.
        -11    1    1    2    0    0 -0.54405358905E+02  0.17189824071E+02 -0.23179741364E+02  0.61585173044E+02  0.00000000000E+00 0.  1.
         11    1    1    2    0    0 -0.22843753281E+02  0.28938138672E+02  0.63293247670E+02  0.73248127174E+02  0.00000000000E+00 0. -1.
</event>
<event>
 7    1  0.2594791E-009  0.7658606E+02  0.7561462E-02  0.1339029E+00
          1   -1    0    0  501    0  0.00000000000E+00  0.00000000000E+00  0.20527621031E+03  0.20527621031E+03  0.00000000000E+00 0. -1.
         -1   -1    0    0    0  501 -0.00000000000E+00 -0.00000000000E+00 -0.60973668870E+02  0.60973668870E+02  0.00000000000E+00 0.  1.
         25    2    1    2    0    0 -0.25150831633E+02 -0.17542917321E+02  0.71762614218E+02  0.14744544485E+03  0.12509983264E+03 0.  0.
          5    1    3    3  502    0  0.87534538079E+01  0.11008450475E+02 -0.31633944565E+02  0.34871016391E+02  0.41800000000E+01 0. -1.
         -5    1    3    3    0  502 -0.33904285441E+02 -0.28551367795E+02  0.10339655878E+03  0.11257442846E+03  0.41800000000E+01 0. -1.
        -11    1    1    2    0    0 -0.28068274066E+02  0.28105759564E+02  0.27846171026E+02  0.48509493613E+02  0.00000000000E+00 0. -1.
         11    1    1    2    0    0  0.53219105699E+02 -0.10562842244E+02  0.44693756195E+02  0.70294940718E+02  0.00000000000E+00 0.  1.
</event>
<event>
 7    1  0.2594791E-009  0.1111953E+03  0.7561462E-02  0.1258372E+00
          2   -1    0    0  501    0  0.00000000000E+00  0.00000000000E+00  0.76737757687E+03  0.76737757687E+03  0.00000000000E+00 0.  1.
         -2   -1    0    0    0  501 -0.00000000000E+00 -0.00000000000E+00 -0.29606597868E+02  0.29606597868E+02  0.00000000000E+00 0. -1.
         25    2    1    2    0    0  0.17140356957E+02 -0.58629320731E+02  0.62368760165E+03  0.63903629322E+03  0.12509984217E+03 0.  0.
          5    1    3    3  502    0  0.55144963897E+01 -0.84386832016E+02  0.58417116453E+03  0.59027533317E+03  0.41800000000E+01 0.  1.
         -5    1    3    3    0  502  0.11625860567E+02  0.25757511285E+02  0.39516437127E+02  0.48760960047E+02  0.41800000000E+01 0.  1.
        -11    1    1    2    0    0  0.20985579742E+02  0.66922669380E+02  0.76223869867E+02  0.10358144897E+03  0.00000000000E+00 0.  1.
         11    1    1    2    0    0 -0.38125936698E+02 -0.82933486490E+01  0.37859507486E+02  0.54366432548E+02  0.00000000000E+00 0. -1.
</event>
<event>
 7    1  0.2636152E-009  0.1438928E+03  0.7561462E-02  0.1208185E+00
          1   -1    0    0  501    0  0.00000000000E+00  0.00000000000E+00  0.52132564577E+02  0.52132564577E+02  0.00000000000E+00 0. -1.
         -1   -1    0    0    0  501 -0.00000000000E+00 -0.00000000000E+00 -0.45952933550E+03  0.45952933550E+03  0.00000000000E+00 0.  1.
         25    2    1    2    0    0  0.12128006597E+02 -0.97809774113E+02 -0.29958474354E+03  0.33928146023E+03  0.12508816985E+03 0.  0.
          5    1    3    3  502    0 -0.27028998218E+01  0.29814835114E+02 -0.47314898406E+02  0.56146256077E+02  0.41800000000E+01 0. -1.
         -5    1    3    3    0  502  0.14830906419E+02 -0.12762460923E+03 -0.25226984513E+03  0.28313520415E+03  0.41800000000E+01 0. -1.
        -11    1    1    2    0    0  0.31986449080E+02  0.15329227557E+02 -0.53586763051E+02  0.64262425386E+02  0.00000000000E+00 0.  1.
         11    1    1    2    0    0 -0.44114455677E+02  0.82480546556E+02 -0.54225264335E+02  0.10811801447E+03  0.00000000000E+00 0. -1.
</event>
<event>
 7    1  0.2594791E-009  0.8819803E+02  0.7561462E-02  0.1307275E+00
         -1   -1    0    0    0  501 -0.00000000000E+00  0.00000000000E+00  0.16766349897E+02  0.16766349897E+02  0.00000000000E+00 0. -1.
          1   -1    0    0  501    0  0.00000000000E+00 -0.00000000000E+00 -0.80498378581E+03  0.80498378581E+03  0.00000000000E+00 0.  1.
         25    2    1    2    0    0 -0.22245616003E+02 -0.26851574423E+02 -0.36428017328E+03  0.38673726425E+03  0.12509913044E+03 0.  0.
          5    1    3    3  502    0  0.36879721023E+01  0.22760697143E+02 -0.30193336529E+03  0.30284134451E+03  0.41800000000E+01 0. -1.
         -5    1    3    3    0  502 -0.25933588106E+02 -0.49612271566E+02 -0.62346807986E+02  0.83895919734E+02  0.41800000000E+01 0. -1.
        -11    1    1    2    0    0 -0.11137725843E+02  0.53164530573E+02 -0.21142441512E+03  0.21829063094E+03  0.00000000000E+00 0.  1.
         11    1    1    2    0    0  0.33383341846E+02 -0.26312956150E+02 -0.21251284752E+03  0.21672224052E+03  0.00000000000E+00 0. -1.
</event>
<event>
 7    1  0.2594791E-009  0.1894012E+03  0.7561462E-02  0.1159003E+00
         -2   -1    0    0    0  501 -0.00000000000E+00  0.00000000000E+00  0.12236289954E+03  0.12236289954E+03  0.00000000000E+00 0.  1.
          2   -1    0    0  501    0  0.00000000000E+00 -0.00000000000E+00 -0.78808704631E+03  0.78808704631E+03  0.00000000000E+00 0. -1.
         25    2    1    2    0    0  0.12102963499E+03 -0.14047225395E+03 -0.66746068745E+03  0.70393988136E+03  0.12508781158E+03 0.  0.
          5    1    3    3  502    0  0.12080745771E+03 -0.11544362683E+03 -0.37724880127E+03  0.41262065299E+03  0.41800000000E+01 0.  1.
         -5    1    3    3    0  502  0.22217727709E+00 -0.25028627113E+02 -0.29021188618E+03  0.29131922837E+03  0.41800000000E+01 0.  1.
        -11    1    1    2    0    0 -0.31117547716E+02  0.24933579625E+02 -0.37715863813E+02  0.54885986844E+02  0.00000000000E+00 0.  1.
         11    1    1    2    0    0 -0.89912087276E+02  0.11553867432E+03  0.39452404490E+02  0.15162407765E+03  0.00000000000E+00 0. -1.
</event>
<event>
 7    1  0.2594791E-009  0.1534433E+03  0.7561462E-02  0.1196305E+00
         -4   -1    0    0    0  501 -0.00000000000E+00  0.00000000000E+00  0.75866505099E+02  0.75866505099E+02  0.00000000000E+00 0.  1.
          4   -1    0    0  501    0  0.00000000000E+00 -0.00000000000E+00 -0.38638745013E+03  0.38638745013E+03  0.00000000000E+00 0. -1.
         25    2    1    2    0    0 -0.73302326566E+02  0.79607350863E+02 -0.26616966966E+03  0.31337736530E+03  0.12509403922E+03 0.  0.
          5    1    3    3  502    0 -0.63659573129E+02 -0.18502870085E+02 -0.11657178625E+03  0.13416911419E+03  0.41800000000E+01 0. -1.
         -5    1    3    3    0  502 -0.96427534373E+01  0.98110220948E+02 -0.14959788341E+03  0.17920825112E+03  0.41800000000E+01 0. -1.
        -11    1    1    2    0    0 -0.10799634038E+01 -0.66199647414E+02 -0.25755243795E+02  0.71041482401E+02  0.00000000000E+00 0.  1.
         11    1    1    2    0    0  0.74382289970E+02 -0.13407703449E+02 -0.18596031580E+02  0.77835107525E+02  0.00000000000E+00 0. -1.
</event>
<event>
 7    1  0.2594791E-009  0.9070859E+02  0.7561462E-02  0.1301145E+00
          2   -1    0    0  501    0  0.00000000000E+00  0.00000000000E+00  0.30629638843E+03  0.30629638843E+03  0.00000000000E+00 0. -1.
         -2   -1    0    0    0  501 -0.00000000000E+00 -0.00000000000E+00 -0.39412891995E+02  0.39412891995E+02  0.00000000000E+00 0.  1.
         25    2    1    2    0    0  0.10241174086E+02  0.52350512025E+01  0.18116595288E+03  0.22045643017E+03  0.12509055806E+03 0.  0.
          5    1    3    3  502    0 -0.38519753421E+02 -0.15440888497E+02  0.12382015783E+02  0.43508380297E+02  0.41800000000E+01 0. -1.
         -5    1    3    3    0  502  0.48760927507E+02  0.20675939700E+02  0.16878393709E+03  0.17694804987E+03  0.41800000000E+01 0. -1.
        -11    1    1    2    0    0 -0.40130562374E+02  0.22325963809E+02  0.25304553834E+02  0.52433111115E+02  0.00000000000E+00 0.  1.
         11    1    1    2    0    0  0.29889388288E+02 -0.27561015011E+02  0.60412989724E+02  0.72819739138E+02  0.00000000000E+00 0. -1.
</event>
<event>
 7    1  0.2594791E-009  0.1071624E+03  0.7561462E-02  0.1265917E+00
         -1   -1    0    0    0  501 -0.00000000000E+00  0.00000000000E+00  0.43152927781E+02  0.43152927781E+02  0.00000000000E+00 0.  1.
          1   -1    0    0  501    0  0.00000000000E+00 -0.00000000000E+00 -0.48717602692E+03  0.48717602692E+03  0.00000000000E+00 0. -1.
         25    2    1    2    0    0  0.49079397200E+02 -0.53932487909E+02 -0.12597091951E+03  0.19192164671E+03  0.12509094864E+03 0.  0.
          5    1    3    3  502    0  0.43682070755E+02  0.58794149027E+01  0.80512727510E+01  0.44999846866E+02  0.41800000000E+01 0. -1.
         -5    1    3    3    0  502  0.53973264451E+01 -0.59811902812E+02 -0.13402219226E+03  0.14692179985E+03  0.41800000000E+01 0. -1.
        -11    1    1    2    0    0 -0.36533721878E+02  0.76079837786E+02 -0.19077081929E+03  0.20860575267E+03  0.00000000000E+00 0.  1.
         11    1    1    2    0    0 -0.12545675322E+02 -0.22147349877E+02 -0.12728136033E+03  0.12980155532E+03  0.00000000000E+00 0. -1.
</event>
<event>
 7    1  0.2594791E-009  0.2610904E+03  0.7561462E-02  0.1106490E+00
          1   -1    0    0  501    0  0.00000000000E+00  0.00000000000E+00  0.72013295244E+03  0.72013295244E+03  0.00000000000E+00 0. -1.
         -1   -1    0    0    0  501 -0.00000000000E+00 -0.00000000000E+00 -0.10559172240E+03  0.10559172240E+03  0.00000000000E+00 0.  1.
         25    2    1    2    0    0  0.23613855906E+03  0.78635893730E+02  0.24891443014E+03  0.37356574598E+03  0.12509176703E+03 0.  0.
          5    1    3    3  502    0  0.18516495165E+03  0.16677072479E+02  0.11887566395E+03  0.22071039836E+03  0.41800000000E+01 0.  1.
         -5    1    3    3    0  502  0.50973607412E+02  0.61958821251E+02  0.13003876618E+03  0.15285534761E+03  0.41800000000E+01 0.  1.
        -11    1    1    2    0    0 -0.18452242847E+03 -0.33977896671E+02  0.20647640597E+03  0.27899019748E+03  0.00000000000E+00 0. -1.
         11    1    1    2    0    0 -0.51616130589E+02 -0.44657997059E+02  0.15915039394E+03  0.17316873138E+03  0.00000000000E+00 0.  1.
</event>
<event>
 7    1  0.2594791E-009  0.1099420E+03  0.7561462E-02  0.1260677E+00
          3   -1    0    0  501    0  0.00000000000E+00  0.00000000000E+00  0.32091566846E+03  0.32091566846E+03  0.00000000000E+00 0. -1.
         -3   -1    0    0    0  501 -0.00000000000E+00 -0.00000000000E+00 -0.56310620657E+02  0.56310620657E+02  0.00000000000E+00 0.  1.
         25    2    1    2    0    0  0.12742237398E+02  0.73929900402E+02  0.16708025196E+03  0.22178586199E+03  0.12508062678E+03 0.  0.
          5    1    3    3  502    0 -0.23747427549E+02  0.10827699868E+02  0.14222218459E+03  0.14465753209E+03  0.41800000000E+01 0.  1.
         -5    1    3    3    0  502  0.36489664947E+02  0.63102200533E+02  0.24858067373E+02  0.77128329903E+02  0.41800000000E+01 0.  1.
        -11    1    1    2    0    0 -0.27973330558E+02  0.13943337327E+02  0.18751700829E+02  0.36449282055E+02  0.00000000000E+00 0. -1.
         11    1    1    2    0    0  0.15231093161E+02 -0.87873237729E+02  0.78773095009E+02  0.11899114507E+03  0.00000000000E+00 0.  1.
</event>
<event>
 7    1  0.2594791E-009  0.2375963E+03  0.7561462E-02  0.1121405E+00
         -1   -1    0    0    0  501 -0.00000000000E+00  0.00000000000E+00  0.74138055358E+02  0.74138055358E+02  0.00000000000E+00 0.  1.
          1   -1    0    0  501    0  0.00000000000E+00 -0.00000000000E+00 -0.81070360399E+03  0.81070360399E+03  0.00000000000E+00 0. -1.
         25    2    1    2    0    0  0.78681265705E+01 -0.21794508860E+03 -0.33017689790E+03  0.41500202763E+03  0.12509168627E+03 0.  0.
          5    1    3    3  502    0 -0.52993726882E+02 -0.56676198728E+02 -0.12265439199E+03  0.14519675914E+03  0.41800000000E+01 0. -1.
         -5    1    3    3    0  502  0.60861853453E+02 -0.16126888988E+03 -0.20752250591E+03  0.26980526849E+03  0.41800000000E+01 0. -1.
        -11    1    1    2    0    0 -0.27693144098E+02  0.62481001201E+02 -0.19543512727E+03  0.20704027316E+03  0.00000000000E+00 0. -1.
         11    1    1    2    0    0  0.19825017528E+02  0.15546408740E+03 -0.21095352347E+03  0.26279935855E+03  0.00000000000E+00 0.  1.
</event>
<event>
 7    1  0.2594791E-009  0.9624948E+02  0.7561462E-02  0.1288386E+00
          2   -1    0    0  501    0  0.00000000000E+00  0.00000000000E+00  0.37807388036E+03  0.37807388036E+03  0.00000000000E+00 0. -1.
         -2   -1    0    0    0  501 -0.00000000000E+00 -0.00000000000E+00 -0.31767299550E+02  0.31767299550E+02  0.00000000000E+00 0.  1.
         25    2    1    2    0    0 -0.10130211636E+01  0.16002994465E+02  0.19280964984E+03  0.23039636864E+03  0.12509917492E+03 0.  0.
          5    1    3    3  502    0  0.15011462606E+02  0.55072704497E+02  0.17544767926E+03  0.18454730382E+03  0.41800000000E+01 0.  1.
         -5    1    3    3    0  502 -0.16024483770E+02 -0.39069710032E+02  0.17361970582E+02  0.45849064817E+02  0.41800000000E+01 0.  1.
        -11    1    1    2    0    0 -0.18474127777E+02 -0.50188074006E+02  0.83946687467E+02  0.99534830619E+02  0.00000000000E+00 0.  1.
         11    1    1    2    0    0  0.19487148940E+02  0.34185079541E+02  0.69550243507E+02  0.79909980659E+02  0.00000000000E+00 0. -1.
</event>
<event>
 7    1  0.2594791E-009  0.8907975E+02  0.7561462E-02  0.1305096E+00
         -2   -1    0    0    0  501 -0.00000000000E+00  0.00000000000E+00  0.61574799522E+02  0.61574799522E+02  0.00000000000E+00 0. -1.
          2   -1    0    0  501    0  0.00000000000E+00 -0.00000000000E+00 -0.31933989779E+03  0.31933989779E+03  0.00000000000E+00 0.  1.
         25    2    1    2    0    0 -0.39108184982E+02 -0.13246583118E+02 -0.24876751484E+03  0.28149200562E+03  0.12509017025E+03 0.  0.
          5    1    3    3  502    0 -0.59533929776E+02 -0.40515615724E+02 -0.73831309784E+02  0.10321985573E+03  0.41800000000E+01 0. -1.
         -5    1    3    3    0  502  0.20425744794E+02  0.27269032606E+02 -0.17493620505E+03  0.17827214989E+03  0.41800000000E+01 0. -1.
        -11    1    1    2    0    0  0.51528594073E+02 -0.25658317387E+01 -0.38039254523E+02  0.64099644183E+02  0.00000000000E+00 0.  1.
         11    1    1    2    0    0 -0.12420409091E+02  0.15812414856E+02  0.29041671090E+02  0.35323047509E+02  0.00000000000E+00 0. -1.
</event>
<event>
 7    1  0.2594791E-009  0.1228481E+03  0.7561462E-02  0.1238471E+00
         -1   -1    0    0    0  501 -0.00000000000E+00  0.00000000000E+00  0.76735296479E+03  0.76735296479E+03  0.00000000000E+00 0.  1.
          1   -1    0    0  501    0  0.00000000000E+00 -0.00000000000E+00 -0.31182466711E+02  0.31182466711E+02  0.00000000000E+00 0. -1.
         25    2    1    2    0    0  0.57326408389E+02 -0.32009843142E+02  0.61407037709E+03  0.63011148132E+03  0.12508838359E+03 0.  0.
          5    1    3    3  502    0 -0.28674144002E+02 -0.40852128457E+02  0.15306851670E+03  0.16105448189E+03  0.41800000000E+01 0.  1.
         -5    1    3    3    0  502  0.86000552391E+02  0.88422853153E+01  0.46100186040E+03  0.46905699943E+03  0.41800000000E+01 0.  1.
        -11    1    1    2    0    0  0.30382639722E+01 -0.25500565285E+02  0.75942583936E+01  0.26780265838E+02  0.00000000000E+00 0.  1.
         11    1    1    2    0    0 -0.60364672361E+02  0.57510408427E+02  0.11450586259E+03  0.14164368435E+03  0.00000000000E+00 0. -1.
</event>
<event>
 7    1  0.2594791E-009  0.7688862E+02  0.7561462E-02  0.1338120E+00
          1   -1    0    0  501    0  0.00000000000E+00  0.00000000000E+00  0.18279214434E+02  0.18279214434E+02  0.00000000000E+00 0. -1.
         -1   -1    0    0    0  501 -0.00000000000E+00 -0.00000000000E+00 -0.96914116124E+03  0.96914116124E+03  0.00000000000E+00 0.  1.
         25    2    1    2    0    0  0.27857543195E+02  0.12694989259E+02 -0.75663566130E+03  0.76751688559E+03  0.12508972879E+03 0.  0.
          5    1    3    3  502    0 -0.95198033456E+01  0.23043605206E+02 -0.68881160772E+03  0.68927537148E+03  0.41800000000E+01 0. -1.
         -5    1    3    3    0  502  0.37377346541E+02 -0.10348615947E+02 -0.67824053579E+02  0.78241514111E+02  0.41800000000E+01 0. -1.
        -11    1    1    2    0    0 -0.57751872186E+02 -0.21599822814E+01 -0.65584457768E+02  0.87414331578E+02  0.00000000000E+00 0. -1.
         11    1    1    2    0    0  0.29894328991E+02 -0.10535006977E+02 -0.12864182774E+03  0.13248915850E+03  0.00000000000E+00 0.  1.
</event>
<event>
 7    1  0.2594791E-009  0.1284231E+03  0.7561462E-02  0.1229815E+00
          2   -1    0    0  501    0  0.00000000000E+00  0.00000000000E+00  0.10146094001E+03  0.10146094001E+03  0.00000000000E+00 0.  1.
         -2   -1    0    0    0  501 -0.00000000000E+00 -0.00000000000E+00 -0.22741264931E+03  0.22741264931E+03  0.00000000000E+00 0. -1.
         25    2    1    2    0    0 -0.72449762782E+02  0.76054476925E+02 -0.57099564991E+02  0.17303418854E+03  0.12508884240E+03 0.  0.
          5    1    3    3  502    0  0.87901753510E+01  0.14589432552E+02 -0.68251192426E+02  0.70468548959E+02  0.41800000000E+01 0. -1.
         -5    1    3    3    0  502 -0.81239938133E+02  0.61465044373E+02  0.11151627435E+02  0.10256563958E+03  0.41800000000E+01 0. -1.
        -11    1    1    2    0    0  0.66918259227E+02 -0.61201098138E+01 -0.48243759444E+02  0.82722243003E+02  0.00000000000E+00 0. -1.
         11    1    1    2    0    0  0.55315035546E+01 -0.69934367111E+02 -0.20608384860E+02  0.73117157776E+02  0.00000000000E+00 0.  1.
</event>
<event>
 7    1  0.2594791E-009  0.9644807E+02  0.7561462E-02  0.1287948E+00
         -1   -1    0    0    0  501 -0.00000000000E+00  0.00000000000E+00  0.88887398503E+02  0.88887398503E+02  0.00000000000E+00 0.  1.
          1   -1    0    0  501    0  0.00000000000E+00 -0.00000000000E+00 -0.15372640996E+03  0.15372640996E+03  0.00000000000E+00 0. -1.
         25    2    1    2    0    0 -0.62692580024E+01 -0.26720886855E+02 -0.73688412639E+02  0.14775237010E+03  0.12508985300E+03 0.  0.
          5    1    3    3  502    0 -0.52687381366E+02 -0.19781061519E+02  0.43402821660E+01  0.56600008828E+02  0.41800000000E+01 0. -1.
         -5    1    3    3    0  502  0.46418123364E+02 -0.69398253360E+01 -0.78028694805E+02  0.91152361271E+02  0.41800000000E+01 0. -1.
        -11    1    1    2    0    0  0.16365082053E+02 -0.28684943853E+02  0.18299471569E+02  0.37755960777E+02  0.00000000000E+00 0.  1.
         11    1    1    2    0    0 -0.10095824051E+02  0.55405830708E+02 -0.94500703819E+01  0.57105477583E+02  0.00000000000E+00 0. -1.
</event>
<event>
 7    1  0.2594791E-009  0.1101825E+03  0.7561462E-02  0.1260232E+00
          2   -1    0    0  501    0  0.00000000000E+00  0.00000000000E+00  0.10819141859E+04  0.10819141859E+04  0.00000000000E+00 0.  1.
         -2   -1    0    0    0  501 -0.00000000000E+00 -0.00000000000E+00 -0.18437304498E+02  0.18437304498E+02  0.00000000000E+00 0. -1.
         25    2    1    2    0    0  0.24648625686E+02 -0.64843840708E+02  0.81360194524E+03  0.82607791790E+03  0.12507726700E+03 0.  0.
          5    1    3    3  502    0  0.57695525940E+02 -0.45832388570E+02  0.23755012944E+03  0.24875071448E+03  0.41800000000E+01 0.  1.
         -5    1    3    3    0  502 -0.33046900254E+02 -0.19011452138E+02  0.57605181579E+03  0.57732720342E+03  0.41800000000E+01 0.  1.
        -11    1    1    2    0    0  0.10134354995E+02 -0.16712193802E+02  0.20335185889E+02  0.28205005903E+02  0.00000000000E+00 0.  1.
         11    1    1    2    0    0 -0.34782980681E+02  0.81556034510E+02  0.22953975028E+03  0.24606856660E+03  0.00000000000E+00 0. -1.
</event>
<event>
 7    1  0.2594791E-009  0.1087339E+03  0.7561462E-02  0.1262933E+00
          1   -1    0    0  501    0  0.00000000000E+00  0.00000000000E+00  0.28467370470E+03  0.28467370470E+03  0.00000000000E+00 0. -1.
         -1   -1    0    0    0  501 -0.00000000000E+00 -0.00000000000E+00 -0.10093636307E+03  0.10093636307E+03  0.00000000000E+00 0.  1.
         25    2    1    2    0    0  0.62537554571E+02  0.67457916736E+02  0.20221398990E+03  0.25494966357E+03  0.12508923606E+03 0.  0.
          5    1    3    3  502    0  0.34745438657E+02  0.36946890092E+02  0.20702599603E+03  0.21318900916E+03  0.41800000000E+01 0.  1.
         -5    1    3    3    0  502  0.27792115914E+02  0.30511026644E+02 -0.48120061225E+01  0.41760654411E+02  0.41800000000E+01 0.  1.
        -11    1    1    2    0    0 -0.39915062224E+02  0.12636331159E+02  0.93596008035E+01  0.42900946198E+02  0.00000000000E+00 0. -1.
         11    1    1    2    0    0 -0.22622492347E+02 -0.80094247895E+02 -0.27836249074E+02  0.87759458000E+02  0.00000000000E+00 0.  1.
</event>
<event>
 7    1  0.2594791E-009  0.1108852E+03  0.7561462E-02  0.1258939E+00
          2   -1    0    0  501    0  0.00000000000E+00  0.00000000000E+00  0.12102226850E+04  0.12102226850E+04  0.00000000000E+00 0. -1.
         -2   -1    0    0    0  501 -0.00000000000E+00 -0.00000000000E+00 -0.11484386272E+02  0.11484386272E+02  0.00000000000E+00 0.  1.
         25    2    1    2    0    0  0.12427689515E+02  0.39766648536E+02  0.74705693769E+03  0.75860135883E+03  0.12508445009E+03 0.  0.
          5    1    3    3  502    0 -0.51735794850E+01 -0.38815995947E+02  0.41621526528E+03  0.41807423613E+03  0.41800000000E+01 0. -1.
         -5    1    3    3    0  502  0.17601269000E+02  0.78582644483E+02  0.33084167241E+03  0.34052712269E+03  0.41800000000E+01 0. -1.
        -11    1    1    2    0    0  0.16141017934E+02 -0.62932722085E+02  0.26630660397E+03  0.27411725099E+03  0.00000000000E+00 0.  1.
         11    1    1    2    0    0 -0.28568707450E+02  0.23166073550E+02  0.18537475707E+03  0.18898846147E+03  0.00000000000E+00 0. -1.
</event>
<event>
 7    1  0.2594791E-009  0.1990504E+03  0.7561462E-02  0.1150543E+00
          2   -1    0    0  501    0  0.00000000000E+00  0.00000000000E+00  0.12700506898E+04  0.12700506898E+04  0.00000000000E+00 0. -1.
         -2   -1    0    0    0  501 -0.00000000000E+00 -0.00000000000E+00 -0.36754615184E+02  0.36754615184E+02  0.00000000000E+00 0.  1.
         25    2    1    2    0    0  0.18028569922E+03  0.33226061694E+02  0.75052170620E+03  0.78264835363E+03  0.12509480179E+03 0.  0.
          5    1    3    3  502    0  0.31788854465E+01  0.37169165173E+02  0.69947250693E+02  0.79383514862E+02  0.41800000000E+01 0.  1.
         -5    1    3    3    0  502  0.17710681378E+03 -0.39431034792E+01  0.68057445551E+03  0.70326483876E+03  0.41800000000E+01 0.  1.
        -11    1    1    2    0    0 -0.67271060154E+02 -0.10503840507E+02  0.79206929726E+02  0.10444837919E+03  0.00000000000E+00 0.  1.
         11    1    1    2    0    0 -0.11301463907E+03 -0.22722221188E+02  0.40356743871E+03  0.41970857218E+03  0.00000000000E+00 0. -1.
</event>
<event>
 7    1  0.2594791E-009  0.9707967E+02  0.7561462E-02  0.1286560E+00
          2   -1    0    0  501    0  0.00000000000E+00  0.00000000000E+00  0.12360381908E+03  0.12360381908E+03  0.00000000000E+00 0.  1.
         -2   -1    0    0    0  501 -0.00000000000E+00 -0.00000000000E+00 -0.16540634023E+03  0.16540634023E+03  0.00000000000E+00 0. -1.
         25    2    1    2    0    0  0.47797369202E+02 -0.43164800616E+02 -0.92487596325E+02  0.16837424013E+03  0.12509252876E+03 0.  0.
          5    1    3    3  502    0  0.60198283764E+02 -0.27993363030E+02 -0.11828723413E+03  0.13570852552E+03  0.41800000000E+01 0.  1.
         -5    1    3    3    0  502 -0.12400914562E+02 -0.15171437586E+02  0.25799637800E+02  0.32665714611E+02  0.41800000000E+01 0.  1.
        -11    1    1    2    0    0 -0.67752597926E+02  0.52364501182E+02  0.30800266736E+02  0.91000615057E+02  0.00000000000E+00 0. -1.
         11    1    1    2    0    0  0.19955228724E+02 -0.91997005653E+01  0.19884808440E+02  0.29635304125E+02  0.00000000000E+00 0.  1.
</event>
<event>
 7    1  0.2594791E-009  0.9561549E+02  0.7561462E-02  0.1289796E+00
         -1   -1    0    0    0  501 -0.00000000000E+00  0.00000000000E+00  0.81589173641E+02  0.81589173641E+02  0.00000000000E+00 0.  1.
          1   -1    0    0  501    0  0.00000000000E+00 -0.00000000000E+00 -0.20166781840E+03  0.20166781840E+03  0.00000000000E+00 0. -1.
         25    2    1    2    0    0  0.53713030661E+02 -0.26181252589E+02 -0.92919437128E+02  0.16688119075E+03  0.12507902455E+03 0.  0.
          5    1    3    3  502    0  0.61858049183E+02 -0.29501979314E+02 -0.11991620763E+03  0.13818159894E+03  0.41800000000E+01 0.  1.
         -5    1    3    3    0  502 -0.81450185223E+01  0.33207267251E+01  0.26996770504E+02  0.28699591816E+02  0.41800000000E+01 0.  1.
        -11    1    1    2    0    0 -0.89723615193E+01 -0.35509264043E+02 -0.46810662435E+01  0.36923210658E+02  0.00000000000E+00 0.  1.
         11    1    1    2    0    0 -0.44740669141E+02  0.61690516632E+02 -0.22478141387E+02  0.79452590630E+02  0.00000000000E+00 0. -1.
</event>
<event>
 7    1  0.2594791E-009  0.1202800E+03  0.7561462E-02  0.1242636E+00
          2   -1    0    0  501    0  0.00000000000E+00  0.00000000000E+00  0.65004183846E+03  0.65004183846E+03  0.00000000000E+00 0.  1.
         -2   -1    0    0    0  501 -0.00000000000E+00 -0.00000000000E+00 -0.25978032613E+02  0.25978032613E+02  0.00000000000E+00 0. -1.
         25    2    1    2    0    0  0.70569629701E+02 -0.21726463193E+02  0.31515339962E+03  0.34701738148E+03  0.12508911191E+03 0.  0.
          5    1    3    3  502    0  0.90089693299E+02 -0.50187695044E+02  0.18026033185E+03  0.20771667533E+03  0.41800000000E+01 0. -1.
         -5    1    3    3    0  502 -0.19520063597E+02  0.28461231850E+02  0.13489306777E+03  0.13930070615E+03  0.41800000000E+01 0. -1.
        -11    1    1    2    0    0 -0.83438242350E+02  0.80805366682E+01  0.29183978672E+03  0.30364073586E+03  0.00000000000E+00 0.  1.
         11    1    1    2    0    0  0.12868612648E+02  0.13645926525E+02  0.17070619511E+02  0.25361753739E+02  0.00000000000E+00 0. -1.
</event>
<event>
 7    1  0.2594791E-009  0.1038117E+03  0.7561462E-02  0.1272479E+00
          2   -1    0    0  501    0  0.00000000000E+00  0.00000000000E+00  0.36089260293E+03  0.36089260293E+03  0.00000000000E+00 0. -1.
         -2   -1    0    0    0  501 -0.00000000000E+00 -0.00000000000E+00 -0.43517933783E+02  0.43517933783E+02  0.00000000000E+00 0.  1.
         25    2    1    2    0    0 -0.57776740715E+02  0.18211747789E+02  0.18735929846E+03  0.23328144677E+03  0.12508759796E+03 0.  0.
          5    1    3    3  502    0  0.14281865527E+01  0.34565985309E+02  0.16363479328E+03  0.16730410942E+03  0.41800000000E+01 0. -1.
         -5    1    3    3    0  502 -0.59204927268E+02 -0.16354237519E+02  0.23724505178E+02  0.65977337348E+02  0.41800000000E+01 0. -1.
        -11    1    1    2    0    0 -0.22951766826E+02  0.10882332596E+02  0.27401705259E+02  0.37363915939E+02  0.00000000000E+00 0. -1.
         11    1    1    2    0    0  0.80728507542E+02 -0.29094080386E+02  0.10261366543E+03  0.13376517400E+03  0.00000000000E+00 0.  1.
</event>
<event>
 7    1  0.2594791E-009  0.1066109E+03  0.7561462E-02  0.1266978E+00
          4   -1    0    0  501    0  0.00000000000E+00  0.00000000000E+00  0.21561403119E+02  0.21561403119E+02  0.00000000000E+00 0. -1.
         -4   -1    0    0    0  501 -0.00000000000E+00 -0.00000000000E+00 -0.68539890629E+03  0.68539890629E+03  0.00000000000E+00 0.  1.
         25    2    1    2    0    0 -0.27842513703E+02 -0.15355562660E+02 -0.49878445680E+03  0.51521251443E+03  0.12508797624E+03 0.  0.
          5    1    3    3  502    0 -0.72152405239E+02  0.11845017570E+01 -0.19962760039E+03  0.21231114871E+03  0.41800000000E+01 0.  1.
         -5    1    3    3    0  502  0.44309891536E+02 -0.16540064417E+02 -0.29915685641E+03  0.30290136572E+03  0.41800000000E+01 0.  1.
        -11    1    1    2    0    0  0.57855191350E+02 -0.35890534388E+01 -0.12760003394E+03  0.14014946712E+03  0.00000000000E+00 0.  1.
         11    1    1    2    0    0 -0.30012677647E+02  0.18944616099E+02 -0.37453012425E+02  0.51598327864E+02  0.00000000000E+00 0. -1.
</event>
<event>
 7    1  0.2594791E-009  0.9801409E+02  0.7561462E-02  0.1284528E+00
         -1   -1    0    0    0  501 -0.00000000000E+00  0.00000000000E+00  0.12319214080E+03  0.12319214080E+03  0.00000000000E+00 0.  1.
          1   -1    0    0  501    0  0.00000000000E+00 -0.00000000000E+00 -0.12718409305E+03  0.12718409305E+03  0.00000000000E+00 0. -1.
         25    2    1    2    0    0 -0.49956882277E+02 -0.23679838614E+02 -0.30448467735E+02  0.14011340040E+03  0.12509288924E+03 0.  0.
          5    1    3    3  502    0 -0.42115864767E+02  0.43734788321E+02  0.89680690146E+01  0.61517285671E+02  0.41800000000E+01 0.  1.
         -5    1    3    3    0  502 -0.78410175108E+01 -0.67414626935E+02 -0.39416536750E+02  0.78596114724E+02  0.41800000000E+01 0.  1.
        -11    1    1    2    0    0  0.48584459110E+02  0.54502274014E+01  0.56735096324E+02  0.74893429623E+02  0.00000000000E+00 0.  1.
         11    1    1    2    0    0  0.13724231678E+01  0.18229611213E+02 -0.30278580839E+02  0.35369403839E+02  0.00000000000E+00 0. -1.
</event>
<event>
 7    1  0.2594791E-009  0.9772890E+02  0.7561462E-02  0.1285146E+00
          2   -1    0    0  501    0  0.00000000000E+00  0.00000000000E+00  0.54072687771E+03  0.54072687771E+03  0.00000000000E+00 0. -1.
         -2   -1    0    0    0  501 -0.00000000000E+00 -0.00000000000E+00 -0.29679980718E+02  0.29679980718E+02  0.00000000000E+00 0.  1.
         25    2    1    2    0    0 -0.33181268896E+02 -0.53363019359E+02  0.32874772332E+03  0.35731112461E+03  0.12509023040E+03 0.  0.
          5    1    3    3  502    0 -0.44879294421E+02 -0.57819403712E+02  0.81149998328E+02  0.10936191815E+03  0.41800000000E+01 0. -1.
         -5    1    3    3    0  502  0.11698025525E+02  0.44563843528E+01  0.24759772499E+03  0.24794920645E+03  0.41800000000E+01 0. -1.
        -11    1    1    2    0    0  0.42525174280E+02  0.74530923837E+02  0.12833106037E+03  0.15437652060E+03  0.00000000000E+00 0.  1.
         11    1    1    2    0    0 -0.93439053836E+01 -0.21167904478E+02  0.53968113307E+02  0.58719213225E+02  0.00000000000E+00 0. -1.
</event>
<event>
 7    1  0.2594791E-009  0.1255112E+03  0.7561462E-02  0.1234272E+00
         -1   -1    0    0    0  501 -0.00000000000E+00  0.00000000000E+00  0.58790088103E+02  0.58790088103E+02  0.00000000000E+00 0.  1.
          1   -1    0    0  501    0  0.00000000000E+00 -0.00000000000E+00 -0.46375977338E+03  0.46375977338E+03  0.00000000000E+00 0. -1.
         25    2    1    2    0    0  0.10903679146E+03  0.53536970787E+02 -0.26408315231E+03  0.31645260355E+03  0.12508840804E+03 0.  0.
          5    1    3    3  502    0  0.18355582551E+02  0.82703457288E+01 -0.18933684403E+03  0.19045009566E+03  0.41800000000E+01 0. -1.
         -5    1    3    3    0  502  0.90681208910E+02  0.45266625058E+02 -0.74746308285E+02  0.12600250789E+03  0.41800000000E+01 0. -1.
        -11    1    1    2    0    0 -0.50271621500E+02 -0.48807977393E+02 -0.22074673216E+02  0.73462546805E+02  0.00000000000E+00 0.  1.
         11    1    1    2    0    0 -0.58765169961E+02 -0.47289933945E+01 -0.11881185975E+03  0.13263471113E+03  0.00000000000E+00 0. -1.
</event>
<event>
 7    1  0.2594791E-009  0.1182761E+03  0.7561462E-02  0.1245968E+00
         -1   -1    0    0    0  501 -0.00000000000E+00  0.00000000000E+00  0.77931905284E+02  0.77931905284E+02  0.00000000000E+00 0.  1.
          1   -1    0    0  501    0  0.00000000000E+00 -0.00000000000E+00 -0.20250055086E+03  0.20250055086E+03  0.00000000000E+00 0. -1.
         25    2    1    2    0    0  0.59245929162E+02  0.82151305580E+01 -0.91473111818E+02  0.16611738075E+03  0.12510030180E+03 0.  0.
          5    1    3    3  502    0  0.97882803693E+02  0.60385264182E+01 -0.53737388855E+02  0.11190480964E+03  0.41800000000E+01 0.  1.
         -5    1    3    3    0  502 -0.38636874531E+02  0.21766041398E+01 -0.37735722963E+02  0.54212571113E+02  0.41800000000E+01 0.  1.
        -11    1    1    2    0    0  0.19104176116E+02 -0.89977777451E+01  0.11616544919E+02  0.24101320820E+02  0.00000000000E+00 0.  1.
         11    1    1    2    0    0 -0.78350105278E+02  0.78264718714E+00 -0.44712078676E+02  0.90213754568E+02  0.00000000000E+00 0. -1.
</event>
<event>
 6    1  0.2594791E-009  0.1115131E+03  0.7561462E-02  0.1257793E+00
         -2   -1    0    0    0  501 -0.00000000000E+00  0.00000000000E+00  0.66683358475E+02  0.66683358475E+02  0.00000000000E+00 0.  1.
          2   -1    0    0  501    0  0.00000000000E+00 -0.00000000000E+00 -0.34362246734E+03  0.34362246734E+03  0.00000000000E+00 0. -1.
          5    1    1    2  502    0  0.37995939024E+02 -0.40094626842E+02 -0.17423547116E+02  0.58071704625E+02  0.41800000000E+01 0. -1.
         -5    1    1    2    0  502  0.53851627765E+02  0.31577425101E+02 -0.19822956302E+03  0.20786910218E+03  0.41800000000E+01 0. -1.
        -11    1    1    2    0    0 -0.34601267270E+02 -0.21183537373E+02  0.16082238750E+02  0.43642048022E+02  0.00000000000E+00 0.  1.
         11    1    1    2    0    0 -0.57246299519E+02  0.29700739115E+02 -0.77368237481E+02  0.10072297098E+03  0.00000000000E+00 0. -1.
</event>
<event>
 7    1  0.2594791E-009  0.1629442E+03  0.7561462E-02  0.1185412E+00
          1   -1    0    0  501    0  0.00000000000E+00  0.00000000000E+00  0.94443681740E+02  0.94443681740E+02  0.00000000000E+00 0. -1.
         -1   -1    0    0    0  501 -0.00000000000E+00 -0.00000000000E+00 -0.39784903532E+03  0.39784903532E+03  0.00000000000E+00 0.  1.
         25    2    1    2    0    0 -0.14562579985E+03 -0.22660332374E+02 -0.77848493236E+02  0.20839516040E+03  0.12509112971E+03 0.  0.
          5    1    3    3  502    0 -0.90454486465E+02  0.68203553595E+01  0.19240833886E+02  0.92823560896E+02  0.41800000000E+01 0. -1.
         -5    1    3    3    0  502 -0.55171313383E+02 -0.29480687734E+02 -0.97089327122E+02  0.11557159950E+03  0.41800000000E+01 0. -1.
        -11    1    1    2    0    0  0.15049218533E+03  0.13185595128E+01 -0.19574439727E+03  0.24691193877E+03  0.00000000000E+00 0.  1.
         11    1    1    2    0    0 -0.48663854814E+01  0.21341772861E+02 -0.29812463072E+02  0.36985617893E+02  0.00000000000E+00 0. -1.
</event>
<event>
 7    1  0.2616667E-009  0.1678655E+03  0.7561462E-02  0.1180092E+00
         -1   -1    0    0    0  501 -0.00000000000E+00  0.00000000000E+00  0.51219106387E+02  0.51219106387E+02  0.00000000000E+00 0.  1.
          1   -1    0    0  501    0  0.00000000000E+00 -0.00000000000E+00 -0.85013938530E+03  0.85013938530E+03  0.00000000000E+00 0. -1.
         25    2    1    2    0    0 -0.50986674029E+02 -0.14448311092E+03 -0.22027183164E+03  0.29604613900E+03  0.12509446964E+03 0.  0.
          5    1    3    3  502    0 -0.29354704777E+02 -0.26393520965E+02  0.57245286125E+01  0.40106848160E+02  0.41800000000E+01 0.  1.
         -5    1    3    3    0  502 -0.21631969253E+02 -0.11808958995E+03 -0.22599636025E+03  0.25593929084E+03  0.41800000000E+01 0.  1.
        -11    1    1    2    0    0 -0.11909723416E+02  0.95360928510E+02 -0.35802197473E+03  0.37069567381E+03  0.00000000000E+00 0. -1.
         11    1    1    2    0    0  0.62896397445E+02  0.49122182410E+02 -0.22062647255E+03  0.23461667887E+03  0.00000000000E+00 0.  1.
</event>
<event>
 7    1  0.2594791E-009  0.1251924E+03  0.7561462E-02  0.1234769E+00
         -1   -1    0    0    0  501 -0.00000000000E+00  0.00000000000E+00  0.52541910897E+03  0.52541910897E+03  0.00000000000E+00 0.  1.
          1   -1    0    0  501    0  0.00000000000E+00 -0.00000000000E+00 -0.61056049108E+02  0.61056049108E+02  0.00000000000E+00 0. -1.
         25    2    1    2    0    0 -0.10562080455E+03  0.97953222102E+01  0.90951603115E+02  0.18754000683E+03  0.12508939749E+03 0.  0.
          5    1    3    3  502    0 -0.61470388961E+02 -0.83856149771E+01  0.11736112031E+03  0.13281578302E+03  0.41800000000E+01 0. -1.
         -5    1    3    3    0  502 -0.44150415588E+02  0.18180937187E+02 -0.26409517198E+02  0.54724223816E+02  0.41800000000E+01 0. -1.
        -11    1    1    2    0    0  0.67091483127E+02 -0.50690499727E+02  0.23215131305E+03  0.24691096780E+03  0.00000000000E+00 0. -1.
         11    1    1    2    0    0  0.38529321422E+02  0.40895177517E+02  0.14126014369E+03  0.15202418344E+03  0.00000000000E+00 0.  1.
</event>
<event>
 6    1  0.2594791E-009  0.1625800E+03  0.7561462E-02  0.1185814E+00
         -2   -1    0    0    0  501 -0.00000000000E+00  0.00000000000E+00  0.37883582281E+02  0.37883582281E+02  0.00000000000E+00 0. -1.
          2   -1    0    0  501    0  0.00000000000E+00 -0.00000000000E+00 -0.14397274488E+04  0.14397274488E+04  0.00000000000E+00 0.  1.
          5    1    1    2  502    0  0.66891170456E+02 -0.64647195832E+02 -0.98138573900E+03  0.98579365474E+03  0.41800000000E+01 0.  1.
         -5    1    1    2    0  502  0.64021192790E+02  0.22695457942E+02 -0.23187331084E+03  0.24165368116E+03  0.41800000000E+01 0.  1.
        -11    1    1    2    0    0 -0.18890492723E+02  0.48222164731E+02 -0.51783735494E+02  0.73237853248E+02  0.00000000000E+00 0. -1.
         11    1    1    2    0    0 -0.11202187052E+03 -0.62704268404E+01 -0.13680108115E+03  0.17692584190E+03  0.00000000000E+00 0.  1.
</event>
<event>
 7    1  0.2594791E-009  0.1620380E+03  0.7561462E-02  0.1186415E+00
          1   -1    0    0  501    0  0.00000000000E+00  0.00000000000E+00  0.15794558831E+03  0.15794558831E+03  0.00000000000E+00 0. -1.
         -1   -1    0    0    0  501 -0.00000000000E+00 -0.00000000000E+00 -0.22354840383E+03  0.22354840383E+03  0.00000000000E+00 0.  1.
         25    2    1    2    0    0 -0.14105726533E+03 -0.46537404723E+01 -0.13572423634E+01  0.18860363183E+03  0.12510267155E+03 0.  0.
          5    1    3    3  502    0 -0.11131310111E+03  0.34742665273E+02 -0.42524090956E+02  0.12419110266E+03  0.41800000000E+01 0. -1.
         -5    1    3    3    0  502 -0.29744164226E+02 -0.39396405746E+02  0.41166848593E+02  0.64412529171E+02  0.41800000000E+01 0. -1.
        -11    1    1    2    0    0  0.41437787624E+02 -0.31312892696E+02  0.21900103736E+02  0.56366674869E+02  0.00000000000E+00 0. -1.
         11    1    1    2    0    0  0.99619477708E+02  0.35966633168E+02 -0.86145676895E+02  0.13652368545E+03  0.00000000000E+00 0.  1.
</event>
<event>
 7    1  0.2594791E-009  0.1104077E+03  0.7561462E-02  0.1259817E+00
         -2   -1    0    0    0  501 -0.00000000000E+00  0.00000000000E+00  0.20182394572E+03  0.20182394572E+03  0.00000000000E+00 0.  1.
          2   -1    0    0  501    0  0.00000000000E+00 -0.00000000000E+00 -0.98766502719E+02  0.98766502719E+02  0.00000000000E+00 0. -1.
         25    2    1    2    0    0 -0.13119927067E+02 -0.86878214764E+02  0.36632268201E+02  0.15719196642E+03  0.12508970600E+03 0.  0.
          5    1    3    3  502    0 -0.23528357081E+02  0.15252656432E+02 -0.24642695301E+02  0.37562773418E+02  0.41800000000E+01 0.  1.
         -5    1    3    3    0  502  0.10408430014E+02 -0.10213087120E+03  0.61274963502E+02  0.11962919300E+03  0.41800000000E+01 0.  1.
        -11    1    1    2    0    0 -0.36360075265E+01  0.35354711195E+02 -0.20456432532E+02  0.41007825916E+02  0.00000000000E+00 0. -1.
         11    1    1    2    0    0  0.16755934594E+02  0.51523503569E+02  0.86881607331E+02  0.10239065610E+03  0.00000000000E+00 0.  1.
</event>
<event>
 7    1  0.2594791E-009  0.1125771E+03  0.7561462E-02  0.1255871E+00
         -2   -1    0    0    0  501 -0.00000000000E+00  0.00000000000E+00  0.50648816596E+02  0.50648816596E+02  0.00000000000E+00 0.  1.
          2   -1    0    0  501    0  0.00000000000E+00 -0.00000000000E+00 -0.44727667098E+03  0.44727667098E+03  0.00000000000E+00 0. -1.
         25    2    1    2    0    0 -0.78031030121E+02 -0.63485167168E+02 -0.17217932333E+03  0.23539844331E+03  0.12508996610E+03 0.  0.
          5    1    3    3  502    0 -0.17597886091E+02 -0.59692163852E+02 -0.11217500834E+02  0.63373060090E+02  0.41800000000E+01 0. -1.
         -5    1    3    3    0  502 -0.60433144030E+02 -0.37930033167E+01 -0.16096182250E+03  0.17202538322E+03  0.41800000000E+01 0. -1.
        -11    1    1    2    0    0  0.27276481583E+02  0.33254738406E+02 -0.18856365812E+03  0.19340666285E+03  0.00000000000E+00 0. -1.
         11    1    1    2    0    0  0.50754548538E+02  0.30230428763E+02 -0.35884872936E+02  0.69120381409E+02  0.00000000000E+00 0.  1.
</event>
<event>
 7    1  0.2787036E-009  0.1148212E+03  0.7561462E-02  0.1251893E+00
          2   -1    0    0  501    0  0.00000000000E+00  0.00000000000E+00  0.58457156459E+03  0.58457156459E+03  0.00000000000E+00 0. -1.
         -2   -1    0    0    0  501 -0.00000000000E+00 -0.00000000000E+00 -0.34491263246E+02  0.34491263246E+02  0.00000000000E+00 0.  1.
         25    2    1    2    0    0 -0.15548757191E+02  0.62875074605E+02  0.15984033243E+03  0.21305153125E+03  0.12508790606E+03 0.  0.
          5    1    3    3  502    0 -0.52945897146E+02  0.77355106908E+02  0.13888457313E+03  0.16761109046E+03  0.41800000000E+01 0.  1.
         -5    1    3    3    0  502  0.37397139955E+02 -0.14480032304E+02  0.20955759292E+02  0.45440440797E+02  0.41800000000E+01 0.  1.
        -11    1    1    2    0    0 -0.22268867843E+02 -0.51325203211E+02  0.32456004819E+03  0.32934693537E+03  0.00000000000E+00 0. -1.
         11    1    1    2    0    0  0.37817625035E+02 -0.11549871394E+02  0.65679920732E+02  0.76664361211E+02  0.00000000000E+00 0.  1.
</event>
<event>
 7    1  0.2594791E-009  0.1348766E+03  0.7561462E-02  0.1220394E+00
         -1   -1    0    0    0  501 -0.00000000000E+00  0.00000000000E+00  0.89462325443E+02  0.89462325443E+02  0.00000000000E+00 0.  1.
          1   -1    0    0  501    0  0.00000000000E+00 -0.00000000000E+00 -0.22624121998E+03  0.22624121998E+03  0.00000000000E+00 0. -1.
         25    2    1    2    0    0  0.93158930040E+01  0.88423193720E+02 -0.55059564146E+02  0.16304292670E+03  0.12508394499E+03 0.  0.
          5    1    3    3  502    0  0.24273887559E+02 -0.26858053884E+02 -0.66264485711E+01  0.37039963503E+02  0.41800000000E+01 0. -1.
         -5    1    3    3    0  502 -0.14957994555E+02  0.11528124760E+03 -0.48433115575E+02  0.12600296320E+03  0.41800000000E+01 0. -1.
        -11    1    1    2    0    0 -0.41015353701E+02 -0.31059981869E+02 -0.48988762996E+01  0.51681531536E+02  0.00000000000E+00 0.  1.
         11    1    1    2    0    0  0.31699460697E+02 -0.57363211851E+02 -0.76820454096E+02  0.10097908719E+03  0.00000000000E+00 0. -1.
</event>
<event>
 7    1  0.2594791E-009  0.1334684E+03  0.7561462E-02  0.1222398E+00
          1   -1    0    0  501    0  0.00000000000E+00  0.00000000000E+00  0.51168640938E+03  0.51168640938E+03  0.00000000000E+00 0. -1.
         -1   -1    0    0    0  501 -0.00000000000E+00 -0.00000000000E+00 -0.42577175814E+02  0.42577175814E+02  0.00000000000E+00 0.  1.
         25    2    1    2    0    0  0.63570395413E+02  0.57651676492E+02  0.34081266721E+03  0.37304743449E+03  0.12508478436E+03 0.  0.
          5    1    3    3  502    0  0.24536859192E+02 -0.32799491592E+02  0.17803599005E+03  0.18273519163E+03  0.41800000000E+01 0. -1.
         -5    1    3    3    0  502  0.39033536221E+02  0.90451168084E+02  0.16277667716E+03  0.19031224287E+03  0.41800000000E+01 0. -1.
        -11    1    1    2    0    0 -0.86984217961E+02 -0.32660149643E+02  0.10247781690E+03  0.13832802502E+03  0.00000000000E+00 0. -1.
         11    1    1    2    0    0  0.23413822548E+02 -0.24991526849E+02  0.25818749459E+02  0.42888125678E+02  0.00000000000E+00 0.  1.
</event>
<event>
 7    1  0.2594791E-009  0.8068692E+02  0.7561462E-02  0.1327113E+00
          2   -1    0    0  501    0  0.00000000000E+00  0.00000000000E+00  0.27272686498E+03  0.27272686498E+03  0.00000000000E+00 0. -1.
         -2   -1    0    0    0  501 -0.00000000000E+00 -0.00000000000E+00 -0.56217679868E+02  0.56217679868E+02  0.00000000000E+00 0.  1.
         25    2    1    2    0    0 -0.46254515359E+02 -0.66526753021E+01  0.16939484711E+03  0.21569784992E+03  0.12508880825E+03 0.  0.
          5    1    3    3  502    0  0.26935486903E+02 -0.17552008930E+02  0.12536832361E+03  0.12949240301E+03  0.41800000000E+01 0. -1.
         -5    1    3    3    0  502 -0.73190002262E+02  0.10899333628E+02  0.44026523500E+02  0.86205446905E+02  0.41800000000E+01 0. -1.
        -11    1    1    2    0    0  0.26543309289E+02 -0.10660006450E+02 -0.24068789738E+02  0.37383012786E+02  0.00000000000E+00 0.  1.
         11    1    1    2    0    0  0.19711206069E+02  0.17312681752E+02  0.71183127737E+02  0.75863682144E+02  0.00000000000E+00 0. -1.
</event>
<event>
 7    1  0.2594791E-009  0.8690475E+02  0.7561462E-02  0.1310525E+00
          1   -1    0    0  501    0  0.00000000000E+00  0.00000000000E+00  0.33678149795E+02  0.33678149795E+02  0.00000000000E+00 0. -1.
         -1   -1    0    0    0  501 -0.00000000000E+00 -0.00000000000E+00 -0.48838813374E+03  0.48838813374E+03  0.00000000000E+00 0.  1.
         25    2    1    2    0    0 -0.31266769802E+01  0.40468168980E+02 -0.35553620011E+03  0.37907888890E+03  0.12508943047E+03 0.  0.
          5    1    3    3  502    0 -0.30363558735E+02  0.40827954080E+02 -0.47246238480E+02  0.69559664921E+02  0.41800000000E+01 0.  1.
         -5    1    3    3    0  502  0.27236881755E+02 -0.35978510054E+00 -0.30828996163E+03  0.30951922398E+03  0.41800000000E+01 0.  1.
        -11    1    1    2    0    0  0.24808387034E+02  0.19420948432E+02 -0.61199443350E+02  0.68833140067E+02  0.00000000000E+00 0.  1.
         11    1    1    2    0    0 -0.21681710054E+02 -0.59889117411E+02 -0.37974340492E+02  0.74154254571E+02  0.00000000000E+00 0. -1.
</event>
<event>
 7    1  0.2594791E-009  0.1057248E+03  0.7561462E-02  0.1268698E+00
         -2   -1    0    0    0  501 -0.00000000000E+00  0.00000000000E+00  0.72558563516E+02  0.72558563516E+02  0.00000000000E+00 0.  1.
          2   -1    0    0  501    0  0.00000000000E+00 -0.00000000000E+00 -0.20537579795E+03  0.20537579795E+03  0.00000000000E+00 0. -1.
         25    2    1    2    0    0  0.52106574365E+02  0.15072516342E+02 -0.61016522913E+02  0.14937211866E+03  0.12508692148E+03 0.  0.
          5    1    3    3  502    0  0.68056234122E+02 -0.32212149617E+02 -0.70320075123E+01  0.75737673026E+02  0.41800000000E+01 0.  1.
         -5    1    3    3    0  502 -0.15949659756E+02  0.47284665959E+02 -0.53984515401E+02  0.73634445637E+02  0.41800000000E+01 0.  1.
        -11    1    1    2    0    0 -0.48087011490E+02 -0.38867013830E+02 -0.10543210843E+02  0.62722920316E+02  0.00000000000E+00 0.  1.
         11    1    1    2    0    0 -0.40195628758E+01  0.23794497488E+02 -0.61257500681E+02  0.65839322491E+02  0.00000000000E+00 0. -1.
</event>
<event>
 7    1  0.2594791E-009  0.1827274E+03  0.7561462E-02  0.1165189E+00
          1   -1    0    0  501    0  0.00000000000E+00  0.00000000000E+00  0.10399338353E+03  0.10399338353E+03  0.00000000000E+00 0.  1.
         -1   -1    0    0    0  501 -0.00000000000E+00 -0.00000000000E+00 -0.32936433817E+03  0.32936433817E+03  0.00000000000E+00 0. -1.
         25    2    1    2    0    0  0.13843305399E+03  0.55299891760E+02 -0.12810894408E+03  0.23298533426E+03  0.12509386861E+03 0.  0.
          5    1    3    3  502    0  0.29028085948E+02  0.73792816318E+02 -0.30226351987E+02  0.84965370996E+02  0.41800000000E+01 0. -1.
         -5    1    3    3    0  502  0.10940496804E+03 -0.18492924558E+02 -0.97882592096E+02  0.14801996327E+03  0.41800000000E+01 0. -1.
        -11    1    1    2    0    0 -0.45191806711E+02 -0.67233579754E+02 -0.49445115299E+02  0.94907708155E+02  0.00000000000E+00 0.  1.
         11    1    1    2    0    0 -0.93241247276E+02  0.11933687994E+02 -0.47816895260E+02  0.10546467928E+03  0.00000000000E+00 0. -1.
</event>
<event>
 7    1  0.2594791E-009  0.9814770E+02  0.7561462E-02  0.1284240E+00
          1   -1    0    0  501    0  0.00000000000E+00  0.00000000000E+00  0.55568060086E+03  0.55568060086E+03  0.00000000000E+00 0. -1.
         -1   -1    0    0    0  501 -0.00000000000E+00 -0.00000000000E+00 -0.33716111789E+02  0.33716111789E+02  0.00000000000E+00 0.  1.
         25    2    1    2    0    0  0.63198137979E+02  0.12428455597E+02  0.17183249923E+03  0.22208416019E+03  0.12508595150E+03 0.  0.
          5    1    3    3  502    0  0.30355666518E+02  0.36855353622E+02  0.26851330600E+01  0.48004853087E+02  0.41800000000E+01 0.  1.
         -5    1    3    3    0  502  0.32842471461E+02 -0.24426898024E+02  0.16914736617E+03  0.17407930710E+03  0.41800000000E+01 0.  1.
        -11    1    1    2    0    0 -0.54861393633E+02  0.30991116515E+02  0.15673693181E+03  0.16892805453E+03  0.00000000000E+00 0.  1.
         11    1    1    2    0    0 -0.83367443459E+01 -0.43419572112E+02  0.19339505803E+03  0.19838449793E+03  0.00000000000E+00 0. -1.
</event>
<event>
 7    1  0.2594791E-009  0.1652764E+03  0.7561462E-02  0.1182865E+00
         -2   -1    0    0    0  501 -0.00000000000E+00  0.00000000000E+00  0.36574026137E+03  0.36574026137E+03  0.00000000000E+00 0.  1.
          2   -1    0    0  501    0  0.00000000000E+00 -0.00000000000E+00 -0.80269266996E+02  0.80269266996E+02  0.00000000000E+00 0. -1.
         25    2    1    2    0    0 -0.77564347120E+02  0.10550266204E+03  0.17527287435E+03  0.25202151362E+03  0.12508886123E+03 0.  0.
          5    1    3    3  502    0 -0.79115116235E+02  0.13760098686E+02  0.12115994373E+03  0.14541577045E+03  0.41800000000E+01 0. -1.
         -5    1    3    3    0  502  0.15507691157E+01  0.91742563358E+02  0.54112930623E+02  0.10660574317E+03  0.41800000000E+01 0. -1.
        -11    1    1    2    0    0  0.86680366624E+02 -0.11572860308E+03  0.10711762691E+03  0.17994660742E+03  0.00000000000E+00 0.  1.
         11    1    1    2    0    0 -0.91160195048E+01  0.10225941034E+02  0.30804931143E+01  0.14041407318E+02  0.00000000000E+00 0. -1.
</event>
<event>
 7    1  0.2594791E-009  0.6778550E+02  0.7561462E-02  0.1367790E+00
         -1   -1    0    0    0  501 -0.00000000000E+00  0.00000000000E+00  0.10112513856E+03  0.10112513856E+03  0.00000000000E+00 0.  1.
          1   -1    0    0  501    0  0.00000000000E+00 -0.00000000000E+00 -0.14235808922E+03  0.14235808922E+03  0.00000000000E+00 0. -1.
         25    2    1    2    0    0 -0.48493628641E+02 -0.10691028366E+02 -0.20775180224E+02  0.13618334334E+03  0.12509342423E+03 0.  0.
          5    1    3    3  502    0 -0.54168674387E+02 -0.39186722612E+01 -0.68471776723E+02  0.87495473510E+02  0.41800000000E+01 0. -1.
         -5    1    3    3    0  502  0.56750457468E+01 -0.67723561043E+01  0.47696596499E+02  0.48687869834E+02  0.41800000000E+01 0. -1.
        -11    1    1    2    0    0  0.48461929726E+02 -0.10950703256E+02  0.25980297504E+02  0.56066499739E+02  0.00000000000E+00 0.  1.
         11    1    1    2    0    0  0.31698914279E-01  0.21641731622E+02 -0.46438067942E+02  0.51233384688E+02  0.00000000000E+00 0. -1.
</event>
<event>
 7    1  0.2594791E-009  0.1289093E+03  0.7561462E-02  0.1229083E+00
         -1   -1    0    0    0  501 -0.00000000000E+00  0.00000000000E+00  0.11327039768E+03  0.11327039768E+03  0.00000000000E+00 0.  1.
          1   -1    0    0  501    0  0.00000000000E+00 -0.00000000000E+00 -0.19536374436E+03  0.19536374436E+03  0.00000000000E+00 0. -1.
         25    2    1    2    0    0  0.26981929210E+02  0.94363437378E+02 -0.70344995000E+02  0.17388165417E+03  0.12511566056E+03 0.  0.
          5    1    3    3  502    0 -0.17932920918E+02 -0.21323289795E+02 -0.34698737905E+02  0.44696164852E+02  0.41800000000E+01 0.  1.
         -5    1    3    3    0  502  0.44914850128E+02  0.11568672717E+03 -0.35646257095E+02  0.12918548932E+03  0.41800000000E+01 0.  1.
        -11    1    1    2    0    0  0.69206830858E+01 -0.45371944576E+02  0.36056766864E+02  0.58366083008E+02  0.00000000000E+00 0.  1.
         11    1    1    2    0    0 -0.33902612296E+02 -0.48991492802E+02 -0.47805118543E+02  0.76386404853E+02  0.00000000000E+00 0. -1.
</event>
<event>
 7    1  0.2594791E-009  0.9268797E+02  0.7561462E-02  0.1296470E+00
         -2   -1    0    0    0  501 -0.00000000000E+00  0.00000000000E+00  0.44957522254E+03  0.44957522254E+03  0.00000000000E+00 0.  1.
          2   -1    0    0  501    0  0.00000000000E+00 -0.00000000000E+00 -0.32956082197E+02  0.32956082197E+02  0.00000000000E+00 0. -1.
         25    2    1    2    0    0  0.36457262191E+02  0.33562093272E+02  0.18026796192E+03  0.22494272911E+03  0.12508855749E+03 0.  0.
          5    1    3    3  502    0  0.13427491865E+02 -0.22156606416E+02 -0.78205828709E+01  0.27383328178E+02  0.41800000000E+01 0.  1.
         -5    1    3    3    0  502  0.23029770325E+02  0.55718699688E+02  0.18808854479E+03  0.19755940093E+03  0.41800000000E+01 0.  1.
        -11    1    1    2    0    0  0.21482916359E+02 -0.34624883300E+02  0.65129089729E+02  0.76825754586E+02  0.00000000000E+00 0. -1.
         11    1    1    2    0    0 -0.57940178549E+02  0.10627900281E+01  0.17122208870E+03  0.18076282104E+03  0.00000000000E+00 0.  1.
</event>
<event>
 7    1  0.2594791E-009  0.8503920E+02  0.7561462E-02  0.1315330E+00
          1   -1    0    0  501    0  0.00000000000E+00  0.00000000000E+00  0.61125760523E+02  0.61125760523E+02  0.00000000000E+00 0. -1.
         -1   -1    0    0    0  501 -0.00000000000E+00 -0.00000000000E+00 -0.21223502261E+03  0.21223502261E+03  0.00000000000E+00 0.  1.
         25    2    1    2    0    0  0.22654456548E+02  0.10072191417E+01 -0.44565619167E+02  0.13471203741E+03  0.12508796793E+03 0.  0.
          5    1    3    3  502    0 -0.40558751575E+02  0.35879799851E+02 -0.13236238254E+02  0.55902081981E+02  0.41800000000E+01 0. -1.
         -5    1    3    3    0  502  0.63213208123E+02 -0.34872580710E+02 -0.31329380913E+02  0.78809955430E+02  0.41800000000E+01 0. -1.
        -11    1    1    2    0    0 -0.10047118209E+02  0.18016576589E+02 -0.11305047427E+03  0.11491714994E+03  0.00000000000E+00 0.  1.
         11    1    1    2    0    0 -0.12607338339E+02 -0.19023795730E+02  0.65068313575E+01  0.23731595781E+02  0.00000000000E+00 0. -1.
</event>
<event>
 7    1  0.2594791E-009  0.1536425E+03  0.7561462E-02  0.1196067E+00
         -2   -1    0    0    0  501 -0.00000000000E+00  0.00000000000E+00  0.26865736504E+03  0.26865736504E+03  0.00000000000E+00 0.  1.
          2   -1    0    0  501    0  0.00000000000E+00 -0.00000000000E+00 -0.11540864928E+03  0.11540864928E+03  0.00000000000E+00 0. -1.
         25    2    1    2    0    0 -0.69884022326E+02 -0.11157987520E+03  0.35090171024E+02  0.18496880119E+03  0.12509313405E+03 0.  0.
          5    1    3    3  502    0 -0.70951855568E+02 -0.13252733471E+03  0.81947005325E+01  0.15060639353E+03  0.41800000000E+01 0.  1.
         -5    1    3    3    0  502  0.10678332418E+01  0.20947459508E+02  0.26895470491E+02  0.34362407666E+02  0.41800000000E+01 0.  1.
        -11    1    1    2    0    0  0.52669367973E+02  0.10425980992E+03  0.47656866863E+02  0.12615604324E+03  0.00000000000E+00 0. -1.
         11    1    1    2    0    0  0.17214654353E+02  0.73200652832E+01  0.70501677882E+02  0.72941169886E+02  0.00000000000E+00 0.  1.
</event>
<event>
 7    1  0.2594791E-009  0.1070104E+03  0.7561462E-02  0.1266208E+00
          3   -1    0    0  501    0  0.00000000000E+00  0.00000000000E+00  0.11341670592E+03  0.11341670592E+03  0.00000000000E+00 0. -1.
         -3   -1    0    0    0  501 -0.00000000000E+00 -0.00000000000E+00 -0.15068789120E+03  0.15068789120E+03  0.00000000000E+00 0.  1.
         25    2    1    2    0    0  0.12192301242E+02 -0.72269590287E+02 -0.15626089645E+02  0.14581807853E+03  0.12508873433E+03 0.  0.
          5    1    3    3  502    0 -0.30341102798E+02  0.12269999760E+02 -0.36095778802E+02  0.48903098679E+02  0.41800000000E+01 0.  1.
         -5    1    3    3    0  502  0.42533404039E+02 -0.84539590047E+02  0.20469689157E+02  0.96914979846E+02  0.41800000000E+01 0.  1.
        -11    1    1    2    0    0  0.17368644829E+02  0.22685603395E+02 -0.47185811723E+02  0.55161646572E+02  0.00000000000E+00 0.  1.
         11    1    1    2    0    0 -0.29560946070E+02  0.49583986892E+02  0.25540716086E+02  0.63124872015E+02  0.00000000000E+00 0. -1.
</event>
<event>
 7    1  0.2594791E-009  0.1128989E+03  0.7561462E-02  0.1255294E+00
          2   -1    0    0  501    0  0.00000000000E+00  0.00000000000E+00  0.51953476720E+03  0.51953476720E+03  0.00000000000E+00 0.  1.
         -2   -1    0    0    0  501 -0.00000000000E+00 -0.00000000000E+00 -0.35759181206E+02  0.35759181206E+02  0.00000000000E+00 0. -1.
         25    2    1    2    0    0 -0.10052845493E+02 -0.77780491896E+02  0.23624317112E+03  0.27858365044E+03  0.12508856770E+03 0.  0.
          5    1    3    3  502    0 -0.53363186413E+02 -0.30561867867E+02  0.18919533603E+03  0.19898242386E+03  0.41800000000E+01 0. -1.
         -5    1    3    3    0  502  0.43310340920E+02 -0.47218624030E+02  0.47047835094E+02  0.79601226579E+02  0.41800000000E+01 0. -1.
        -11    1    1    2    0    0 -0.26001093013E+02  0.40173525659E+02  0.38895141287E+02  0.61666855096E+02  0.00000000000E+00 0. -1.
         11    1    1    2    0    0  0.36053938506E+02  0.37606966238E+02  0.20863727358E+03  0.21504344287E+03  0.00000000000E+00 0.  1.
</event>
<event>
 7    1  0.3252357E-009  0.7986328E+02  0.7561462E-02  0.1329440E+00
         -2   -1    0    0    0  501 -0.00000000000E+00  0.00000000000E+00  0.93792039108E+01  0.93792039108E+01  0.00000000000E+00 0.  1.
          2   -1    0    0  501    0  0.00000000000E+00 -0.00000000000E+00 -0.18280020823E+04  0.18280020823E+04  0.00000000000E+00 0. -1.
         25    2    1    2    0    0 -0.31625079165E+02  0.15484201064E+02 -0.14586055814E+04  0.14643831251E+04  0.12509112229E+03 0.  0.
          5    1    3    3  502    0  0.15858719110E+02  0.16041775599E+01 -0.25147937645E+02  0.30065986184E+02  0.41800000000E+01 0. -1.
         -5    1    3    3    0  502 -0.47483798275E+02  0.13880023504E+02 -0.14334576437E+04  0.14343171389E+04  0.41800000000E+01 0. -1.
        -11    1    1    2    0    0  0.26527757951E+02 -0.51124839708E+02 -0.26944546184E+03  0.27553280763E+03  0.00000000000E+00 0. -1.
         11    1    1    2    0    0  0.50973212138E+01  0.35640638644E+02 -0.90571835217E+02  0.97465353542E+02  0.00000000000E+00 0.  1.
</event>
<event>
 7    1  0.2594791E-009  0.3087861E+03  0.7561462E-02  0.1080929E+00
         -2   -1    0    0    0  501 -0.00000000000E+00  0.00000000000E+00  0.15248706299E+03  0.15248706299E+03  0.00000000000E+00 0.  1.
          2   -1    0    0  501    0  0.00000000000E+00 -0.00000000000E+00 -0.70299927809E+03  0.70299927809E+03  0.00000000000E+00 0. -1.
         25    2    1    2    0    0  0.20081911290E+03  0.23163421264E+03 -0.23463900195E+03  0.40581090608E+03  0.12507719892E+03 0.  0.
          5    1    3    3  502    0  0.36746442096E+02  0.77306573973E+02 -0.77101521244E+01  0.86043746036E+02  0.41800000000E+01 0. -1.
         -5    1    3    3    0  502  0.16407267080E+03  0.15432763866E+03 -0.22692884983E+03  0.31976716004E+03  0.41800000000E+01 0. -1.
        -11    1    1    2    0    0 -0.17264483803E+03 -0.20103216706E+03 -0.21733278713E+03  0.34271520634E+03  0.00000000000E+00 0.  1.
         11    1    1    2    0    0 -0.28174274865E+02 -0.30602045581E+02 -0.98540426010E+02  0.10696022867E+03  0.00000000000E+00 0. -1.
</event>
<event>
 7    1  0.2594791E-009  0.1159389E+03  0.7561462E-02  0.1249951E+00
          2   -1    0    0  501    0  0.00000000000E+00  0.00000000000E+00  0.12196276988E+04  0.12196276988E+04  0.00000000000E+00 0.  1.
         -2   -1    0    0    0  501 -0.00000000000E+00 -0.00000000000E+00 -0.13301319151E+02  0.13301319151E+02  0.00000000000E+00 0. -1.
         25    2    1    2    0    0 -0.22168316453E+02  0.45896704139E+02  0.88028258866E+03  0.89058578774E+03  0.12509063806E+03 0.  0.
          5    1    3    3  502    0  0.46660622983E+02  0.33502793044E+02  0.25680832706E+03  0.26318746195E+03  0.41800000000E+01 0. -1.
         -5    1    3    3    0  502 -0.68828939435E+02  0.12393911094E+02  0.62347426160E+03  0.62739832580E+03  0.41800000000E+01 0. -1.
        -11    1    1    2    0    0  0.52790552144E+02 -0.48514792699E+01  0.15656402482E+03  0.16529571414E+03  0.00000000000E+00 0. -1.
         11    1    1    2    0    0 -0.30622235691E+02 -0.41045224869E+02  0.16947976618E+03  0.17704751608E+03  0.00000000000E+00 0.  1.
</event>
<event>
 7    1  0.2594791E-009  0.6730871E+02  0.7561462E-02  0.1369492E+00
          1   -1    0    0  501    0  0.00000000000E+00  0.00000000000E+00  0.11727266245E+03  0.11727266245E+03  0.00000000000E+00 0. -1.
         -1   -1    0    0    0  501 -0.00000000000E+00 -0.00000000000E+00 -0.10398673399E+03  0.10398673399E+03  0.00000000000E+00 0.  1.
         25    2    1    2    0    0 -0.60938958616E+01  0.35146004256E+02  0.21239758341E+02  0.13179659204E+03  0.12508731813E+03 0.  0.
          5    1    3    3  502    0  0.40007115965E+02  0.33008071648E+02 -0.32100059288E+02  0.61139090017E+02  0.41800000000E+01 0. -1.
         -5    1    3    3    0  502 -0.46101011827E+02  0.21379326078E+01  0.53339817630E+02  0.70657502023E+02  0.41800000000E+01 0. -1.
        -11    1    1    2    0    0 -0.46909882687E+00 -0.15945502055E+02  0.36917571585E+02  0.40216740062E+02  0.00000000000E+00 0. -1.
         11    1    1    2    0    0  0.65629946885E+01 -0.19200502200E+02 -0.44871401463E+02  0.49246064343E+02  0.00000000000E+00 0.  1.
</event>
<event>
 7    1  0.3690137E-009  0.1204388E+03  0.7561462E-02  0.1242375E+00
          4   -1    0    0  501    0  0.00000000000E+00  0.00000000000E+00  0.73751326725E+02  0.73751326725E+02  0.00000000000E+00 0.  1.
         -4   -1    0    0    0  501 -0.00000000000E+00 -0.00000000000E+00 -0.26856479989E+03  0.26856479989E+03  0.00000000000E+00 0. -1.
         25    2    1    2    0    0  0.27228419581E+01 -0.88003504266E+02 -0.12244417676E+03  0.19594115722E+03  0.12509328535E+03 0.  0.
          5    1    3    3  502    0 -0.52768955640E+02 -0.80734323966E+02 -0.71358022974E+02  0.12005012948E+03  0.41800000000E+01 0. -1.
         -5    1    3    3    0  502  0.55491797599E+02 -0.72691802996E+01 -0.51086153789E+02  0.75891027743E+02  0.41800000000E+01 0. -1.
        -11    1    1    2    0    0 -0.39624456605E+01  0.39990021851E+02 -0.87277731338E+02  0.96084885444E+02  0.00000000000E+00 0. -1.
         11    1    1    2    0    0  0.12396037024E+01  0.48013482414E+02  0.14908434937E+02  0.50290083945E+02  0.00000000000E+00 0.  1.
</event>
<event>
 7    1  0.3566254E-009  0.1104936E+03  0.7561462E-02  0.1259659E+00
          2   -1    0    0  501    0  0.00000000000E+00  0.00000000000E+00  0.13992610240E+03  0.13992610240E+03  0.00000000000E+00 0. -1.
         -2   -1    0    0    0  501 -0.00000000000E+00 -0.00000000000E+00 -0.11741936373E+03  0.11741936373E+03  0.00000000000E+00 0.  1.
         25    2    1    2    0    0 -0.17459460614E+02 -0.56845104906E+02 -0.21610612404E+02  0.14018386172E+03  0.12509315650E+03 0.  0.
          5    1    3    3  502    0  0.49989920211E+02 -0.15454270211E+02  0.12417937355E+02  0.53939819787E+02  0.41800000000E+01 0. -1.
         -5    1    3    3    0  502 -0.67449380825E+02 -0.41390834695E+02 -0.34028549760E+02  0.86244041935E+02  0.41800000000E+01 0. -1.
        -11    1    1    2    0    0  0.49320606542E+01  0.70526567865E+02  0.15365845085E+01  0.70715508123E+02  0.00000000000E+00 0.  1.
         11    1    1    2    0    0  0.12527399960E+02 -0.13681462959E+02  0.42580766563E+02  0.46446096279E+02  0.00000000000E+00 0. -1.
</event>
<event>
 7    1  0.2594791E-009  0.1420011E+03  0.7561462E-02  0.1210661E+00
         -2   -1    0    0    0  501 -0.00000000000E+00  0.00000000000E+00  0.83114553222E+02  0.83114553222E+02  0.00000000000E+00 0.  1.
          2   -1    0    0  501    0  0.00000000000E+00 -0.00000000000E+00 -0.41282544514E+03  0.41282544514E+03  0.00000000000E+00 0. -1.
         25    2    1    2    0    0 -0.12528476160E+03  0.46174665932E+02 -0.26486296603E+03  0.32191352248E+03  0.12509018314E+03 0.  0.
          5    1    3    3  502    0 -0.27100132438E+02  0.18810315110E+02 -0.19607766936E+03  0.19887727360E+03  0.41800000000E+01 0. -1.
         -5    1    3    3    0  502 -0.98184629166E+02  0.27364350822E+02 -0.68785296668E+02  0.12303624888E+03  0.41800000000E+01 0. -1.
        -11    1    1    2    0    0  0.45761538971E+02  0.15269784415E+02 -0.54831853820E+02  0.73032985414E+02  0.00000000000E+00 0. -1.
         11    1    1    2    0    0  0.79523222632E+02 -0.61444450347E+02 -0.10016072063E+02  0.10099349046E+03  0.00000000000E+00 0.  1.
</event>
<event>
 7    1  0.2594791E-009  0.9462427E+02  0.7561462E-02  0.1292025E+00
          2   -1    0    0  501    0  0.00000000000E+00  0.00000000000E+00  0.86335519988E+03  0.86335519988E+03  0.00000000000E+00 0. -1.
         -2   -1    0    0    0  501 -0.00000000000E+00 -0.00000000000E+00 -0.22920097798E+02  0.22920097798E+02  0.00000000000E+00 0.  1.
         25    2    1    2    0    0  0.58806982322E+02  0.20491726031E+02  0.66357864014E+03  0.67813110684E+03  0.12508802665E+03 0.  0.
          5    1    3    3  502    0  0.19716220047E+02 -0.37348845484E+02  0.47685794297E+03  0.47874276576E+03  0.41800000000E+01 0.  1.
         -5    1    3    3    0  502  0.39090762275E+02  0.57840571514E+02  0.18672069717E+03  0.19938834108E+03  0.41800000000E+01 0.  1.
        -11    1    1    2    0    0 -0.26696866103E+02 -0.32969574364E+02  0.16701212549E+03  0.17231588886E+03  0.00000000000E+00 0. -1.
         11    1    1    2    0    0 -0.32110116219E+02  0.12477848334E+02  0.98443364609E+01  0.35828301983E+02  0.00000000000E+00 0.  1.
</event>
<event>
 7    1  0.2594791E-009  0.4000970E+03  0.7561462E-02  0.1043746E+00
          1   -1    0    0  501    0  0.00000000000E+00  0.00000000000E+00  0.26893799310E+03  0.26893799310E+03  0.00000000000E+00 0. -1.
         -1   -1    0    0    0  501 -0.00000000000E+00 -0.00000000000E+00 -0.64521911712E+03  0.64521911712E+03  0.00000000000E+00 0.  1.
         25    2    1    2    0    0  0.36404826195E+03  0.13939340762E+03 -0.81954403452E+02  0.41752351449E+03  0.12509077422E+03 0.  0.
          5    1    3    3  502    0  0.20666101750E+02  0.42232861128E+02 -0.32302883849E+02  0.57198348102E+02  0.41800000000E+01 0.  1.
         -5    1    3    3    0  502  0.34338216020E+03  0.97160546492E+02 -0.49651519603E+02  0.36032516639E+03  0.41800000000E+01 0.  1.
        -11    1    1    2    0    0 -0.22827754457E+02 -0.30158234650E+02 -0.51178021390E+02  0.63638159654E+02  0.00000000000E+00 0. -1.
         11    1    1    2    0    0 -0.34122050749E+03 -0.10923517297E+03 -0.24314869917E+03  0.43299543607E+03  0.00000000000E+00 0.  1.
</event>
<event>
 7    1  0.2594791E-009  0.1029447E+03  0.7561462E-02  0.1274223E+00
          2   -1    0    0  501    0  0.00000000000E+00  0.00000000000E+00  0.30598279408E+03  0.30598279408E+03  0.00000000000E+00 0. -1.
         -2   -1    0    0    0  501 -0.00000000000E+00 -0.00000000000E+00 -0.43665889193E+02  0.43665889193E+02  0.00000000000E+00 0.  1.
         25    2    1    2    0    0  0.96202072346E+01 -0.12527677670E+02  0.19523425584E+03  0.23240808416E+03  0.12509041464E+03 0.  0.
          5    1    3    3  502    0  0.63388709459E+02 -0.72448875189E+01  0.64183949898E+02  0.90596184834E+02  0.41800000000E+01 0.  1.
         -5    1    3    3    0  502 -0.53768502224E+02 -0.52827901513E+01  0.13105030594E+03  0.14181189933E+03  0.41800000000E+01 0.  1.
        -11    1    1    2    0    0 -0.21175397476E+02 -0.33871590095E+02  0.54903337932E+02  0.67897412248E+02  0.00000000000E+00 0. -1.
         11    1    1    2    0    0  0.11555190241E+02  0.46399267765E+02  0.12179311114E+02  0.49343186864E+02  0.00000000000E+00 0.  1.
</event>
<event>
 7    1  0.3023715E-009  0.1283815E+03  0.7561462E-02  0.1229877E+00
          2   -1    0    0  501    0  0.00000000000E+00  0.00000000000E+00  0.59190213263E+03  0.59190213263E+03  0.00000000000E+00 0. -1.
         -2   -1    0    0    0  501 -0.00000000000E+00 -0.00000000000E+00 -0.35343670805E+02  0.35343670805E+02  0.00000000000E+00 0.  1.
         25    2    1    2    0    0 -0.76322622235E+02  0.92058750331E+01  0.17980374763E+03  0.23213577900E+03  0.12509093263E+03 0.  0.
          5    1    3    3  502    0 -0.42736999425E+02  0.63941578356E+02  0.66161894231E+02  0.10153740794E+03  0.41800000000E+01 0. -1.
         -5    1    3    3    0  502 -0.33585622809E+02 -0.54735703323E+02  0.11364185340E+03  0.13059837106E+03  0.41800000000E+01 0. -1.
        -11    1    1    2    0    0  0.35241959864E+02 -0.47553402617E+02  0.24144882576E+03  0.24859778216E+03  0.00000000000E+00 0.  1.
         11    1    1    2    0    0  0.41080662370E+02  0.38347527584E+02  0.13530588842E+03  0.14651224227E+03  0.00000000000E+00 0. -1.
</event>
<event>
 7    1  0.2594791E-009  0.1450200E+03  0.7561462E-02  0.1206729E+00
          1   -1    0    0  501    0  0.00000000000E+00  0.00000000000E+00  0.53689181954E+03  0.53689181954E+03  0.00000000000E+00 0. -1.
         -1   -1    0    0    0  501 -0.00000000000E+00 -0.00000000000E+00 -0.52270093087E+02  0.52270093087E+02  0.00000000000E+00 0.  1.
         25    2    1    2    0    0  0.44750334154E+01  0.12501506626E+03  0.30495934909E+03  0.35255615084E+03  0.12508733823E+03 0.  0.
          5    1    3    3  502    0  0.17510483434E+02  0.13313860902E+03  0.17008705309E+03  0.21674774340E+03  0.41800000000E+01 0.  1.
         -5    1    3    3    0  502 -0.13035450019E+02 -0.81235427553E+01  0.13487229599E+03  0.13580840744E+03  0.41800000000E+01 0.  1.
        -11    1    1    2    0    0 -0.24876234543E+02 -0.11380776445E+03  0.99729147023E+02  0.15335232982E+03  0.00000000000E+00 0.  1.
         11    1    1    2    0    0  0.20401201128E+02 -0.11207301807E+02  0.79933230342E+02  0.83253431966E+02  0.00000000000E+00 0. -1.
</event>
<event>
 7    1  0.3023396E-009  0.1922417E+03  0.7561462E-02  0.1156455E+00
          2   -1    0    0  501    0  0.00000000000E+00  0.00000000000E+00  0.61217745689E+03  0.61217745689E+03  0.00000000000E+00 0. -1.
         -2   -1    0    0    0  501 -0.00000000000E+00 -0.00000000000E+00 -0.75850646790E+02  0.75850646790E+02  0.00000000000E+00 0.  1.
         25    2    1    2    0    0  0.18454673486E+03  0.11302375191E+02  0.24724019524E+03  0.33310533031E+03  0.12508479485E+03 0.  0.
          5    1    3    3  502    0  0.42406818761E+02  0.19274139032E+02 -0.11463867736E+01  0.46782660415E+02  0.41800000000E+01 0. -1.
         -5    1    3    3    0  502  0.14213991610E+03 -0.79717638411E+01  0.24838658202E+03  0.28632266989E+03  0.41800000000E+01 0. -1.
        -11    1    1    2    0    0 -0.71007416342E+02  0.26246662127E+02  0.60362580682E+02  0.96822422997E+02  0.00000000000E+00 0.  1.
         11    1    1    2    0    0 -0.11353931852E+03 -0.37549037319E+02  0.22872403417E+03  0.25810035037E+03  0.00000000000E+00 0. -1.
</event>
<event>
 7    1  0.3077222E-009  0.1047171E+03  0.7561462E-02  0.1270678E+00
          2   -1    0    0  501    0  0.00000000000E+00  0.00000000000E+00  0.18672550197E+03  0.18672550197E+03  0.00000000000E+00 0. -1.
         -2   -1    0    0    0  501 -0.00000000000E+00 -0.00000000000E+00 -0.11566042134E+03  0.11566042134E+03  0.00000000000E+00 0.  1.
         25    2    1    2    0    0 -0.29536663032E+02  0.47271357778E+01 -0.58291565007E+02  0.14121229415E+03  0.12509294621E+03 0.  0.
          5    1    3    3  502    0 -0.10684094784E+01  0.63224750799E+02 -0.30829579679E+02  0.70473016081E+02  0.41800000000E+01 0. -1.
         -5    1    3    3    0  502 -0.28468253554E+02 -0.58497615021E+02 -0.27461985328E+02  0.70739278069E+02  0.41800000000E+01 0. -1.
        -11    1    1    2    0    0 -0.20072205917E+02  0.17388073253E+02  0.90697456007E+02  0.94505381159E+02  0.00000000000E+00 0. -1.
         11    1    1    2    0    0  0.49608868949E+02 -0.22115209031E+02  0.38659189630E+02  0.66668248003E+02  0.00000000000E+00 0.  1.
</event>
<event>
 7    1  0.2594791E-009  0.9087438E+02  0.7561462E-02  0.1300748E+00
         -2   -1    0    0    0  501 -0.00000000000E+00  0.00000000000E+00  0.12686712795E+03  0.12686712795E+03  0.00000000000E+00 0.  1.
          2   -1    0    0  501    0  0.00000000000E+00 -0.00000000000E+00 -0.10977172044E+03  0.10977172044E+03  0.00000000000E+00 0. -1.
         25    2    1    2    0    0  0.23885981320E+02  0.33631503321E+02  0.19477652960E+02  0.13314881390E+03  0.12509040554E+03 0.  0.
          5    1    3    3  502    0 -0.10795308141E+02 -0.22474245089E+02  0.53236724788E+02  0.58934299320E+02  0.41800000000E+01 0.  1.
         -5    1    3    3    0  502  0.34681289461E+02  0.56105748411E+02 -0.33759071828E+02  0.74214514579E+02  0.41800000000E+01 0.  1.
        -11    1    1    2    0    0  0.29728129994E+02 -0.71350016480E+01 -0.25059863354E+02  0.39530579465E+02  0.00000000000E+00 0. -1.
         11    1    1    2    0    0 -0.53614111315E+02 -0.26496501673E+02  0.22677617902E+02  0.63959455022E+02  0.00000000000E+00 0.  1.
</event>
<event>
 7    1  0.2594791E-009  0.1049984E+03  0.7561462E-02  0.1270123E+00
          2   -1    0    0  501    0  0.00000000000E+00  0.00000000000E+00  0.93551276671E+03  0.93551276671E+03  0.00000000000E+00 0. -1.
         -2   -1    0    0    0  501 -0.00000000000E+00 -0.00000000000E+00 -0.12460906766E+02  0.12460906766E+02  0.00000000000E+00 0.  1.
         25    2    1    2    0    0  0.16354730728E+02  0.33866628575E+00  0.53820916097E+03  0.55279535921E+03  0.12508403694E+03 0.  0.
          5    1    3    3  502    0  0.35637091652E+02 -0.55828893991E+02  0.30108123855E+03  0.30830869646E+03  0.41800000000E+01 0. -1.
         -5    1    3    3    0  502 -0.19282360924E+02  0.56167560277E+02  0.23712792242E+03  0.24448666275E+03  0.41800000000E+01 0. -1.
        -11    1    1    2    0    0  0.16164063464E+02 -0.33783679095E+02  0.10511079956E+03  0.11158357453E+03  0.00000000000E+00 0.  1.
         11    1    1    2    0    0 -0.32518794192E+02  0.33445012810E+02  0.27973189942E+03  0.28359473974E+03  0.00000000000E+00 0. -1.
</event>
<event>
 7    1  0.2594791E-009  0.9660606E+02  0.7561462E-02  0.1287599E+00
          2   -1    0    0  501    0  0.00000000000E+00  0.00000000000E+00  0.69232790685E+02  0.69232790685E+02  0.00000000000E+00 0. -1.
         -2   -1    0    0    0  501 -0.00000000000E+00 -0.00000000000E+00 -0.29623053757E+03  0.29623053757E+03  0.00000000000E+00 0.  1.
         25    2    1    2    0    0 -0.70884548343E+02  0.59492926828E+02 -0.14276233375E+03  0.21116829172E+03  0.12508771305E+03 0.  0.
          5    1    3    3  502    0 -0.51450287688E+02  0.39815088084E+02 -0.16371682684E+03  0.17621874229E+03  0.41800000000E+01 0. -1.
         -5    1    3    3    0  502 -0.19434260655E+02  0.19677838744E+02  0.20954493097E+02  0.34949549436E+02  0.41800000000E+01 0. -1.
        -11    1    1    2    0    0  0.37734481402E+02 -0.54850320906E+02 -0.32402417397E+01  0.66655442063E+02  0.00000000000E+00 0. -1.
         11    1    1    2    0    0  0.33150066942E+02 -0.46426059224E+01 -0.80995171399E+02  0.87639594464E+02  0.00000000000E+00 0.  1.
</event>
<event>
 6    1  0.2594791E-009  0.2054802E+03  0.7561462E-02  0.1145196E+00
         -2   -1    0    0    0  501 -0.00000000000E+00  0.00000000000E+00  0.10001258458E+03  0.10001258458E+03  0.00000000000E+00 0. -1.
          2   -1    0    0  501    0  0.00000000000E+00 -0.00000000000E+00 -0.49534326714E+03  0.49534326714E+03  0.00000000000E+00 0.  1.
          5    1    1    2  502    0  0.43952469401E+02 -0.12057349024E+03 -0.58633646070E+02  0.14115651939E+03  0.41800000000E+01 0. -1.
         -5    1    1    2    0  502  0.58795939435E+02 -0.47329083408E+02 -0.16704022236E+03  0.18334915576E+03  0.41800000000E+01 0. -1.
        -11    1    1    2    0    0 -0.23451078623E+02  0.99543245238E+02 -0.11064625158E+03  0.15066985017E+03  0.00000000000E+00 0.  1.
         11    1    1    2    0    0 -0.79297330213E+02  0.68359328411E+02 -0.59010562545E+02  0.12018032639E+03  0.00000000000E+00 0. -1.
</event>
<event>
 7    1  0.2594791E-009  0.1770874E+03  0.7561462E-02  0.1170652E+00
          2   -1    0    0  501    0  0.00000000000E+00  0.00000000000E+00  0.12983041781E+04  0.12983041781E+04  0.00000000000E+00 0. -1.
         -2   -1    0    0    0  501 -0.00000000000E+00 -0.00000000000E+00 -0.28491661313E+02  0.28491661313E+02  0.00000000000E+00 0.  1.
         25    2    1    2    0    0  0.14017919724E+03 -0.66711929642E+02  0.77893338642E+03  0.80404296301E+03  0.12508867654E+03 0.  0.
          5    1    3    3  502    0  0.15330263720E+03 -0.46794780375E+02  0.52452297691E+03  0.54848270324E+03  0.41800000000E+01 0. -1.
         -5    1    3    3    0  502 -0.13123439957E+02 -0.19917149267E+02  0.25441040950E+03  0.25556025977E+03  0.41800000000E+01 0. -1.
        -11    1    1    2    0    0 -0.13028926069E+03  0.32883579077E+02  0.30102933182E+03  0.32965933908E+03  0.00000000000E+00 0.  1.
         11    1    1    2    0    0 -0.98899365474E+01  0.33828350565E+02  0.18984979853E+03  0.19309353730E+03  0.00000000000E+00 0. -1.
</event>
<event>
 7    1  0.2594791E-009  0.1232419E+03  0.7561462E-02  0.1237843E+00
          2   -1    0    0  501    0  0.00000000000E+00  0.00000000000E+00  0.10879577793E+03  0.10879577793E+03  0.00000000000E+00 0. -1.
         -2   -1    0    0    0  501 -0.00000000000E+00 -0.00000000000E+00 -0.15339272498E+03  0.15339272498E+03  0.00000000000E+00 0.  1.
         25    2    1    2    0    0  0.60367977271E+02  0.93701949459E+01  0.20912281834E+01  0.13922728550E+03  0.12509104907E+03 0.  0.
          5    1    3    3  502    0 -0.17986777973E+02  0.45359093499E+02 -0.15012916178E+02  0.51223350116E+02  0.41800000000E+01 0.  1.
         -5    1    3    3    0  502  0.78354755244E+02 -0.35988898553E+02  0.17104144362E+02  0.88003935382E+02  0.41800000000E+01 0.  1.
        -11    1    1    2    0    0  0.20587597423E+01 -0.41103300043E+02 -0.30118415421E+02  0.50998418736E+02  0.00000000000E+00 0.  1.
         11    1    1    2    0    0 -0.62426737013E+02  0.31733105097E+02 -0.16569759816E+02  0.71962798678E+02  0.00000000000E+00 0. -1.
</event>
<event>
 7    1  0.3127558E-009  0.1265077E+03  0.7561462E-02  0.1232732E+00
         -2   -1    0    0    0  501 -0.00000000000E+00  0.00000000000E+00  0.27000774473E+02  0.27000774473E+02  0.00000000000E+00 0.  1.
          2   -1    0    0  501    0  0.00000000000E+00 -0.00000000000E+00 -0.65114963202E+03  0.65114963202E+03  0.00000000000E+00 0. -1.
         25    2    1    2    0    0 -0.71018995014E+02  0.89738540645E+00 -0.27225342563E+03  0.30791917575E+03  0.12509111908E+03 0.  0.
          5    1    3    3  502    0 -0.90313678458E+02 -0.39660853952E+02 -0.18492645412E+03  0.20963017361E+03  0.41800000000E+01 0.  1.
         -5    1    3    3    0  502  0.19294683444E+02  0.40558239359E+02 -0.87326971509E+02  0.98289002142E+02  0.41800000000E+01 0.  1.
        -11    1    1    2    0    0  0.56448469213E+02  0.37729731470E+02 -0.15768636207E+03  0.17168270471E+03  0.00000000000E+00 0.  1.
         11    1    1    2    0    0  0.14570525801E+02 -0.38627116877E+02 -0.19420906984E+03  0.19854852603E+03  0.00000000000E+00 0. -1.
</event>
<event>
 7    1  0.2594791E-009  0.1100438E+03  0.7561462E-02  0.1260489E+00
          1   -1    0    0  501    0  0.00000000000E+00  0.00000000000E+00  0.63525779051E+02  0.63525779051E+02  0.00000000000E+00 0. -1.
         -1   -1    0    0    0  501 -0.00000000000E+00 -0.00000000000E+00 -0.22236906579E+03  0.22236906579E+03  0.00000000000E+00 0.  1.
         25    2    1    2    0    0 -0.33412134367E+02 -0.18359124148E+02 -0.48605944888E+02  0.13951435049E+03  0.12509311713E+03 0.  0.
          5    1    3    3  502    0 -0.19676842089E+02  0.53278158604E+02 -0.13861486878E+02  0.58611888873E+02  0.41800000000E+01 0. -1.
         -5    1    3    3    0  502 -0.13735292278E+02 -0.71637282752E+02 -0.34744458009E+02  0.80902461621E+02  0.41800000000E+01 0. -1.
        -11    1    1    2    0    0  0.68737123996E+00 -0.30916578570E+02 -0.64767564823E+02  0.71771475970E+02  0.00000000000E+00 0.  1.
         11    1    1    2    0    0  0.32724763127E+02  0.49275702718E+02 -0.45469777028E+02  0.74609018376E+02  0.00000000000E+00 0. -1.
</event>
<event>
 7    1  0.2594791E-009  0.9965180E+02  0.7561462E-02  0.1281030E+00
          1   -1    0    0  501    0  0.00000000000E+00  0.00000000000E+00  0.30740038121E+03  0.30740038121E+03  0.00000000000E+00 0. -1.
         -1   -1    0    0    0  501 -0.00000000000E+00 -0.00000000000E+00 -0.66903021254E+02  0.66903021254E+02  0.00000000000E+00 0.  1.
         25    2    1    2    0    0 -0.58095419804E+02  0.43769075067E+02  0.54866181038E+02  0.15474991530E+03  0.12508568554E+03 0.  0.
          5    1    3    3  502    0 -0.48911415340E+02  0.72395396694E+02  0.77518685799E+02  0.11687616977E+03  0.41800000000E+01 0. -1.
         -5    1    3    3    0  502 -0.91840044639E+01 -0.28626321627E+02 -0.22652504761E+02  0.37873745522E+02  0.41800000000E+01 0. -1.
        -11    1    1    2    0    0  0.32751622532E+02 -0.45519276251E+02  0.18587318522E+03  0.19414817608E+03  0.00000000000E+00 0. -1.
         11    1    1    2    0    0  0.25343797272E+02  0.17502011843E+01 -0.24200630971E+00  0.25405311087E+02  0.00000000000E+00 0.  1.
</event>
<event>
 7    1  0.2594791E-009  0.9808255E+02  0.7561462E-02  0.1284381E+00
          1   -1    0    0  501    0  0.00000000000E+00  0.00000000000E+00  0.12802899775E+03  0.12802899775E+03  0.00000000000E+00 0. -1.
         -1   -1    0    0    0  501 -0.00000000000E+00 -0.00000000000E+00 -0.10703898607E+03  0.10703898607E+03  0.00000000000E+00 0.  1.
         25    2    1    2    0    0  0.25464000203E+02  0.35057104550E+02  0.15911136438E+02  0.13333354494E+03  0.12508898455E+03 0.  0.
          5    1    3    3  502    0 -0.33324979135E+02  0.15447164903E+02  0.50231317279E+02  0.62368475799E+02  0.41800000000E+01 0.  1.
         -5    1    3    3    0  502  0.58788979338E+02  0.19609939648E+02 -0.34320180841E+02  0.70965069136E+02  0.41800000000E+01 0.  1.
        -11    1    1    2    0    0 -0.43279983224E+02  0.13519324743E+02  0.17367425230E+02  0.48554675866E+02  0.00000000000E+00 0.  1.
         11    1    1    2    0    0  0.17815983021E+02 -0.48576429293E+02 -0.12288549988E+02  0.53179763018E+02  0.00000000000E+00 0. -1.
</event>
<event>
 7    1  0.2594791E-009  0.1098294E+03  0.7561462E-02  0.1260886E+00
          2   -1    0    0  501    0  0.00000000000E+00  0.00000000000E+00  0.19333901878E+03  0.19333901878E+03  0.00000000000E+00 0. -1.
         -2   -1    0    0    0  501 -0.00000000000E+00 -0.00000000000E+00 -0.79785829509E+02  0.79785829509E+02  0.00000000000E+00 0.  1.
         25    2    1    2    0    0  0.47092569920E+02  0.89073386977E+01  0.10384656958E+03  0.16950288488E+03  0.12510022840E+03 0.  0.
          5    1    3    3  502    0  0.24846254165E+02 -0.56189067301E+02  0.68281870812E+02  0.91947995692E+02  0.41800000000E+01 0.  1.
         -5    1    3    3    0  502  0.22246315754E+02  0.65096405998E+02  0.35564698771E+02  0.77554889189E+02  0.41800000000E+01 0.  1.
        -11    1    1    2    0    0 -0.54173307020E+01  0.30993423713E+02 -0.21422032108E+02  0.38063673562E+02  0.00000000000E+00 0.  1.
         11    1    1    2    0    0 -0.41675239218E+02 -0.39900762410E+02  0.31128651794E+02  0.65558289844E+02  0.00000000000E+00 0. -1.
</event>
<event>
 7    1  0.2594791E-009  0.1101249E+03  0.7561462E-02  0.1260339E+00
          1   -1    0    0  501    0  0.00000000000E+00  0.00000000000E+00  0.33839894172E+03  0.33839894172E+03  0.00000000000E+00 0. -1.
         -1   -1    0    0    0  501 -0.00000000000E+00 -0.00000000000E+00 -0.49091836155E+02  0.49091836155E+02  0.00000000000E+00 0.  1.
         25    2    1    2    0    0 -0.46159139460E+02  0.48000162481E+02  0.20272385054E+03  0.24734334084E+03  0.12508831652E+03 0.  0.
          5    1    3    3  502    0 -0.88176551988E+02  0.45741026084E+02  0.14290549639E+03  0.17408848062E+03  0.41800000000E+01 0. -1.
         -5    1    3    3    0  502  0.42017412528E+02  0.22591363968E+01  0.59818354149E+02  0.73254860220E+02  0.41800000000E+01 0. -1.
        -11    1    1    2    0    0  0.22829845737E+02  0.24482880212E+01 -0.12792692369E+02  0.26284005567E+02  0.00000000000E+00 0.  1.
         11    1    1    2    0    0  0.23329293724E+02 -0.50448450502E+02  0.99375947392E+02  0.11386343146E+03  0.00000000000E+00 0. -1.
</event>
<event>
 7    1  0.2594791E-009  0.1031101E+03  0.7561462E-02  0.1273889E+00
         -2   -1    0    0    0  501 -0.00000000000E+00  0.00000000000E+00  0.99216549446E+01  0.99216549446E+01  0.00000000000E+00 0.  1.
          2   -1    0    0  501    0  0.00000000000E+00 -0.00000000000E+00 -0.13152527049E+04  0.13152527049E+04  0.00000000000E+00 0. -1.
         25    2    1    2    0    0 -0.14315310707E+02 -0.28547076962E+02 -0.84115204692E+03  0.85100212838E+03  0.12509193714E+03 0.  0.
          5    1    3    3  502    0 -0.16215521297E+02 -0.68343817201E+02 -0.71930373477E+03  0.72273726604E+03  0.41800000000E+01 0.  1.
         -5    1    3    3    0  502  0.19002105900E+01  0.39796740239E+02 -0.12184831216E+03  0.12826486234E+03  0.41800000000E+01 0.  1.
        -11    1    1    2    0    0 -0.32369309509E+02  0.36116991861E+02 -0.26962755724E+03  0.27395479358E+03  0.00000000000E+00 0. -1.
         11    1    1    2    0    0  0.46684620215E+02 -0.75699148990E+01 -0.19455144578E+03  0.20021743788E+03  0.00000000000E+00 0.  1.
</event>
<event>
 7    1  0.2594791E-009  0.1054465E+03  0.7561462E-02  0.1269242E+00
          2   -1    0    0  501    0  0.00000000000E+00  0.00000000000E+00  0.38353083764E+03  0.38353083764E+03  0.00000000000E+00 0. -1.
         -2   -1    0    0    0  501 -0.00000000000E+00 -0.00000000000E+00 -0.36081818107E+02  0.36081818107E+02  0.00000000000E+00 0.  1.
         25    2    1    2    0    0 -0.24179031987E+02  0.37845746539E+02  0.22354307157E+03  0.26007921383E+03  0.12511101669E+03 0.  0.
          5    1    3    3  502    0 -0.58964783466E+01 -0.35205620767E+02  0.15176463620E+03  0.15596211524E+03  0.41800000000E+01 0. -1.
         -5    1    3    3    0  502 -0.18282553640E+02  0.73051367305E+02  0.71778435373E+02  0.10411709858E+03  0.41800000000E+01 0. -1.
        -11    1    1    2    0    0  0.45438251862E+02 -0.55620920524E+02  0.79018942387E+02  0.10678162196E+03  0.00000000000E+00 0.  1.
         11    1    1    2    0    0 -0.21259219875E+02  0.17775173985E+02  0.44887005576E+02  0.52751819963E+02  0.00000000000E+00 0. -1.
</event>
<event>
 7    1  0.2594791E-009  0.9587068E+02  0.7561462E-02  0.1289227E+00
          4   -1    0    0  501    0  0.00000000000E+00  0.00000000000E+00  0.46886413349E+03  0.46886413349E+03  0.00000000000E+00 0. -1.
         -4   -1    0    0    0  501 -0.00000000000E+00 -0.00000000000E+00 -0.25848944289E+02  0.25848944289E+02  0.00000000000E+00 0.  1.
         25    2    1    2    0    0 -0.32706333605E+00 -0.65120535310E+01  0.26190524287E+03  0.29031809245E+03  0.12509086597E+03 0.  0.
          5    1    3    3  502    0  0.10282883144E+02 -0.58385669699E+02  0.20053514472E+03  0.20915649830E+03  0.41800000000E+01 0. -1.
         -5    1    3    3    0  502 -0.10609946480E+02  0.51873616168E+02  0.61370098151E+02  0.81161594155E+02  0.41800000000E+01 0. -1.
        -11    1    1    2    0    0  0.34566377972E+02  0.22670040392E+02  0.37277509240E+02  0.55663074947E+02  0.00000000000E+00 0.  1.
         11    1    1    2    0    0 -0.34239314636E+02 -0.16157986861E+02  0.14383243709E+03  0.14873191038E+03  0.00000000000E+00 0. -1.
</event>
<event>
 7    1  0.2594791E-009  0.2874666E+03  0.7561462E-02  0.1091679E+00
          2   -1    0    0  501    0  0.00000000000E+00  0.00000000000E+00  0.12338692335E+03  0.12338692335E+03  0.00000000000E+00 0. -1.
         -2   -1    0    0    0  501 -0.00000000000E+00 -0.00000000000E+00 -0.76230831666E+03  0.76230831666E+03  0.00000000000E+00 0.  1.
         25    2    1    2    0    0 -0.11177283996E+03 -0.25000660932E+03 -0.20166169128E+03  0.36236853536E+03  0.12508814986E+03 0.  0.
          5    1    3    3  502    0 -0.59350063738E+02 -0.16927092458E+02 -0.35331048941E+02  0.71237012458E+02  0.41800000000E+01 0.  1.
         -5    1    3    3    0  502 -0.52422776218E+02 -0.23307951686E+03 -0.16633064234E+03  0.29113152290E+03  0.41800000000E+01 0.  1.
        -11    1    1    2    0    0  0.29944660156E+02  0.81119515693E+02 -0.71381709593E+02  0.11212674508E+03  0.00000000000E+00 0. -1.
         11    1    1    2    0    0  0.81828179800E+02  0.16888709363E+03 -0.36587799243E+03  0.41119995956E+03  0.00000000000E+00 0.  1.
</event>
<event>
 7    1  0.2594791E-009  0.1825418E+03  0.7561462E-02  0.1165366E+00
         -2   -1    0    0    0  501 -0.00000000000E+00  0.00000000000E+00  0.56690886623E+02  0.56690886623E+02  0.00000000000E+00 0.  1.
          2   -1    0    0  501    0  0.00000000000E+00 -0.00000000000E+00 -0.86946974874E+03  0.86946974874E+03  0.00000000000E+00 0. -1.
         25    2    1    2    0    0 -0.36085680024E+01  0.16920441081E+03 -0.22708723349E+03  0.30961008028E+03  0.12508651325E+03 0.  0.
          5    1    3    3  502    0  0.10250061531E+02  0.15775124508E+03 -0.11380069463E+03  0.19482964247E+03  0.41800000000E+01 0. -1.
         -5    1    3    3    0  502 -0.13858629534E+02  0.11453165729E+02 -0.11328653886E+03  0.11478043781E+03  0.41800000000E+01 0. -1.
        -11    1    1    2    0    0 -0.34286038032E+02 -0.12797100019E+03 -0.46489310062E+03  0.48340221792E+03  0.00000000000E+00 0. -1.
         11    1    1    2    0    0  0.37894606035E+02 -0.41233410622E+02 -0.12079852801E+03  0.13314833716E+03  0.00000000000E+00 0.  1.
</event>
<event>
 7    1  0.2594791E-009  0.8830299E+02  0.7561462E-02  0.1307014E+00
          2   -1    0    0  501    0  0.00000000000E+00  0.00000000000E+00  0.20899710595E+03  0.20899710595E+03  0.00000000000E+00 0.  1.
         -2   -1    0    0    0  501 -0.00000000000E+00 -0.00000000000E+00 -0.87152401852E+02  0.87152401852E+02  0.00000000000E+00 0. -1.
         25    2    1    2    0    0  0.69145235282E+01  0.27662355006E+01  0.15448963214E+03  0.19891958072E+03  0.12508593231E+03 0.  0.
          5    1    3    3  502    0  0.33847620768E+02 -0.28989475521E+02  0.66265749971E+01  0.45248591346E+02  0.41800000000E+01 0.  1.
         -5    1    3    3    0  502 -0.26933097239E+02  0.31755711021E+02  0.14786305714E+03  0.15367098938E+03  0.41800000000E+01 0.  1.
        -11    1    1    2    0    0  0.15447004772E+02 -0.42048356718E+02 -0.25268038111E+02  0.51431002412E+02  0.00000000000E+00 0.  1.
         11    1    1    2    0    0 -0.22361528300E+02  0.39282121218E+02 -0.73768899313E+01  0.45798924663E+02  0.00000000000E+00 0. -1.
</event>
<event>
 7    1  0.2594791E-009  0.9186414E+02  0.7561462E-02  0.1298399E+00
          4   -1    0    0  501    0  0.00000000000E+00  0.00000000000E+00  0.29221780810E+02  0.29221780810E+02  0.00000000000E+00 0.  1.
         -4   -1    0    0    0  501 -0.00000000000E+00 -0.00000000000E+00 -0.54985151189E+03  0.54985151189E+03  0.00000000000E+00 0. -1.
         25    2    1    2    0    0  0.30408475137E+02  0.29871484798E+02 -0.40436464500E+03  0.42540980737E+03  0.12508300092E+03 0.  0.
          5    1    3    3  502    0 -0.28790029901E+02 -0.69134652567E+01 -0.23048765509E+02  0.37754202614E+02  0.41800000000E+01 0.  1.
         -5    1    3    3    0  502  0.59198505039E+02  0.36784950055E+02 -0.38131587949E+03  0.38765560476E+03  0.41800000000E+01 0.  1.
        -11    1    1    2    0    0 -0.35778339185E+02 -0.50947368162E+02 -0.39154858629E+02  0.73544726743E+02  0.00000000000E+00 0.  1.
         11    1    1    2    0    0  0.53698640474E+01  0.21075883364E+02 -0.77110227455E+02  0.80118758588E+02  0.00000000000E+00 0. -1.
</event>
<event>
 7    1  0.2594791E-009  0.1141435E+03  0.7561462E-02  0.1253084E+00
          1   -1    0    0  501    0  0.00000000000E+00  0.00000000000E+00  0.12139143277E+04  0.12139143277E+04  0.00000000000E+00 0. -1.
         -1   -1    0    0    0  501 -0.00000000000E+00 -0.00000000000E+00 -0.16434068313E+02  0.16434068313E+02  0.00000000000E+00 0.  1.
         25    2    1    2    0    0 -0.14165184918E+01 -0.85448740002E+02  0.78355415969E+03  0.79806612182E+03  0.12509564318E+03 0.  0.
          5    1    3    3  502    0 -0.24912273346E+02 -0.78427564337E+02  0.23641585508E+03  0.25036260333E+03  0.41800000000E+01 0. -1.
         -5    1    3    3    0  502  0.23495754854E+02 -0.70211756650E+01  0.54713830460E+03  0.54770351849E+03  0.41800000000E+01 0. -1.
        -11    1    1    2    0    0  0.22205036700E+02  0.95412751877E+02  0.36905892512E+03  0.38183916390E+03  0.00000000000E+00 0. -1.
         11    1    1    2    0    0 -0.20788518208E+02 -0.99640118750E+01  0.44867174629E+02  0.50443110344E+02  0.00000000000E+00 0.  1.
</event>
<event>
 7    1  0.2594791E-009  0.9922370E+02  0.7561462E-02  0.1281937E+00
          2   -1    0    0  501    0  0.00000000000E+00  0.00000000000E+00  0.42654519834E+03  0.42654519834E+03  0.00000000000E+00 0. -1.
         -2   -1    0    0    0  501 -0.00000000000E+00 -0.00000000000E+00 -0.41565301685E+02  0.41565301685E+02  0.00000000000E+00 0.  1.
         25    2    1    2    0    0  0.55289826524E+00  0.73304866810E+02  0.24979443827E+03  0.28882396158E+03  0.12509240665E+03 0.  0.
          5    1    3    3  502    0 -0.12090947472E+02  0.66250933465E+02  0.39899827477E+02  0.78389067021E+02  0.41800000000E+01 0.  1.
         -5    1    3    3    0  502  0.12643845737E+02  0.70539333447E+01  0.20989461079E+03  0.21043489456E+03  0.41800000000E+01 0.  1.
        -11    1    1    2    0    0 -0.30174717494E+02 -0.80027924210E+02  0.84718894824E+02  0.12038385842E+03  0.00000000000E+00 0.  1.
         11    1    1    2    0    0  0.29621819229E+02  0.67230574001E+01  0.50466563570E+02  0.58902680022E+02  0.00000000000E+00 0. -1.
</event>
<event>
 7    1  0.2594791E-009  0.1709785E+03  0.7561462E-02  0.1176831E+00
         -1   -1    0    0    0  501 -0.00000000000E+00  0.00000000000E+00  0.45761187527E+02  0.45761187527E+02  0.00000000000E+00 0.  1.
          1   -1    0    0  501    0  0.00000000000E+00 -0.00000000000E+00 -0.84975021855E+03  0.84975021855E+03  0.00000000000E+00 0. -1.
         25    2    1    2    0    0 -0.10971145172E+03  0.11760091722E+03 -0.49772806647E+03  0.53781819766E+03  0.12509439323E+03 0.  0.
          5    1    3    3  502    0 -0.82582854702E+02  0.96422889741E+02 -0.19252690833E+03  0.23065425292E+03  0.41800000000E+01 0.  1.
         -5    1    3    3    0  502 -0.27128597014E+02  0.21178027481E+02 -0.30520115814E+03  0.30716394475E+03  0.41800000000E+01 0.  1.
        -11    1    1    2    0    0  0.31074981469E+02 -0.92716310347E+02 -0.12628799558E+03  0.15972046364E+03  0.00000000000E+00 0.  1.
         11    1    1    2    0    0  0.78636470247E+02 -0.24884606875E+02 -0.17997296898E+03  0.19797274478E+03  0.00000000000E+00 0. -1.
</event>
<event>
 7    1  0.2594791E-009  0.1230114E+03  0.7561462E-02  0.1238210E+00
         -1   -1    0    0    0  501 -0.00000000000E+00  0.00000000000E+00  0.51640271026E+02  0.51640271026E+02  0.00000000000E+00 0.  1.
          1   -1    0    0  501    0  0.00000000000E+00 -0.00000000000E+00 -0.42114610585E+03  0.42114610585E+03  0.00000000000E+00 0. -1.
         25    2    1    2    0    0  0.69448142132E+02  0.68217269239E+02 -0.23445145490E+03  0.28300015774E+03  0.12507983176E+03 0.  0.
          5    1    3    3  502    0  0.25317759037E+02  0.80841215340E+02 -0.21823973304E+03  0.23414171883E+03  0.41800000000E+01 0. -1.
         -5    1    3    3    0  502  0.44130383095E+02 -0.12623946101E+02 -0.16211721856E+02  0.48858438911E+02  0.41800000000E+01 0. -1.
        -11    1    1    2    0    0  0.61772644165E+01 -0.29531344032E+02 -0.87236145249E+02  0.92306034006E+02  0.00000000000E+00 0. -1.
         11    1    1    2    0    0 -0.75625406549E+02 -0.38685925207E+02 -0.47818234681E+02  0.97480185129E+02  0.00000000000E+00 0.  1.
</event>
<event>
 7    1  0.2594791E-009  0.2607707E+03  0.7561462E-02  0.1106681E+00
         -2   -1    0    0    0  501 -0.00000000000E+00  0.00000000000E+00  0.31757452252E+03  0.31757452252E+03  0.00000000000E+00 0.  1.
          2   -1    0    0  501    0  0.00000000000E+00 -0.00000000000E+00 -0.22540572535E+03  0.22540572535E+03  0.00000000000E+00 0. -1.
         25    2    1    2    0    0 -0.15015313757E+03  0.19146241230E+03  0.31305180911E+02  0.27537517674E+03  0.12509058145E+03 0.  0.
          5    1    3    3  502    0  0.73035531500E+01 -0.48114012920E+01 -0.16573123898E+02  0.19199799654E+02  0.41800000000E+01 0. -1.
         -5    1    3    3    0  502 -0.15745669072E+03  0.19627381360E+03  0.47878304810E+02  0.25617537709E+03  0.41800000000E+01 0. -1.
        -11    1    1    2    0    0  0.13107869621E+03 -0.20012962368E+03  0.59958046078E+02  0.24663425991E+03  0.00000000000E+00 0. -1.
         11    1    1    2    0    0  0.19074441353E+02  0.86672113717E+01  0.90557017585E+00  0.20970811221E+02  0.00000000000E+00 0.  1.
</event>
<event>
 7    1  0.2594791E-009  0.1405348E+03  0.7561462E-02  0.1212611E+00
         -2   -1    0    0    0  501 -0.00000000000E+00  0.00000000000E+00  0.46073402289E+02  0.46073402289E+02  0.00000000000E+00 0.  1.
          2   -1    0    0  501    0  0.00000000000E+00 -0.00000000000E+00 -0.65431115716E+03  0.65431115716E+03  0.00000000000E+00 0. -1.
         25    2    1    2    0    0  0.46232156576E+02 -0.11712933016E+03 -0.22407243687E+03  0.28585406613E+03  0.12508955941E+03 0.  0.
          5    1    3    3  502    0  0.56115041441E+02 -0.88013105007E+02 -0.23147263763E+03  0.25395326125E+03  0.41800000000E+01 0. -1.
         -5    1    3    3    0  502 -0.98828848651E+01 -0.29116225151E+02  0.74002007628E+01  0.31900804874E+02  0.41800000000E+01 0. -1.
        -11    1    1    2    0    0 -0.10501889905E+02 -0.94021233618E+01 -0.83581490003E+01  0.16387442448E+02  0.00000000000E+00 0.  1.
         11    1    1    2    0    0 -0.35730266671E+02  0.12653145352E+03 -0.37580716901E+03  0.39814305088E+03  0.00000000000E+00 0. -1.
</event>
<event>
 7    1  0.2594791E-009  0.1401476E+03  0.7561462E-02  0.1213130E+00
          1   -1    0    0  501    0  0.00000000000E+00  0.00000000000E+00  0.34221408757E+03  0.34221408757E+03  0.00000000000E+00 0. -1.
         -1   -1    0    0    0  501 -0.00000000000E+00 -0.00000000000E+00 -0.70213268735E+02  0.70213268735E+02  0.00000000000E+00 0.  1.
         25    2    1    2    0    0  0.71522244406E+02  0.62645944490E+02  0.71624777429E+02  0.17267974533E+03  0.12509292505E+03 0.  0.
          5    1    3    3  502    0 -0.29966387709E+02  0.17047260514E+01  0.39802758288E+02  0.50026217632E+02  0.41800000000E+01 0.  1.
         -5    1    3    3    0  502  0.10148863212E+03  0.60941218439E+02  0.31822019140E+02  0.12265352769E+03  0.41800000000E+01 0.  1.
        -11    1    1    2    0    0 -0.80807766060E+02 -0.78822907662E+02  0.17511623638E+03  0.20834740716E+03  0.00000000000E+00 0. -1.
         11    1    1    2    0    0  0.92855216536E+01  0.16176963172E+02  0.25259805035E+02  0.31400203825E+02  0.00000000000E+00 0.  1.
</event>
<event>
 7    1  0.2594791E-009  0.9230212E+02  0.7561462E-02  0.1297371E+00
          1   -1    0    0  501    0  0.00000000000E+00  0.00000000000E+00  0.11235022819E+02  0.11235022819E+02  0.00000000000E+00 0. -1.
         -1   -1    0    0    0  501 -0.00000000000E+00 -0.00000000000E+00 -0.12742707374E+04  0.12742707374E+04  0.00000000000E+00 0.  1.
         25    2    1    2    0    0  0.15576350443E+01 -0.28920650101E+02 -0.98465705107E+03  0.99299255474E+03  0.12508347340E+03 0.  0.
          5    1    3    3  502    0 -0.45203382920E+02  0.40078011522E+01 -0.16054759640E+03  0.16689041736E+03  0.41800000000E+01 0. -1.
         -5    1    3    3    0  502  0.46761017964E+02 -0.32928451253E+02 -0.82410945467E+03  0.82610213738E+03  0.41800000000E+01 0. -1.
        -11    1    1    2    0    0  0.20076887389E+02  0.48510808314E+02 -0.23079991250E+03  0.23669596435E+03  0.00000000000E+00 0.  1.
         11    1    1    2    0    0 -0.21634522433E+02 -0.19590158213E+02 -0.47578751042E+02  0.55817241157E+02  0.00000000000E+00 0. -1.
</event>
<event>
 7    1  0.2594791E-009  0.1012697E+03  0.7561462E-02  0.1277648E+00
         -1   -1    0    0    0  501 -0.00000000000E+00  0.00000000000E+00  0.75649049944E+02  0.75649049944E+02  0.00000000000E+00 0.  1.
          1   -1    0    0  501    0  0.00000000000E+00 -0.00000000000E+00 -0.18263785116E+03  0.18263785116E+03  0.00000000000E+00 0. -1.
         25    2    1    2    0    0 -0.13933445244E+02  0.39217154032E+02 -0.44427867108E+02  0.13912506519E+03  0.12509924989E+03 0.  0.
          5    1    3    3  502    0  0.24632854314E+02  0.70577578120E+02 -0.41037057088E+01  0.74981896785E+02  0.41800000000E+01 0. -1.
         -5    1    3    3    0  502 -0.38566299558E+02 -0.31360424088E+02 -0.40324161400E+02  0.64143168406E+02  0.41800000000E+01 0. -1.
        -11    1    1    2    0    0  0.25744430662E+02  0.96643899431E+01 -0.63142193555E+02  0.68870260273E+02  0.00000000000E+00 0. -1.
         11    1    1    2    0    0 -0.11810985418E+02 -0.48881543975E+02  0.58125944697E+00  0.50291575641E+02  0.00000000000E+00 0.  1.
</event>
<event>
 7    1  0.2594791E-009  0.1162545E+03  0.7561462E-02  0.1249407E+00
         -2   -1    0    0    0  501 -0.00000000000E+00  0.00000000000E+00  0.43700151583E+02  0.43700151583E+02  0.00000000000E+00 0.  1.
          2   -1    0    0  501    0  0.00000000000E+00 -0.00000000000E+00 -0.38802421079E+03  0.38802421079E+03  0.00000000000E+00 0. -1.
         25    2    1    2    0    0  0.60964383961E+02 -0.69304884761E+01 -0.24901242706E+03  0.28534249049E+03  0.12509380586E+03 0.  0.
          5    1    3    3  502    0  0.65780018572E+02 -0.47071560847E+02 -0.22258080085E+03  0.23685951108E+03  0.41800000000E+01 0.  1.
         -5    1    3    3    0  502 -0.48156346107E+01  0.40141072371E+02 -0.26431626213E+02  0.48482979406E+02  0.41800000000E+01 0.  1.
        -11    1    1    2    0    0 -0.16336131679E+01 -0.37005641584E+02 -0.36363329836E+02  0.51907397910E+02  0.00000000000E+00 0. -1.
         11    1    1    2    0    0 -0.59330770793E+02  0.43936130060E+02 -0.58948302308E+02  0.94474473973E+02  0.00000000000E+00 0.  1.
</event>
<event>
 7    1  0.2594791E-009  0.8867370E+02  0.7561462E-02  0.1306096E+00
         -1   -1    0    0    0  501 -0.00000000000E+00  0.00000000000E+00  0.44577091216E+02  0.44577091216E+02  0.00000000000E+00 0.  1.
          1   -1    0    0  501    0  0.00000000000E+00 -0.00000000000E+00 -0.32184607707E+03  0.32184607707E+03  0.00000000000E+00 0. -1.
         25    2    1    2    0    0  0.80540590177E-01 -0.11272176972E+02 -0.84388077149E+02  0.15131678693E+03  0.12509338104E+03 0.  0.
          5    1    3    3  502    0  0.53616010829E+02 -0.32794227899E+02 -0.23239746383E+02  0.67139379002E+02  0.41800000000E+01 0.  1.
         -5    1    3    3    0  502 -0.53535470239E+02  0.21522050927E+02 -0.61148330765E+02  0.84177407926E+02  0.41800000000E+01 0.  1.
        -11    1    1    2    0    0 -0.25412523528E+01 -0.22501426913E+02 -0.37317633446E+01  0.22949907065E+02  0.00000000000E+00 0.  1.
         11    1    1    2    0    0  0.24607117626E+01  0.33773603885E+02 -0.18914914536E+03  0.19215647429E+03  0.00000000000E+00 0. -1.
</event>
<event>
 7    1  0.2594791E-009  0.1784414E+03  0.7561462E-02  0.1169320E+00
          3   -1    0    0  501    0  0.00000000000E+00  0.00000000000E+00  0.40523365943E+03  0.40523365943E+03  0.00000000000E+00 0. -1.
         -3   -1    0    0    0  501 -0.00000000000E+00 -0.00000000000E+00 -0.98361457970E+02  0.98361457970E+02  0.00000000000E+00 0.  1.
         25    2    1    2    0    0 -0.33457710896E+02 -0.13762693728E+03  0.50031593144E+02  0.19547671455E+03  0.12508954128E+03 0.  0.
          5    1    3    3  502    0  0.38220336831E+02 -0.97468070604E+02  0.41766279000E+02  0.11279500608E+03  0.41800000000E+01 0.  1.
         -5    1    3    3    0  502 -0.71678047726E+02 -0.40158866672E+02  0.82653141445E+01  0.82681708474E+02  0.41800000000E+01 0.  1.
        -11    1    1    2    0    0  0.48385541714E+02  0.14523519998E+03  0.22500113693E+03  0.27213955166E+03  0.00000000000E+00 0. -1.
         11    1    1    2    0    0 -0.14927830818E+02 -0.76082627051E+01  0.31839471384E+02  0.35978851182E+02  0.00000000000E+00 0.  1.
</event>
<event>
 7    1  0.2594791E-009  0.1086273E+03  0.7561462E-02  0.1263133E+00
          2   -1    0    0  501    0  0.00000000000E+00  0.00000000000E+00  0.23809766876E+03  0.23809766876E+03  0.00000000000E+00 0. -1.
         -2   -1    0    0    0  501 -0.00000000000E+00 -0.00000000000E+00 -0.97300650975E+02  0.97300650975E+02  0.00000000000E+00 0.  1.
         25    2    1    2    0    0 -0.58611726488E+02  0.19228968784E+02  0.17149663257E+03  0.22105155501E+03  0.12509039639E+03 0.  0.
          5    1    3    3  502    0 -0.71805263758E+02  0.56204759116E+02  0.15130263074E+03  0.17670577047E+03  0.41800000000E+01 0. -1.
         -5    1    3    3    0  502  0.13193537269E+02 -0.36975790332E+02  0.20194001832E+02  0.44345784539E+02  0.41800000000E+01 0. -1.
        -11    1    1    2    0    0  0.81041114146E+01  0.20620752163E+02  0.21969651369E+02  0.31201884925E+02  0.00000000000E+00 0. -1.
         11    1    1    2    0    0  0.50507615074E+02 -0.39849720947E+02 -0.52669266152E+02  0.83144879800E+02  0.00000000000E+00 0.  1.
</event>
<event>
 7    1  0.2594791E-009  0.5511866E+02  0.7561462E-02  0.1419539E+00
          1   -1    0    0  501    0  0.00000000000E+00  0.00000000000E+00  0.53826289565E+02  0.53826289565E+02  0.00000000000E+00 0. -1.
         -1   -1    0    0    0  501 -0.00000000000E+00 -0.00000000000E+00 -0.24059986464E+03  0.24059986464E+03  0.00000000000E+00 0.  1.
         25    2    1    2    0    0 -0.24451261796E+02 -0.29407416771E+02 -0.81261292737E+02  0.15400174022E+03  0.12510187021E+03 0.  0.
          5    1    3    3  502    0  0.79215366254E+01  0.83207186291E+01 -0.99974233322E+02  0.10071893977E+03  0.41800000000E+01 0. -1.
         -5    1    3    3    0  502 -0.32372798421E+02 -0.37728135400E+02  0.18712940585E+02  0.53282800449E+02  0.41800000000E+01 0. -1.
        -11    1    1    2    0    0  0.18190439066E+02  0.13713140619E+00  0.10232853630E+02  0.20871563714E+02  0.00000000000E+00 0. -1.
         11    1    1    2    0    0  0.62608227298E+01  0.29270285364E+02 -0.11574513597E+03  0.11955285027E+03  0.00000000000E+00 0.  1.
</event>
<event>
 7    1  0.2594791E-009  0.1130971E+03  0.7561462E-02  0.1254940E+00
         -1   -1    0    0    0  501 -0.00000000000E+00  0.00000000000E+00  0.52492318868E+03  0.52492318868E+03  0.00000000000E+00 0.  1.
          1   -1    0    0  501    0  0.00000000000E+00 -0.00000000000E+00 -0.34514637018E+02  0.34514637018E+02  0.00000000000E+00 0. -1.
         25    2    1    2    0    0  0.13432946187E+02 -0.47755110433E+02  0.38262180338E+03  0.40559531189E+03  0.12508844068E+03 0.  0.
          5    1    3    3  502    0 -0.40571066468E+02 -0.49854855496E+02  0.10861572646E+03  0.12627892336E+03  0.41800000000E+01 0.  1.
         -5    1    3    3    0  502  0.54004012654E+02  0.20997450636E+01  0.27400607692E+03  0.27931638853E+03  0.41800000000E+01 0.  1.
        -11    1    1    2    0    0 -0.27094706491E+02  0.73552243153E+02  0.63879574291E+02  0.10111703914E+03  0.00000000000E+00 0. -1.
         11    1    1    2    0    0  0.13661760305E+02 -0.25797132720E+02  0.43907173997E+02  0.52725474674E+02  0.00000000000E+00 0.  1.
</event>
<event>
 7    1  0.2594791E-009  0.1006321E+03  0.7561462E-02  0.1278972E+00
         -2   -1    0    0    0  501 -0.00000000000E+00  0.00000000000E+00  0.13567106522E+03  0.13567106522E+03  0.00000000000E+00 0.  1.
          2   -1    0    0  501    0  0.00000000000E+00 -0.00000000000E+00 -0.12819713602E+03  0.12819713602E+03  0.00000000000E+00 0. -1.
         25    2    1    2    0    0  0.13844515594E+02 -0.72436995256E+02  0.18798031875E+02  0.14642275030E+03  0.12508983535E+03 0.  0.
          5    1    3    3  502    0 -0.21890680645E+02  0.16749499963E+02  0.39209470934E+02  0.48110317594E+02  0.41800000000E+01 0.  1.
         -5    1    3    3    0  502  0.35735196239E+02 -0.89186495219E+02 -0.20411439059E+02  0.98312432704E+02  0.41800000000E+01 0.  1.
        -11    1    1    2    0    0 -0.19421828117E+02  0.42020584779E+02  0.37552329203E+02  0.59608006016E+02  0.00000000000E+00 0.  1.
         11    1    1    2    0    0  0.55773125236E+01  0.30416410477E+02 -0.48876431879E+02  0.57837444917E+02  0.00000000000E+00 0. -1.
</event>
<event>
 7    1  0.2594791E-009  0.1062115E+03  0.7561462E-02  0.1267751E+00
         -1   -1    0    0    0  501 -0.00000000000E+00  0.00000000000E+00  0.54724620678E+02  0.54724620678E+02  0.00000000000E+00 0.  1.
          1   -1    0    0  501    0  0.00000000000E+00 -0.00000000000E+00 -0.25020277073E+03  0.25020277073E+03  0.00000000000E+00 0. -1.
         25    2    1    2    0    0  0.33228967097E+02  0.12127591423E+02 -0.80782376046E+02  0.15304883378E+03  0.12508761136E+03 0.  0.
          5    1    3    3  502    0 -0.41551533123E+02 -0.21563617378E+02 -0.21054870138E+02  0.51500480151E+02  0.41800000000E+01 0.  1.
         -5    1    3    3    0  502  0.74780500220E+02  0.33691208801E+02 -0.59727505909E+02  0.10154835363E+03  0.41800000000E+01 0.  1.
        -11    1    1    2    0    0  0.19726552536E+02 -0.21870508319E+02 -0.52666657059E+01  0.29919789049E+02  0.00000000000E+00 0.  1.
         11    1    1    2    0    0 -0.52955519633E+02  0.97429168958E+01 -0.10942910830E+03  0.12195876858E+03  0.00000000000E+00 0. -1.
</event>
<event>
 7    1  0.2594791E-009  0.1338582E+03  0.7561462E-02  0.1221841E+00
         -1   -1    0    0    0  501 -0.00000000000E+00  0.00000000000E+00  0.11679649102E+02  0.11679649102E+02  0.00000000000E+00 0.  1.
          1   -1    0    0  501    0  0.00000000000E+00 -0.00000000000E+00 -0.23527231033E+04  0.23527231033E+04  0.00000000000E+00 0. -1.
         25    2    1    2    0    0  0.92640722845E+02 -0.55749810401E+01 -0.18426977481E+04  0.18492690100E+04  0.12508995354E+03 0.  0.
          5    1    3    3  502    0  0.11109223029E+03 -0.22482821428E+02 -0.17315993196E+04  0.17353099541E+04  0.41800000000E+01 0.  1.
         -5    1    3    3    0  502 -0.18451507445E+02  0.16907840388E+02 -0.11109842856E+03  0.11395905590E+03  0.41800000000E+01 0.  1.
        -11    1    1    2    0    0 -0.10823595185E+02 -0.35684509921E+02 -0.18218337255E+03  0.18596052187E+03  0.00000000000E+00 0. -1.
         11    1    1    2    0    0 -0.81817127660E+02  0.41259490961E+02 -0.31616233352E+03  0.32917322052E+03  0.00000000000E+00 0.  1.
</event>
<event>
 7    1  0.2594791E-009  0.8752846E+02  0.7561462E-02  0.1308950E+00
          1   -1    0    0  501    0  0.00000000000E+00  0.00000000000E+00  0.77935494620E+03  0.77935494620E+03  0.00000000000E+00 0.  1.
         -1   -1    0    0    0  501 -0.00000000000E+00 -0.00000000000E+00 -0.19176875664E+02  0.19176875664E+02  0.00000000000E+00 0. -1.
         25    2    1    2    0    0 -0.10147643947E+02  0.50974925488E+02  0.50654306406E+03  0.52434332821E+03  0.12509449380E+03 0.  0.
          5    1    3    3  502    0  0.29694123148E+02  0.18659557564E+01  0.26279591650E+02  0.39916313428E+02  0.41800000000E+01 0.  1.
         -5    1    3    3    0  502 -0.39841767096E+02  0.49108969732E+02  0.48026347241E+03  0.48442701478E+03  0.41800000000E+01 0.  1.
        -11    1    1    2    0    0  0.36914014181E+02 -0.31614373349E+02  0.57488873301E+02  0.75280034529E+02  0.00000000000E+00 0. -1.
         11    1    1    2    0    0 -0.26766370234E+02 -0.19360552139E+02  0.19614613317E+03  0.19890845913E+03  0.00000000000E+00 0.  1.
</event>
<event>
 7    1  0.2594791E-009  0.1086313E+03  0.7561462E-02  0.1263126E+00
          1   -1    0    0  501    0  0.00000000000E+00  0.00000000000E+00  0.33632232525E+03  0.33632232525E+03  0.00000000000E+00 0. -1.
         -1   -1    0    0    0  501 -0.00000000000E+00 -0.00000000000E+00 -0.52977054492E+02  0.52977054492E+02  0.00000000000E+00 0.  1.
         25    2    1    2    0    0 -0.57303226961E+02  0.25170640144E+02  0.89753604166E+02  0.16623077619E+03  0.12513888504E+03 0.  0.
          5    1    3    3  502    0 -0.95732496109E+02  0.19781938658E+02  0.47685879216E+02  0.10884599848E+03  0.41800000000E+01 0. -1.
         -5    1    3    3    0  502  0.38429269148E+02  0.53887014864E+01  0.42067724950E+02  0.57384777715E+02  0.41800000000E+01 0. -1.
        -11    1    1    2    0    0  0.52925635495E+02  0.19063703063E+01  0.18768145800E+03  0.19501047874E+03  0.00000000000E+00 0. -1.
         11    1    1    2    0    0  0.43775914661E+01 -0.27077010451E+02  0.59102085858E+01  0.28058124804E+02  0.00000000000E+00 0.  1.
</event>
<event>
 7    1  0.2594791E-009  0.9589188E+02  0.7561462E-02  0.1289180E+00
         -2   -1    0    0    0  501 -0.00000000000E+00  0.00000000000E+00  0.20077228206E+03  0.20077228206E+03  0.00000000000E+00 0.  1.
          2   -1    0    0  501    0  0.00000000000E+00 -0.00000000000E+00 -0.64364094360E+02  0.64364094360E+02  0.00000000000E+00 0. -1.
         25    2    1    2    0    0 -0.17990423034E+02  0.19126733395E+02  0.47292097804E+02  0.13627444734E+03  0.12507875611E+03 0.  0.
          5    1    3    3  502    0  0.31847932532E+02 -0.37660394946E+02  0.32378989997E+02  0.59147844824E+02  0.41800000000E+01 0.  1.
         -5    1    3    3    0  502 -0.49838355566E+02  0.56787128341E+02  0.14913107807E+02  0.77126602513E+02  0.41800000000E+01 0.  1.
        -11    1    1    2    0    0 -0.27910217459E+01 -0.38262881669E+02  0.92757497863E+02  0.10037824130E+03  0.00000000000E+00 0.  1.
         11    1    1    2    0    0  0.20781444780E+02  0.19136148275E+02 -0.36414079656E+01  0.28483687786E+02  0.00000000000E+00 0. -1.
</event>
<event>
 7    1  0.2594791E-009  0.2025301E+03  0.7561462E-02  0.1147622E+00
         -1   -1    0    0    0  501 -0.00000000000E+00  0.00000000000E+00  0.64711317863E+02  0.64711317863E+02  0.00000000000E+00 0.  1.
          1   -1    0    0  501    0  0.00000000000E+00 -0.00000000000E+00 -0.80739699573E+03  0.80739699573E+03  0.00000000000E+00 0. -1.
         25    2    1    2    0    0 -0.15289161301E+03  0.11435114992E+03 -0.50520147241E+03  0.55437125462E+03  0.12508768689E+03 0.  0.
          5    1    3    3  502    0 -0.12979651596E+02 -0.19512329263E+01 -0.18928951550E+03  0.18979007283E+03  0.41800000000E+01 0.  1.
         -5    1    3    3    0  502 -0.13991196141E+03  0.11630238285E+03 -0.31591195691E+03  0.36458118180E+03  0.41800000000E+01 0.  1.
        -11    1    1    2    0    0  0.10791180323E+03 -0.27296742757E+02 -0.14677241938E+03  0.18420698285E+03  0.00000000000E+00 0. -1.
         11    1    1    2    0    0  0.44979809778E+02 -0.87054407164E+02 -0.90711786077E+02  0.13353007612E+03  0.00000000000E+00 0.  1.
</event>
<event>
 7    1  0.2594791E-009  0.8484395E+02  0.7561462E-02  0.1315841E+00
         -1   -1    0    0    0  501 -0.00000000000E+00  0.00000000000E+00  0.12522689940E+03  0.12522689940E+03  0.00000000000E+00 0.  1.
          1   -1    0    0  501    0  0.00000000000E+00 -0.00000000000E+00 -0.11609271686E+03  0.11609271686E+03  0.00000000000E+00 0. -1.
         25    2    1    2    0    0 -0.22179272288E+02 -0.31498870693E+02 -0.32309756684E+02  0.13480349615E+03  0.12507582989E+03 0.  0.
          5    1    3    3  502    0  0.18478351532E+02  0.16530303590E+01  0.40629992064E+02  0.44860345962E+02  0.41800000000E+01 0.  1.
         -5    1    3    3    0  502 -0.40657623820E+02 -0.33151901052E+02 -0.72939748748E+02  0.89943150187E+02  0.41800000000E+01 0.  1.
        -11    1    1    2    0    0  0.55805723116E+02  0.65830043253E+01  0.21637712850E+02  0.60214660140E+02  0.00000000000E+00 0. -1.
         11    1    1    2    0    0 -0.33626450828E+02  0.24915866368E+02  0.19806226382E+02  0.46301459973E+02  0.00000000000E+00 0.  1.
</event>
<event>
 7    1  0.2594791E-009  0.1013524E+03  0.7561462E-02  0.1277478E+00
          1   -1    0    0  501    0  0.00000000000E+00  0.00000000000E+00  0.15296132526E+02  0.15296132526E+02  0.00000000000E+00 0. -1.
         -1   -1    0    0    0  501 -0.00000000000E+00 -0.00000000000E+00 -0.17897946125E+04  0.17897946125E+04  0.00000000000E+00 0.  1.
         25    2    1    2    0    0  0.97634723393E+01  0.43699242549E+02 -0.15857960601E+04  0.15913519900E+04  0.12508821976E+03 0.  0.
          5    1    3    3  502    0  0.34511994012E+02 -0.26971283399E+02 -0.97136523585E+03  0.97236126089E+03  0.41800000000E+01 0.  1.
         -5    1    3    3    0  502 -0.24748521673E+02  0.70670525948E+02 -0.61443082423E+03  0.61899072911E+03  0.41800000000E+01 0.  1.
        -11    1    1    2    0    0  0.53211954163E+01 -0.60727786279E+02 -0.17883934909E+03  0.18894362104E+03  0.00000000000E+00 0.  1.
         11    1    1    2    0    0 -0.15084667756E+02  0.17028543730E+02 -0.98630707708E+01  0.24795133956E+02  0.00000000000E+00 0. -1.
</event>
<event>
 7    1  0.2594791E-009  0.1348514E+03  0.7561462E-02  0.1220430E+00
          2   -1    0    0  501    0  0.00000000000E+00  0.00000000000E+00  0.22694005441E+03  0.22694005441E+03  0.00000000000E+00 0. -1.
         -2   -1    0    0    0  501 -0.00000000000E+00 -0.00000000000E+00 -0.95590983214E+02  0.95590983214E+02  0.00000000000E+00 0.  1.
         25    2    1    2    0    0 -0.36091326873E+02  0.82773641702E+02  0.23786799171E+02  0.15610493615E+03  0.12509548210E+03 0.  0.
          5    1    3    3  502    0  0.15049868900E+02  0.90779981802E+02  0.41776518815E+02  0.10114471600E+03  0.41800000000E+01 0. -1.
         -5    1    3    3    0  502 -0.51141195772E+02 -0.80063400998E+01 -0.17989719644E+02  0.54960220157E+02  0.41800000000E+01 0. -1.
        -11    1    1    2    0    0 -0.24953488140E+02 -0.28927955276E+01  0.12481136689E+02  0.28050376278E+02  0.00000000000E+00 0. -1.
         11    1    1    2    0    0  0.61044815013E+02 -0.79880846174E+02  0.95081135331E+02  0.13837572519E+03  0.00000000000E+00 0.  1.
</event>
<event>
 7    1  0.2594791E-009  0.2273476E+03  0.7561462E-02  0.1128521E+00
         -2   -1    0    0    0  501 -0.00000000000E+00  0.00000000000E+00  0.71003739436E+03  0.71003739436E+03  0.00000000000E+00 0.  1.
          2   -1    0    0  501    0  0.00000000000E+00 -0.00000000000E+00 -0.88592947670E+02  0.88592947670E+02  0.00000000000E+00 0. -1.
         25    2    1    2    0    0  0.72119712014E+02 -0.19835384796E+03  0.44385469518E+03  0.50714793557E+03  0.12508611537E+03 0.  0.
          5    1    3    3  502    0  0.56821305856E+02 -0.14219280273E+02  0.82389435996E+02  0.10117480069E+03  0.41800000000E+01 0.  1.
         -5    1    3    3    0  502  0.15298406159E+02 -0.18413456768E+03  0.36146525919E+03  0.40597313488E+03  0.41800000000E+01 0.  1.
        -11    1    1    2    0    0 -0.55610906829E+02  0.14461310493E+03  0.69845153431E+02  0.16995254789E+03  0.00000000000E+00 0. -1.
         11    1    1    2    0    0 -0.16508805186E+02  0.53740743028E+02  0.10774459808E+03  0.12152985857E+03  0.00000000000E+00 0.  1.
</event>
<event>
 7    1  0.2594791E-009  0.1361280E+03  0.7561462E-02  0.1218636E+00
          2   -1    0    0  501    0  0.00000000000E+00  0.00000000000E+00  0.13810009781E+03  0.13810009781E+03  0.00000000000E+00 0. -1.
         -2   -1    0    0    0  501 -0.00000000000E+00 -0.00000000000E+00 -0.16239529380E+03  0.16239529380E+03  0.00000000000E+00 0.  1.
         25    2    1    2    0    0 -0.40870678460E+02 -0.93817767424E+02 -0.31519385886E+02  0.16465965214E+03  0.12508854270E+03 0.  0.
          5    1    3    3  502    0 -0.67558113848E+02 -0.85052486248E+02  0.15430396887E+02  0.10978885969E+03  0.41800000000E+01 0. -1.
         -5    1    3    3    0  502  0.26687435388E+02 -0.87652811761E+01 -0.46949782773E+02  0.54870792450E+02  0.41800000000E+01 0. -1.
        -11    1    1    2    0    0 -0.16230576974E+02 -0.82469581527E+01 -0.29459492284E+01  0.18442412112E+02  0.00000000000E+00 0.  1.
         11    1    1    2    0    0  0.57101255433E+02  0.10206472558E+03  0.10170139132E+02  0.11739332736E+03  0.00000000000E+00 0. -1.
</event>
<event>
 7    1  0.2594791E-009  0.1792169E+03  0.7561462E-02  0.1168563E+00
          1   -1    0    0  501    0  0.00000000000E+00  0.00000000000E+00  0.15064979583E+03  0.15064979583E+03  0.00000000000E+00 0. -1.
         -1   -1    0    0    0  501 -0.00000000000E+00 -0.00000000000E+00 -0.28727679226E+03  0.28727679226E+03  0.00000000000E+00 0.  1.
         25    2    1    2    0    0 -0.11219521018E+03  0.12903788810E+03 -0.18670345394E+02  0.21268204762E+03  0.12508608967E+03 0.  0.
          5    1    3    3  502    0 -0.31082567181E+02  0.16648773549E+02 -0.58479880971E+02  0.68415469900E+02  0.41800000000E+01 0. -1.
         -5    1    3    3    0  502 -0.81112643002E+02  0.11238911455E+03  0.39809535577E+02  0.14426657772E+03  0.41800000000E+01 0. -1.
        -11    1    1    2    0    0  0.59634228437E+02 -0.11549727625E+03 -0.11020990333E+03  0.17041738413E+03  0.00000000000E+00 0.  1.
         11    1    1    2    0    0  0.52560981746E+02 -0.13540611851E+02 -0.77467477093E+01  0.54827156332E+02  0.00000000000E+00 0. -1.
</event>
<event>
 7    1  0.2594791E-009  0.1411379E+03  0.7561462E-02  0.1211806E+00
         -1   -1    0    0    0  501 -0.00000000000E+00  0.00000000000E+00  0.26810824001E+02  0.26810824001E+02  0.00000000000E+00 0.  1.
          1   -1    0    0  501    0  0.00000000000E+00 -0.00000000000E+00 -0.84165490558E+03  0.84165490558E+03  0.00000000000E+00 0. -1.
         25    2    1    2    0    0  0.54088942344E+02 -0.73681787036E+02 -0.30264610028E+03  0.33999766757E+03  0.12509649281E+03 0.  0.
          5    1    3    3  502    0  0.43152733825E+02 -0.10817923477E+03 -0.20552198306E+03  0.23626608557E+03  0.41800000000E+01 0.  1.
         -5    1    3    3    0  502  0.10936208518E+02  0.34497447736E+02 -0.97124117219E+02  0.10373158199E+03  0.41800000000E+01 0.  1.
        -11    1    1    2    0    0 -0.80170919690E+02  0.55260641215E+02 -0.35848883246E+03  0.37147726422E+03  0.00000000000E+00 0. -1.
         11    1    1    2    0    0  0.26081977346E+02  0.18421145821E+02 -0.15370914884E+03  0.15699079779E+03  0.00000000000E+00 0.  1.
</event>
<event>
 7    1  0.2594791E-009  0.6880608E+02  0.7561462E-02  0.1364201E+00
          2   -1    0    0  501    0  0.00000000000E+00  0.00000000000E+00  0.39634289003E+02  0.39634289003E+02  0.00000000000E+00 0.  1.
         -2   -1    0    0    0  501 -0.00000000000E+00 -0.00000000000E+00 -0.38336764037E+03  0.38336764037E+03  0.00000000000E+00 0. -1.
         25    2    1    2    0    0 -0.33002695404E+02 -0.46837303051E+02 -0.20848816445E+03  0.24979601743E+03  0.12509126567E+03 0.  0.
          5    1    3    3  502    0  0.12442803565E+02 -0.66243785908E+01  0.13295211456E+02  0.19822734421E+02  0.41800000000E+01 0. -1.
         -5    1    3    3    0  502 -0.45445498968E+02 -0.40212924460E+02 -0.22178337591E+03  0.22997328301E+03  0.41800000000E+01 0. -1.
        -11    1    1    2    0    0  0.20599066508E+02  0.93967182608E+01  0.84724014975E+01  0.24174396419E+02  0.00000000000E+00 0.  1.
         11    1    1    2    0    0  0.12403628895E+02  0.37440584790E+02 -0.14371758842E+03  0.14903151552E+03  0.00000000000E+00 0. -1.
</event>
<event>
 7    1  0.2594791E-009  0.5285765E+02  0.7561462E-02  0.1430511E+00
         -2   -1    0    0    0  501 -0.00000000000E+00  0.00000000000E+00  0.21135217689E+03  0.21135217689E+03  0.00000000000E+00 0.  1.
          2   -1    0    0  501    0  0.00000000000E+00 -0.00000000000E+00 -0.62647811776E+02  0.62647811776E+02  0.00000000000E+00 0. -1.
         25    2    1    2    0    0 -0.20017910415E+02  0.34726134161E+02  0.83743634124E+02  0.15577642139E+03  0.12508667425E+03 0.  0.
          5    1    3    3  502    0 -0.10582286694E+02  0.42926099334E+01 -0.32748275129E+02  0.34933268036E+02  0.41800000000E+01 0. -1.
         -5    1    3    3    0  502 -0.94356237208E+01  0.30433524227E+02  0.11649190925E+03  0.12084315336E+03  0.41800000000E+01 0. -1.
        -11    1    1    2    0    0 -0.12689442772E+02 -0.23734969208E+02 -0.15230000799E+02  0.30924482946E+02  0.00000000000E+00 0. -1.
         11    1    1    2    0    0  0.32707353187E+02 -0.10991164953E+02  0.80190731784E+02  0.87299084323E+02  0.00000000000E+00 0.  1.
</event>
<event>
 7    1  0.2594791E-009  0.1332784E+03  0.7561462E-02  0.1222671E+00
          1   -1    0    0  501    0  0.00000000000E+00  0.00000000000E+00  0.18208130541E+02  0.18208130541E+02  0.00000000000E+00 0. -1.
         -1   -1    0    0    0  501 -0.00000000000E+00 -0.00000000000E+00 -0.10379645634E+04  0.10379645634E+04  0.00000000000E+00 0.  1.
         25    2    1    2    0    0  0.58588931819E+02 -0.42617403980E+02 -0.59776252831E+03  0.61499290716E+03  0.12508928633E+03 0.  0.
          5    1    3    3  502    0  0.65260287011E+02  0.26643112126E+02 -0.37458986184E+03  0.38118735220E+03  0.41800000000E+01 0.  1.
         -5    1    3    3    0  502 -0.66713551919E+01 -0.69260516106E+02 -0.22317266647E+03  0.23380555496E+03  0.41800000000E+01 0.  1.
        -11    1    1    2    0    0 -0.86447282460E+02  0.16414033305E+02 -0.25148681743E+03  0.26643605701E+03  0.00000000000E+00 0. -1.
         11    1    1    2    0    0  0.27858350642E+02  0.26203370674E+02 -0.17050708708E+03  0.17474372973E+03  0.00000000000E+00 0.  1.
</event>
<event>
 7    1  0.2594791E-009  0.9875260E+02  0.7561462E-02  0.1282941E+00
          1   -1    0    0  501    0  0.00000000000E+00  0.00000000000E+00  0.35644827186E+03  0.35644827186E+03  0.00000000000E+00 0. -1.
         -1   -1    0    0    0  501 -0.00000000000E+00 -0.00000000000E+00 -0.35780014860E+02  0.35780014860E+02  0.00000000000E+00 0.  1.
         25    2    1    2    0    0 -0.23851503280E+01 -0.17994471743E+02  0.21205464969E+03  0.24686863998E+03  0.12508981173E+03 0.  0.
          5    1    3    3  502    0 -0.38178435757E+01  0.50223601779E+02  0.13342693110E+03  0.14267867552E+03  0.41800000000E+01 0. -1.
         -5    1    3    3    0  502  0.14326932477E+01 -0.68218073522E+02  0.78627718588E+02  0.10418996447E+03  0.41800000000E+01 0. -1.
        -11    1    1    2    0    0 -0.25382784848E+02 -0.19455352125E+02  0.58456130863E+01  0.32511039437E+02  0.00000000000E+00 0.  1.
         11    1    1    2    0    0  0.27767935176E+02  0.37449823868E+02  0.10276799423E+03  0.11284860730E+03  0.00000000000E+00 0. -1.
</event>
<event>
 7    1  0.2594791E-009  0.1436147E+03  0.7561462E-02  0.1208546E+00
          1   -1    0    0  501    0  0.00000000000E+00  0.00000000000E+00  0.11082250184E+04  0.11082250184E+04  0.00000000000E+00 0. -1.
         -1   -1    0    0    0  501 -0.00000000000E+00 -0.00000000000E+00 -0.23798296641E+02  0.23798296641E+02  0.00000000000E+00 0.  1.
         25    2    1    2    0    0  0.97899457475E+02  0.70870606828E+02  0.60851752611E+03  0.63288913772E+03  0.12509250330E+03 0.  0.
          5    1    3    3  502    0  0.23428462444E+02 -0.30856626922E+02  0.73374340911E+02  0.83080025167E+02  0.41800000000E+01 0.  1.
         -5    1    3    3    0  502  0.74470995031E+02  0.10172723375E+03  0.53514318520E+03  0.54980911256E+03  0.41800000000E+01 0.  1.
        -11    1    1    2    0    0 -0.30223955796E+02 -0.32251710370E+02  0.52563032357E+02  0.68677017235E+02  0.00000000000E+00 0.  1.
         11    1    1    2    0    0 -0.67675501679E+02 -0.38618896457E+02  0.42334616329E+03  0.43045716008E+03  0.00000000000E+00 0. -1.
</event>
<event>
 7    1  0.2594791E-009  0.1389060E+03  0.7561462E-02  0.1214809E+00
          2   -1    0    0  501    0  0.00000000000E+00  0.00000000000E+00  0.15297847918E+03  0.15297847918E+03  0.00000000000E+00 0. -1.
         -2   -1    0    0    0  501 -0.00000000000E+00 -0.00000000000E+00 -0.15700227087E+03  0.15700227087E+03  0.00000000000E+00 0.  1.
         25    2    1    2    0    0  0.70572912460E+02 -0.86545507271E+02 -0.15968001192E+02  0.16845140520E+03  0.12510091147E+03 0.  0.
          5    1    3    3  502    0  0.93250049534E+02 -0.10208769256E+03 -0.21805766705E+02  0.14003725423E+03  0.41800000000E+01 0.  1.
         -5    1    3    3    0  502 -0.22677137074E+02  0.15542185288E+02  0.58377655132E+01  0.28414150974E+02  0.41800000000E+01 0.  1.
        -11    1    1    2    0    0 -0.93958057922E+01  0.11946458787E+02 -0.32068581893E+02  0.35487927365E+02  0.00000000000E+00 0.  1.
         11    1    1    2    0    0 -0.61177106668E+02  0.74599048484E+02  0.44012791396E+02  0.10604141748E+03  0.00000000000E+00 0. -1.
</event>
<event>
 7    1  0.2594791E-009  0.8234131E+02  0.7561462E-02  0.1322535E+00
         -1   -1    0    0    0  501 -0.00000000000E+00  0.00000000000E+00  0.21809902856E+02  0.21809902856E+02  0.00000000000E+00 0.  1.
          1   -1    0    0  501    0  0.00000000000E+00 -0.00000000000E+00 -0.57648301134E+03  0.57648301134E+03  0.00000000000E+00 0. -1.
         25    2    1    2    0    0 -0.13184082782E+02  0.37417724571E+01 -0.25395946378E+03  0.28342376878E+03  0.12508318258E+03 0.  0.
          5    1    3    3  502    0 -0.19628394945E+02  0.38429817279E+02 -0.21735437876E+02  0.48497694830E+02  0.41800000000E+01 0.  1.
         -5    1    3    3    0  502  0.64443121626E+01 -0.34688044821E+02 -0.23222402590E+03  0.23492607395E+03  0.41800000000E+01 0.  1.
        -11    1    1    2    0    0 -0.36097882984E+02 -0.53476727515E+01 -0.69951393194E+02  0.78897732348E+02  0.00000000000E+00 0.  1.
         11    1    1    2    0    0  0.49281965766E+02  0.16059002944E+01 -0.23076225151E+03  0.23597141307E+03  0.00000000000E+00 0. -1.
</event>
<event>
 7    1  0.2594791E-009  0.1017909E+03  0.7561462E-02  0.1276574E+00
         -1   -1    0    0    0  501 -0.00000000000E+00  0.00000000000E+00  0.29087667513E+02  0.29087667513E+02  0.00000000000E+00 0.  1.
          1   -1    0    0  501    0  0.00000000000E+00 -0.00000000000E+00 -0.53539609622E+03  0.53539609622E+03  0.00000000000E+00 0. -1.
         25    2    1    2    0    0 -0.23761747684E+02 -0.52140537696E+02 -0.32260802748E+03  0.35072518523E+03  0.12509580263E+03 0.  0.
          5    1    3    3  502    0 -0.43882571739E+02 -0.69309273050E+01 -0.29621146037E+02  0.53559336705E+02  0.41800000000E+01 0. -1.
         -5    1    3    3    0  502  0.20120824055E+02 -0.45209610391E+02 -0.29298688144E+03  0.29716584853E+03  0.41800000000E+01 0. -1.
        -11    1    1    2    0    0 -0.27181007315E+02 -0.99845954708E+01 -0.47878612581E+02  0.55954095901E+02  0.00000000000E+00 0. -1.
         11    1    1    2    0    0  0.50942755000E+02  0.62125133167E+02 -0.13582178865E+03  0.15780448260E+03  0.00000000000E+00 0.  1.
</event>
<event>
 7    1  0.2594791E-009  0.1631020E+03  0.7561462E-02  0.1185239E+00
         -2   -1    0    0    0  501 -0.00000000000E+00  0.00000000000E+00  0.25967974638E+02  0.25967974638E+02  0.00000000000E+00 0.  1.
          2   -1    0    0  501    0  0.00000000000E+00 -0.00000000000E+00 -0.10341856937E+04  0.10341856937E+04  0.00000000000E+00 0. -1.
         25    2    1    2    0    0  0.11829011619E+03 -0.32010251505E+02 -0.56214306333E+03  0.58878667524E+03  0.12509083698E+03 0.  0.
          5    1    3    3  502    0  0.82209446017E+02 -0.79695397094E+02 -0.39153539630E+03  0.40795488512E+03  0.41800000000E+01 0. -1.
         -5    1    3    3    0  502  0.36080670175E+02  0.47685145588E+02 -0.17060766703E+03  0.18083179012E+03  0.41800000000E+01 0. -1.
        -11    1    1    2    0    0 -0.47365040401E+02  0.59123142110E+02 -0.20115866983E+03  0.21495070001E+03  0.00000000000E+00 0. -1.
         11    1    1    2    0    0 -0.70925075790E+02 -0.27112890605E+02 -0.24491598587E+03  0.25641629306E+03  0.00000000000E+00 0.  1.
</event>
<event>
 7    1  0.2594791E-009  0.7923987E+02  0.7561462E-02  0.1331223E+00
         -2   -1    0    0    0  501 -0.00000000000E+00  0.00000000000E+00  0.24768252933E+02  0.24768252933E+02  0.00000000000E+00 0. -1.
          2   -1    0    0  501    0  0.00000000000E+00 -0.00000000000E+00 -0.52820813876E+03  0.52820813876E+03  0.00000000000E+00 0.  1.
         25    2    1    2    0    0 -0.57222531438E+01  0.16879515938E+02 -0.34162257002E+03  0.36424103293E+03  0.12509151643E+03 0.  0.
          5    1    3    3  502    0 -0.86856209652E+01 -0.41078269364E+02 -0.26336640197E+03  0.26672494880E+03  0.41800000000E+01 0.  1.
         -5    1    3    3    0  502  0.29633678214E+01  0.57957785302E+02 -0.78256168048E+02  0.97516084127E+02  0.41800000000E+01 0.  1.
        -11    1    1    2    0    0 -0.11926695691E+02 -0.32446171789E+02 -0.16154338055E+03  0.16520067776E+03  0.00000000000E+00 0.  1.
         11    1    1    2    0    0  0.17648948834E+02  0.15566655851E+02 -0.27393525827E+00  0.23534681002E+02  0.00000000000E+00 0. -1.
</event>
<event>
 7    1  0.2594791E-009  0.9513852E+02  0.7561462E-02  0.1290864E+00
         -1   -1    0    0    0  501 -0.00000000000E+00  0.00000000000E+00  0.16126535709E+02  0.16126535709E+02  0.00000000000E+00 0.  1.
          1   -1    0    0  501    0  0.00000000000E+00 -0.00000000000E+00 -0.78020047889E+03  0.78020047889E+03  0.00000000000E+00 0. -1.
         25    2    1    2    0    0  0.10828609909E+02 -0.18146616469E+01 -0.51956843398E+03  0.53452828156E+03  0.12509426208E+03 0.  0.
          5    1    3    3  502    0  0.57226322692E+02 -0.30372428529E+02 -0.19860390592E+03  0.20894573523E+03  0.41800000000E+01 0. -1.
         -5    1    3    3    0  502 -0.46397712783E+02  0.28557766882E+02 -0.32096452806E+03  0.32558254633E+03  0.41800000000E+01 0. -1.
        -11    1    1    2    0    0  0.28898612953E+02  0.91541117962E+01 -0.27067826623E+02  0.40639818300E+02  0.00000000000E+00 0.  1.
         11    1    1    2    0    0 -0.39727222862E+02 -0.73394501493E+01 -0.21743768257E+03  0.22115891474E+03  0.00000000000E+00 0. -1.
</event>
<event>
 7    1  0.2594791E-009  0.9195082E+02  0.7561462E-02  0.1298195E+00
          2   -1    0    0  501    0  0.00000000000E+00  0.00000000000E+00  0.34628818706E+03  0.34628818706E+03  0.00000000000E+00 0. -1.
         -2   -1    0    0    0  501 -0.00000000000E+00 -0.00000000000E+00 -0.45294265679E+02  0.45294265679E+02  0.00000000000E+00 0.  1.
         25    2    1    2    0    0 -0.38444590141E+02  0.47124311434E+02  0.18061074596E+03  0.22796091367E+03  0.12508896580E+03 0.  0.
          5    1    3    3  502    0 -0.31608499072E+01  0.68119885549E+02  0.17299028327E+03  0.18599306515E+03  0.41800000000E+01 0. -1.
         -5    1    3    3    0  502 -0.35283740234E+02 -0.20995574115E+02  0.76204626931E+01  0.41967848515E+02  0.41800000000E+01 0. -1.
        -11    1    1    2    0    0  0.32704131340E+01 -0.37772929811E+02  0.12142906306E+03  0.12721048378E+03  0.00000000000E+00 0.  1.
         11    1    1    2    0    0  0.35174177007E+02 -0.93513816229E+01 -0.10458876399E+01  0.36411055290E+02  0.00000000000E+00 0. -1.
</event>
<event>
 7    1  0.2594791E-009  0.2177874E+03  0.7561462E-02  0.1135543E+00
         -4   -1    0    0    0  501 -0.00000000000E+00  0.00000000000E+00  0.63229249765E+02  0.63229249765E+02  0.00000000000E+00 0.  1.
          4   -1    0    0  501    0  0.00000000000E+00 -0.00000000000E+00 -0.89222503747E+03  0.89222503747E+03  0.00000000000E+00 0. -1.
         25    2    1    2    0    0  0.96202344022E+02 -0.18827235652E+03 -0.43111788606E+03  0.49620028089E+03  0.12510282110E+03 0.  0.
          5    1    3    3  502    0 -0.22595812428E+01 -0.28176181362E+01 -0.12411170293E+03  0.12423458409E+03  0.41800000000E+01 0.  1.
         -5    1    3    3    0  502  0.98461925265E+02 -0.18545473838E+03 -0.30700618313E+03  0.37196569680E+03  0.41800000000E+01 0.  1.
        -11    1    1    2    0    0 -0.75135397510E+02  0.80067283067E+02 -0.13376258748E+03  0.17305642891E+03  0.00000000000E+00 0.  1.
         11    1    1    2    0    0 -0.21066946512E+02  0.10820507345E+03 -0.26411531417E+03  0.28619757744E+03  0.00000000000E+00 0. -1.
</event>
<event>
 7    1  0.2594791E-009  0.9506624E+02  0.7561462E-02  0.1291027E+00
         -3   -1    0    0    0  501 -0.00000000000E+00  0.00000000000E+00  0.18229940932E+03  0.18229940932E+03  0.00000000000E+00 0.  1.
          3   -1    0    0  501    0  0.00000000000E+00 -0.00000000000E+00 -0.65794497941E+02  0.65794497941E+02  0.00000000000E+00 0. -1.
         25    2    1    2    0    0  0.36943194900E+01 -0.16445580566E+02  0.66336131775E+02  0.14259298113E+03  0.12509264875E+03 0.  0.
          5    1    3    3  502    0  0.18026219304E+02  0.51779322544E+02  0.18802205423E+02  0.58112289185E+02  0.41800000000E+01 0.  1.
         -5    1    3    3    0  502 -0.14331899814E+02 -0.68224903110E+02  0.47533926352E+02  0.84480691942E+02  0.41800000000E+01 0.  1.
        -11    1    1    2    0    0 -0.33169384495E+02  0.43780641390E+01 -0.12085046600E+02  0.35572796695E+02  0.00000000000E+00 0. -1.
         11    1    1    2    0    0  0.29475065005E+02  0.12067516427E+02  0.62253826204E+02  0.69928129439E+02  0.00000000000E+00 0.  1.
</event>
<event>
 7    1  0.2594791E-009  0.1359960E+03  0.7561462E-02  0.1218820E+00
         -1   -1    0    0    0  501 -0.00000000000E+00  0.00000000000E+00  0.27823704151E+02  0.27823704151E+02  0.00000000000E+00 0.  1.
          1   -1    0    0  501    0  0.00000000000E+00 -0.00000000000E+00 -0.19742871828E+04  0.19742871828E+04  0.00000000000E+00 0. -1.
         25    2    1    2    0    0 -0.40205886224E+02 -0.11011641226E+03 -0.17369690285E+04  0.17454084830E+04  0.12508888421E+03 0.  0.
          5    1    3    3  502    0 -0.52458455828E+01 -0.70162070841E+02 -0.15324426243E+04  0.15340626142E+04  0.41800000000E+01 0. -1.
         -5    1    3    3    0  502 -0.34960040641E+02 -0.39954341419E+02 -0.20452640420E+03  0.21134586879E+03  0.41800000000E+01 0. -1.
        -11    1    1    2    0    0  0.63500903961E+02  0.10744640376E+03 -0.17963749139E+03  0.21873893754E+03  0.00000000000E+00 0. -1.
         11    1    1    2    0    0 -0.23295017737E+02  0.26700084979E+01 -0.29856958758E+02  0.37963466425E+02  0.00000000000E+00 0.  1.
</event>
<event>
 7    1  0.3530950E-009  0.1099435E+03  0.7561462E-02  0.1260675E+00
         -1   -1    0    0    0  501 -0.00000000000E+00  0.00000000000E+00  0.70675713186E+01  0.70675713186E+01  0.00000000000E+00 0.  1.
          1   -1    0    0  501    0  0.00000000000E+00 -0.00000000000E+00 -0.24953928316E+04  0.24953928316E+04  0.00000000000E+00 0. -1.
         25    2    1    2    0    0  0.12592137897E+02 -0.33316437988E+02 -0.20093455694E+04  0.20135504544E+04  0.12508904062E+03 0.  0.
          5    1    3    3  502    0  0.14677602810E+02 -0.77930805563E+02 -0.97328621841E+03  0.97652044415E+03  0.41800000000E+01 0. -1.
         -5    1    3    3    0  502 -0.20854649128E+01  0.44614367575E+02 -0.10360593510E+04  0.10370300102E+04  0.41800000000E+01 0. -1.
        -11    1    1    2    0    0  0.35757569338E+02 -0.18908136692E+01 -0.12996517801E+03  0.13480773879E+03  0.00000000000E+00 0.  1.
         11    1    1    2    0    0 -0.48349707234E+02  0.35207251657E+02 -0.34901451294E+03  0.35410220982E+03  0.00000000000E+00 0. -1.
</event>
<event>
 7    1  0.2594791E-009  0.2077477E+03  0.7561462E-02  0.1143362E+00
         -2   -1    0    0    0  501 -0.00000000000E+00  0.00000000000E+00  0.93010105217E+02  0.93010105217E+02  0.00000000000E+00 0.  1.
          2   -1    0    0  501    0  0.00000000000E+00 -0.00000000000E+00 -0.69764035039E+03  0.69764035039E+03  0.00000000000E+00 0. -1.
         25    2    1    2    0    0  0.13732418405E+03  0.15222525601E+03 -0.47400392208E+03  0.53137325998E+03  0.12508942072E+03 0.  0.
          5    1    3    3  502    0  0.47011138830E+02  0.76136673381E+02 -0.80241419769E+02  0.12026220543E+03  0.41800000000E+01 0. -1.
         -5    1    3    3    0  502  0.90313045221E+02  0.76088582628E+02 -0.39376250231E+03  0.41111105455E+03  0.41800000000E+01 0. -1.
        -11    1    1    2    0    0 -0.13258656876E+03 -0.13242754869E+03 -0.14276120772E+03  0.23557804715E+03  0.00000000000E+00 0. -1.
         11    1    1    2    0    0 -0.47376152877E+01 -0.19797707317E+02  0.12134884630E+02  0.23699148479E+02  0.00000000000E+00 0.  1.
</event>
<event>
 7    1  0.2594791E-009  0.1153932E+03  0.7561462E-02  0.1250896E+00
         -3   -1    0    0    0  501 -0.00000000000E+00  0.00000000000E+00  0.41848697965E+02  0.41848697965E+02  0.00000000000E+00 0.  1.
          3   -1    0    0  501    0  0.00000000000E+00 -0.00000000000E+00 -0.46449829282E+03  0.46449829282E+03  0.00000000000E+00 0. -1.
         25    2    1    2    0    0 -0.25813682218E+02 -0.36214354309E+02 -0.93702709742E+02  0.16249848564E+03  0.12509090444E+03 0.  0.
          5    1    3    3  502    0  0.29591612337E+02 -0.64000766852E+02 -0.50442289791E+02  0.86796651305E+02  0.41800000000E+01 0.  1.
         -5    1    3    3    0  502 -0.55405294555E+02  0.27786412543E+02 -0.43260419950E+02  0.75701834331E+02  0.41800000000E+01 0.  1.
        -11    1    1    2    0    0 -0.32234000312E+02  0.19285648560E+02 -0.93544134627E+02  0.10080412759E+03  0.00000000000E+00 0.  1.
         11    1    1    2    0    0  0.58047682530E+02  0.16928705748E+02 -0.23540275049E+03  0.24304437756E+03  0.00000000000E+00 0. -1.
</event>
<event>
 7    1  0.2594791E-009  0.1309715E+03  0.7561462E-02  0.1226021E+00
          1   -1    0    0  501    0  0.00000000000E+00  0.00000000000E+00  0.14909484350E+03  0.14909484350E+03  0.00000000000E+00 0. -1.
         -1   -1    0    0    0  501 -0.00000000000E+00 -0.00000000000E+00 -0.13754827851E+03  0.13754827851E+03  0.00000000000E+00 0.  1.
         25    2    1    2    0    0  0.61940767912E+02 -0.63116062082E+02  0.34937469100E+02  0.15712377116E+03  0.12508779594E+03 0.  0.
          5    1    3    3  502    0  0.53131261025E+00  0.36015935205E+02  0.45541735894E+01  0.36546446871E+02  0.41800000000E+01 0.  1.
         -5    1    3    3    0  502  0.61409455301E+02 -0.99131997287E+02  0.30383295511E+02  0.12057732429E+03  0.41800000000E+01 0.  1.
        -11    1    1    2    0    0 -0.82181460328E+01  0.53856682316E+02  0.21829121373E+02  0.58690635490E+02  0.00000000000E+00 0. -1.
         11    1    1    2    0    0 -0.53722621879E+02  0.92593797657E+01 -0.45220025486E+02  0.70828715364E+02  0.00000000000E+00 0.  1.
</event>
<event>
 7    1  0.2594791E-009  0.9352804E+02  0.7561462E-02  0.1294526E+00
          2   -1    0    0  501    0  0.00000000000E+00  0.00000000000E+00  0.16451679306E+03  0.16451679306E+03  0.00000000000E+00 0. -1.
         -2   -1    0    0    0  501 -0.00000000000E+00 -0.00000000000E+00 -0.81906548718E+02  0.81906548718E+02  0.00000000000E+00 0.  1.
         25    2    1    2    0    0  0.28988514510E+02 -0.29193964803E+02  0.55446491685E+02  0.14287930502E+03  0.12509021068E+03 0.  0.
          5    1    3    3  502    0 -0.24223985578E+01  0.35288415496E+02  0.61191108989E+02  0.70802291646E+02  0.41800000000E+01 0. -1.
         -5    1    3    3    0  502  0.31410913068E+02 -0.64482380298E+02 -0.57446173040E+01  0.72077013372E+02  0.41800000000E+01 0. -1.
        -11    1    1    2    0    0 -0.68564130637E+01  0.49248905964E+02  0.46406554455E+02  0.68014950085E+02  0.00000000000E+00 0. -1.
         11    1    1    2    0    0 -0.22132101446E+02 -0.20054941162E+02 -0.19242801793E+02  0.35529086679E+02  0.00000000000E+00 0.  1.
</event>
<event>
 7    1  0.2594791E-009  0.1008242E+03  0.7561462E-02  0.1278572E+00
          2   -1    0    0  501    0  0.00000000000E+00  0.00000000000E+00  0.47013305537E+03  0.47013305537E+03  0.00000000000E+00 0. -1.
         -2   -1    0    0    0  501 -0.00000000000E+00 -0.00000000000E+00 -0.28113876320E+02  0.28113876320E+02  0.00000000000E+00 0.  1.
         25    2    1    2    0    0  0.26562421886E+02  0.19073118502E+02  0.20626215496E+03  0.24343768217E+03  0.12509389444E+03 0.  0.
          5    1    3    3  502    0 -0.10430168524E+01  0.57434038425E+02  0.18046352418E+03  0.18943155127E+03  0.41800000000E+01 0.  1.
         -5    1    3    3    0  502  0.27605438738E+02 -0.38360919924E+02  0.25798630778E+02  0.54006130905E+02  0.41800000000E+01 0.  1.
        -11    1    1    2    0    0  0.16655332930E+02  0.28078076172E+02  0.75156911202E+02  0.81941075035E+02  0.00000000000E+00 0.  1.
         11    1    1    2    0    0 -0.43217754816E+02 -0.47151194674E+02  0.16060011288E+03  0.17286817448E+03  0.00000000000E+00 0. -1.
</event>
<event>
 7    1  0.2594791E-009  0.1133777E+03  0.7561462E-02  0.1254440E+00
          2   -1    0    0  501    0  0.00000000000E+00  0.00000000000E+00  0.11947057933E+04  0.11947057933E+04  0.00000000000E+00 0.  1.
         -2   -1    0    0    0  501 -0.00000000000E+00 -0.00000000000E+00 -0.21572974252E+02  0.21572974252E+02  0.00000000000E+00 0. -1.
         25    2    1    2    0    0  0.31534175534E+02  0.32387263615E+02  0.10395213654E+04  0.10479960109E+04  0.12509048991E+03 0.  0.
          5    1    3    3  502    0 -0.37152455192E+02 -0.16221911444E+02  0.19084569758E+03  0.19514868184E+03  0.41800000000E+01 0. -1.
         -5    1    3    3    0  502  0.68686630726E+02  0.48609175059E+02  0.84867566779E+03  0.85284732904E+03  0.41800000000E+01 0. -1.
        -11    1    1    2    0    0 -0.22292762147E+02 -0.64547460014E+02  0.81168556209E+02  0.10607391930E+03  0.00000000000E+00 0.  1.
         11    1    1    2    0    0 -0.92414133874E+01  0.32160196399E+02  0.52442897478E+02  0.62208837393E+02  0.00000000000E+00 0. -1.
</event>
<event>
 7    1  0.2594791E-009  0.1105872E+03  0.7561462E-02  0.1259486E+00
         -1   -1    0    0    0  501 -0.00000000000E+00  0.00000000000E+00  0.48279213625E+02  0.48279213625E+02  0.00000000000E+00 0.  1.
          1   -1    0    0  501    0  0.00000000000E+00 -0.00000000000E+00 -0.31059819893E+03  0.31059819893E+03  0.00000000000E+00 0. -1.
         25    2    1    2    0    0 -0.13628943354E+02  0.53168158695E+02 -0.15739480696E+03  0.20840539284E+03  0.12508829405E+03 0.  0.
          5    1    3    3  502    0 -0.27995872255E+02 -0.23175405619E+02 -0.11312971859E+03  0.11889774564E+03  0.41800000000E+01 0.  1.
         -5    1    3    3    0  502  0.14366928901E+02  0.76343564315E+02 -0.44265088368E+02  0.89507647196E+02  0.41800000000E+01 0.  1.
        -11    1    1    2    0    0 -0.14942569024E+02  0.21878059344E+02 -0.35666746337E+02  0.44430244699E+02  0.00000000000E+00 0. -1.
         11    1    1    2    0    0  0.28571512378E+02 -0.75046218040E+02 -0.69257432005E+02  0.10604177502E+03  0.00000000000E+00 0.  1.
</event>
<event>
 7    1  0.2594791E-009  0.1097759E+03  0.7561462E-02  0.1260985E+00
         -1   -1    0    0    0  501 -0.00000000000E+00  0.00000000000E+00  0.39384294339E+02  0.39384294339E+02  0.00000000000E+00 0.  1.
          1   -1    0    0  501    0  0.00000000000E+00 -0.00000000000E+00 -0.37325788572E+03  0.37325788572E+03  0.00000000000E+00 0. -1.
         25    2    1    2    0    0 -0.46108873651E+02  0.23870720475E+02 -0.21673862657E+03  0.25557421543E+03  0.12508680114E+03 0.  0.
          5    1    3    3  502    0 -0.84508895016E+02 -0.82028595031E+01 -0.14318686577E+03  0.16652024252E+03  0.41800000000E+01 0.  1.
         -5    1    3    3    0  502  0.38400021365E+02  0.32073579978E+02 -0.73551760806E+02  0.89053972910E+02  0.41800000000E+01 0.  1.
        -11    1    1    2    0    0  0.19058478224E+02  0.23213259924E+02 -0.92843997538E+02  0.97581191360E+02  0.00000000000E+00 0. -1.
         11    1    1    2    0    0  0.27050395427E+02 -0.47083980399E+02 -0.24290967270E+02  0.59486773268E+02  0.00000000000E+00 0.  1.
</event>
<event>
 7    1  0.2594791E-009  0.2618335E+03  0.7561462E-02  0.1106047E+00
         -2   -1    0    0    0  501 -0.00000000000E+00  0.00000000000E+00  0.59017037402E+02  0.59017037402E+02  0.00000000000E+00 0.  1.
          2   -1    0    0  501    0  0.00000000000E+00 -0.00000000000E+00 -0.11961071627E+04  0.11961071627E+04  0.00000000000E+00 0. -1.
         25    2    1    2    0    0  0.33714689037E+02 -0.23957708840E+03 -0.58627175062E+03  0.64645067762E+03  0.12510016577E+03 0.  0.
          5    1    3    3  502    0 -0.36545375899E+02 -0.20181343772E+02 -0.91147632246E+02  0.10034049233E+03  0.41800000000E+01 0. -1.
         -5    1    3    3    0  502  0.70260064936E+02 -0.21939574463E+03 -0.49512411838E+03  0.54611018530E+03  0.41800000000E+01 0. -1.
        -11    1    1    2    0    0 -0.42001532996E+02  0.70800783886E+02 -0.11658376114E+03  0.14271879040E+03  0.00000000000E+00 0.  1.
         11    1    1    2    0    0  0.82868439590E+01  0.16877630452E+03 -0.43423461352E+03  0.46595473206E+03  0.00000000000E+00 0. -1.
</event>
<event>
 7    1  0.2594791E-009  0.7863481E+02  0.7561462E-02  0.1332971E+00
          1   -1    0    0  501    0  0.00000000000E+00  0.00000000000E+00  0.32393564725E+02  0.32393564725E+02  0.00000000000E+00 0. -1.
         -1   -1    0    0    0  501 -0.00000000000E+00 -0.00000000000E+00 -0.39647932500E+03  0.39647932500E+03  0.00000000000E+00 0.  1.
         25    2    1    2    0    0  0.20789428603E+02 -0.29825745510E+02 -0.22911658989E+03  0.26356010629E+03  0.12509093663E+03 0.  0.
          5    1    3    3  502    0  0.20920951079E+02 -0.45672386344E+02 -0.20690383060E+02  0.54490525962E+02  0.41800000000E+01 0.  1.
         -5    1    3    3    0  502 -0.13152247598E+00  0.15846640834E+02 -0.20842620683E+03  0.20906958033E+03  0.41800000000E+01 0.  1.
        -11    1    1    2    0    0  0.18319008531E+02 -0.20005397066E+02 -0.18826821517E+02  0.33018952039E+02  0.00000000000E+00 0. -1.
         11    1    1    2    0    0 -0.39108437134E+02  0.49831142576E+02 -0.11614234887E+03  0.13229383140E+03  0.00000000000E+00 0.  1.
</event>
<event>
 7    1  0.2594791E-009  0.1389490E+03  0.7561462E-02  0.1214750E+00
          2   -1    0    0  501    0  0.00000000000E+00  0.00000000000E+00  0.22820294448E+03  0.22820294448E+03  0.00000000000E+00 0. -1.
         -2   -1    0    0    0  501 -0.00000000000E+00 -0.00000000000E+00 -0.12449987897E+03  0.12449987897E+03  0.00000000000E+00 0.  1.
         25    2    1    2    0    0 -0.11595843796E+03  0.45961787279E+02  0.20410887450E+02  0.17782545822E+03  0.12508574675E+03 0.  0.
          5    1    3    3  502    0 -0.44062309708E+02 -0.24189364409E+02 -0.36535148619E+02  0.62280831497E+02  0.41800000000E+01 0.  1.
         -5    1    3    3    0  502 -0.71896128256E+02  0.70151151688E+02  0.56946036068E+02  0.11554462673E+03  0.41800000000E+01 0.  1.
        -11    1    1    2    0    0  0.80616668726E+02 -0.19975163112E+02  0.98138328841E+02  0.12856588197E+03  0.00000000000E+00 0.  1.
         11    1    1    2    0    0  0.35341769237E+02 -0.25986624167E+02 -0.14846150781E+02  0.46311483256E+02  0.00000000000E+00 0. -1.
</event>
<event>
 7    1  0.2594791E-009  0.1197624E+03  0.7561462E-02  0.1243489E+00
          1   -1    0    0  501    0  0.00000000000E+00  0.00000000000E+00  0.13097644475E+03  0.13097644475E+03  0.00000000000E+00 0. -1.
         -1   -1    0    0    0  501 -0.00000000000E+00 -0.00000000000E+00 -0.18526016925E+03  0.18526016925E+03  0.00000000000E+00 0.  1.
         25    2    1    2    0    0  0.52007204979E+01  0.95961335292E+02 -0.86130526996E+02  0.17973047592E+03  0.12509576702E+03 0.  0.
          5    1    3    3  502    0 -0.33982467768E+02  0.17105266231E+02  0.18835831596E+02  0.42657463595E+02  0.41800000000E+01 0. -1.
         -5    1    3    3    0  502  0.39183188266E+02  0.78856069061E+02 -0.10496635859E+03  0.13707301232E+03  0.41800000000E+01 0.  1.
        -11    1    1    2    0    0 -0.32213756045E+02 -0.43973070354E+02  0.51220028046E+02  0.74798718358E+02  0.00000000000E+00 0. -1.
         11    1    1    2    0    0  0.27013035547E+02 -0.51988264938E+02 -0.19373225554E+02  0.61707419724E+02  0.00000000000E+00 0.  1.
</event>
<event>
 7    1  0.2594791E-009  0.8637305E+02  0.7561462E-02  0.1311880E+00
         -1   -1    0    0    0  501 -0.00000000000E+00  0.00000000000E+00  0.16617801095E+02  0.16617801095E+02  0.00000000000E+00 0.  1.
          1   -1    0    0  501    0  0.00000000000E+00 -0.00000000000E+00 -0.74636648520E+03  0.74636648520E+03  0.00000000000E+00 0. -1.
         25    2    1    2    0    0 -0.63955573942E-01 -0.29706114511E+02 -0.42249445125E+03  0.44162189937E+03  0.12508350543E+03 0.  0.
          5    1    3    3  502    0 -0.36704927472E+02 -0.43263524258E+02 -0.87740071301E+02  0.10456948285E+03  0.41800000000E+01 0. -1.
         -5    1    3    3    0  502  0.36640971898E+02  0.13557409747E+02 -0.33475437995E+03  0.33705241651E+03  0.41800000000E+01 0. -1.
        -11    1    1    2    0    0  0.13204766972E+01  0.53110277475E+02 -0.28178744465E+03  0.28675182510E+03  0.00000000000E+00 0. -1.
         11    1    1    2    0    0 -0.12565211233E+01 -0.23404162964E+02 -0.25466788202E+02  0.34610561837E+02  0.00000000000E+00 0.  1.
</event>
<event>
 7    1  0.2594791E-009  0.9853364E+02  0.7561462E-02  0.1283410E+00
         -1   -1    0    0    0  501 -0.00000000000E+00  0.00000000000E+00  0.62463803856E+02  0.62463803856E+02  0.00000000000E+00 0.  1.
          1   -1    0    0  501    0  0.00000000000E+00 -0.00000000000E+00 -0.23351966346E+03  0.23351966346E+03  0.00000000000E+00 0. -1.
         25    2    1    2    0    0  0.24283478056E+01  0.37799240447E+02 -0.49886396386E+02  0.13989535118E+03  0.12508947711E+03 0.  0.
          5    1    3    3  502    0 -0.45610498268E+02  0.41051923160E+02  0.10661678834E+02  0.62423727404E+02  0.41800000000E+01 0. -1.
         -5    1    3    3    0  502  0.48038846074E+02 -0.32526827130E+01 -0.60548075220E+02  0.77471623771E+02  0.41800000000E+01 0. -1.
        -11    1    1    2    0    0 -0.37697204912E+02 -0.32136951375E+01 -0.18416138192E+02  0.42078037508E+02  0.00000000000E+00 0.  1.
         11    1    1    2    0    0  0.35268857106E+02 -0.34585545310E+02 -0.10275332503E+03  0.11401007863E+03  0.00000000000E+00 0. -1.
</event>
<event>
 7    1  0.2594791E-009  0.8491102E+02  0.7561462E-02  0.1315665E+00
         -2   -1    0    0    0  501 -0.00000000000E+00  0.00000000000E+00  0.68659439093E+02  0.68659439093E+02  0.00000000000E+00 0.  1.
          2   -1    0    0  501    0  0.00000000000E+00 -0.00000000000E+00 -0.18565998852E+03  0.18565998852E+03  0.00000000000E+00 0. -1.
         25    2    1    2    0    0  0.12944794989E+01  0.24295952667E+02 -0.44624607860E+02  0.13501833114E+03  0.12508647059E+03 0.  0.
          5    1    3    3  502    0 -0.20426191184E+02 -0.38303535419E+02  0.14660782276E+02  0.46008706228E+02  0.41800000000E+01 0.  1.
         -5    1    3    3    0  502  0.21720670683E+02  0.62599488086E+02 -0.59285390136E+02  0.89009624912E+02  0.41800000000E+01 0.  1.
        -11    1    1    2    0    0  0.13552424760E+02  0.13550583530E+02  0.14068391988E+02  0.23774065366E+02  0.00000000000E+00 0.  1.
         11    1    1    2    0    0 -0.14846904259E+02 -0.37846536196E+02 -0.86444333560E+02  0.95527031110E+02  0.00000000000E+00 0. -1.
</event>
<event>
 7    1  0.2594791E-009  0.1405448E+03  0.7561462E-02  0.1212598E+00
         -2   -1    0    0    0  501 -0.00000000000E+00  0.00000000000E+00  0.17590190176E+02  0.17590190176E+02  0.00000000000E+00 0.  1.
          2   -1    0    0  501    0  0.00000000000E+00 -0.00000000000E+00 -0.14978286629E+04  0.14978286629E+04  0.00000000000E+00 0. -1.
         25    2    1    2    0    0  0.11516421380E+03  0.26098454666E+02 -0.77806922796E+03  0.79685840640E+03  0.12509065063E+03 0.  0.
          5    1    3    3  502    0  0.82253174951E+02  0.46342590869E+02 -0.24846236027E+03  0.26582745793E+03  0.41800000000E+01 0.  1.
         -5    1    3    3    0  502  0.32911038853E+02 -0.20244136203E+02 -0.52960686769E+03  0.53103094847E+03  0.41800000000E+01 0.  1.
        -11    1    1    2    0    0 -0.10371567379E+03 -0.54455289129E+02 -0.61808834661E+03  0.62909102976E+03  0.00000000000E+00 0. -1.
         11    1    1    2    0    0 -0.11448540018E+02  0.28356834463E+02 -0.84080898113E+02  0.89469416880E+02  0.00000000000E+00 0.  1.
</event>
<event>
 7    1  0.2594791E-009  0.1631712E+03  0.7561462E-02  0.1185162E+00
         -1   -1    0    0    0  501 -0.00000000000E+00  0.00000000000E+00  0.31121633836E+03  0.31121633836E+03  0.00000000000E+00 0.  1.
          1   -1    0    0  501    0  0.00000000000E+00 -0.00000000000E+00 -0.18816186948E+03  0.18816186948E+03  0.00000000000E+00 0. -1.
         25    2    1    2    0    0  0.35747661472E+01  0.12185718809E+03  0.24726772220E+03  0.30274007654E+03  0.12509306239E+03 0.  0.
          5    1    3    3  502    0 -0.37949438052E+02 -0.73482246226E+01  0.53475519750E+02  0.66115503977E+02  0.41800000000E+01 0.  1.
         -5    1    3    3    0  502  0.41524204199E+02  0.12920541272E+03  0.19379220245E+03  0.23662457256E+03  0.41800000000E+01 0.  1.
        -11    1    1    2    0    0  0.35889980439E+02 -0.10070307984E+03 -0.78371872971E+02  0.13255697439E+03  0.00000000000E+00 0.  1.
         11    1    1    2    0    0 -0.39464746586E+02 -0.21154108250E+02 -0.45841380352E+02  0.64081156915E+02  0.00000000000E+00 0. -1.
</event>
<event>
 7    1  0.2594791E-009  0.2541041E+03  0.7561462E-02  0.1110738E+00
         -2   -1    0    0    0  501 -0.00000000000E+00  0.00000000000E+00  0.85797376078E+02  0.85797376078E+02  0.00000000000E+00 0.  1.
          2   -1    0    0  501    0  0.00000000000E+00 -0.00000000000E+00 -0.10681565696E+04  0.10681565696E+04  0.00000000000E+00 0. -1.
         25    2    1    2    0    0 -0.19867894510E+03  0.13773958295E+03 -0.22279315281E+03  0.35175423322E+03  0.12509490683E+03 0.  0.
          5    1    3    3  502    0 -0.26074722092E+02  0.76584442656E+02 -0.11012160471E+03  0.13670884468E+03  0.41800000000E+01 0. -1.
         -5    1    3    3    0  502 -0.17260422300E+03  0.61155140292E+02 -0.11267154810E+03  0.21504538854E+03  0.41800000000E+01 0. -1.
        -11    1    1    2    0    0  0.16952401534E+03 -0.10174809382E+03 -0.69606794266E+03  0.72360323878E+03  0.00000000000E+00 0. -1.
         11    1    1    2    0    0  0.29154929754E+02 -0.35991489128E+02 -0.63498098068E+02  0.78596473692E+02  0.00000000000E+00 0.  1.
</event>
<event>
 7    1  0.2594791E-009  0.8589720E+02  0.7561462E-02  0.1313103E+00
         -2   -1    0    0    0  501 -0.00000000000E+00  0.00000000000E+00  0.32003729431E+02  0.32003729431E+02  0.00000000000E+00 0.  1.
          2   -1    0    0  501    0  0.00000000000E+00 -0.00000000000E+00 -0.50229055694E+03  0.50229055694E+03  0.00000000000E+00 0. -1.
         25    2    1    2    0    0 -0.40845515992E+02 -0.49515269932E+02 -0.25400273970E+03  0.29031554959E+03  0.12508240655E+03 0.  0.
          5    1    3    3  502    0 -0.19445326694E+02 -0.56807709353E+02 -0.25973692168E+03  0.26661953689E+03  0.41800000000E+01 0.  1.
         -5    1    3    3    0  502 -0.21400189298E+02  0.72924394206E+01  0.57341819794E+01  0.23696012695E+02  0.41800000000E+01 0.  1.
        -11    1    1    2    0    0 -0.12990935894E+02  0.27568010758E+02 -0.16063296770E+03  0.16349834845E+03  0.00000000000E+00 0. -1.
         11    1    1    2    0    0  0.53836451886E+02  0.21947259174E+02 -0.55651120112E+02  0.80480388335E+02  0.00000000000E+00 0.  1.
</event>
<event>
 7    1  0.2594791E-009  0.1090636E+03  0.7561462E-02  0.1262314E+00
          1   -1    0    0  501    0  0.00000000000E+00  0.00000000000E+00  0.46886855667E+03  0.46886855667E+03  0.00000000000E+00 0. -1.
         -1   -1    0    0    0  501 -0.00000000000E+00 -0.00000000000E+00 -0.25849621375E+02  0.25849621375E+02  0.00000000000E+00 0.  1.
         25    2    1    2    0    0 -0.18596666355E+01  0.17786177109E+02  0.25973932187E+03  0.28884026651E+03  0.12507748709E+03 0.  0.
          5    1    3    3  502    0 -0.28661606732E+02 -0.47049335363E+02  0.13080862044E+03  0.14199822266E+03  0.41800000000E+01 0. -1.
         -5    1    3    3    0  502  0.26801940097E+02  0.64835512472E+02  0.12893070143E+03  0.14684204385E+03  0.41800000000E+01 0. -1.
        -11    1    1    2    0    0  0.43081451782E+02  0.82161123185E+01  0.70658591121E+02  0.83163408351E+02  0.00000000000E+00 0.  1.
         11    1    1    2    0    0 -0.41221785147E+02 -0.26002289427E+02  0.11262102230E+03  0.12271450318E+03  0.00000000000E+00 0. -1.
</event>
<event>
 7    1  0.2594791E-009  0.9600774E+02  0.7561462E-02  0.1288922E+00
          2   -1    0    0  501    0  0.00000000000E+00  0.00000000000E+00  0.39052752008E+03  0.39052752008E+03  0.00000000000E+00 0.  1.
         -2   -1    0    0    0  501 -0.00000000000E+00 -0.00000000000E+00 -0.37290228523E+02  0.37290228523E+02  0.00000000000E+00 0. -1.
         25    2    1    2    0    0 -0.25111652593E+02 -0.43379153492E+02  0.19676925978E+03  0.23848896182E+03  0.12508595949E+03 0.  0.
          5    1    3    3  502    0 -0.38939012246E+02  0.35050340795E+02  0.56727874966E+02  0.77332381721E+02  0.41800000000E+01 0. -1.
         -5    1    3    3    0  502  0.13827359653E+02 -0.78429494286E+02  0.14004138481E+03  0.16115658010E+03  0.41800000000E+01 0. -1.
        -11    1    1    2    0    0  0.26016687558E+02  0.12582194854E+02  0.15585575722E+03  0.15851244973E+03  0.00000000000E+00 0.  1.
         11    1    1    2    0    0 -0.90503496438E+00  0.30796958637E+02  0.61227455901E+00  0.30816337059E+02  0.00000000000E+00 0. -1.
</event>
<event>
 7    1  0.2594791E-009  0.1842230E+03  0.7561462E-02  0.1163777E+00
          2   -1    0    0  501    0  0.00000000000E+00  0.00000000000E+00  0.10207685503E+03  0.10207685503E+03  0.00000000000E+00 0.  1.
         -2   -1    0    0    0  501 -0.00000000000E+00 -0.00000000000E+00 -0.39765188771E+03  0.39765188771E+03  0.00000000000E+00 0. -1.
         25    2    1    2    0    0 -0.16140672315E+03 -0.22091347978E+02 -0.20322789677E+03  0.28894513440E+03  0.12509018641E+03 0.  0.
          5    1    3    3  502    0 -0.18044723669E+03 -0.32231159150E+02 -0.17905193904E+03  0.25627548092E+03  0.41800000000E+01 0.  1.
         -5    1    3    3    0  502  0.19040513536E+02  0.10139811172E+02 -0.24175957730E+02  0.32669653480E+02  0.41800000000E+01 0.  1.
        -11    1    1    2    0    0  0.14187552552E+03  0.22126928589E+02 -0.11272901741E+03  0.18255436746E+03  0.00000000000E+00 0. -1.
         11    1    1    2    0    0  0.19531197633E+02 -0.35580611668E-01  0.20381881502E+02  0.28229240877E+02  0.00000000000E+00 0.  1.
</event>
<event>
 7    1  0.2594791E-009  0.1737959E+03  0.7561462E-02  0.1173946E+00
          1   -1    0    0  501    0  0.00000000000E+00  0.00000000000E+00  0.44971343558E+03  0.44971343558E+03  0.00000000000E+00 0.  1.
         -1   -1    0    0    0  501 -0.00000000000E+00 -0.00000000000E+00 -0.10846533875E+03  0.10846533875E+03  0.00000000000E+00 0. -1.
         25    2    1    2    0    0 -0.12847059523E+03  0.52665355267E+02  0.93624243654E+01  0.18712027602E+03  0.12509200303E+03 0.  0.
          5    1    3    3  502    0 -0.64323936630E+02 -0.38293123923E+02 -0.31276097513E+01  0.75041232040E+02  0.41800000000E+01 0. -1.
         -5    1    3    3    0  502 -0.64146658604E+02  0.90958479189E+02  0.12490034117E+02  0.11207904398E+03  0.41800000000E+01 0. -1.
        -11    1    1    2    0    0  0.19202262921E+02 -0.48189988498E+02  0.15124100479E+03  0.15989009795E+03  0.00000000000E+00 0.  1.
         11    1    1    2    0    0  0.10926833231E+03 -0.44753667690E+01  0.18064466767E+03  0.21116840036E+03  0.00000000000E+00 0. -1.
</event>
<event>
 7    1  0.2594791E-009  0.1718189E+03  0.7561462E-02  0.1175964E+00
          1   -1    0    0  501    0  0.00000000000E+00  0.00000000000E+00  0.15137301858E+03  0.15137301858E+03  0.00000000000E+00 0. -1.
         -1   -1    0    0    0  501 -0.00000000000E+00 -0.00000000000E+00 -0.34514370648E+03  0.34514370648E+03  0.00000000000E+00 0.  1.
         25    2    1    2    0    0  0.11849508571E+03  0.75844986709E+02  0.55482134966E+02  0.19626302338E+03  0.12508940683E+03 0.  0.
          5    1    3    3  502    0  0.49288163383E+02  0.95973800368E+02  0.60726687869E+02  0.12387694066E+03  0.41800000000E+01 0.  1.
         -5    1    3    3    0  502  0.69206922328E+02 -0.20128813660E+02 -0.52445529035E+01  0.72386082728E+02  0.41800000000E+01 0.  1.
        -11    1    1    2    0    0 -0.82616655697E+02 -0.34684354517E+01 -0.15837757763E+03  0.17866448706E+03  0.00000000000E+00 0.  1.
         11    1    1    2    0    0 -0.35878430014E+02 -0.72376551257E+02 -0.90875245239E+02  0.12158921461E+03  0.00000000000E+00 0. -1.
</event>
<event>
 7    1  0.2594791E-009  0.1545404E+03  0.7561462E-02  0.1195002E+00
         -1   -1    0    0    0  501 -0.00000000000E+00  0.00000000000E+00  0.25394818726E+03  0.25394818726E+03  0.00000000000E+00 0.  1.
          1   -1    0    0  501    0  0.00000000000E+00 -0.00000000000E+00 -0.15609593556E+03  0.15609593556E+03  0.00000000000E+00 0. -1.
         25    2    1    2    0    0 -0.13396312276E+03 -0.45369838312E+02 -0.40749102521E+02  0.19316645128E+03  0.12509295766E+03 0.  0.
          5    1    3    3  502    0 -0.95101076013E+01 -0.39363037731E+01 -0.59562207082E+02  0.60589318749E+02  0.41800000000E+01 0. -1.
         -5    1    3    3    0  502 -0.12445301516E+03 -0.41433534539E+02  0.18813104561E+02  0.13257713253E+03  0.41800000000E+01 0. -1.
        -11    1    1    2    0    0  0.61083828134E+02  0.67048214164E+02  0.78602640503E+02  0.12002113221E+03  0.00000000000E+00 0.  1.
         11    1    1    2    0    0  0.72879294628E+02 -0.21678375852E+02  0.59998713714E+02  0.96856539338E+02  0.00000000000E+00 0. -1.
</event>
<event>
 7    1  0.2594791E-009  0.1035270E+03  0.7561462E-02  0.1273049E+00
         -1   -1    0    0    0  501 -0.00000000000E+00  0.00000000000E+00  0.26810554621E+03  0.26810554621E+03  0.00000000000E+00 0.  1.
          1   -1    0    0  501    0  0.00000000000E+00 -0.00000000000E+00 -0.46724407878E+02  0.46724407878E+02  0.00000000000E+00 0. -1.
         25    2    1    2    0    0  0.25518109270E+02 -0.26073312216E+02  0.13165972301E+03  0.18522973032E+03  0.12507909026E+03 0.  0.
          5    1    3    3  502    0  0.16957822948E+02  0.45620794946E+02  0.88277897388E+02  0.10089243905E+03  0.41800000000E+01 0. -1.
         -5    1    3    3    0  502  0.85602863225E+01 -0.71694107163E+02  0.43381825622E+02  0.84337291266E+02  0.41800000000E+01 0. -1.
        -11    1    1    2    0    0 -0.53669525541E+02  0.17576057843E+02  0.81340599569E+02  0.99023375620E+02  0.00000000000E+00 0.  1.
         11    1    1    2    0    0  0.28151416270E+02  0.84972543736E+01  0.83808157496E+01  0.30576848146E+02  0.00000000000E+00 0. -1.
</event>
<event>
 7    1  0.2594791E-009  0.1757028E+03  0.7561462E-02  0.1172028E+00
         -1   -1    0    0    0  501 -0.00000000000E+00  0.00000000000E+00  0.81524018822E+02  0.81524018822E+02  0.00000000000E+00 0.  1.
          1   -1    0    0  501    0  0.00000000000E+00 -0.00000000000E+00 -0.40571346596E+03  0.40571346596E+03  0.00000000000E+00 0. -1.
         25    2    1    2    0    0 -0.15515659020E+02  0.14726257399E+03 -0.15705129901E+03  0.24948009729E+03  0.12509279376E+03 0.  0.
          5    1    3    3  502    0  0.36867487669E+02  0.11993613121E+03 -0.68699793757E+02  0.14311191872E+03  0.41800000000E+01 0. -1.
         -5    1    3    3    0  502 -0.52383146689E+02  0.27326442775E+02 -0.88351505250E+02  0.10636817857E+03  0.41800000000E+01 0. -1.
        -11    1    1    2    0    0 -0.15577982636E+02 -0.13026848929E+03 -0.11353863247E+03  0.17350381525E+03  0.00000000000E+00 0.  1.
         11    1    1    2    0    0  0.31093641656E+02 -0.16994084701E+02 -0.53599515664E+02  0.64253572241E+02  0.00000000000E+00 0. -1.
</event>
<event>
 7    1  0.2594791E-009  0.9733144E+02  0.7561462E-02  0.1286010E+00
         -2   -1    0    0    0  501 -0.00000000000E+00  0.00000000000E+00  0.18600318014E+03  0.18600318014E+03  0.00000000000E+00 0.  1.
          2   -1    0    0  501    0  0.00000000000E+00 -0.00000000000E+00 -0.74196980895E+02  0.74196980895E+02  0.00000000000E+00 0. -1.
         25    2    1    2    0    0  0.26804259563E+02  0.34320685409E+02  0.47299663998E+02  0.14064675163E+03  0.12509145756E+03 0.  0.
          5    1    3    3  502    0  0.35512286163E+02  0.71619044338E+02  0.53028656030E+00  0.80051006141E+02  0.41800000000E+01 0.  1.
         -5    1    3    3    0  502 -0.87080265993E+01 -0.37298358929E+02  0.46769377438E+02  0.60595745494E+02  0.41800000000E+01 0.  1.
        -11    1    1    2    0    0 -0.44037278371E+02 -0.82040521149E+01  0.74306905325E+02  0.86764650269E+02  0.00000000000E+00 0.  1.
         11    1    1    2    0    0  0.17233018808E+02 -0.26116633294E+02 -0.98003700753E+01  0.32788759132E+02  0.00000000000E+00 0. -1.
</event>
<event>
 7    1  0.2594791E-009  0.1282801E+03  0.7561462E-02  0.1230030E+00
          1   -1    0    0  501    0  0.00000000000E+00  0.00000000000E+00  0.17040765912E+03  0.17040765912E+03  0.00000000000E+00 0. -1.
         -1   -1    0    0    0  501 -0.00000000000E+00 -0.00000000000E+00 -0.10288927470E+03  0.10288927470E+03  0.00000000000E+00 0.  1.
         25    2    1    2    0    0  0.58397922626E+02 -0.49877650252E+02  0.41741727547E+02  0.15260469354E+03  0.12509086022E+03 0.  0.
          5    1    3    3  502    0  0.66801211390E+02  0.24648836499E+02  0.25548777724E+02  0.75763971827E+02  0.41800000000E+01 0.  1.
         -5    1    3    3    0  502 -0.84032887639E+01 -0.74526486751E+02  0.16192949823E+02  0.76840721714E+02  0.41800000000E+01 0.  1.
        -11    1    1    2    0    0 -0.67670021641E+02  0.90749410470E+01  0.36607008035E+02  0.77470377701E+02  0.00000000000E+00 0. -1.
         11    1    1    2    0    0  0.92720990154E+01  0.40802709205E+02 -0.10830351154E+02  0.43221862578E+02  0.00000000000E+00 0.  1.
</event>
<event>
 7    1  0.2594791E-009  0.1213500E+03  0.7561462E-02  0.1240886E+00
          1   -1    0    0  501    0  0.00000000000E+00  0.00000000000E+00  0.27870393455E+03  0.27870393455E+03  0.00000000000E+00 0. -1.
         -1   -1    0    0    0  501 -0.00000000000E+00 -0.00000000000E+00 -0.72143236962E+02  0.72143236962E+02  0.00000000000E+00 0.  1.
         25    2    1    2    0    0  0.39952768275E+02  0.81386888622E+02  0.12464349638E+03  0.19850198535E+03  0.12508791975E+03 0.  0.
          5    1    3    3  502    0 -0.23042568542E+02  0.80667104293E+02  0.40355938637E+02  0.93189140265E+02  0.41800000000E+01 0. -1.
         -5    1    3    3    0  502  0.62995336817E+02  0.71978432837E+00  0.84287557740E+02  0.10531284508E+03  0.41800000000E+01 0. -1.
        -11    1    1    2    0    0 -0.18918234526E+02 -0.10530362623E+02 -0.17933833059E+02  0.28114240213E+02  0.00000000000E+00 0.  1.
         11    1    1    2    0    0 -0.21034533748E+02 -0.70856525999E+02  0.99851034273E+02  0.12423094595E+03  0.00000000000E+00 0. -1.
</event>
<event>
 7    1  0.2594791E-009  0.1846989E+03  0.7561462E-02  0.1163331E+00
          1   -1    0    0  501    0  0.00000000000E+00  0.00000000000E+00  0.67071514143E+03  0.67071514143E+03  0.00000000000E+00 0. -1.
         -1   -1    0    0    0  501 -0.00000000000E+00 -0.00000000000E+00 -0.57056490743E+02  0.57056490743E+02  0.00000000000E+00 0.  1.
         25    2    1    2    0    0  0.15266360108E+03 -0.27082241974E+02  0.23113284372E+03  0.30513076706E+03  0.12507106235E+03 0.  0.
          5    1    3    3  502    0  0.89752879620E+02 -0.69948985156E+02  0.91646108468E+02  0.14616744344E+03  0.41800000000E+01 0. -1.
         -5    1    3    3    0  502  0.62910721458E+02  0.42866743182E+02  0.13948673525E+03  0.15896332362E+03  0.41800000000E+01 0. -1.
        -11    1    1    2    0    0 -0.15606581660E+03  0.41667202829E+01  0.32256478376E+03  0.35836007086E+03  0.00000000000E+00 0. -1.
         11    1    1    2    0    0  0.34022155217E+01  0.22915521691E+02  0.59961023208E+02  0.64280794247E+02  0.00000000000E+00 0.  1.
</event>
<event>
 7    1  0.2594791E-009  0.1415469E+03  0.7561462E-02  0.1211263E+00
          2   -1    0    0  501    0  0.00000000000E+00  0.00000000000E+00  0.10026495019E+03  0.10026495019E+03  0.00000000000E+00 0. -1.
         -2   -1    0    0    0  501 -0.00000000000E+00 -0.00000000000E+00 -0.25177961537E+03  0.25177961537E+03  0.00000000000E+00 0.  1.
         25    2    1    2    0    0  0.84830397627E+02  0.76669533796E+02 -0.59315873863E+02  0.17955624092E+03  0.12509059511E+03 0.  0.
          5    1    3    3  502    0  0.51875891544E+02 -0.28016590219E+01 -0.75670561459E+02  0.91882880278E+02  0.41800000000E+01 0.  1.
         -5    1    3    3    0  502  0.32954506084E+02  0.79471192818E+02  0.16354687595E+02  0.87673360637E+02  0.41800000000E+01 0.  1.
        -11    1    1    2    0    0 -0.11016137418E+02  0.20226049082E+02 -0.22253742341E+02  0.32026198545E+02  0.00000000000E+00 0.  1.
         11    1    1    2    0    0 -0.73814260210E+02 -0.96895582878E+02 -0.69945048981E+02  0.14046212610E+03  0.00000000000E+00 0. -1.
</event>
<event>
 7    1  0.2594791E-009  0.2725018E+03  0.7561462E-02  0.1099856E+00
         -2   -1    0    0    0  501 -0.00000000000E+00  0.00000000000E+00  0.50688920449E+03  0.50688920449E+03  0.00000000000E+00 0. -1.
          2   -1    0    0  501    0  0.00000000000E+00 -0.00000000000E+00 -0.23201985821E+03  0.23201985821E+03  0.00000000000E+00 0.  1.
         25    2    1    2    0    0 -0.70498901712E+02 -0.24548609793E+03  0.35012175967E+03  0.45107189197E+03  0.12508831163E+03 0.  0.
          5    1    3    3  502    0  0.90953158428E+01 -0.18171264857E+03  0.23461387446E+03  0.29692314478E+03  0.41800000000E+01 0. -1.
         -5    1    3    3    0  502 -0.79594217555E+02 -0.63773449361E+02  0.11550788521E+03  0.15414874718E+03  0.41800000000E+01 0. -1.
        -11    1    1    2    0    0  0.85899547553E+01  0.12666809948E+03 -0.86129156964E+02  0.15341716471E+03  0.00000000000E+00 0.  1.
         11    1    1    2    0    0  0.61908946957E+02  0.11881799845E+03  0.10876743569E+02  0.13442000603E+03  0.00000000000E+00 0. -1.
</event>
<event>
 7    1  0.2594791E-009  0.1076806E+03  0.7561462E-02  0.1264926E+00
          3   -1    0    0  501    0  0.00000000000E+00  0.00000000000E+00  0.15032067454E+03  0.15032067454E+03  0.00000000000E+00 0. -1.
         -3   -1    0    0    0  501 -0.00000000000E+00 -0.00000000000E+00 -0.11829648986E+03  0.11829648986E+03  0.00000000000E+00 0.  1.
         25    2    1    2    0    0  0.67471866340E+02 -0.23416553650E+02 -0.14057444884E+02  0.14472642300E+03  0.12508932019E+03 0.  0.
          5    1    3    3  502    0  0.46631455413E+02 -0.49072068243E+02 -0.58234890333E+02  0.89394269210E+02  0.41800000000E+01 0. -1.
         -5    1    3    3    0  502  0.20840410927E+02  0.25655514593E+02  0.44177445449E+02  0.55332153790E+02  0.41800000000E+01 0. -1.
        -11    1    1    2    0    0 -0.16164665449E+02  0.52715025498E+02  0.15053991652E+02  0.57155865727E+02  0.00000000000E+00 0.  1.
         11    1    1    2    0    0 -0.51307200891E+02 -0.29298471849E+02  0.31027637916E+02  0.66734875669E+02  0.00000000000E+00 0. -1.
</event>
<event>
 7    1  0.2594791E-009  0.7242489E+02  0.7561462E-02  0.1352036E+00
          2   -1    0    0  501    0  0.00000000000E+00  0.00000000000E+00  0.35518825601E+03  0.35518825601E+03  0.00000000000E+00 0. -1.
         -2   -1    0    0    0  501 -0.00000000000E+00 -0.00000000000E+00 -0.41701993999E+02  0.41701993999E+02  0.00000000000E+00 0.  1.
         25    2    1    2    0    0 -0.20351243964E+02  0.34977251790E+02  0.12018571035E+03  0.17812579412E+03  0.12508641928E+03 0.  0.
          5    1    3    3  502    0 -0.11778787716E+02  0.79901034153E+01 -0.25583442629E+02  0.29573071017E+02  0.41800000000E+01 0.  1.
         -5    1    3    3    0  502 -0.85724562481E+01  0.26987148375E+02  0.14576915297E+03  0.14855272311E+03  0.41800000000E+01 0.  1.
        -11    1    1    2    0    0  0.33845458166E+01  0.32061819347E+02  0.47662539217E+02  0.57542445680E+02  0.00000000000E+00 0.  1.
         11    1    1    2    0    0  0.16966698147E+02 -0.67039071137E+02  0.14563801244E+03  0.16122201020E+03  0.00000000000E+00 0. -1.
</event>
<event>
 6    1  0.2594791E-009  0.1276385E+03  0.7561462E-02  0.1231002E+00
         -1   -1    0    0    0  501 -0.00000000000E+00  0.00000000000E+00  0.50411520839E+02  0.50411520839E+02  0.00000000000E+00 0.  1.
          1   -1    0    0  501    0  0.00000000000E+00 -0.00000000000E+00 -0.43378664697E+03  0.43378664697E+03  0.00000000000E+00 0. -1.
          5    1    1    2  502    0  0.25273969715E+02  0.57201623968E+02 -0.18157950534E+03  0.19209213541E+03  0.41800000000E+01 0. -1.
         -5    1    1    2    0  502 -0.79471123756E+02 -0.27784666599E+01 -0.12991643328E+03  0.15237825115E+03  0.41800000000E+01 0. -1.
        -11    1    1    2    0    0 -0.13129937010E+02 -0.42646959959E+02 -0.52052300155E+02  0.68560924666E+02  0.00000000000E+00 0. -1.
         11    1    1    2    0    0  0.67327091051E+02 -0.11776197349E+02 -0.19826887369E+02  0.71166856585E+02  0.00000000000E+00 0.  1.
</event>
<event>
 7    1  0.2980986E-009  0.1202099E+03  0.7561462E-02  0.1242751E+00
          2   -1    0    0  501    0  0.00000000000E+00  0.00000000000E+00  0.13252259653E+04  0.13252259653E+04  0.00000000000E+00 0. -1.
         -2   -1    0    0    0  501 -0.00000000000E+00 -0.00000000000E+00 -0.11937174532E+02  0.11937174532E+02  0.00000000000E+00 0.  1.
         25    2    1    2    0    0 -0.34439848632E+02  0.50450911398E+02  0.82925400858E+03  0.84085721354E+03  0.12508894910E+03 0.  0.
          5    1    3    3  502    0  0.25669902257E+02 -0.24172499857E+02  0.11985792687E+03  0.12500659448E+03  0.41800000000E+01 0.  1.
         -5    1    3    3    0  502 -0.60109750889E+02  0.74623411255E+02  0.70939608171E+03  0.71585061906E+03  0.41800000000E+01 0.  1.
        -11    1    1    2    0    0  0.55214899034E+02 -0.84711620275E+00  0.27278687204E+03  0.27832010391E+03  0.00000000000E+00 0.  1.
         11    1    1    2    0    0 -0.20775050402E+02 -0.49603795195E+02  0.21124791010E+03  0.21798582234E+03  0.00000000000E+00 0. -1.
</event>
<event>
 7    1  0.2594791E-009  0.1100681E+03  0.7561462E-02  0.1260444E+00
         -4   -1    0    0    0  501 -0.00000000000E+00  0.00000000000E+00  0.25014057024E+03  0.25014057024E+03  0.00000000000E+00 0.  1.
          4   -1    0    0  501    0  0.00000000000E+00 -0.00000000000E+00 -0.10231865388E+03  0.10231865388E+03  0.00000000000E+00 0. -1.
         25    2    1    2    0    0  0.32383198086E+02  0.99033341630E+02  0.13891717028E+03  0.21401377855E+03  0.12509053895E+03 0.  0.
          5    1    3    3  502    0 -0.80308152978E+01  0.44868027360E+02 -0.13090739199E+02  0.47607496535E+02  0.41800000000E+01 0.  1.
         -5    1    3    3    0  502  0.40414013384E+02  0.54165314270E+02  0.15200790948E+03  0.16640628201E+03  0.41800000000E+01 0.  1.
        -11    1    1    2    0    0 -0.14853096134E+02 -0.16169846494E+02  0.42094992091E+02  0.47477012960E+02  0.00000000000E+00 0.  1.
         11    1    1    2    0    0 -0.17530101952E+02 -0.82863495136E+02 -0.33190246015E+02  0.90968432608E+02  0.00000000000E+00 0. -1.
</event>
<event>
 7    1  0.2594791E-009  0.1597494E+03  0.7561462E-02  0.1188980E+00
         -2   -1    0    0    0  501 -0.00000000000E+00  0.00000000000E+00  0.28931689201E+02  0.28931689201E+02  0.00000000000E+00 0.  1.
          2   -1    0    0  501    0  0.00000000000E+00 -0.00000000000E+00 -0.14578542764E+04  0.14578542764E+04  0.00000000000E+00 0. -1.
         25    2    1    2    0    0  0.12476199203E+03  0.75622629022E+02 -0.10754925186E+04  0.10925284985E+04  0.12510006373E+03 0.  0.
          5    1    3    3  502    0  0.68557572176E+02  0.42330106508E+02 -0.21648831418E+03  0.23103385292E+03  0.41800000000E+01 0. -1.
         -5    1    3    3    0  502  0.56204419858E+02  0.33292522514E+02 -0.85900420439E+03  0.86149464562E+03  0.41800000000E+01 0. -1.
        -11    1    1    2    0    0 -0.35219841734E+02  0.21495911808E+02 -0.64599371623E+02  0.76652399116E+02  0.00000000000E+00 0. -1.
         11    1    1    2    0    0 -0.89542150300E+02 -0.97118540830E+02 -0.28883069703E+03  0.31760506797E+03  0.00000000000E+00 0.  1.
</event>
<event>
 7    1  0.2681929E-009  0.9378732E+02  0.7561462E-02  0.1293931E+00
         -1   -1    0    0    0  501 -0.00000000000E+00  0.00000000000E+00  0.11651068026E+03  0.11651068026E+03  0.00000000000E+00 0.  1.
          1   -1    0    0  501    0  0.00000000000E+00 -0.00000000000E+00 -0.12032786633E+03  0.12032786633E+03  0.00000000000E+00 0. -1.
         25    2    1    2    0    0 -0.85324065926E+01 -0.45998278365E+02  0.45859883735E+01  0.13363355633E+03  0.12509297547E+03 0.  0.
          5    1    3    3  502    0  0.36437455759E+02 -0.71559025526E+02  0.11684736434E+02  0.81255078499E+02  0.41800000000E+01 0. -1.
         -5    1    3    3    0  502 -0.44969862352E+02  0.25560747160E+02 -0.70987480608E+01  0.52378477826E+02  0.41800000000E+01 0. -1.
        -11    1    1    2    0    0 -0.92627774302E+01  0.29796412519E+02  0.39057667184E+02  0.49991265343E+02  0.00000000000E+00 0.  1.
         11    1    1    2    0    0  0.17795184023E+02  0.16201865847E+02 -0.47460841637E+02  0.53213724923E+02  0.00000000000E+00 0. -1.
</event>
<event>
 7    1  0.2594791E-009  0.1116758E+03  0.7561462E-02  0.1257498E+00
          3   -1    0    0  501    0  0.00000000000E+00  0.00000000000E+00  0.73698010301E+03  0.73698010301E+03  0.00000000000E+00 0. -1.
         -3   -1    0    0    0  501 -0.00000000000E+00 -0.00000000000E+00 -0.23675204985E+02  0.23675204985E+02  0.00000000000E+00 0.  1.
         25    2    1    2    0    0  0.52730179414E+02 -0.57870268340E+02  0.50540498164E+03  0.52650845822E+03  0.12509005286E+03 0.  0.
          5    1    3    3  502    0 -0.38749424685E+02 -0.91522003737E+01  0.92848002463E+02  0.10111134776E+03  0.41800000000E+01 0. -1.
         -5    1    3    3    0  502  0.91479604099E+02 -0.48718067966E+02  0.41255697918E+03  0.42539711046E+03  0.41800000000E+01 0. -1.
        -11    1    1    2    0    0 -0.40104876977E+02  0.33964496875E+02  0.19878796253E+03  0.20561770899E+03  0.00000000000E+00 0. -1.
         11    1    1    2    0    0 -0.12625302437E+02  0.23905771465E+02  0.91119538536E+01  0.28529140786E+02  0.00000000000E+00 0.  1.
</event>
<event>
 7    1  0.2594791E-009  0.1210030E+03  0.7561462E-02  0.1241451E+00
          2   -1    0    0  501    0  0.00000000000E+00  0.00000000000E+00  0.96640510756E+03  0.96640510756E+03  0.00000000000E+00 0.  1.
         -2   -1    0    0    0  501 -0.00000000000E+00 -0.00000000000E+00 -0.17111580444E+02  0.17111580444E+02  0.00000000000E+00 0. -1.
         25    2    1    2    0    0  0.29022051779E+01 -0.57143287896E+02  0.69172172593E+03  0.70526579068E+03  0.12508841367E+03 0.  0.
          5    1    3    3  502    0 -0.11619025764E+02 -0.95096090330E+02  0.51843439135E+03  0.52722856399E+03  0.41800000000E+01 0.  1.
         -5    1    3    3    0  502  0.14521230942E+02  0.37952802434E+02  0.17328733458E+03  0.17803722669E+03  0.41800000000E+01 0.  1.
        -11    1    1    2    0    0 -0.45292524077E+02  0.22814755900E+02  0.12492606981E+03  0.13482747770E+03  0.00000000000E+00 0.  1.
         11    1    1    2    0    0  0.42390318899E+02  0.34328531995E+02  0.13264573137E+03  0.14342341962E+03  0.00000000000E+00 0. -1.
</event>
<event>
 7    1  0.2594791E-009  0.1158960E+03  0.7561462E-02  0.1250025E+00
         -3   -1    0    0    0  501 -0.00000000000E+00  0.00000000000E+00  0.44796822169E+02  0.44796822169E+02  0.00000000000E+00 0.  1.
          3   -1    0    0  501    0  0.00000000000E+00 -0.00000000000E+00 -0.34044489145E+03  0.34044489145E+03  0.00000000000E+00 0. -1.
         25    2    1    2    0    0  0.27956625257E+02  0.50909156399E+02 -0.19652219849E+03  0.24008582752E+03  0.12508762917E+03 0.  0.
          5    1    3    3  502    0 -0.43433213380E+02 -0.41935126089E+01 -0.39731925458E+02  0.59161878546E+02  0.41800000000E+01 0.  1.
         -5    1    3    3    0  502  0.71389838637E+02  0.55102669007E+02 -0.15679027303E+03  0.18092394897E+03  0.41800000000E+01 0.  1.
        -11    1    1    2    0    0  0.22189689625E+01 -0.64531852347E+02 -0.36133114795E+02  0.73992471072E+02  0.00000000000E+00 0.  1.
         11    1    1    2    0    0 -0.30175594220E+02  0.13622695948E+02 -0.62992755991E+02  0.71163415030E+02  0.00000000000E+00 0. -1.
</event>
<event>
 7    1  0.2727740E-009  0.8059450E+02  0.7561462E-02  0.1327373E+00
          2   -1    0    0  501    0  0.00000000000E+00  0.00000000000E+00  0.30789039038E+03  0.30789039038E+03  0.00000000000E+00 0. -1.
         -2   -1    0    0    0  501 -0.00000000000E+00 -0.00000000000E+00 -0.43803845800E+02  0.43803845800E+02  0.00000000000E+00 0.  1.
         25    2    1    2    0    0  0.23358016866E+02 -0.51406772044E+00  0.20010612713E+03  0.23714419438E+03  0.12509614542E+03 0.  0.
          5    1    3    3  502    0  0.14170405641E+02  0.53964170427E+02  0.43030913300E+02  0.70583737400E+02  0.41800000000E+01 0. -1.
         -5    1    3    3    0  502  0.91876112245E+01 -0.54478238148E+02  0.15707521383E+03  0.16656045698E+03  0.41800000000E+01 0. -1.
        -11    1    1    2    0    0  0.12229108020E+02  0.63365144841E+01 -0.19350336417E+02  0.23751589804E+02  0.00000000000E+00 0.  1.
         11    1    1    2    0    0 -0.35587124886E+02 -0.58224467637E+01  0.83330753874E+02  0.90798451998E+02  0.00000000000E+00 0. -1.
</event>
<event>
 7    1  0.2594791E-009  0.2093185E+03  0.7561462E-02  0.1142107E+00
         -1   -1    0    0    0  501 -0.00000000000E+00  0.00000000000E+00  0.74634810662E+02  0.74634810662E+02  0.00000000000E+00 0.  1.
          1   -1    0    0  501    0  0.00000000000E+00 -0.00000000000E+00 -0.11744330970E+04  0.11744330970E+04  0.00000000000E+00 0. -1.
         25    2    1    2    0    0 -0.93671310267E+02  0.18478197428E+03 -0.17973169754E+03  0.30144551197E+03  0.12508885321E+03 0.  0.
          5    1    3    3  502    0 -0.40035099414E+02  0.41293687266E+02 -0.12683765149E+03  0.13933140359E+03  0.41800000000E+01 0.  1.
         -5    1    3    3    0  502 -0.53636210854E+02  0.14348828702E+03 -0.52894046050E+02  0.16211410837E+03  0.41800000000E+01 0.  1.
        -11    1    1    2    0    0  0.44739839747E+01 -0.18494097380E+02 -0.18567229751E+02  0.26585525971E+02  0.00000000000E+00 0.  1.
         11    1    1    2    0    0  0.89197326293E+02 -0.16628787690E+03 -0.90149935905E+03  0.92103686972E+03  0.00000000000E+00 0. -1.
</event>
<event>
 7    1  0.2594791E-009  0.1302398E+03  0.7561462E-02  0.1227100E+00
         -2   -1    0    0    0  501 -0.00000000000E+00  0.00000000000E+00  0.32864422923E+02  0.32864422923E+02  0.00000000000E+00 0.  1.
          2   -1    0    0  501    0  0.00000000000E+00 -0.00000000000E+00 -0.61435948483E+03  0.61435948483E+03  0.00000000000E+00 0. -1.
         25    2    1    2    0    0  0.17337846700E+02 -0.73807739225E+02 -0.43890892626E+03  0.46264091144E+03  0.12508950431E+03 0.  0.
          5    1    3    3  502    0  0.17675530542E+02  0.32620170185E+02 -0.80426507998E+02  0.88670149834E+02  0.41800000000E+01 0. -1.
         -5    1    3    3    0  502 -0.33768384228E+00 -0.10642790941E+03 -0.35848241826E+03  0.37397076160E+03  0.41800000000E+01 0. -1.
        -11    1    1    2    0    0 -0.52668463387E+02  0.56669033300E+02 -0.85639940238E+02  0.11541033634E+03  0.00000000000E+00 0. -1.
         11    1    1    2    0    0  0.35330616687E+02  0.17138705926E+02 -0.56946195411E+02  0.69172659975E+02  0.00000000000E+00 0.  1.
</event>
<event>
 7    1  0.3605578E-009  0.8170762E+02  0.7561462E-02  0.1324274E+00
         -2   -1    0    0    0  501 -0.00000000000E+00  0.00000000000E+00  0.85896533592E+02  0.85896533592E+02  0.00000000000E+00 0.  1.
          2   -1    0    0  501    0  0.00000000000E+00 -0.00000000000E+00 -0.20579336014E+03  0.20579336014E+03  0.00000000000E+00 0. -1.
         25    2    1    2    0    0  0.51828394718E+02  0.43136383039E+02 -0.10649554229E+03  0.17758211717E+03  0.12508867963E+03 0.  0.
          5    1    3    3  502    0  0.57407210900E+02  0.13042247058E+02  0.74837666262E+01  0.59490900435E+02  0.41800000000E+01 0. -1.
         -5    1    3    3    0  502 -0.55788161820E+01  0.30094135981E+02 -0.11397930891E+03  0.11809121674E+03  0.41800000000E+01 0. -1.
        -11    1    1    2    0    0 -0.37370489840E+02 -0.12122267736E+02  0.36483500167E+02  0.53614817638E+02  0.00000000000E+00 0.  1.
         11    1    1    2    0    0 -0.14457904878E+02 -0.31014115303E+02 -0.49884784425E+02  0.60492958918E+02  0.00000000000E+00 0. -1.
</event>
<event>
 7    1  0.2594791E-009  0.1485190E+03  0.7561462E-02  0.1202305E+00
         -2   -1    0    0    0  501 -0.00000000000E+00  0.00000000000E+00  0.70024729630E+02  0.70024729630E+02  0.00000000000E+00 0.  1.
          2   -1    0    0  501    0  0.00000000000E+00 -0.00000000000E+00 -0.11445884828E+04  0.11445884828E+04  0.00000000000E+00 0. -1.
         25    2    1    2    0    0 -0.11013488456E+03  0.41357001706E+02 -0.10485693596E+04  0.10625374077E+04  0.12509175252E+03 0.  0.
          5    1    3    3  502    0 -0.69134408889E+02 -0.26341113160E+02 -0.27129578881E+03  0.28123352958E+03  0.41800000000E+01 0.  1.
         -5    1    3    3    0  502 -0.41000475673E+02  0.67698114866E+02 -0.77727357079E+03  0.78130387815E+03  0.41800000000E+01 0.  1.
        -11    1    1    2    0    0  0.18706868442E+02  0.24629264001E+02  0.11880372255E+02  0.33131417372E+02  0.00000000000E+00 0.  1.
         11    1    1    2    0    0  0.91428016120E+02 -0.65986265706E+02 -0.37874765844E+02  0.11894438735E+03  0.00000000000E+00 0. -1.
</event>
<event>
 7    1  0.2594791E-009  0.9349552E+02  0.7561462E-02  0.1294601E+00
          1   -1    0    0  501    0  0.00000000000E+00  0.00000000000E+00  0.60830991043E+02  0.60830991043E+02  0.00000000000E+00 0. -1.
         -1   -1    0    0    0  501 -0.00000000000E+00 -0.00000000000E+00 -0.20793387088E+03  0.20793387088E+03  0.00000000000E+00 0.  1.
         25    2    1    2    0    0  0.73393821426E+01  0.30045341029E+02 -0.71190586693E+02  0.14721418648E+03  0.12508928019E+03 0.  0.
          5    1    3    3  502    0 -0.45550697096E+02  0.22971557280E+02  0.78206019408E+01  0.51780234303E+02  0.41800000000E+01 0. -1.
         -5    1    3    3    0  502  0.52890079238E+02  0.70737837495E+01 -0.79011188634E+02  0.95433952175E+02  0.41800000000E+01 0. -1.
        -11    1    1    2    0    0 -0.13132067002E+02 -0.55059660045E+02 -0.77332758563E+02  0.95835133928E+02  0.00000000000E+00 0.  1.
         11    1    1    2    0    0  0.57926848593E+01  0.25014319016E+02  0.14204654155E+01  0.25715541521E+02  0.00000000000E+00 0. -1.
</event>
<event>
 7    1  0.2594791E-009  0.8350805E+02  0.7561462E-02  0.1319381E+00
          1   -1    0    0  501    0  0.00000000000E+00  0.00000000000E+00  0.58066388989E+03  0.58066388989E+03  0.00000000000E+00 0. -1.
         -1   -1    0    0    0  501 -0.00000000000E+00 -0.00000000000E+00 -0.27461743720E+02  0.27461743720E+02  0.00000000000E+00 0.  1.
         25    2    1    2    0    0 -0.43295822130E+02  0.37834779236E+02  0.23958363797E+03  0.27631798115E+03  0.12508120719E+03 0.  0.
          5    1    3    3  502    0 -0.34557932542E+02  0.20926570062E+02  0.25064278034E+03  0.25391228362E+03  0.41800000000E+01 0. -1.
         -5    1    3    3    0  502 -0.87378895881E+01  0.16908209174E+02 -0.11059142374E+02  0.22405697534E+02  0.41800000000E+01 0. -1.
        -11    1    1    2    0    0  0.26197652124E+02  0.28323806645E+02  0.14020988807E+03  0.14542134545E+03  0.00000000000E+00 0.  1.
         11    1    1    2    0    0  0.17098170006E+02 -0.66158585881E+02  0.17340862014E+03  0.18638630701E+03  0.00000000000E+00 0. -1.
</event>
<event>
 7    1  0.2594791E-009  0.1621477E+03  0.7561462E-02  0.1186293E+00
          1   -1    0    0  501    0  0.00000000000E+00  0.00000000000E+00  0.95921467519E+02  0.95921467519E+02  0.00000000000E+00 0. -1.
         -1   -1    0    0    0  501 -0.00000000000E+00 -0.00000000000E+00 -0.34772078364E+03  0.34772078364E+03  0.00000000000E+00 0.  1.
         25    2    1    2    0    0 -0.14068640160E+03  0.65182293239E+00 -0.18321585137E+03  0.26269457986E+03  0.12508919068E+03 0.  0.
          5    1    3    3  502    0 -0.13718430061E+03 -0.34221896943E+02 -0.17745085585E+03  0.22692939256E+03  0.41800000000E+01 0.  1.
         -5    1    3    3    0  502 -0.35021009819E+01  0.34873719875E+02 -0.57649955263E+01  0.35765187300E+02  0.41800000000E+01 0.  1.
        -11    1    1    2    0    0  0.58834313696E+02  0.21683693507E+02 -0.72697674439E+02  0.96003181724E+02  0.00000000000E+00 0.  1.
         11    1    1    2    0    0  0.81852087899E+02 -0.22335516440E+02  0.41142096933E+01  0.84944489577E+02  0.00000000000E+00 0. -1.
</event>
<event>
 7    1  0.2594791E-009  0.1075095E+03  0.7561462E-02  0.1265253E+00
         -2   -1    0    0    0  501 -0.00000000000E+00  0.00000000000E+00  0.66948156525E+02  0.66948156525E+02  0.00000000000E+00 0.  1.
          2   -1    0    0  501    0  0.00000000000E+00 -0.00000000000E+00 -0.19349488979E+03  0.19349488979E+03  0.00000000000E+00 0. -1.
         25    2    1    2    0    0 -0.23399856022E+00  0.17291157283E+02 -0.31542948574E+02  0.13016082985E+03  0.12509134721E+03 0.  0.
          5    1    3    3  502    0  0.62132318125E+02  0.72452274839E+01 -0.20024384007E+02  0.65813118994E+02  0.41800000000E+01 0. -1.
         -5    1    3    3    0  502 -0.62366316685E+02  0.10045929799E+02 -0.11518564568E+02  0.64347710853E+02  0.41800000000E+01 0. -1.
        -11    1    1    2    0    0 -0.67764528182E+00  0.35856233393E+02 -0.34822230571E+02  0.49987162534E+02  0.00000000000E+00 0.  1.
         11    1    1    2    0    0  0.91164384204E+00 -0.53147390676E+02 -0.60181554121E+02  0.80295053937E+02  0.00000000000E+00 0. -1.
</event>
<event>
 7    1  0.2594791E-009  0.2112510E+03  0.7561462E-02  0.1140579E+00
         -2   -1    0    0    0  501 -0.00000000000E+00  0.00000000000E+00  0.99029425686E+02  0.99029425686E+02  0.00000000000E+00 0.  1.
          2   -1    0    0  501    0  0.00000000000E+00 -0.00000000000E+00 -0.48574619972E+03  0.48574619972E+03  0.00000000000E+00 0. -1.
         25    2    1    2    0    0  0.18167221804E+03 -0.53385788473E+02 -0.20851579265E+03  0.30818962853E+03  0.12508866507E+03 0.  0.
          5    1    3    3  502    0  0.16803640852E+03 -0.78050195026E+02 -0.20946801464E+03  0.27968265783E+03  0.41800000000E+01 0.  1.
         -5    1    3    3    0  502  0.13635809525E+02  0.24664406553E+02  0.95222198785E+00  0.28506970704E+02  0.41800000000E+01 0.  1.
        -11    1    1    2    0    0 -0.14532439366E+03  0.77858177904E+02 -0.15793475302E+03  0.22830782175E+03  0.00000000000E+00 0.  1.
         11    1    1    2    0    0 -0.36347824381E+02 -0.24472389431E+02 -0.20266228359E+02  0.48278175127E+02  0.00000000000E+00 0. -1.
</event>
<event>
 7    1  0.2594791E-009  0.6890256E+02  0.7561462E-02  0.1363865E+00
         -1   -1    0    0    0  501 -0.00000000000E+00  0.00000000000E+00  0.11821275118E+03  0.11821275118E+03  0.00000000000E+00 0.  1.
          1   -1    0    0  501    0  0.00000000000E+00 -0.00000000000E+00 -0.12559140800E+03  0.12559140800E+03  0.00000000000E+00 0. -1.
         25    2    1    2    0    0  0.59146153352E+01 -0.14881210052E+02  0.47112907610E+02  0.13463126376E+03  0.12509803368E+03 0.  0.
          5    1    3    3  502    0  0.21044284442E+02 -0.18522822916E+02 -0.38335744660E+02  0.47676604274E+02  0.41800000000E+01 0.  1.
         -5    1    3    3    0  502 -0.15129669107E+02  0.36416128638E+01  0.85448652270E+02  0.86954659486E+02  0.41800000000E+01 0.  1.
        -11    1    1    2    0    0 -0.43720984051E+02  0.29576060348E+02 -0.21934284320E+02  0.57161006121E+02  0.00000000000E+00 0.  1.
         11    1    1    2    0    0  0.37806368715E+02 -0.14694850297E+02 -0.32557280108E+02  0.52011889302E+02  0.00000000000E+00 0. -1.
</event>
<event>
 7    1  0.2594791E-009  0.5942821E+02  0.7561462E-02  0.1400247E+00
         -2   -1    0    0    0  501 -0.00000000000E+00  0.00000000000E+00  0.37003259468E+02  0.37003259468E+02  0.00000000000E+00 0. -1.
          2   -1    0    0  501    0  0.00000000000E+00 -0.00000000000E+00 -0.53922449065E+03  0.53922449065E+03  0.00000000000E+00 0.  1.
         25    2    1    2    0    0  0.23853633612E+02  0.78262475194E+01 -0.98394875130E+02  0.16111904789E+03  0.12509016810E+03 0.  0.
          5    1    3    3  502    0  0.16113802803E+02  0.80771431852E+01  0.28467183887E+02  0.33952140452E+02  0.41800000000E+01 0.  1.
         -5    1    3    3    0  502  0.77398308095E+01 -0.25089566582E+00 -0.12686205902E+03  0.12716690744E+03  0.41800000000E+01 0.  1.
        -11    1    1    2    0    0  0.21672903444E+01 -0.45618098616E+02 -0.26471528736E+03  0.26862593217E+03  0.00000000000E+00 0.  1.
         11    1    1    2    0    0 -0.26020923957E+02  0.37791851096E+02 -0.13911106869E+03  0.14648277006E+03  0.00000000000E+00 0. -1.
</event>
<event>
 7    1  0.2594791E-009  0.2502411E+03  0.7561462E-02  0.1113153E+00
         -1   -1    0    0    0  501 -0.00000000000E+00  0.00000000000E+00  0.10219118753E+03  0.10219118753E+03  0.00000000000E+00 0.  1.
          1   -1    0    0  501    0  0.00000000000E+00 -0.00000000000E+00 -0.11124964321E+04  0.11124964321E+04  0.00000000000E+00 0. -1.
         25    2    1    2    0    0 -0.44095502835E+01 -0.24295840245E+03 -0.88481207581E+03  0.92606200325E+03  0.12510073904E+03 0.  0.
          5    1    3    3  502    0 -0.39800981700E+02 -0.12252546930E+03 -0.61621526921E+03  0.62955169698E+03  0.41800000000E+01 0. -1.
         -5    1    3    3    0  502  0.35391431416E+02 -0.12043293315E+03 -0.26859680660E+03  0.29651030626E+03  0.41800000000E+01 0. -1.
        -11    1    1    2    0    0  0.12040194665E+02  0.23362894471E+03 -0.13771193651E+03  0.27146275537E+03  0.00000000000E+00 0.  1.
         11    1    1    2    0    0 -0.76306443815E+01  0.93294577311E+01  0.12218767706E+02  0.17162861052E+02  0.00000000000E+00 0. -1.
</event>
<event>
 7    1  0.2594791E-009  0.1217043E+03  0.7561462E-02  0.1240312E+00
          2   -1    0    0  501    0  0.00000000000E+00  0.00000000000E+00  0.13828969609E+04  0.13828969609E+04  0.00000000000E+00 0. -1.
         -2   -1    0    0    0  501 -0.00000000000E+00 -0.00000000000E+00 -0.17254520982E+02  0.17254520982E+02  0.00000000000E+00 0.  1.
         25    2    1    2    0    0  0.59116754352E+02  0.21157027653E+01  0.11680233177E+04  0.11761909333E+04  0.12508946355E+03 0.  0.
          5    1    3    3  502    0 -0.16364793418E+02 -0.45693461550E+02  0.44330130108E+03  0.44596997077E+03  0.41800000000E+01 0.  1.
         -5    1    3    3    0  502  0.75481547770E+02  0.47809164315E+02  0.72472201665E+03  0.73022096249E+03  0.41800000000E+01 0.  1.
        -11    1    1    2    0    0 -0.14678432139E+02 -0.42646137245E+02  0.90293783305E+02  0.10093124737E+03  0.00000000000E+00 0. -1.
         11    1    1    2    0    0 -0.44438322213E+02  0.40530434480E+02  0.10732533892E+03  0.12302930129E+03  0.00000000000E+00 0.  1.
</event>
<event>
 7    1  0.2594791E-009  0.1176746E+03  0.7561462E-02  0.1246983E+00
          1   -1    0    0  501    0  0.00000000000E+00  0.00000000000E+00  0.84044132377E+03  0.84044132377E+03  0.00000000000E+00 0. -1.
         -1   -1    0    0    0  501 -0.00000000000E+00 -0.00000000000E+00 -0.19417840897E+02  0.19417840897E+02  0.00000000000E+00 0.  1.
         25    2    1    2    0    0  0.50310144058E+02  0.45408196904E+02  0.54406690774E+03  0.56235969692E+03  0.12508642488E+03 0.  0.
          5    1    3    3  502    0 -0.20835984643E+02  0.63687592554E+02  0.21849925714E+03  0.22858181352E+03  0.41800000000E+01 0. -1.
         -5    1    3    3    0  502  0.71146128701E+02 -0.18279395650E+02  0.32556765059E+03  0.33377788340E+03  0.41800000000E+01 0. -1.
        -11    1    1    2    0    0 -0.65860543298E+02 -0.28800452736E+02  0.25818144578E+03  0.26800137348E+03  0.00000000000E+00 0. -1.
         11    1    1    2    0    0  0.15550399240E+02 -0.16607744168E+02  0.18775129354E+02  0.29498094263E+02  0.00000000000E+00 0.  1.
</event>
<event>
 7    1  0.2594791E-009  0.1073186E+03  0.7561462E-02  0.1265617E+00
          2   -1    0    0  501    0  0.00000000000E+00  0.00000000000E+00  0.56065605571E+02  0.56065605571E+02  0.00000000000E+00 0.  1.
         -2   -1    0    0    0  501 -0.00000000000E+00 -0.00000000000E+00 -0.29117722204E+03  0.29117722204E+03  0.00000000000E+00 0. -1.
         25    2    1    2    0    0  0.31673455968E+02 -0.39014644879E+02 -0.10776901306E+03  0.17259052496E+03  0.12509188144E+03 0.  0.
          5    1    3    3  502    0 -0.12373253989E+02  0.37869130447E+02 -0.11481853429E+02  0.41671018865E+02  0.41800000000E+01 0.  1.
         -5    1    3    3    0  502  0.44046709957E+02 -0.76883775326E+02 -0.96287159632E+02  0.13091950610E+03  0.41800000000E+01 0.  1.
        -11    1    1    2    0    0 -0.33256229574E+02  0.57980946563E+02 -0.26294289922E+02  0.71827269559E+02  0.00000000000E+00 0.  1.
         11    1    1    2    0    0  0.15827736059E+01 -0.18966301683E+02 -0.10104831349E+03  0.10282503309E+03  0.00000000000E+00 0. -1.
</event>
<event>
 7    1  0.2594791E-009  0.9174721E+02  0.7561462E-02  0.1298675E+00
         -2   -1    0    0    0  501 -0.00000000000E+00  0.00000000000E+00  0.38005576883E+03  0.38005576883E+03  0.00000000000E+00 0.  1.
          2   -1    0    0  501    0  0.00000000000E+00 -0.00000000000E+00 -0.33136179814E+02  0.33136179814E+02  0.00000000000E+00 0. -1.
         25    2    1    2    0    0  0.21250850913E+02 -0.59632548445E+01  0.21913063698E+03  0.25328421409E+03  0.12508995952E+03 0.  0.
          5    1    3    3  502    0 -0.13553662974E+02 -0.50699825956E+02  0.17063291864E+03  0.17856998475E+03  0.41800000000E+01 0.  1.
         -5    1    3    3    0  502  0.34804513887E+02  0.44736571111E+02  0.48497718338E+02  0.74714229339E+02  0.41800000000E+01 0.  1.
        -11    1    1    2    0    0  0.26196542916E+02  0.42165946200E+01  0.33819308000E+01  0.26748382883E+02  0.00000000000E+00 0. -1.
         11    1    1    2    0    0 -0.47447393829E+02  0.17466602245E+01  0.12440702124E+03  0.13315935167E+03  0.00000000000E+00 0.  1.
</event>
<event>
 7    1  0.2594791E-009  0.8463181E+02  0.7561462E-02  0.1316398E+00
          2   -1    0    0  501    0  0.00000000000E+00  0.00000000000E+00  0.30233088804E+03  0.30233088804E+03  0.00000000000E+00 0.  1.
         -2   -1    0    0    0  501 -0.00000000000E+00 -0.00000000000E+00 -0.45373949453E+02  0.45373949453E+02  0.00000000000E+00 0. -1.
         25    2    1    2    0    0 -0.34280678981E+02 -0.32034004993E+02  0.16684520891E+03  0.21373978103E+03  0.12508408306E+03 0.  0.
          5    1    3    3  502    0 -0.49977862367E+02 -0.40704904910E+02  0.22763092248E+02  0.68485814438E+02  0.41800000000E+01 0.  1.
         -5    1    3    3    0  502  0.15697183386E+02  0.86708999169E+01  0.14408211666E+03  0.14525396660E+03  0.41800000000E+01 0.  1.
        -11    1    1    2    0    0 -0.15259585649E+02  0.33376567605E+02  0.72698099563E+02  0.81436256664E+02  0.00000000000E+00 0.  1.
         11    1    1    2    0    0  0.49540264630E+02 -0.13425626122E+01  0.17413630119E+02  0.52528799795E+02  0.00000000000E+00 0. -1.
</event>
<event>
 7    1  0.2594791E-009  0.1185668E+03  0.7561462E-02  0.1245480E+00
          1   -1    0    0  501    0  0.00000000000E+00  0.00000000000E+00  0.15158814306E+03  0.15158814306E+03  0.00000000000E+00 0. -1.
         -1   -1    0    0    0  501 -0.00000000000E+00 -0.00000000000E+00 -0.14870943229E+03  0.14870943229E+03  0.00000000000E+00 0.  1.
         25    2    1    2    0    0  0.28612953917E+02  0.98063613289E+02 -0.15554234298E+02  0.16224829076E+03  0.12508956897E+03 0.  0.
          5    1    3    3  502    0  0.10563796620E+02  0.62092793153E+01 -0.57965054429E+02  0.59393340397E+02  0.41800000000E+01 0. -1.
         -5    1    3    3    0  502  0.18049157297E+02  0.91854333974E+02  0.42410820131E+02  0.10285495036E+03  0.41800000000E+01 0. -1.
        -11    1    1    2    0    0 -0.14370535430E+02  0.12475153602E+02  0.18580652164E+02  0.26596661084E+02  0.00000000000E+00 0. -1.
         11    1    1    2    0    0 -0.14242418487E+02 -0.11053876689E+03 -0.14770710201E+00  0.11145262351E+03  0.00000000000E+00 0.  1.
</event>
<event>
 7    1  0.2594791E-009  0.1007834E+03  0.7561462E-02  0.1278657E+00
          2   -1    0    0  501    0  0.00000000000E+00  0.00000000000E+00  0.67758760983E+02  0.67758760983E+02  0.00000000000E+00 0.  1.
         -2   -1    0    0    0  501 -0.00000000000E+00 -0.00000000000E+00 -0.21866876087E+03  0.21866876087E+03  0.00000000000E+00 0. -1.
         25    2    1    2    0    0  0.55847184234E+02 -0.44738166672E+00 -0.83731415662E+02  0.16055322377E+03  0.12508908648E+03 0.  0.
          5    1    3    3  502    0 -0.13222562419E+02 -0.30568231413E+02 -0.77943315173E+02  0.84863924661E+02  0.41800000000E+01 0.  1.
         -5    1    3    3    0  502  0.69069746654E+02  0.30120849747E+02 -0.57881004886E+01  0.75689299108E+02  0.41800000000E+01 0.  1.
        -11    1    1    2    0    0 -0.31002246379E+01  0.31281127261E+02 -0.55333149252E+02  0.63638649590E+02  0.00000000000E+00 0. -1.
         11    1    1    2    0    0 -0.52746959596E+02 -0.30833745595E+02 -0.11845434976E+02  0.62235648497E+02  0.00000000000E+00 0.  1.
</event>
<event>
 7    1  0.2594791E-009  0.1352639E+03  0.7561462E-02  0.1219848E+00
         -1   -1    0    0    0  501 -0.00000000000E+00  0.00000000000E+00  0.42266296562E+03  0.42266296562E+03  0.00000000000E+00 0.  1.
          1   -1    0    0  501    0  0.00000000000E+00 -0.00000000000E+00 -0.62498325804E+02  0.62498325804E+02  0.00000000000E+00 0. -1.
         25    2    1    2    0    0  0.69464203796E+02  0.97983455643E+02  0.18416189336E+03  0.25296027544E+03  0.12508902747E+03 0.  0.
          5    1    3    3  502    0  0.16095453373E+02  0.36399879591E+02 -0.10935946424E+02  0.41485927466E+02  0.41800000000E+01 0.  1.
         -5    1    3    3    0  502  0.53368750423E+02  0.61583576052E+02  0.19509783979E+03  0.21147434797E+03  0.41800000000E+01 0.  1.
        -11    1    1    2    0    0 -0.55929984706E+01 -0.83152850062E+02  0.11921869430E+03  0.14546056227E+03  0.00000000000E+00 0.  1.
         11    1    1    2    0    0 -0.63871205326E+02 -0.14830605581E+02  0.56784052155E+02  0.86740453716E+02  0.00000000000E+00 0. -1.
</event>
<event>
 7    1  0.2594791E-009  0.1261644E+03  0.7561462E-02  0.1233261E+00
          2   -1    0    0  501    0  0.00000000000E+00  0.00000000000E+00  0.11893697806E+04  0.11893697806E+04  0.00000000000E+00 0. -1.
         -2   -1    0    0    0  501 -0.00000000000E+00 -0.00000000000E+00 -0.14010217247E+02  0.14010217247E+02  0.00000000000E+00 0.  1.
         25    2    1    2    0    0 -0.40200211966E+02 -0.53422044204E+02  0.74918998561E+03  0.76249886049E+03  0.12509558690E+03 0.  0.
          5    1    3    3  502    0  0.30929381268E+02 -0.61268559802E+02  0.31356735908E+03  0.32101779410E+03  0.41800000000E+01 0. -1.
         -5    1    3    3    0  502 -0.71129593234E+02  0.78465155977E+01  0.43562262653E+03  0.44148106639E+03  0.41800000000E+01 0. -1.
        -11    1    1    2    0    0  0.43024056555E+02  0.76964947887E+02  0.35825479121E+03  0.36894602325E+03  0.00000000000E+00 0. -1.
         11    1    1    2    0    0 -0.28238445891E+01 -0.23542903683E+02  0.67914786563E+02  0.71935114137E+02  0.00000000000E+00 0.  1.
</event>
<event>
 7    1  0.2594791E-009  0.8658430E+02  0.7561462E-02  0.1311341E+00
          4   -1    0    0  501    0  0.00000000000E+00  0.00000000000E+00  0.23717734304E+02  0.23717734304E+02  0.00000000000E+00 0. -1.
         -4   -1    0    0    0  501 -0.00000000000E+00 -0.00000000000E+00 -0.48588124949E+03  0.48588124949E+03  0.00000000000E+00 0.  1.
         25    2    1    2    0    0 -0.18552075999E+01  0.24232232999E+02 -0.28388030875E+03  0.31116917004E+03  0.12509028650E+03 0.  0.
          5    1    3    3  502    0  0.46959090704E+02  0.53303902424E+01 -0.41090180251E+02  0.62764994806E+02  0.41800000000E+01 0. -1.
         -5    1    3    3    0  502 -0.48814298304E+02  0.18901842756E+02 -0.24279012850E+03  0.24840417524E+03  0.41800000000E+01 0. -1.
        -11    1    1    2    0    0 -0.12465406652E+02  0.21739685385E+02 -0.12113909155E+03  0.12370400068E+03  0.00000000000E+00 0.  1.
         11    1    1    2    0    0  0.14320614252E+02 -0.45971918383E+02 -0.57144114882E+02  0.74725813064E+02  0.00000000000E+00 0. -1.
</event>
<event>
 7    1  0.2594791E-009  0.1338809E+03  0.7561462E-02  0.1221808E+00
         -1   -1    0    0    0  501 -0.00000000000E+00  0.00000000000E+00  0.64385220938E+02  0.64385220938E+02  0.00000000000E+00 0.  1.
          1   -1    0    0  501    0  0.00000000000E+00 -0.00000000000E+00 -0.32309942648E+03  0.32309942648E+03  0.00000000000E+00 0. -1.
         25    2    1    2    0    0  0.74477335960E+02  0.53452837434E+02 -0.16783895599E+03  0.22851900684E+03  0.12508773696E+03 0.  0.
          5    1    3    3  502    0  0.16559641607E+02 -0.39808069957E+02 -0.64481524553E+02  0.77680393746E+02  0.41800000000E+01 0. -1.
         -5    1    3    3    0  502  0.57917694353E+02  0.93260907391E+02 -0.10335743144E+03  0.15083861309E+03  0.41800000000E+01 0. -1.
        -11    1    1    2    0    0  0.11910021634E+02 -0.17145533174E+02  0.83517691780E+01  0.22484883178E+02  0.00000000000E+00 0.  1.
         11    1    1    2    0    0 -0.86387357594E+02 -0.36307304260E+02 -0.99227018727E+02  0.13648075740E+03  0.00000000000E+00 0. -1.
</event>
<event>
 7    1  0.2594791E-009  0.1495028E+03  0.7561462E-02  0.1201085E+00
          2   -1    0    0  501    0  0.00000000000E+00  0.00000000000E+00  0.98920189674E+03  0.98920189674E+03  0.00000000000E+00 0. -1.
         -2   -1    0    0    0  501 -0.00000000000E+00 -0.00000000000E+00 -0.36878249504E+02  0.36878249504E+02  0.00000000000E+00 0.  1.
         25    2    1    2    0    0 -0.76571393651E+02  0.80686210672E+02  0.80066666120E+03  0.81797693572E+03  0.12508286091E+03 0.  0.
          5    1    3    3  502    0 -0.69818610018E+02 -0.13375031494E+02  0.28652228257E+03  0.29523892119E+03  0.41800000000E+01 0.  1.
         -5    1    3    3    0  502 -0.67527836332E+01  0.94061242165E+02  0.51414437863E+03  0.52273801453E+03  0.41800000000E+01 0.  1.
        -11    1    1    2    0    0 -0.64089334856E+01 -0.40853622004E+02  0.84779067786E+02  0.94327001405E+02  0.00000000000E+00 0. -1.
         11    1    1    2    0    0  0.82980327137E+02 -0.39832588667E+02  0.66877918244E+02  0.11377620911E+03  0.00000000000E+00 0.  1.
</event>
<event>
 7    1  0.2594791E-009  0.9918037E+02  0.7561462E-02  0.1282029E+00
         -2   -1    0    0    0  501 -0.00000000000E+00  0.00000000000E+00  0.19997926132E+03  0.19997926132E+03  0.00000000000E+00 0.  1.
          2   -1    0    0  501    0  0.00000000000E+00 -0.00000000000E+00 -0.73860608339E+02  0.73860608339E+02  0.00000000000E+00 0. -1.
         25    2    1    2    0    0 -0.35037052476E+02 -0.46241790668E+02  0.61164328471E+02  0.15084119492E+03  0.12508434257E+03 0.  0.
          5    1    3    3  502    0  0.19954742206E+02  0.30369695493E+02  0.39801011368E+02  0.54056480155E+02  0.41800000000E+01 0. -1.
         -5    1    3    3    0  502 -0.54991794682E+02 -0.76611486161E+02  0.21363317103E+02  0.96784714763E+02  0.41800000000E+01 0. -1.
        -11    1    1    2    0    0  0.41659262673E+02  0.35342250506E+02 -0.21692358999E+01  0.54674257394E+02  0.00000000000E+00 0. -1.
         11    1    1    2    0    0 -0.66222101971E+01  0.10899540162E+02  0.67123560413E+02  0.68324417349E+02  0.00000000000E+00 0.  1.
</event>
<event>
 7    1  0.2594791E-009  0.1358938E+03  0.7561462E-02  0.1218963E+00
          1   -1    0    0  501    0  0.00000000000E+00  0.00000000000E+00  0.30040449486E+03  0.30040449486E+03  0.00000000000E+00 0. -1.
         -1   -1    0    0    0  501 -0.00000000000E+00 -0.00000000000E+00 -0.10206997398E+03  0.10206997398E+03  0.00000000000E+00 0.  1.
         25    2    1    2    0    0 -0.42525366812E+02 -0.81011754884E+02  0.22312100148E+03  0.27165607074E+03  0.12507089276E+03 0.  0.
          5    1    3    3  502    0 -0.23212865359E+02  0.31609285956E+02  0.72720660932E+02  0.82726966602E+02  0.41800000000E+01 0.  1.
         -5    1    3    3    0  502 -0.19312501453E+02 -0.11262104084E+03  0.15040034055E+03  0.18892910414E+03  0.41800000000E+01 0.  1.
        -11    1    1    2    0    0 -0.21401532223E+02  0.25944870394E+02 -0.31626909317E+02  0.46167339908E+02  0.00000000000E+00 0.  1.
         11    1    1    2    0    0  0.63926899035E+02  0.55066884489E+02  0.68404287131E+01  0.84651058189E+02  0.00000000000E+00 0. -1.
</event>
<event>
 7    1  0.2594791E-009  0.1335781E+03  0.7561462E-02  0.1222241E+00
          2   -1    0    0  501    0  0.00000000000E+00  0.00000000000E+00  0.36523431966E+04  0.36523431966E+04  0.00000000000E+00 0. -1.
         -2   -1    0    0    0  501 -0.00000000000E+00 -0.00000000000E+00 -0.18126243939E+02  0.18126243939E+02  0.00000000000E+00 0.  1.
         25    2    1    2    0    0 -0.41963988622E+02  0.86778801598E+02  0.33829922764E+04  0.33866762806E+04  0.12509176883E+03 0.  0.
          5    1    3    3  502    0 -0.63306507701E+02  0.19343333372E+02  0.24878717913E+04  0.24887557937E+04  0.41800000000E+01 0.  1.
         -5    1    3    3    0  502  0.21342519079E+02  0.67435468226E+02  0.89512048512E+03  0.89792048689E+03  0.41800000000E+01 0.  1.
        -11    1    1    2    0    0 -0.20072746373E+02  0.35584912007E+01  0.60305701683E+02  0.63658115446E+02  0.00000000000E+00 0.  1.
         11    1    1    2    0    0  0.62036734995E+02 -0.90337292799E+02  0.19091897453E+03  0.22013504445E+03  0.00000000000E+00 0. -1.
</event>
<event>
 7    1  0.2594791E-009  0.9781258E+02  0.7561462E-02  0.1284964E+00
          2   -1    0    0  501    0  0.00000000000E+00  0.00000000000E+00  0.56529811948E+02  0.56529811948E+02  0.00000000000E+00 0.  1.
         -2   -1    0    0    0  501 -0.00000000000E+00 -0.00000000000E+00 -0.29069804049E+03  0.29069804049E+03  0.00000000000E+00 0. -1.
         25    2    1    2    0    0  0.36114963462E+02  0.15146440451E+02 -0.20550108646E+03  0.24374535960E+03  0.12508956211E+03 0.  0.
          5    1    3    3  502    0 -0.43866661416E+02 -0.51880003316E+01 -0.10252907794E+03  0.11171787482E+03  0.41800000000E+01 0. -1.
         -5    1    3    3    0  502  0.79981624877E+02  0.20334440783E+02 -0.10297200852E+03  0.13202748479E+03  0.41800000000E+01 0. -1.
        -11    1    1    2    0    0 -0.50408926406E+02 -0.18915583941E+02 -0.52652922648E+02  0.75307300049E+02  0.00000000000E+00 0. -1.
         11    1    1    2    0    0  0.14293962945E+02  0.37691434899E+01  0.23985780563E+02  0.28175192786E+02  0.00000000000E+00 0.  1.
</event>
<event>
 7    1  0.2594791E-009  0.8320253E+02  0.7561462E-02  0.1320201E+00
         -2   -1    0    0    0  501 -0.00000000000E+00  0.00000000000E+00  0.13742935624E+03  0.13742935624E+03  0.00000000000E+00 0. -1.
          2   -1    0    0  501    0  0.00000000000E+00 -0.00000000000E+00 -0.14749797388E+03  0.14749797388E+03  0.00000000000E+00 0.  1.
         25    2    1    2    0    0 -0.89800327128E+01 -0.53985872440E+02 -0.80132666318E+02  0.15829538513E+03  0.12506426081E+03 0.  0.
          5    1    3    3  502    0 -0.47216551781E+02 -0.35841671229E+01 -0.82092941685E+02  0.94862914200E+02  0.41800000000E+01 0. -1.
         -5    1    3    3    0  502  0.38236519069E+02 -0.50401705317E+02  0.19602753673E+01  0.63432470935E+02  0.41800000000E+01 0. -1.
        -11    1    1    2    0    0 -0.13213351298E+01  0.17623500714E+02 -0.21348713120E+02  0.27714639739E+02  0.00000000000E+00 0.  1.
         11    1    1    2    0    0  0.10301367843E+02  0.36362371726E+02  0.91412761795E+02  0.98917305240E+02  0.00000000000E+00 0. -1.
</event>
<event>
 7    1  0.2594791E-009  0.5951261E+02  0.7561462E-02  0.1399889E+00
          3   -1    0    0  501    0  0.00000000000E+00  0.00000000000E+00  0.20944822707E+03  0.20944822707E+03  0.00000000000E+00 0. -1.
         -3   -1    0    0    0  501 -0.00000000000E+00 -0.00000000000E+00 -0.54178975671E+02  0.54178975671E+02  0.00000000000E+00 0.  1.
         25    2    1    2    0    0 -0.11171146502E+02  0.28437399987E+02  0.74438815318E+02  0.14873502710E+03  0.12508993096E+03 0.  0.
          5    1    3    3  502    0 -0.19035988506E+02 -0.23881579881E+01  0.10355932342E+03  0.10540435486E+03  0.41800000000E+01 0.  1.
         -5    1    3    3    0  502  0.78648420043E+01  0.30825557975E+02 -0.29120508102E+02  0.43330672235E+02  0.41800000000E+01 0.  1.
        -11    1    1    2    0    0 -0.17497749896E+02 -0.33871450104E+02  0.11736946928E+02  0.39889877247E+02  0.00000000000E+00 0.  1.
         11    1    1    2    0    0  0.28668896397E+02  0.54340501172E+01  0.69093489155E+02  0.75002298398E+02  0.00000000000E+00 0. -1.
</event>
<event>
 7    1  0.2594791E-009  0.9450234E+02  0.7561462E-02  0.1292301E+00
          2   -1    0    0  501    0  0.00000000000E+00  0.00000000000E+00  0.17950828920E+03  0.17950828920E+03  0.00000000000E+00 0.  1.
         -2   -1    0    0    0  501 -0.00000000000E+00 -0.00000000000E+00 -0.71826183928E+02  0.71826183928E+02  0.00000000000E+00 0. -1.
         25    2    1    2    0    0 -0.59061394032E+01  0.23607597038E+02  0.48420197855E+02  0.13632655783E+03  0.12509282029E+03 0.  0.
          5    1    3    3  502    0  0.26182635603E+02  0.55723687982E+02 -0.96896379234E+01  0.62466161180E+02  0.41800000000E+01 0. -1.
         -5    1    3    3    0  502 -0.32088775007E+02 -0.32116090944E+02  0.58109835778E+02  0.73860396649E+02  0.41800000000E+01 0. -1.
        -11    1    1    2    0    0 -0.24739034191E+02  0.17591648929E+02 -0.70268060044E+01  0.31158657342E+02  0.00000000000E+00 0. -1.
         11    1    1    2    0    0  0.30645173594E+02 -0.41199245967E+02  0.66288713421E+02  0.83849257957E+02  0.00000000000E+00 0.  1.
</event>
<event>
 6    1  0.2594791E-009  0.1765364E+03  0.7561462E-02  0.1171198E+00
         -2   -1    0    0    0  501 -0.00000000000E+00  0.00000000000E+00  0.22017767140E+02  0.22017767140E+02  0.00000000000E+00 0.  1.
          2   -1    0    0  501    0  0.00000000000E+00 -0.00000000000E+00 -0.19711102760E+04  0.19711102760E+04  0.00000000000E+00 0. -1.
          5    1    1    2  502    0  0.98796783194E+02  0.10966611623E+03 -0.13216898405E+04  0.13299131431E+04  0.41800000000E+01 0.  1.
         -5    1    1    2    0  502  0.78923594460E+01  0.14877304593E+02 -0.16251192159E+02  0.23773875918E+02  0.41800000000E+01 0.  1.
        -11    1    1    2    0    0 -0.11992615669E+03 -0.86754614039E+02 -0.47580767431E+03  0.49829869461E+03  0.00000000000E+00 0. -1.
         11    1    1    2    0    0  0.13237014049E+02 -0.37788806786E+02 -0.13534380191E+03  0.14114232949E+03  0.00000000000E+00 0.  1.
</event>
<event>
 7    1  0.2594791E-009  0.1713754E+03  0.7561462E-02  0.1176421E+00
         -2   -1    0    0    0  501 -0.00000000000E+00  0.00000000000E+00  0.31594574757E+02  0.31594574757E+02  0.00000000000E+00 0.  1.
          2   -1    0    0  501    0  0.00000000000E+00 -0.00000000000E+00 -0.13018132972E+04  0.13018132972E+04  0.00000000000E+00 0. -1.
         25    2    1    2    0    0  0.39740210402E+02 -0.16161683567E+03 -0.79037425108E+03  0.81733607528E+03  0.12509003676E+03 0.  0.
          5    1    3    3  502    0  0.27976316123E+02 -0.15126606220E+03 -0.78545646873E+03  0.80038955047E+03  0.41800000000E+01 0. -1.
         -5    1    3    3    0  502  0.11763894279E+02 -0.10350773466E+02 -0.49177823513E+01  0.16946524812E+02  0.41800000000E+01 0. -1.
        -11    1    1    2    0    0 -0.10800208343E+02  0.27237722913E+01 -0.15509178906E+01  0.11245833986E+02  0.00000000000E+00 0.  1.
         11    1    1    2    0    0 -0.28940002059E+02  0.15889306338E+03 -0.47829355347E+03  0.50482596268E+03  0.00000000000E+00 0. -1.
</event>
<event>
 7    1  0.2594791E-009  0.1131182E+03  0.7561462E-02  0.1254902E+00
          2   -1    0    0  501    0  0.00000000000E+00  0.00000000000E+00  0.29508721667E+02  0.29508721667E+02  0.00000000000E+00 0. -1.
         -2   -1    0    0    0  501 -0.00000000000E+00 -0.00000000000E+00 -0.51319769068E+03  0.51319769068E+03  0.00000000000E+00 0.  1.
         25    2    1    2    0    0 -0.26809988894E+02  0.46028454981E+02 -0.21247906399E+03  0.25225307814E+03  0.12508744392E+03 0.  0.
          5    1    3    3  502    0 -0.59187639004E+02  0.62396536597E+02 -0.90467777566E+02  0.12489353693E+03  0.41800000000E+01 0.  1.
         -5    1    3    3    0  502  0.32377650110E+02 -0.16368081616E+02 -0.12201128642E+03  0.12735954121E+03  0.41800000000E+01 0.  1.
        -11    1    1    2    0    0 -0.14207418821E+02  0.20806485767E+02 -0.76658923603E+02  0.80692943728E+02  0.00000000000E+00 0.  1.
         11    1    1    2    0    0  0.41017407716E+02 -0.66834940748E+02 -0.19455098143E+03  0.20976039048E+03  0.00000000000E+00 0. -1.
</event>
<event>
 7    1  0.2594791E-009  0.1065753E+03  0.7561462E-02  0.1267047E+00
         -1   -1    0    0    0  501 -0.00000000000E+00  0.00000000000E+00  0.19425635988E+03  0.19425635988E+03  0.00000000000E+00 0.  1.
          1   -1    0    0  501    0  0.00000000000E+00 -0.00000000000E+00 -0.85537535390E+02  0.85537535390E+02  0.00000000000E+00 0. -1.
         25    2    1    2    0    0 -0.63284761093E+02 -0.16860166153E+02  0.25360546204E+02  0.14345136085E+03  0.12508360978E+03 0.  0.
          5    1    3    3  502    0 -0.82983547154E+02 -0.19524958416E+02  0.59277263308E+02  0.10391707966E+03  0.41800000000E+01 0. -1.
         -5    1    3    3    0  502  0.19698786061E+02  0.26647922634E+01 -0.33916717103E+02  0.39534281189E+02  0.41800000000E+01 0. -1.
        -11    1    1    2    0    0  0.73645150998E+02  0.38786680590E+02  0.59429606155E+02  0.10227361803E+03  0.00000000000E+00 0. -1.
         11    1    1    2    0    0 -0.10360389904E+02 -0.21926514437E+02  0.23928672126E+02  0.34068916390E+02  0.00000000000E+00 0.  1.
</event>
<event>
 7    1  0.2594791E-009  0.8845834E+02  0.7561462E-02  0.1306629E+00
         -2   -1    0    0    0  501 -0.00000000000E+00  0.00000000000E+00  0.11330507088E+03  0.11330507088E+03  0.00000000000E+00 0. -1.
          2   -1    0    0  501    0  0.00000000000E+00 -0.00000000000E+00 -0.20994965425E+03  0.20994965425E+03  0.00000000000E+00 0.  1.
         25    2    1    2    0    0 -0.58327430970E+02 -0.64077932920E+02  0.18560582031E+02  0.15330082348E+03  0.12509427079E+03 0.  0.
          5    1    3    3  502    0 -0.37270757473E+02 -0.49616341702E+02  0.71261588988E+02  0.94586347807E+02  0.41800000000E+01 0.  1.
         -5    1    3    3    0  502 -0.21056673497E+02 -0.14461591218E+02 -0.52701006957E+02  0.58714475673E+02  0.41800000000E+01 0.  1.
        -11    1    1    2    0    0  0.31749573669E+02  0.48684531788E+02 -0.82852641298E+01  0.58710004814E+02  0.00000000000E+00 0. -1.
         11    1    1    2    0    0  0.26577857301E+02  0.15393401132E+02 -0.10691990127E+03  0.11124389684E+03  0.00000000000E+00 0.  1.
</event>
<event>
 7    1  0.2594791E-009  0.1080443E+03  0.7561462E-02  0.1264235E+00
         -1   -1    0    0    0  501 -0.00000000000E+00  0.00000000000E+00  0.14800542994E+03  0.14800542994E+03  0.00000000000E+00 0.  1.
          1   -1    0    0  501    0  0.00000000000E+00 -0.00000000000E+00 -0.17234010308E+03  0.17234010308E+03  0.00000000000E+00 0. -1.
         25    2    1    2    0    0 -0.26872510913E+01 -0.10519388047E+03 -0.37430987577E+02  0.16768876949E+03  0.12508185631E+03 0.  0.
          5    1    3    3  502    0 -0.16410042378E+02 -0.60356842056E+02  0.41928582302E+02  0.75416949605E+02  0.41800000000E+01 0. -1.
         -5    1    3    3    0  502  0.13722791287E+02 -0.44837038413E+02 -0.79359569879E+02  0.92271819889E+02  0.41800000000E+01 0. -1.
        -11    1    1    2    0    0  0.89228683215E+01  0.51096140960E+02 -0.48100170232E+02  0.70739377834E+02  0.00000000000E+00 0. -1.
         11    1    1    2    0    0 -0.62356172302E+01  0.54097739509E+02  0.61196484671E+02  0.81917385690E+02  0.00000000000E+00 0.  1.
</event>
<event>
 7    1  0.2594791E-009  0.1069935E+03  0.7561462E-02  0.1266241E+00
          2   -1    0    0  501    0  0.00000000000E+00  0.00000000000E+00  0.17175729289E+03  0.17175729289E+03  0.00000000000E+00 0.  1.
         -2   -1    0    0    0  501 -0.00000000000E+00 -0.00000000000E+00 -0.13284721239E+03  0.13284721239E+03  0.00000000000E+00 0. -1.
         25    2    1    2    0    0  0.22921051531E+02  0.93154097808E+02  0.62029462513E+02  0.16941182967E+03  0.12509857421E+03 0.  0.
          5    1    3    3  502    0 -0.23221078556E+02  0.34454530066E+02  0.81990778783E+02  0.92012462943E+02  0.41800000000E+01 0. -1.
         -5    1    3    3    0  502  0.46142130087E+02  0.58699567742E+02 -0.19961316270E+02  0.77399366724E+02  0.41800000000E+01 0. -1.
        -11    1    1    2    0    0  0.20661955299E+01 -0.20750265255E+02  0.33834334326E+02  0.39744242997E+02  0.00000000000E+00 0.  1.
         11    1    1    2    0    0 -0.24987247061E+02 -0.72403832553E+02 -0.56953716335E+02  0.95448432614E+02  0.00000000000E+00 0. -1.
</event>
<event>
 7    1  0.2594791E-009  0.4370932E+03  0.7561462E-02  0.1031642E+00
          2   -1    0    0  501    0  0.00000000000E+00  0.00000000000E+00  0.12443806762E+04  0.12443806762E+04  0.00000000000E+00 0. -1.
         -2   -1    0    0    0  501 -0.00000000000E+00 -0.00000000000E+00 -0.16839264857E+03  0.16839264857E+03  0.00000000000E+00 0.  1.
         25    2    1    2    0    0 -0.41510974126E+03  0.13366892744E+03  0.41215156290E+03  0.61294425912E+03  0.12509306351E+03 0.  0.
          5    1    3    3  502    0 -0.32282491296E+03  0.11726646748E+03  0.24726134556E+03  0.42322924548E+03  0.41800000000E+01 0. -1.
         -5    1    3    3    0  502 -0.92284828305E+02  0.16402459960E+02  0.16489021734E+03  0.18971501364E+03  0.41800000000E+01 0. -1.
        -11    1    1    2    0    0  0.21323673680E+03 -0.55023446022E+02  0.41563599047E+03  0.47037300317E+03  0.00000000000E+00 0. -1.
         11    1    1    2    0    0  0.20187300446E+03 -0.78645481414E+02  0.24820047427E+03  0.32945606248E+03  0.00000000000E+00 0.  1.
</event>
<event>
 7    1  0.2594791E-009  0.1472774E+03  0.7561462E-02  0.1203859E+00
         -1   -1    0    0    0  501 -0.00000000000E+00  0.00000000000E+00  0.11278783628E+04  0.11278783628E+04  0.00000000000E+00 0.  1.
          1   -1    0    0  501    0  0.00000000000E+00 -0.00000000000E+00 -0.25625444354E+02  0.25625444354E+02  0.00000000000E+00 0. -1.
         25    2    1    2    0    0  0.80717890573E+02 -0.87965286190E+02  0.76511271006E+03  0.78440959493E+03  0.12509070342E+03 0.  0.
          5    1    3    3  502    0  0.53800473776E+02 -0.11930259335E+03  0.60427378056E+03  0.61829756107E+03  0.41800000000E+01 0.  1.
         -5    1    3    3    0  502  0.26917416796E+02  0.31337307161E+02  0.16083892950E+03  0.16611203385E+03  0.41800000000E+01 0.  1.
        -11    1    1    2    0    0 -0.54430690675E+02  0.40534321527E+02  0.73931784716E+02  0.10035756125E+03  0.00000000000E+00 0.  1.
         11    1    1    2    0    0 -0.26287199897E+02  0.47430964663E+02  0.26320842362E+03  0.26873665093E+03  0.00000000000E+00 0. -1.
</event>
<event>
 7    1  0.2594791E-009  0.1371075E+03  0.7561462E-02  0.1217275E+00
          2   -1    0    0  501    0  0.00000000000E+00  0.00000000000E+00  0.68608584898E+03  0.68608584898E+03  0.00000000000E+00 0.  1.
         -2   -1    0    0    0  501 -0.00000000000E+00 -0.00000000000E+00 -0.32689476352E+02  0.32689476352E+02  0.00000000000E+00 0. -1.
         25    2    1    2    0    0  0.91538221017E+02  0.48263148519E+02  0.34928486761E+03  0.38516883636E+03  0.12508611573E+03 0.  0.
          5    1    3    3  502    0 -0.83289587036E+01  0.36748149537E+02  0.20970722089E+03  0.21310652017E+03  0.41800000000E+01 0. -1.
         -5    1    3    3    0  502  0.99867179721E+02  0.11514998983E+02  0.13957764672E+03  0.17206231619E+03  0.41800000000E+01 0. -1.
        -11    1    1    2    0    0  0.13932944147E+02  0.80845333551E+01  0.22627669713E+02  0.27775853701E+02  0.00000000000E+00 0. -1.
         11    1    1    2    0    0 -0.10547116516E+03 -0.56347681875E+02  0.28148383530E+03  0.30583063527E+03  0.00000000000E+00 0.  1.
</event>
<event>
 7    1  0.2594791E-009  0.8173677E+02  0.7561462E-02  0.1324194E+00
          1   -1    0    0  501    0  0.00000000000E+00  0.00000000000E+00  0.66437168603E+02  0.66437168603E+02  0.00000000000E+00 0. -1.
         -1   -1    0    0    0  501 -0.00000000000E+00 -0.00000000000E+00 -0.26287452506E+03  0.26287452506E+03  0.00000000000E+00 0.  1.
         25    2    1    2    0    0 -0.25550332951E+01  0.45352769597E+02 -0.18440599410E+03  0.22741295250E+03  0.12509068070E+03 0.  0.
          5    1    3    3  502    0  0.36541346552E+02  0.64443738116E+02 -0.59595149083E+02  0.95169951058E+02  0.41800000000E+01 0. -1.
         -5    1    3    3    0  502 -0.39096379847E+02 -0.19090968519E+02 -0.12481084502E+03  0.13224300144E+03  0.41800000000E+01 0. -1.
        -11    1    1    2    0    0 -0.58375374124E+00 -0.21215195900E+02 -0.51402164990E+02  0.55611220731E+02  0.00000000000E+00 0.  1.
         11    1    1    2    0    0  0.31387870364E+01 -0.24137573697E+02  0.39370802633E+02  0.46287520435E+02  0.00000000000E+00 0. -1.
</event>
<event>
 7    1  0.2594791E-009  0.1379873E+03  0.7561462E-02  0.1216063E+00
          1   -1    0    0  501    0  0.00000000000E+00  0.00000000000E+00  0.42726316584E+03  0.42726316584E+03  0.00000000000E+00 0. -1.
         -1   -1    0    0    0  501 -0.00000000000E+00 -0.00000000000E+00 -0.46780527881E+02  0.46780527881E+02  0.00000000000E+00 0.  1.
         25    2    1    2    0    0 -0.63177786923E+02  0.62848442500E+02  0.22457328633E+03  0.27206949880E+03  0.12508913525E+03 0.  0.
          5    1    3    3  502    0 -0.26171294996E+02  0.96417305214E+02  0.12078039707E+03  0.15680118030E+03  0.41800000000E+01 0. -1.
         -5    1    3    3    0  502 -0.37006491927E+02 -0.33568862714E+02  0.10379288927E+03  0.11526831851E+03  0.41800000000E+01 0. -1.
        -11    1    1    2    0    0  0.58314608290E+02 -0.85046256481E+02  0.11016614385E+03  0.15089744376E+03  0.00000000000E+00 0.  1.
         11    1    1    2    0    0  0.48631786325E+01  0.22197813980E+02  0.45743207772E+02  0.51076751161E+02  0.00000000000E+00 0. -1.
</event>
<event>
 7    1  0.2594791E-009  0.1388303E+03  0.7561462E-02  0.1214912E+00
         -2   -1    0    0    0  501 -0.00000000000E+00  0.00000000000E+00  0.92114024853E+02  0.92114024853E+02  0.00000000000E+00 0.  1.
          2   -1    0    0  501    0  0.00000000000E+00 -0.00000000000E+00 -0.24975697965E+03  0.24975697965E+03  0.00000000000E+00 0. -1.
         25    2    1    2    0    0  0.38210676942E+02  0.91473375420E+02 -0.48078605412E+02  0.16669299640E+03  0.12509024146E+03 0.  0.
          5    1    3    3  502    0 -0.32659203680E+02  0.81301737883E+02 -0.30328873267E+02  0.92811147614E+02  0.41800000000E+01 0. -1.
         -5    1    3    3    0  502  0.70869880622E+02  0.10171637537E+02 -0.17749732145E+02  0.73881848791E+02  0.41800000000E+01 0. -1.
        -11    1    1    2    0    0 -0.54076104467E+02 -0.49330506907E+02 -0.21533063577E+02  0.76298078699E+02  0.00000000000E+00 0.  1.
         11    1    1    2    0    0  0.15865427525E+02 -0.42142868513E+02 -0.88031285809E+02  0.98879929400E+02  0.00000000000E+00 0. -1.
</event>
<event>
 7    1  0.2594791E-009  0.2024233E+03  0.7561462E-02  0.1147710E+00
          1   -1    0    0  501    0  0.00000000000E+00  0.00000000000E+00  0.10592417127E+04  0.10592417127E+04  0.00000000000E+00 0. -1.
         -1   -1    0    0    0  501 -0.00000000000E+00 -0.00000000000E+00 -0.45707832509E+02  0.45707832509E+02  0.00000000000E+00 0.  1.
         25    2    1    2    0    0 -0.16997458809E+03  0.22254082427E+02  0.31444685578E+03  0.37935614347E+03  0.12509058199E+03 0.  0.
          5    1    3    3  502    0 -0.41642869736E+02  0.63160576018E+02  0.90945608580E+02  0.11837213812E+03  0.41800000000E+01 0. -1.
         -5    1    3    3    0  502 -0.12833171835E+03 -0.40906493591E+02  0.22350124720E+03  0.26098400536E+03  0.41800000000E+01 0. -1.
        -11    1    1    2    0    0  0.38129254045E+02 -0.46635569439E+02  0.21372740549E+03  0.22205431815E+03  0.00000000000E+00 0. -1.
         11    1    1    2    0    0  0.13184533404E+03  0.24381487012E+02  0.48535961893E+03  0.50353908359E+03  0.00000000000E+00 0.  1.
</event>
<event>
 7    1  0.2594791E-009  0.1398154E+03  0.7561462E-02  0.1213578E+00
         -1   -1    0    0    0  501 -0.00000000000E+00  0.00000000000E+00  0.57089955602E+03  0.57089955602E+03  0.00000000000E+00 0.  1.
          1   -1    0    0  501    0  0.00000000000E+00 -0.00000000000E+00 -0.39203640744E+02  0.39203640744E+02  0.00000000000E+00 0. -1.
         25    2    1    2    0    0  0.18085462880E+01  0.98753117645E+02  0.31849881571E+03  0.35615334260E+03  0.12509300040E+03 0.  0.
          5    1    3    3  502    0  0.56273661875E+02  0.86388970518E+02  0.21469452515E+03  0.23820367498E+03  0.41800000000E+01 0. -1.
         -5    1    3    3    0  502 -0.54465115587E+02  0.12364147128E+02  0.10380429057E+03  0.11794966761E+03  0.41800000000E+01 0. -1.
        -11    1    1    2    0    0  0.30854176528E+02 -0.24773941129E+02  0.13786003264E+03  0.14342634684E+03  0.00000000000E+00 0.  1.
         11    1    1    2    0    0 -0.32662722816E+02 -0.73979176516E+02  0.75337066928E+02  0.11052350733E+03  0.00000000000E+00 0. -1.
</event>
<event>
 7    1  0.2594791E-009  0.1404514E+03  0.7561462E-02  0.1212723E+00
          2   -1    0    0  501    0  0.00000000000E+00  0.00000000000E+00  0.10414073830E+04  0.10414073830E+04  0.00000000000E+00 0. -1.
         -2   -1    0    0    0  501 -0.00000000000E+00 -0.00000000000E+00 -0.19196483970E+02  0.19196483970E+02  0.00000000000E+00 0.  1.
         25    2    1    2    0    0  0.23589363542E+02 -0.88628170520E+02  0.53887028492E+03  0.56074946408E+03  0.12508943527E+03 0.  0.
          5    1    3    3  502    0 -0.51264999370E+02 -0.44702890184E+02  0.24533368454E+03  0.25462234332E+03  0.41800000000E+01 0.  1.
         -5    1    3    3    0  502  0.74854362912E+02 -0.43925280336E+02  0.29353660038E+03  0.30612712076E+03  0.41800000000E+01 0.  1.
        -11    1    1    2    0    0 -0.39890751031E+01  0.10203855300E+03  0.41919445764E+03  0.43145309402E+03  0.00000000000E+00 0. -1.
         11    1    1    2    0    0 -0.19600288439E+02 -0.13410382485E+02  0.64146156426E+02  0.68401308829E+02  0.00000000000E+00 0.  1.
</event>
<event>
 7    1  0.2594791E-009  0.1113271E+03  0.7561462E-02  0.1258132E+00
          1   -1    0    0  501    0  0.00000000000E+00  0.00000000000E+00  0.11820134390E+04  0.11820134390E+04  0.00000000000E+00 0. -1.
         -1   -1    0    0    0  501 -0.00000000000E+00 -0.00000000000E+00 -0.16667950266E+02  0.16667950266E+02  0.00000000000E+00 0.  1.
         25    2    1    2    0    0  0.92492190111E+01  0.56718327167E+02  0.92423917355E+03  0.93443489730E+03  0.12509200886E+03 0.  0.
          5    1    3    3  502    0 -0.57793428783E+02  0.31149419216E+02  0.44163592466E+03  0.44650882306E+03  0.41800000000E+01 0. -1.
         -5    1    3    3    0  502  0.67042647794E+02  0.25568907951E+02  0.48260324890E+03  0.48792607424E+03  0.41800000000E+01 0. -1.
        -11    1    1    2    0    0 -0.30240557614E+02 -0.70214875010E+01  0.20650777698E+02  0.37286019244E+02  0.00000000000E+00 0.  1.
         11    1    1    2    0    0  0.20991338603E+02 -0.49696839666E+02  0.22045553748E+03  0.22696047271E+03  0.00000000000E+00 0. -1.
</event>
<event>
 7    1  0.2594791E-009  0.7123028E+02  0.7561462E-02  0.1355959E+00
          1   -1    0    0  501    0  0.00000000000E+00  0.00000000000E+00  0.60067074745E+03  0.60067074745E+03  0.00000000000E+00 0. -1.
         -1   -1    0    0    0  501 -0.00000000000E+00 -0.00000000000E+00 -0.27352859237E+02  0.27352859237E+02  0.00000000000E+00 0.  1.
         25    2    1    2    0    0  0.13656019789E+01 -0.28645223439E+02  0.46858110767E+03  0.48583704883E+03  0.12508784853E+03 0.  0.
          5    1    3    3  502    0  0.31072373700E+02  0.17158838579E+02  0.38015574810E+03  0.38183214029E+03  0.41800000000E+01 0. -1.
         -5    1    3    3    0  502 -0.29706771721E+02 -0.45804062018E+02  0.88425359576E+02  0.10400490854E+03  0.41800000000E+01 0. -1.
        -11    1    1    2    0    0  0.15169694926E+02 -0.37222265266E+01 -0.12143804533E+02  0.19785009553E+02  0.00000000000E+00 0.  1.
         11    1    1    2    0    0 -0.16535296905E+02  0.32367449966E+02  0.11688058508E+03  0.12240154831E+03  0.00000000000E+00 0. -1.
</event>
<event>
 7    1  0.2594791E-009  0.1061560E+03  0.7561462E-02  0.1267859E+00
          2   -1    0    0  501    0  0.00000000000E+00  0.00000000000E+00  0.11497899504E+03  0.11497899504E+03  0.00000000000E+00 0. -1.
         -2   -1    0    0    0  501 -0.00000000000E+00 -0.00000000000E+00 -0.11754603918E+03  0.11754603918E+03  0.00000000000E+00 0.  1.
         25    2    1    2    0    0  0.37544562130E+02  0.17905286037E+02  0.29930086306E+01  0.13185749210E+03  0.12508895518E+03 0.  0.
          5    1    3    3  502    0  0.40957513027E+02 -0.42222220684E+02  0.29483788826E+02  0.65931782900E+02  0.41800000000E+01 0.  1.
         -5    1    3    3    0  502 -0.34129508968E+01  0.60127506721E+02 -0.26490780195E+02  0.65925709201E+02  0.41800000000E+01 0.  1.
        -11    1    1    2    0    0  0.17756533058E+02  0.19372101627E+02 -0.19262561153E+02  0.32582496066E+02  0.00000000000E+00 0.  1.
         11    1    1    2    0    0 -0.55301095189E+02 -0.37277387664E+02  0.13702508385E+02  0.68085046054E+02  0.00000000000E+00 0. -1.
</event>
<event>
 7    1  0.2594791E-009  0.1747729E+03  0.7561462E-02  0.1172960E+00
          3   -1    0    0  501    0  0.00000000000E+00  0.00000000000E+00  0.11428401986E+03  0.11428401986E+03  0.00000000000E+00 0. -1.
         -3   -1    0    0    0  501 -0.00000000000E+00 -0.00000000000E+00 -0.28416627741E+03  0.28416627741E+03  0.00000000000E+00 0.  1.
         25    2    1    2    0    0  0.13514549376E+03 -0.34693661538E+02 -0.53057674956E+02  0.19475805100E+03  0.12509047495E+03 0.  0.
          5    1    3    3  502    0  0.36202318333E+02  0.43333994624E+02 -0.37056859874E+02  0.67669241214E+02  0.41800000000E+01 0. -1.
         -5    1    3    3    0  502  0.98943175428E+02 -0.78027656162E+02 -0.16000815082E+02  0.12708880979E+03  0.41800000000E+01 0. -1.
        -11    1    1    2    0    0  0.49305834757E+01 -0.16875000785E+02 -0.13106996230E+02  0.21928740389E+02  0.00000000000E+00 0.  1.
         11    1    1    2    0    0 -0.14007607724E+03  0.51568662323E+02 -0.10371758637E+03  0.18176350588E+03  0.00000000000E+00 0. -1.
</event>
<event>
 7    1  0.2594791E-009  0.1018140E+03  0.7561462E-02  0.1276527E+00
         -2   -1    0    0    0  501 -0.00000000000E+00  0.00000000000E+00  0.31083762323E+02  0.31083762323E+02  0.00000000000E+00 0. -1.
          2   -1    0    0  501    0  0.00000000000E+00 -0.00000000000E+00 -0.58792456522E+03  0.58792456522E+03  0.00000000000E+00 0.  1.
         25    2    1    2    0    0  0.64213394572E+02  0.33267656827E+02 -0.39910516639E+03  0.42445533628E+03  0.12508917469E+03 0.  0.
          5    1    3    3  502    0 -0.22623420946E+02  0.87982855921E+01 -0.12849876442E+02  0.27781661743E+02  0.41800000000E+01 0.  1.
         -5    1    3    3    0  502  0.86836815518E+02  0.24469371235E+02 -0.38625528995E+03  0.39667367454E+03  0.41800000000E+01 0.  1.
        -11    1    1    2    0    0 -0.19620545307E+02  0.13689425951E+02 -0.11382512992E+03  0.11631219361E+03  0.00000000000E+00 0.  1.
         11    1    1    2    0    0 -0.44592849266E+02 -0.46957082779E+02 -0.43910506589E+02  0.78240797654E+02  0.00000000000E+00 0. -1.
</event>
<event>
 7    1  0.2594791E-009  0.1264091E+03  0.7561462E-02  0.1232883E+00
         -1   -1    0    0    0  501 -0.00000000000E+00  0.00000000000E+00  0.99939149137E+02  0.99939149137E+02  0.00000000000E+00 0.  1.
          1   -1    0    0  501    0  0.00000000000E+00 -0.00000000000E+00 -0.19994415551E+03  0.19994415551E+03  0.00000000000E+00 0. -1.
         25    2    1    2    0    0 -0.36863279132E+02  0.62473938197E+02  0.14638743909E+01  0.14460843397E+03  0.12509021522E+03 0.  0.
          5    1    3    3  502    0  0.46484133443E+02  0.27026686779E+02  0.40499540280E+00  0.53933782377E+02  0.41800000000E+01 0. -1.
         -5    1    3    3    0  502 -0.83347412575E+02  0.35447251417E+02  0.10588789881E+01  0.90674651589E+02  0.41800000000E+01 0. -1.
        -11    1    1    2    0    0 -0.22946685354E+02 -0.17950651964E+01 -0.51727182284E+02  0.56616905733E+02  0.00000000000E+00 0. -1.
         11    1    1    2    0    0  0.59809964487E+02 -0.60678873000E+02 -0.49741698485E+02  0.98657964953E+02  0.00000000000E+00 0.  1.
</event>
<event>
 7    1  0.2594791E-009  0.1418171E+03  0.7561462E-02  0.1210905E+00
         -1   -1    0    0    0  501 -0.00000000000E+00  0.00000000000E+00  0.49297800765E+03  0.49297800765E+03  0.00000000000E+00 0.  1.
          1   -1    0    0  501    0  0.00000000000E+00 -0.00000000000E+00 -0.46801245023E+02  0.46801245023E+02  0.00000000000E+00 0. -1.
         25    2    1    2    0    0  0.90950456636E+02 -0.22354951505E+02  0.33055161257E+03  0.36562858841E+03  0.12509263236E+03 0.  0.
          5    1    3    3  502    0 -0.22397395435E+02  0.24575397482E+02  0.69574773927E+02  0.77225093401E+02  0.41800000000E+01 0.  1.
         -5    1    3    3    0  502  0.11334785207E+03 -0.46930348987E+02  0.26097683864E+03  0.28840349501E+03  0.41800000000E+01 0.  1.
        -11    1    1    2    0    0  0.16417346031E+02 -0.38272054681E+01  0.45451843479E+01  0.17459537599E+02  0.00000000000E+00 0.  1.
         11    1    1    2    0    0 -0.10736780267E+03  0.26182156973E+02  0.11107996571E+03  0.15669112666E+03  0.00000000000E+00 0. -1.
</event>
<event>
 7    1  0.2594791E-009  0.9782300E+02  0.7561462E-02  0.1284942E+00
          1   -1    0    0  501    0  0.00000000000E+00  0.00000000000E+00  0.21804283329E+03  0.21804283329E+03  0.00000000000E+00 0. -1.
         -1   -1    0    0    0  501 -0.00000000000E+00 -0.00000000000E+00 -0.75059822593E+02  0.75059822593E+02  0.00000000000E+00 0.  1.
         25    2    1    2    0    0  0.87883244537E+01 -0.40610110506E+01  0.15604495820E+03  0.20022934393E+03  0.12509210500E+03 0.  0.
          5    1    3    3  502    0 -0.51736835210E+02 -0.20332299089E+02  0.10657681798E+03  0.12027548809E+03  0.41800000000E+01 0. -1.
         -5    1    3    3    0  502  0.60525159664E+02  0.16271288038E+02  0.49468140217E+02  0.79953855837E+02  0.41800000000E+01 0. -1.
        -11    1    1    2    0    0 -0.29371819251E+02 -0.26952762573E+02  0.18615000059E+02  0.43996288521E+02  0.00000000000E+00 0. -1.
         11    1    1    2    0    0  0.20583494797E+02  0.31013773623E+02 -0.31676947566E+02  0.48877023431E+02  0.00000000000E+00 0.  1.
</event>
<event>
 7    1  0.2594791E-009  0.9072339E+02  0.7561462E-02  0.1301109E+00
          1   -1    0    0  501    0  0.00000000000E+00  0.00000000000E+00  0.22930598511E+03  0.22930598511E+03  0.00000000000E+00 0. -1.
         -1   -1    0    0    0  501 -0.00000000000E+00 -0.00000000000E+00 -0.69055072646E+02  0.69055072646E+02  0.00000000000E+00 0.  1.
         25    2    1    2    0    0 -0.38379259924E+02  0.24934531011E+02  0.14136073906E+03  0.19423058447E+03  0.12509181815E+03 0.  0.
          5    1    3    3  502    0 -0.31978481073E+02 -0.42710951773E+02  0.10303955506E+03  0.11610973672E+03  0.41800000000E+01 0. -1.
         -5    1    3    3    0  502 -0.64007788506E+01  0.67645482783E+02  0.38321183999E+02  0.78120847755E+02  0.41800000000E+01 0. -1.
        -11    1    1    2    0    0 -0.29361018422E+01 -0.17657584876E+02 -0.32916234237E+02  0.37468513101E+02  0.00000000000E+00 0.  1.
         11    1    1    2    0    0  0.41315361766E+02 -0.72769461343E+01  0.51806407639E+02  0.66661960183E+02  0.00000000000E+00 0. -1.
</event>
<event>
 7    1  0.2594791E-009  0.2988355E+03  0.7561462E-02  0.1085824E+00
         -3   -1    0    0    0  501 -0.00000000000E+00  0.00000000000E+00  0.32295148860E+03  0.32295148860E+03  0.00000000000E+00 0.  1.
          3   -1    0    0  501    0  0.00000000000E+00 -0.00000000000E+00 -0.30604079956E+03  0.30604079956E+03  0.00000000000E+00 0. -1.
         25    2    1    2    0    0  0.18522869343E+03  0.22740247119E+03 -0.14981984460E+02  0.31920711189E+03  0.12508863916E+03 0.  0.
          5    1    3    3  502    0  0.10146714509E+02 -0.86484122205E+00  0.26337162608E+02  0.28545092396E+02  0.41800000000E+01 0. -1.
         -5    1    3    3    0  502  0.17508197892E+03  0.22826731242E+03 -0.41319147068E+02  0.29066201949E+03  0.41800000000E+01 0. -1.
        -11    1    1    2    0    0 -0.10134954600E+03 -0.16787906910E+03 -0.15150840887E+02  0.19668416381E+03  0.00000000000E+00 0. -1.
         11    1    1    2    0    0 -0.83879147435E+02 -0.59523402096E+02  0.47043514387E+02  0.11310101245E+03  0.00000000000E+00 0.  1.
</event>
<event>
 7    1  0.2594791E-009  0.1764818E+03  0.7561462E-02  0.1171252E+00
         -1   -1    0    0    0  501 -0.00000000000E+00  0.00000000000E+00  0.11943143718E+03  0.11943143718E+03  0.00000000000E+00 0.  1.
          1   -1    0    0  501    0  0.00000000000E+00 -0.00000000000E+00 -0.33942471217E+03  0.33942471217E+03  0.00000000000E+00 0. -1.
         25    2    1    2    0    0 -0.13528889509E+03  0.56001664294E+02 -0.19360677905E+02  0.19355006874E+03  0.12509005444E+03 0.  0.
          5    1    3    3  502    0 -0.72636647338E+02 -0.35895532409E+02 -0.44095252629E+01  0.81249542131E+02  0.41800000000E+01 0. -1.
         -5    1    3    3    0  502 -0.62652247752E+02  0.91897196704E+02 -0.14951152642E+02  0.11230052660E+03  0.41800000000E+01 0. -1.
        -11    1    1    2    0    0 -0.10938839108E+00 -0.20576982431E+02  0.12694633094E+00  0.20577664765E+02  0.00000000000E+00 0.  1.
         11    1    1    2    0    0  0.13539828348E+03 -0.35424681863E+02 -0.20075954342E+03  0.24472841586E+03  0.00000000000E+00 0. -1.
</event>
<event>
 7    1  0.2594791E-009  0.8257469E+02  0.7561462E-02  0.1321900E+00
          2   -1    0    0  501    0  0.00000000000E+00  0.00000000000E+00  0.69060211867E+02  0.69060211867E+02  0.00000000000E+00 0.  1.
         -2   -1    0    0    0  501 -0.00000000000E+00 -0.00000000000E+00 -0.19544435581E+03  0.19544435581E+03  0.00000000000E+00 0. -1.
         25    2    1    2    0    0  0.14777602944E+02  0.39343920256E+02 -0.79500818932E+02  0.15406166785E+03  0.12509314802E+03 0.  0.
          5    1    3    3  502    0 -0.37195313275E+02  0.27195822958E+02 -0.88413750028E+02  0.99787613009E+02  0.41800000000E+01 0. -1.
         -5    1    3    3    0  502  0.51972916219E+02  0.12148097299E+02  0.89129310966E+01  0.54274054843E+02  0.41800000000E+01 0. -1.
        -11    1    1    2    0    0  0.17217432316E+02 -0.24823422055E+02  0.19062111631E+02  0.35721231192E+02  0.00000000000E+00 0.  1.
         11    1    1    2    0    0 -0.31995035260E+02 -0.14520498201E+02 -0.65945436638E+02  0.74721668629E+02  0.00000000000E+00 0. -1.
</event>
<event>
 7    1  0.2594791E-009  0.1551193E+03  0.7561462E-02  0.1194320E+00
          1   -1    0    0  501    0  0.00000000000E+00  0.00000000000E+00  0.23135655401E+03  0.23135655401E+03  0.00000000000E+00 0. -1.
         -1   -1    0    0    0  501 -0.00000000000E+00 -0.00000000000E+00 -0.28360552385E+03  0.28360552385E+03  0.00000000000E+00 0.  1.
         25    2    1    2    0    0  0.36930244291E+02  0.11357141774E+03 -0.22616350642E+03  0.28470985389E+03  0.12508980532E+03 0.  0.
          5    1    3    3  502    0 -0.37641382073E+02  0.57213386479E+02 -0.48858042103E+02  0.84230789590E+02  0.41800000000E+01 0.  1.
         -5    1    3    3    0  502  0.74571626364E+02  0.56358031259E+02 -0.17730546432E+03  0.20047906430E+03  0.41800000000E+01 0.  1.
        -11    1    1    2    0    0 -0.65271833544E+02 -0.66971642820E+02  0.13046161584E+03  0.16051743333E+03  0.00000000000E+00 0.  1.
         11    1    1    2    0    0  0.28341589252E+02 -0.46599774919E+02  0.43452920745E+02  0.69734790636E+02  0.00000000000E+00 0. -1.
</event>
<event>
 7    1  0.2711901E-009  0.1103125E+03  0.7561462E-02  0.1259992E+00
          2   -1    0    0  501    0  0.00000000000E+00  0.00000000000E+00  0.59572058051E+03  0.59572058051E+03  0.00000000000E+00 0. -1.
         -2   -1    0    0    0  501 -0.00000000000E+00 -0.00000000000E+00 -0.39555926642E+02  0.39555926642E+02  0.00000000000E+00 0.  1.
         25    2    1    2    0    0  0.54625619004E+02 -0.49016327175E+02  0.13518823037E+03  0.19826791352E+03  0.12509096419E+03 0.  0.
          5    1    3    3  502    0  0.33034411750E+02 -0.67536339638E+02  0.17751532774E+02  0.77362903559E+02  0.41800000000E+01 0. -1.
         -5    1    3    3    0  502  0.21591207254E+02  0.18520012463E+02  0.11743669759E+03  0.12090500996E+03  0.41800000000E+01 0. -1.
        -11    1    1    2    0    0  0.18458366761E+02  0.38555286983E+02  0.17816227898E+03  0.18321850100E+03  0.00000000000E+00 0.  1.
         11    1    1    2    0    0 -0.73083985765E+02  0.10461040192E+02  0.24281414452E+03  0.25379009263E+03  0.00000000000E+00 0. -1.
</event>
<event>
 7    1  0.2594791E-009  0.9952625E+02  0.7561462E-02  0.1281295E+00
         -1   -1    0    0    0  501 -0.00000000000E+00  0.00000000000E+00  0.20238363394E+02  0.20238363394E+02  0.00000000000E+00 0.  1.
          1   -1    0    0  501    0  0.00000000000E+00 -0.00000000000E+00 -0.92520792517E+03  0.92520792517E+03  0.00000000000E+00 0. -1.
         25    2    1    2    0    0  0.39266502135E+02 -0.70941855413E+02 -0.57335905473E+03  0.59241927776E+03  0.12508153329E+03 0.  0.
          5    1    3    3  502    0 -0.15991338457E+02 -0.33874626362E+02 -0.40194441594E+02  0.55102438711E+02  0.41800000000E+01 0. -1.
         -5    1    3    3    0  502  0.55257840592E+02 -0.37067229052E+02 -0.53316461314E+03  0.53731683904E+03  0.41800000000E+01 0. -1.
        -11    1    1    2    0    0 -0.39599807799E+02  0.21143087282E+02 -0.50620211818E+02  0.67657821145E+02  0.00000000000E+00 0. -1.
         11    1    1    2    0    0  0.33330566398E+00  0.49798768132E+02 -0.28099029523E+03  0.28536918967E+03  0.00000000000E+00 0.  1.
</event>
<event>
 7    1  0.2594791E-009  0.2917716E+03  0.7561462E-02  0.1089428E+00
         -1   -1    0    0    0  501 -0.00000000000E+00  0.00000000000E+00  0.25763771566E+03  0.25763771566E+03  0.00000000000E+00 0.  1.
          1   -1    0    0  501    0  0.00000000000E+00 -0.00000000000E+00 -0.67731287913E+03  0.67731287913E+03  0.00000000000E+00 0. -1.
         25    2    1    2    0    0 -0.27323216962E+03  0.74408864241E+02  0.10891765346E+03  0.32818132105E+03  0.12508967446E+03 0.  0.
          5    1    3    3  502    0 -0.19901562031E+03  0.34859847390E+02  0.13137459192E+03  0.24103771881E+03  0.41800000000E+01 0.  1.
         -5    1    3    3    0  502 -0.74216549316E+02  0.39549016851E+02 -0.22456938466E+02  0.87143602241E+02  0.41800000000E+01 0.  1.
        -11    1    1    2    0    0  0.63212269025E+02  0.20957844466E+02 -0.10210910229E+03  0.12190689468E+03  0.00000000000E+00 0. -1.
         11    1    1    2    0    0  0.21001990060E+03 -0.95366708707E+02 -0.42648371464E+03  0.48486237906E+03  0.00000000000E+00 0.  1.
</event>
<event>
 7    1  0.2885794E-009  0.1032888E+03  0.7561462E-02  0.1273528E+00
          1   -1    0    0  501    0  0.00000000000E+00  0.00000000000E+00  0.18335525450E+04  0.18335525450E+04  0.00000000000E+00 0.  1.
         -1   -1    0    0    0  501 -0.00000000000E+00 -0.00000000000E+00 -0.10314912069E+02  0.10314912069E+02  0.00000000000E+00 0. -1.
         25    2    1    2    0    0 -0.31273551911E+02  0.15795820018E+02  0.15128272974E+04  0.15183944078E+04  0.12509037838E+03 0.  0.
          5    1    3    3  502    0  0.42662076499E+02  0.50778958636E+01  0.28095201995E+03  0.28424874267E+03  0.41800000000E+01 0.  1.
         -5    1    3    3    0  502 -0.73935628409E+02  0.10717924155E+02  0.12318752775E+04  0.12341456651E+04  0.41800000000E+01 0.  1.
        -11    1    1    2    0    0  0.52805912311E+02  0.11275075003E+02  0.25086223550E+03  0.25660758542E+03  0.00000000000E+00 0.  1.
         11    1    1    2    0    0 -0.21532360400E+02 -0.27070895021E+02  0.59548100069E+02  0.68865463939E+02  0.00000000000E+00 0. -1.
</event>
<event>
 7    1  0.2594791E-009  0.2188236E+03  0.7561462E-02  0.1134763E+00
          2   -1    0    0  501    0  0.00000000000E+00  0.00000000000E+00  0.52401553935E+03  0.52401553935E+03  0.00000000000E+00 0. -1.
         -2   -1    0    0    0  501 -0.00000000000E+00 -0.00000000000E+00 -0.10870695546E+03  0.10870695546E+03  0.00000000000E+00 0.  1.
         25    2    1    2    0    0  0.18473156442E+03  0.95943586393E+02  0.15848913679E+03  0.28999446298E+03  0.12508820654E+03 0.  0.
          5    1    3    3  502    0  0.10395213323E+03  0.28711258374E+02  0.10499411061E+02  0.10843473794E+03  0.41800000000E+01 0. -1.
         -5    1    3    3    0  502  0.80779431197E+02  0.67232328018E+02  0.14798972573E+03  0.18155972504E+03  0.41800000000E+01 0. -1.
        -11    1    1    2    0    0 -0.71387573395E+02  0.66035488334E+01  0.10623220074E+03  0.12816034085E+03  0.00000000000E+00 0. -1.
         11    1    1    2    0    0 -0.11334399103E+03 -0.10254713523E+03  0.15058724636E+03  0.21456769098E+03  0.00000000000E+00 0.  1.
</event>
<event>
 7    1  0.2594791E-009  0.1334391E+03  0.7561462E-02  0.1222440E+00
         -2   -1    0    0    0  501 -0.00000000000E+00  0.00000000000E+00  0.15656055923E+03  0.15656055923E+03  0.00000000000E+00 0. -1.
          2   -1    0    0  501    0  0.00000000000E+00 -0.00000000000E+00 -0.13878237897E+03  0.13878237897E+03  0.00000000000E+00 0.  1.
         25    2    1    2    0    0  0.59210404252E+02 -0.67744550871E+02  0.57269838640E+02  0.16437808879E+03  0.12508047614E+03 0.  0.
          5    1    3    3  502    0  0.98329195753E+02 -0.43228662633E+02  0.35853846316E+02  0.11331513009E+03  0.41800000000E+01 0.  1.
         -5    1    3    3    0  502 -0.39118791502E+02 -0.24515888238E+02  0.21415992324E+02  0.51062958706E+02  0.41800000000E+01 0.  1.
        -11    1    1    2    0    0 -0.55960413740E+02  0.12053236010E+02  0.78742306738E+01  0.57782799456E+02  0.00000000000E+00 0.  1.
         11    1    1    2    0    0 -0.32499905118E+01  0.55691314861E+02 -0.47365889048E+02  0.73182049948E+02  0.00000000000E+00 0. -1.
</event>
<event>
 7    1  0.2594791E-009  0.1293547E+03  0.7561462E-02  0.1228416E+00
          2   -1    0    0  501    0  0.00000000000E+00  0.00000000000E+00  0.11219459533E+03  0.11219459533E+03  0.00000000000E+00 0. -1.
         -2   -1    0    0    0  501 -0.00000000000E+00 -0.00000000000E+00 -0.25250777707E+03  0.25250777707E+03  0.00000000000E+00 0.  1.
         25    2    1    2    0    0  0.11149282636E+03  0.62614265897E+02 -0.56724171451E+02  0.18765788677E+03  0.12508658688E+03 0.  0.
          5    1    3    3  502    0  0.60720388152E+01  0.16328569615E+01 -0.65075936228E+02  0.65512485476E+02  0.41800000000E+01 0. -1.
         -5    1    3    3    0  502  0.10542078755E+03  0.60981408935E+02  0.83517647770E+01  0.12214540130E+03  0.41800000000E+01 0. -1.
        -11    1    1    2    0    0 -0.65083788423E+02 -0.25600279873E+02  0.53199435833E+01  0.70139686660E+02  0.00000000000E+00 0. -1.
         11    1    1    2    0    0 -0.46409037939E+02 -0.37013986024E+02 -0.88908953868E+02  0.10690479897E+03  0.00000000000E+00 0.  1.
</event>
<event>
 7    1  0.2594791E-009  0.1109880E+03  0.7561462E-02  0.1258751E+00
         -1   -1    0    0    0  501 -0.00000000000E+00  0.00000000000E+00  0.64632641942E+02  0.64632641942E+02  0.00000000000E+00 0.  1.
          1   -1    0    0  501    0  0.00000000000E+00 -0.00000000000E+00 -0.27306297690E+03  0.27306297690E+03  0.00000000000E+00 0. -1.
         25    2    1    2    0    0  0.22941417253E+01  0.64593246695E+02 -0.17236038195E+03  0.22256185294E+03  0.12509247186E+03 0.  0.
          5    1    3    3  502    0 -0.33266657093E+01 -0.35359860596E+02 -0.22367412465E+02  0.42180089930E+02  0.41800000000E+01 0. -1.
         -5    1    3    3    0  502  0.56208074346E+01  0.99953107291E+02 -0.14999296948E+03  0.18038176301E+03  0.41800000000E+01 0. -1.
        -11    1    1    2    0    0 -0.12381157974E+02 -0.72281187500E+02 -0.55474155759E+02  0.91952406691E+02  0.00000000000E+00 0. -1.
         11    1    1    2    0    0  0.10087016248E+02  0.76879408054E+01  0.19404202746E+02  0.23181359210E+02  0.00000000000E+00 0.  1.
</event>
<event>
 7    1  0.2594791E-009  0.2303988E+03  0.7561462E-02  0.1126359E+00
         -1   -1    0    0    0  501 -0.00000000000E+00  0.00000000000E+00  0.14639073929E+03  0.14639073929E+03  0.00000000000E+00 0.  1.
          1   -1    0    0  501    0  0.00000000000E+00 -0.00000000000E+00 -0.41170887641E+03  0.41170887641E+03  0.00000000000E+00 0. -1.
         25    2    1    2    0    0 -0.21118457866E+03  0.49112316454E+02 -0.16739888453E+03  0.30113280441E+03  0.12509050109E+03 0.  0.
          5    1    3    3  502    0 -0.20677160678E+03  0.14810312100E+02 -0.16709809223E+03  0.26629511362E+03  0.41800000000E+01 0. -1.
         -5    1    3    3    0  502 -0.44129718814E+01  0.34302004354E+02 -0.30079229495E+00  0.34837690790E+02  0.41800000000E+01 0. -1.
        -11    1    1    2    0    0  0.64858498526E+02 -0.19822200252E+01  0.14536007416E+02  0.66496988945E+02  0.00000000000E+00 0.  1.
         11    1    1    2    0    0  0.14632608013E+03 -0.47130096429E+02 -0.11245526001E+03  0.19046982233E+03  0.00000000000E+00 0. -1.
</event>
<event>
 7    1  0.2594791E-009  0.1431203E+03  0.7561462E-02  0.1209191E+00
         -2   -1    0    0    0  501 -0.00000000000E+00  0.00000000000E+00  0.64541145300E+02  0.64541145300E+02  0.00000000000E+00 0.  1.
          2   -1    0    0  501    0  0.00000000000E+00 -0.00000000000E+00 -0.35565902124E+03  0.35565902124E+03  0.00000000000E+00 0. -1.
         25    2    1    2    0    0  0.65122763953E+02  0.83641570015E+02 -0.15931135009E+03  0.22861456087E+03  0.12509046548E+03 0.  0.
          5    1    3    3  502    0 -0.17076109651E+02  0.79448097212E+02 -0.84551807066E+02  0.11734595924E+03  0.41800000000E+01 0. -1.
         -5    1    3    3    0  502  0.82198873605E+02  0.41934728028E+01 -0.74759543025E+02  0.11126860163E+03  0.41800000000E+01 0. -1.
        -11    1    1    2    0    0 -0.76495161061E+02 -0.79578745160E+02 -0.74860308373E+02  0.13337298121E+03  0.00000000000E+00 0.  1.
         11    1    1    2    0    0  0.11372397107E+02 -0.40628248549E+01 -0.56946217473E+02  0.58212624457E+02  0.00000000000E+00 0. -1.
</event>
<event>
 7    1  0.2594791E-009  0.1062186E+03  0.7561462E-02  0.1267737E+00
         -1   -1    0    0    0  501 -0.00000000000E+00  0.00000000000E+00  0.85205486698E+02  0.85205486698E+02  0.00000000000E+00 0.  1.
          1   -1    0    0  501    0  0.00000000000E+00 -0.00000000000E+00 -0.24162557581E+03  0.24162557581E+03  0.00000000000E+00 0. -1.
         25    2    1    2    0    0 -0.65197206841E+02 -0.51666964409E+02 -0.21151430349E+02  0.15170619472E+03  0.12508891046E+03 0.  0.
          5    1    3    3  502    0 -0.31005725990E+02 -0.69976187576E+02 -0.59476313689E+02  0.97020235837E+02  0.41800000000E+01 0. -1.
         -5    1    3    3    0  502 -0.34191480851E+02  0.18309223168E+02  0.38324883339E+02  0.54685958881E+02  0.41800000000E+01 0. -1.
        -11    1    1    2    0    0  0.37911018046E+02  0.57499945855E+02 -0.49186197469E+02  0.84633155939E+02  0.00000000000E+00 0.  1.
         11    1    1    2    0    0  0.27286188794E+02 -0.58329814468E+01 -0.86082461291E+02  0.90491711849E+02  0.00000000000E+00 0. -1.
</event>
<event>
 7    1  0.2594791E-009  0.1617459E+03  0.7561462E-02  0.1186740E+00
          1   -1    0    0  501    0  0.00000000000E+00  0.00000000000E+00  0.49702630339E+03  0.49702630339E+03  0.00000000000E+00 0. -1.
         -1   -1    0    0    0  501 -0.00000000000E+00 -0.00000000000E+00 -0.77219050824E+02  0.77219050824E+02  0.00000000000E+00 0.  1.
         25    2    1    2    0    0  0.13005384361E+03 -0.43219352822E+02  0.92182269171E+02  0.20718916502E+03  0.12509142519E+03 0.  0.
          5    1    3    3  502    0 -0.23826929304E+02  0.20358128483E+01  0.19041719446E+02  0.30853307334E+02  0.41800000000E+01 0. -1.
         -5    1    3    3    0  502  0.15388077291E+03 -0.45255165670E+02  0.73140549725E+02  0.17633585769E+03  0.41800000000E+01 0. -1.
        -11    1    1    2    0    0 -0.29211991286E+02  0.41938460167E+00  0.96945712024E+01  0.30781504660E+02  0.00000000000E+00 0.  1.
         11    1    1    2    0    0 -0.10084185233E+03  0.42799968220E+02  0.31793041220E+03  0.33627468454E+03  0.00000000000E+00 0. -1.
</event>
<event>
 7    1  0.2594791E-009  0.1043010E+03  0.7561462E-02  0.1271503E+00
         -3   -1    0    0    0  501 -0.00000000000E+00  0.00000000000E+00  0.37706549437E+03  0.37706549437E+03  0.00000000000E+00 0.  1.
          3   -1    0    0  501    0  0.00000000000E+00 -0.00000000000E+00 -0.42642344783E+02  0.42642344783E+02  0.00000000000E+00 0. -1.
         25    2    1    2    0    0  0.49857865953E+02  0.27689720427E+02  0.24337212514E+03  0.27951733894E+03  0.12508966409E+03 0.  0.
          5    1    3    3  502    0  0.30263775846E+02  0.70667950468E+02  0.87289498015E+02  0.11639065347E+03  0.41800000000E+01 0.  1.
         -5    1    3    3    0  502  0.19594090107E+02 -0.42978230040E+02  0.15608262712E+03  0.16312668547E+03  0.41800000000E+01 0.  1.
        -11    1    1    2    0    0 -0.29479879985E+02 -0.47415525457E+02  0.13253050542E+02  0.57384133059E+02  0.00000000000E+00 0. -1.
         11    1    1    2    0    0 -0.20377985968E+02  0.19725805030E+02  0.77797973903E+02  0.82806367144E+02  0.00000000000E+00 0.  1.
</event>
<event>
 7    1  0.2594791E-009  0.1775503E+03  0.7561462E-02  0.1170195E+00
         -1   -1    0    0    0  501 -0.00000000000E+00  0.00000000000E+00  0.58228767277E+03  0.58228767277E+03  0.00000000000E+00 0. -1.
          1   -1    0    0  501    0  0.00000000000E+00 -0.00000000000E+00 -0.75728295003E+02  0.75728295003E+02  0.00000000000E+00 0.  1.
         25    2    1    2    0    0 -0.94652581951E+02 -0.11005427507E+03  0.42896359623E+03  0.46981645422E+03  0.12508668609E+03 0.  0.
          5    1    3    3  502    0 -0.12063017564E+03 -0.84300203838E+02  0.27973282365E+03  0.31611088033E+03  0.41800000000E+01 0.  1.
         -5    1    3    3    0  502  0.25977593685E+02 -0.25754071231E+02  0.14923077258E+03  0.15370557389E+03  0.41800000000E+01 0.  1.
        -11    1    1    2    0    0  0.69019525757E+02  0.12439309087E+02  0.38184581883E+02  0.79852950101E+02  0.00000000000E+00 0. -1.
         11    1    1    2    0    0  0.25633056194E+02  0.97614965982E+02  0.39411199658E+02  0.10834656345E+03  0.00000000000E+00 0.  1.
</event>
<event>
 7    1  0.3486584E-009  0.9606231E+02  0.7561462E-02  0.1288801E+00
         -3   -1    0    0    0  501 -0.00000000000E+00  0.00000000000E+00  0.18260584201E+03  0.18260584201E+03  0.00000000000E+00 0.  1.
          3   -1    0    0  501    0  0.00000000000E+00 -0.00000000000E+00 -0.94954226706E+02  0.94954226706E+02  0.00000000000E+00 0. -1.
         25    2    1    2    0    0 -0.61788266810E+02  0.11760298361E+02  0.91972225096E+02  0.16751873251E+03  0.12509013158E+03 0.  0.
          5    1    3    3  502    0 -0.26675231157E+02 -0.50294229295E+02  0.74741898494E+02  0.94047335147E+02  0.41800000000E+01 0. -1.
         -5    1    3    3    0  502 -0.35113035653E+02  0.62054527657E+02  0.17230326601E+02  0.73471397361E+02  0.41800000000E+01 0. -1.
        -11    1    1    2    0    0  0.32495587260E+02 -0.11030613735E+02  0.42612303491E+02  0.54712393839E+02  0.00000000000E+00 0.  1.
         11    1    1    2    0    0  0.29292679550E+02 -0.72968462623E+00 -0.46932913281E+02  0.55328942371E+02  0.00000000000E+00 0. -1.
</event>
<event>
 7    1  0.2594791E-009  0.1086440E+03  0.7561462E-02  0.1263102E+00
         -1   -1    0    0    0  501 -0.00000000000E+00  0.00000000000E+00  0.11258805679E+03  0.11258805679E+03  0.00000000000E+00 0. -1.
          1   -1    0    0  501    0  0.00000000000E+00 -0.00000000000E+00 -0.14090423292E+03  0.14090423292E+03  0.00000000000E+00 0.  1.
         25    2    1    2    0    0  0.13847409603E+02 -0.38322873023E+01  0.46913192394E+02  0.13438375259E+03  0.12510678703E+03 0.  0.
          5    1    3    3  502    0  0.44977304305E+02 -0.51676401294E+02  0.27651813410E+02  0.73996645451E+02  0.41800000000E+01 0. -1.
         -5    1    3    3    0  502 -0.31129894702E+02  0.47844113992E+02  0.19261378985E+02  0.60387107136E+02  0.41800000000E+01 0. -1.
        -11    1    1    2    0    0  0.11934978293E+02 -0.39353034810E+02 -0.42280602560E+02  0.58980966493E+02  0.00000000000E+00 0.  1.
         11    1    1    2    0    0 -0.25782387895E+02  0.43185322112E+02 -0.32948765969E+02  0.60127570634E+02  0.00000000000E+00 0. -1.
</event>
<event>
 7    1  0.2594791E-009  0.1044979E+03  0.7561462E-02  0.1271112E+00
         -2   -1    0    0    0  501 -0.00000000000E+00  0.00000000000E+00  0.53104206814E+02  0.53104206814E+02  0.00000000000E+00 0. -1.
          2   -1    0    0  501    0  0.00000000000E+00 -0.00000000000E+00 -0.29978986869E+03  0.29978986869E+03  0.00000000000E+00 0.  1.
         25    2    1    2    0    0  0.27964361286E+02  0.11472233578E+02 -0.21790064320E+03  0.25306864763E+03  0.12509769166E+03 0.  0.
          5    1    3    3  502    0  0.53213488421E+02 -0.42897666251E+02 -0.12163778637E+03  0.13958907046E+03  0.41800000000E+01 0. -1.
         -5    1    3    3    0  502 -0.25249127135E+02  0.54369899829E+02 -0.96262856835E+02  0.11347957717E+03  0.41800000000E+01 0. -1.
        -11    1    1    2    0    0  0.43232914426E+01  0.28621728983E+02 -0.37751820016E+02  0.47571988958E+02  0.00000000000E+00 0.  1.
         11    1    1    2    0    0 -0.32287652729E+02 -0.40093962561E+02  0.89668013396E+01  0.52253438919E+02  0.00000000000E+00 0. -1.
</event>
<event>
 7    1  0.2594791E-009  0.1457999E+03  0.7561462E-02  0.1205731E+00
          2   -1    0    0  501    0  0.00000000000E+00  0.00000000000E+00  0.39567071228E+03  0.39567071228E+03  0.00000000000E+00 0. -1.
         -2   -1    0    0    0  501 -0.00000000000E+00 -0.00000000000E+00 -0.85721414716E+02  0.85721414716E+02  0.00000000000E+00 0.  1.
         25    2    1    2    0    0 -0.26834104489E+02 -0.10879499940E+03  0.28939784642E+03  0.33459823404E+03  0.12509373947E+03 0.  0.
          5    1    3    3  502    0 -0.74551734134E+02 -0.76463937697E+02  0.15470733024E+03  0.18803330892E+03  0.41800000000E+01 0. -1.
         -5    1    3    3    0  502  0.47717629644E+02 -0.32331061700E+02  0.13469051617E+03  0.14656492512E+03  0.41800000000E+01 0. -1.
        -11    1    1    2    0    0  0.25132629832E+02  0.83618412734E+01  0.36489857639E+02  0.45089679332E+02  0.00000000000E+00 0. -1.
         11    1    1    2    0    0  0.17014746570E+01  0.10043315812E+03 -0.15938406495E+02  0.10170421362E+03  0.00000000000E+00 0.  1.
</event>
<event>
 7    1  0.2594791E-009  0.1443999E+03  0.7561462E-02  0.1207528E+00
          1   -1    0    0  501    0  0.00000000000E+00  0.00000000000E+00  0.33228051143E+03  0.33228051143E+03  0.00000000000E+00 0. -1.
         -1   -1    0    0    0  501 -0.00000000000E+00 -0.00000000000E+00 -0.66490010854E+02  0.66490010854E+02  0.00000000000E+00 0.  1.
         25    2    1    2    0    0 -0.63116998994E+02  0.78132426340E+02  0.13287147987E+03  0.20830441533E+03  0.12508983842E+03 0.  0.
          5    1    3    3  502    0 -0.16096199552E+02  0.10374147720E+03  0.10161414061E+03  0.14616527530E+03  0.41800000000E+01 0.  1.
         -5    1    3    3    0  502 -0.47020799442E+02 -0.25609050860E+02  0.31257339252E+02  0.62139140026E+02  0.41800000000E+01 0.  1.
        -11    1    1    2    0    0 -0.19502209083E+02 -0.25367466309E+02  0.10591773108E+02  0.33705046561E+02  0.00000000000E+00 0.  1.
         11    1    1    2    0    0  0.82619208077E+02 -0.52764960031E+02  0.12232724761E+03  0.15676106040E+03  0.00000000000E+00 0. -1.
</event>
<event>
 7    1  0.2594791E-009  0.1071682E+03  0.7561462E-02  0.1265906E+00
          1   -1    0    0  501    0  0.00000000000E+00  0.00000000000E+00  0.69832566466E+02  0.69832566466E+02  0.00000000000E+00 0. -1.
         -1   -1    0    0    0  501 -0.00000000000E+00 -0.00000000000E+00 -0.23307276289E+03  0.23307276289E+03  0.00000000000E+00 0.  1.
         25    2    1    2    0    0 -0.26297212037E+02  0.49180679468E+02 -0.13134347581E+03  0.18978082773E+03  0.12512142639E+03 0.  0.
          5    1    3    3  502    0 -0.25961536260E+02  0.91105700537E+02 -0.89127831468E+02  0.13013643908E+03  0.41800000000E+01 0. -1.
         -5    1    3    3    0  502 -0.33567577669E+00 -0.41925021069E+02 -0.42215644347E+02  0.59644388650E+02  0.41800000000E+01 0. -1.
        -11    1    1    2    0    0 -0.10481436031E+02 -0.37273924836E+02  0.23708612878E+02  0.45401589163E+02  0.00000000000E+00 0. -1.
         11    1    1    2    0    0  0.36778648068E+02 -0.11906754632E+02 -0.55605333488E+02  0.67722912459E+02  0.00000000000E+00 0.  1.
</event>
<event>
 7    1  0.2594791E-009  0.9495341E+02  0.7561462E-02  0.1291281E+00
          1   -1    0    0  501    0  0.00000000000E+00  0.00000000000E+00  0.13527983600E+03  0.13527983600E+03  0.00000000000E+00 0. -1.
         -1   -1    0    0    0  501 -0.00000000000E+00 -0.00000000000E+00 -0.97396293934E+02  0.97396293934E+02  0.00000000000E+00 0.  1.
         25    2    1    2    0    0  0.64385261178E+01 -0.40826239790E+01  0.59356765665E+02  0.13866327749E+03  0.12508459720E+03 0.  0.
          5    1    3    3  502    0 -0.31681026345E+02 -0.53152781117E+02  0.20788553726E+02  0.65410564412E+02  0.41800000000E+01 0. -1.
         -5    1    3    3    0  502  0.38119552463E+02  0.49070157138E+02  0.38568211939E+02  0.73252713081E+02  0.41800000000E+01 0. -1.
        -11    1    1    2    0    0 -0.35511771394E+01 -0.30601229459E+02  0.22343041646E+02  0.38055979996E+02  0.00000000000E+00 0. -1.
         11    1    1    2    0    0 -0.28873489784E+01  0.34683853438E+02 -0.43816265247E+02  0.55956872443E+02  0.00000000000E+00 0.  1.
</event>
<event>
 7    1  0.2594791E-009  0.2126027E+03  0.7561462E-02  0.1139521E+00
         -2   -1    0    0    0  501 -0.00000000000E+00  0.00000000000E+00  0.28399550463E+03  0.28399550463E+03  0.00000000000E+00 0.  1.
          2   -1    0    0  501    0  0.00000000000E+00 -0.00000000000E+00 -0.17126317688E+03  0.17126317688E+03  0.00000000000E+00 0. -1.
         25    2    1    2    0    0 -0.20270278449E+02  0.19041402626E+03  0.77056808298E+02  0.24135821007E+03  0.12509056030E+03 0.  0.
          5    1    3    3  502    0  0.49604998599E+02  0.81827466702E+02  0.54529674796E+02  0.11021500817E+03  0.41800000000E+01 0.  1.
         -5    1    3    3    0  502 -0.69875277048E+02  0.10858655956E+03  0.22527133502E+02  0.13114320190E+03  0.41800000000E+01 0.  1.
        -11    1    1    2    0    0  0.38349227175E+02 -0.16257632902E+03  0.54545706185E+02  0.17571841123E+03  0.00000000000E+00 0.  1.
         11    1    1    2    0    0 -0.18078948726E+02 -0.27837697241E+02 -0.18870186738E+02  0.38182060214E+02  0.00000000000E+00 0. -1.
</event>
<event>
 7    1  0.2594791E-009  0.1238441E+03  0.7561462E-02  0.1236887E+00
         -3   -1    0    0    0  501 -0.00000000000E+00  0.00000000000E+00  0.20516758044E+03  0.20516758044E+03  0.00000000000E+00 0.  1.
          3   -1    0    0  501    0  0.00000000000E+00 -0.00000000000E+00 -0.86090043344E+02  0.86090043344E+02  0.00000000000E+00 0. -1.
         25    2    1    2    0    0  0.45600340810E+02 -0.44861029449E+02  0.10892614264E+03  0.17777638341E+03  0.12509050684E+03 0.  0.
          5    1    3    3  502    0  0.24678238422E+01 -0.82380960940E+02  0.55765205529E+02  0.99598912783E+02  0.41800000000E+01 0.  1.
         -5    1    3    3    0  502  0.43132516968E+02  0.37519931491E+02  0.53160937115E+02  0.78177470629E+02  0.41800000000E+01 0.  1.
        -11    1    1    2    0    0 -0.38071958392E+02  0.71042868355E+02  0.22334447193E+02  0.83638452230E+02  0.00000000000E+00 0.  1.
         11    1    1    2    0    0 -0.75283824178E+01 -0.26181838906E+02 -0.12183052737E+02  0.29842788146E+02  0.00000000000E+00 0. -1.
</event>
<event>
 7    1  0.2594791E-009  0.9506708E+02  0.7561462E-02  0.1291025E+00
         -3   -1    0    0    0  501 -0.00000000000E+00  0.00000000000E+00  0.32044148021E+03  0.32044148021E+03  0.00000000000E+00 0.  1.
          3   -1    0    0  501    0  0.00000000000E+00 -0.00000000000E+00 -0.65682370447E+02  0.65682370447E+02  0.00000000000E+00 0. -1.
         25    2    1    2    0    0  0.22751495722E+02  0.80372839030E+00  0.14575905773E+02  0.12797713220E+03  0.12508961908E+03 0.  0.
          5    1    3    3  502    0  0.55751323741E+02  0.19194242351E+02 -0.32512847237E+02  0.67462483454E+02  0.41800000000E+01 0.  1.
         -5    1    3    3    0  502 -0.32999828019E+02 -0.18390513961E+02  0.47088753010E+02  0.60514648748E+02  0.41800000000E+01 0.  1.
        -11    1    1    2    0    0  0.27953724980E+02  0.23746570549E+02  0.72446206681E+02  0.81201990219E+02  0.00000000000E+00 0.  1.
         11    1    1    2    0    0 -0.50705220702E+02 -0.24550298939E+02  0.16773699731E+03  0.17694472824E+03  0.00000000000E+00 0. -1.
</event>
<event>
 7    1  0.2594791E-009  0.1677241E+03  0.7561462E-02  0.1180242E+00
         -3   -1    0    0    0  501 -0.00000000000E+00  0.00000000000E+00  0.34765300820E+03  0.34765300820E+03  0.00000000000E+00 0.  1.
          3   -1    0    0  501    0  0.00000000000E+00 -0.00000000000E+00 -0.90019418363E+02  0.90019418363E+02  0.00000000000E+00 0. -1.
         25    2    1    2    0    0  0.86150973621E+02  0.10316442352E+03  0.89895701954E+02  0.20443548121E+03  0.12509092778E+03 0.  0.
          5    1    3    3  502    0  0.34848457921E+02 -0.26098812316E+02  0.29507391381E+02  0.52760985301E+02  0.41800000000E+01 0. -1.
         -5    1    3    3    0  502  0.51302515699E+02  0.12926323584E+03  0.60388310574E+02  0.15167449591E+03  0.41800000000E+01 0. -1.
        -11    1    1    2    0    0 -0.32334145785E+01 -0.58125582786E+02  0.10457818232E+03  0.11968974292E+03  0.00000000000E+00 0.  1.
         11    1    1    2    0    0 -0.82917559042E+02 -0.45038840736E+02  0.63159705568E+02  0.11354720243E+03  0.00000000000E+00 0. -1.
</event>
<event>
 7    1  0.2594791E-009  0.1077111E+03  0.7561462E-02  0.1264868E+00
         -2   -1    0    0    0  501 -0.00000000000E+00  0.00000000000E+00  0.13104092557E+02  0.13104092557E+02  0.00000000000E+00 0.  1.
          2   -1    0    0  501    0  0.00000000000E+00 -0.00000000000E+00 -0.10813075584E+04  0.10813075584E+04  0.00000000000E+00 0. -1.
         25    2    1    2    0    0 -0.41223575668E+02  0.22095529122E+02 -0.69470916456E+03  0.70742927130E+03  0.12509098677E+03 0.  0.
          5    1    3    3  502    0 -0.49777113620E+02 -0.32981094688E+02 -0.53263734906E+03  0.53599023467E+03  0.41800000000E+01 0. -1.
         -5    1    3    3    0  502  0.85535379521E+01  0.55076623810E+02 -0.16207181550E+03  0.17143903663E+03  0.41800000000E+01 0. -1.
        -11    1    1    2    0    0  0.65803933670E+02 -0.31997284670E+02 -0.24095927597E+03  0.25182405880E+03  0.00000000000E+00 0. -1.
         11    1    1    2    0    0 -0.24580358001E+02  0.99017555485E+01 -0.13253502527E+03  0.13515832081E+03  0.00000000000E+00 0.  1.
</event>
<event>
 7    1  0.2594791E-009  0.8303265E+02  0.7561462E-02  0.1320659E+00
          2   -1    0    0  501    0  0.00000000000E+00  0.00000000000E+00  0.57142989770E+02  0.57142989770E+02  0.00000000000E+00 0. -1.
         -2   -1    0    0    0  501 -0.00000000000E+00 -0.00000000000E+00 -0.20177558388E+03  0.20177558388E+03  0.00000000000E+00 0.  1.
         25    2    1    2    0    0 -0.93427340113E+01  0.19348380710E+01 -0.85132292513E+02  0.15160001362E+03  0.12507608335E+03 0.  0.
          5    1    3    3  502    0  0.46807506558E+02  0.15526290398E+02 -0.10570568020E+01  0.49503516368E+02  0.41800000000E+01 0.  1.
         -5    1    3    3    0  502 -0.56150240569E+02 -0.13591452327E+02 -0.84075235711E+02  0.10209649726E+03  0.41800000000E+01 0.  1.
        -11    1    1    2    0    0 -0.18243151614E+02 -0.18897461958E+02 -0.68785437070E+02  0.73629905624E+02  0.00000000000E+00 0.  1.
         11    1    1    2    0    0  0.27585885625E+02  0.16962623887E+02  0.92851354710E+01  0.33688654404E+02  0.00000000000E+00 0. -1.
</event>
<event>
 7    1  0.2594791E-009  0.9635345E+02  0.7561462E-02  0.1288157E+00
          1   -1    0    0  501    0  0.00000000000E+00  0.00000000000E+00  0.40020066173E+03  0.40020066173E+03  0.00000000000E+00 0. -1.
         -1   -1    0    0    0  501 -0.00000000000E+00 -0.00000000000E+00 -0.94193023614E+02  0.94193023614E+02  0.00000000000E+00 0.  1.
         25    2    1    2    0    0 -0.66829789580E+01 -0.23335287323E+02 -0.42166750586E+02  0.13421226494E+03  0.12508277005E+03 0.  0.
          5    1    3    3  502    0  0.26723012316E+02 -0.57775530689E+02 -0.55153975001E+02  0.84330093632E+02  0.41800000000E+01 0. -1.
         -5    1    3    3    0  502 -0.33405991274E+02  0.34440243367E+02  0.12987224415E+02  0.49882171306E+02  0.41800000000E+01 0. -1.
        -11    1    1    2    0    0  0.15736961586E+02  0.50091335860E+02  0.29810888576E+03  0.30269737636E+03  0.00000000000E+00 0.  1.
         11    1    1    2    0    0 -0.90539826284E+01 -0.26756048537E+02  0.50065502944E+02  0.57484044045E+02  0.00000000000E+00 0. -1.
</event>
<event>
 7    1  0.2594791E-009  0.1692148E+03  0.7561462E-02  0.1178669E+00
         -2   -1    0    0    0  501 -0.00000000000E+00  0.00000000000E+00  0.24296189871E+03  0.24296189871E+03  0.00000000000E+00 0.  1.
          2   -1    0    0  501    0  0.00000000000E+00 -0.00000000000E+00 -0.14943095427E+03  0.14943095427E+03  0.00000000000E+00 0. -1.
         25    2    1    2    0    0  0.44127251347E+02  0.13689561934E+03  0.11238156439E+03  0.22127903095E+03  0.12508864304E+03 0.  0.
          5    1    3    3  502    0  0.49304827042E+02  0.11335489617E+02 -0.26907073988E+01  0.50834747967E+02  0.41800000000E+01 0. -1.
         -5    1    3    3    0  502 -0.51775756951E+01  0.12556012973E+03  0.11507227179E+03  0.17044428298E+03  0.41800000000E+01 0. -1.
        -11    1    1    2    0    0  0.97971158843E+01 -0.89805928500E+02 -0.36411185552E+02  0.97400527241E+02  0.00000000000E+00 0.  1.
         11    1    1    2    0    0 -0.53924367232E+02 -0.47089690844E+02  0.17560565599E+02  0.73713294793E+02  0.00000000000E+00 0. -1.
</event>
<event>
 7    1  0.2594791E-009  0.8268264E+02  0.7561462E-02  0.1321606E+00
         -1   -1    0    0    0  501 -0.00000000000E+00  0.00000000000E+00  0.30399325314E+03  0.30399325314E+03  0.00000000000E+00 0.  1.
          1   -1    0    0  501    0  0.00000000000E+00 -0.00000000000E+00 -0.44052798366E+02  0.44052798366E+02  0.00000000000E+00 0. -1.
         25    2    1    2    0    0  0.15125434864E+02 -0.23530170696E+02  0.98557091428E+02  0.16169068391E+03  0.12509168349E+03 0.  0.
          5    1    3    3  502    0 -0.21638964859E+02  0.29326020842E+02 -0.76010077950E+01  0.37463422402E+02  0.41800000000E+01 0.  1.
         -5    1    3    3    0  502  0.36764399723E+02 -0.52856191538E+02  0.10615809922E+03  0.12422726151E+03  0.41800000000E+01 0.  1.
        -11    1    1    2    0    0 -0.31251665915E+02 -0.47453180400E+01  0.14770135453E+03  0.15104593605E+03  0.00000000000E+00 0.  1.
         11    1    1    2    0    0  0.16126231051E+02  0.28275488736E+02  0.13682008814E+02  0.35309431550E+02  0.00000000000E+00 0. -1.
</event>
<event>
 7    1  0.2594791E-009  0.1438423E+03  0.7561462E-02  0.1208250E+00
          2   -1    0    0  501    0  0.00000000000E+00  0.00000000000E+00  0.45019707787E+03  0.45019707787E+03  0.00000000000E+00 0. -1.
         -2   -1    0    0    0  501 -0.00000000000E+00 -0.00000000000E+00 -0.60811985048E+02  0.60811985048E+02  0.00000000000E+00 0.  1.
         25    2    1    2    0    0 -0.23317393754E+02 -0.12058551407E+03  0.17507512158E+03  0.24775700593E+03  0.12509064209E+03 0.  0.
          5    1    3    3  502    0 -0.52282759639E+02 -0.11540648369E+03  0.84291281682E+02  0.15223217794E+03  0.41800000000E+01 0. -1.
         -5    1    3    3    0  502  0.28965365885E+02 -0.51790303740E+01  0.90783839894E+02  0.95524827989E+02  0.41800000000E+01 0. -1.
        -11    1    1    2    0    0  0.36874114249E+02  0.99683701265E+02  0.98893463860E+02  0.14517733223E+03  0.00000000000E+00 0.  1.
         11    1    1    2    0    0 -0.13556720495E+02  0.20901812800E+02  0.11541650738E+03  0.11807472475E+03  0.00000000000E+00 0. -1.
</event>
<event>
 7    1  0.2594791E-009  0.1298636E+03  0.7561462E-02  0.1227658E+00
         -2   -1    0    0    0  501 -0.00000000000E+00  0.00000000000E+00  0.82992006403E+02  0.82992006403E+02  0.00000000000E+00 0.  1.
          2   -1    0    0  501    0  0.00000000000E+00 -0.00000000000E+00 -0.23061823888E+03  0.23061823888E+03  0.00000000000E+00 0. -1.
         25    2    1    2    0    0  0.62754832251E+02  0.56143430364E+02 -0.56661946505E+02  0.16108507543E+03  0.12509025382E+03 0.  0.
          5    1    3    3  502    0 -0.32227465946E+02  0.15835862231E+02  0.10808441584E+02  0.37731669767E+02  0.41800000000E+01 0. -1.
         -5    1    3    3    0  502  0.94982298197E+02  0.40307568133E+02 -0.67470388089E+02  0.12335340566E+03  0.41800000000E+01 0. -1.
        -11    1    1    2    0    0  0.18376580800E+02 -0.29798621208E+02 -0.14238130034E+02  0.37793926690E+02  0.00000000000E+00 0.  1.
         11    1    1    2    0    0 -0.81131413051E+02 -0.26344809156E+02 -0.76726155936E+02  0.11473124316E+03  0.00000000000E+00 0. -1.
</event>
<event>
 7    1  0.2594791E-009  0.2227967E+03  0.7561462E-02  0.1131815E+00
          1   -1    0    0  501    0  0.00000000000E+00  0.00000000000E+00  0.71093080718E+03  0.71093080718E+03  0.00000000000E+00 0. -1.
         -1   -1    0    0    0  501 -0.00000000000E+00 -0.00000000000E+00 -0.75627873691E+02  0.75627873691E+02  0.00000000000E+00 0.  1.
         25    2    1    2    0    0 -0.18504488209E+03 -0.85438718842E+02  0.29147069034E+03  0.37702062675E+03  0.12509199257E+03 0.  0.
          5    1    3    3  502    0 -0.12345805687E+03  0.11632301389E+02  0.15433173542E+03  0.19802262294E+03  0.41800000000E+01 0. -1.
         -5    1    3    3    0  502 -0.61586825226E+02 -0.97071020231E+02  0.13713895492E+03  0.17899800381E+03  0.41800000000E+01 0. -1.
        -11    1    1    2    0    0  0.22460561835E+02  0.23478926747E+02  0.11594925224E+02  0.34498972885E+02  0.00000000000E+00 0.  1.
         11    1    1    2    0    0  0.16258432026E+03  0.61959792095E+02  0.33223731793E+03  0.37503908124E+03  0.00000000000E+00 0. -1.
</event>
<event>
 7    1  0.2594791E-009  0.1915406E+03  0.7561462E-02  0.1157079E+00
          1   -1    0    0  501    0  0.00000000000E+00  0.00000000000E+00  0.25192603751E+02  0.25192603751E+02  0.00000000000E+00 0. -1.
         -1   -1    0    0    0  501 -0.00000000000E+00 -0.00000000000E+00 -0.21673545429E+04  0.21673545429E+04  0.00000000000E+00 0.  1.
         25    2    1    2    0    0  0.86780153308E+02 -0.14584244926E+03 -0.16552974996E+04  0.16686697796E+04  0.12509279009E+03 0.  0.
          5    1    3    3  502    0  0.10044606972E+03 -0.79474010881E+02 -0.13417829643E+04  0.13478889150E+04  0.41800000000E+01 0. -1.
         -5    1    3    3    0  502 -0.13665916417E+02 -0.66368438377E+02 -0.31351453527E+03  0.32078086462E+03  0.41800000000E+01 0. -1.
        -11    1    1    2    0    0 -0.50994628512E+02  0.17676776106E+02 -0.20804726992E+03  0.21493391327E+03  0.00000000000E+00 0.  1.
         11    1    1    2    0    0 -0.35785524796E+02  0.12816567315E+03 -0.27881716962E+03  0.30894345378E+03  0.00000000000E+00 0. -1.
</event>
<event>
 7    1  0.2594791E-009  0.7899317E+02  0.7561462E-02  0.1331933E+00
         -1   -1    0    0    0  501 -0.00000000000E+00  0.00000000000E+00  0.71347434699E+02  0.71347434699E+02  0.00000000000E+00 0.  1.
          1   -1    0    0  501    0  0.00000000000E+00 -0.00000000000E+00 -0.18022245906E+03  0.18022245906E+03  0.00000000000E+00 0. -1.
         25    2    1    2    0    0 -0.12744329549E+02  0.28826673848E+02 -0.47751560108E+02  0.13755273022E+03  0.12508855678E+03 0.  0.
          5    1    3    3  502    0 -0.48232328323E+02  0.14826945682E+02  0.24114059894E+02  0.56081691293E+02  0.41800000000E+01 0.  1.
         -5    1    3    3    0  502  0.35487998774E+02  0.13999728166E+02 -0.71865620002E+02  0.81471038928E+02  0.41800000000E+01 0.  1.
        -11    1    1    2    0    0 -0.19293944693E+02 -0.31378889572E+02 -0.71343261031E+02  0.80291667732E+02  0.00000000000E+00 0. -1.
         11    1    1    2    0    0  0.32038274243E+02  0.25522157238E+01  0.10219796775E+02  0.33725495810E+02  0.00000000000E+00 0.  1.
</event>
<event>
 7    1  0.2594791E-009  0.9501902E+02  0.7561462E-02  0.1291133E+00
         -4   -1    0    0    0  501 -0.00000000000E+00  0.00000000000E+00  0.72710282290E+02  0.72710282290E+02  0.00000000000E+00 0.  1.
          4   -1    0    0  501    0  0.00000000000E+00 -0.00000000000E+00 -0.24731081695E+03  0.24731081695E+03  0.00000000000E+00 0. -1.
         25    2    1    2    0    0 -0.13462391663E+02 -0.57138627578E+02 -0.33110274953E+02  0.14209307749E+03  0.12509234035E+03 0.  0.
          5    1    3    3  502    0 -0.27483036886E+02  0.48224543227E+01 -0.65020900156E+02  0.70878510419E+02  0.41800000000E+01 0.  1.
         -5    1    3    3    0  502  0.14020645223E+02 -0.61961081901E+02  0.31910625203E+02  0.71214567075E+02  0.41800000000E+01 0.  1.
        -11    1    1    2    0    0 -0.23207273815E+02 -0.70324976602E+01 -0.83460661214E+01  0.25645475254E+02  0.00000000000E+00 0.  1.
         11    1    1    2    0    0  0.36669665478E+02  0.64171125238E+02 -0.13314419358E+03  0.15228254649E+03  0.00000000000E+00 0. -1.
</event>
<event>
 7    1  0.3162321E-009  0.1570122E+03  0.7561462E-02  0.1192112E+00
          2   -1    0    0  501    0  0.00000000000E+00  0.00000000000E+00  0.93020876874E+03  0.93020876874E+03  0.00000000000E+00 0. -1.
         -2   -1    0    0    0  501 -0.00000000000E+00 -0.00000000000E+00 -0.34704206712E+02  0.34704206712E+02  0.00000000000E+00 0.  1.
         25    2    1    2    0    0  0.10560983539E+03 -0.88608477436E+02  0.57258771350E+03  0.60208772787E+03  0.12509213726E+03 0.  0.
          5    1    3    3  502    0 -0.13366918484E+02  0.31088331031E+01  0.19740403801E+03  0.19792464722E+03  0.41800000000E+01 0.  1.
         -5    1    3    3    0  502  0.11897675388E+03 -0.91717310539E+02  0.37518367549E+03  0.40416308066E+03  0.41800000000E+01 0.  1.
        -11    1    1    2    0    0 -0.26679020805E+02  0.59606517662E+02  0.67491111130E+02  0.93913562282E+02  0.00000000000E+00 0.  1.
         11    1    1    2    0    0 -0.78930814586E+02  0.29001959774E+02  0.25542573740E+03  0.26891168530E+03  0.00000000000E+00 0. -1.
</event>
<event>
 7    1  0.2594791E-009  0.1527222E+03  0.7561462E-02  0.1197167E+00
          1   -1    0    0  501    0  0.00000000000E+00  0.00000000000E+00  0.20318081463E+03  0.20318081463E+03  0.00000000000E+00 0. -1.
         -1   -1    0    0    0  501 -0.00000000000E+00 -0.00000000000E+00 -0.14682349572E+03  0.14682349572E+03  0.00000000000E+00 0.  1.
         25    2    1    2    0    0 -0.59007507178E+02  0.11799227482E+03  0.92675824565E+01  0.18203884110E+03  0.12509272067E+03 0.  0.
          5    1    3    3  502    0  0.11096513883E+02  0.28483660215E+02  0.52035595805E+02  0.60494852263E+02  0.41800000000E+01 0.  1.
         -5    1    3    3    0  502 -0.70104021060E+02  0.89508614603E+02 -0.42768013348E+02  0.12154398884E+03  0.41800000000E+01 0.  1.
        -11    1    1    2    0    0 -0.25015588356E+02 -0.31653132453E+02  0.66832534417E+01  0.40894575819E+02  0.00000000000E+00 0.  1.
         11    1    1    2    0    0  0.84023095534E+02 -0.86339142365E+02  0.40406483019E+02  0.12707089343E+03  0.00000000000E+00 0. -1.
</event>
<event>
 7    1  0.2594791E-009  0.1385678E+03  0.7561462E-02  0.1215269E+00
          1   -1    0    0  501    0  0.00000000000E+00  0.00000000000E+00  0.59602978244E+03  0.59602978244E+03  0.00000000000E+00 0. -1.
         -1   -1    0    0    0  501 -0.00000000000E+00 -0.00000000000E+00 -0.73350316400E+02  0.73350316400E+02  0.00000000000E+00 0.  1.
         25    2    1    2    0    0  0.12743682825E+03 -0.23354760684E+02  0.46767751743E+03  0.50114945312E+03  0.12507167551E+03 0.  0.
          5    1    3    3  502    0  0.11431657898E+03 -0.19710208203E+02  0.18691641684E+03  0.22002725245E+03  0.41800000000E+01 0.  1.
         -5    1    3    3    0  502  0.13120249262E+02 -0.36445524807E+01  0.28076110059E+03  0.28112220067E+03  0.41800000000E+01 0.  1.
        -11    1    1    2    0    0 -0.12047005427E+03 -0.20323608703E+01  0.16532954011E+02  0.12161621205E+03  0.00000000000E+00 0.  1.
         11    1    1    2    0    0 -0.69667739765E+01  0.25387121554E+02  0.38468994602E+02  0.46614433667E+02  0.00000000000E+00 0. -1.
</event>
<event>
 7    1  0.2594791E-009  0.1092821E+03  0.7561462E-02  0.1261905E+00
          1   -1    0    0  501    0  0.00000000000E+00  0.00000000000E+00  0.63615267345E+03  0.63615267345E+03  0.00000000000E+00 0. -1.
         -1   -1    0    0    0  501 -0.00000000000E+00 -0.00000000000E+00 -0.21464640780E+02  0.21464640780E+02  0.00000000000E+00 0.  1.
         25    2    1    2    0    0  0.26002649356E+01  0.30908256845E+02  0.43896484004E+03  0.45749242008E+03  0.12508837645E+03 0.  0.
          5    1    3    3  502    0  0.62450434920E+02  0.18519413062E+02  0.26958185213E+03  0.27737136276E+03  0.41800000000E+01 0. -1.
         -5    1    3    3    0  502 -0.59850169984E+02  0.12388843783E+02  0.16938298791E+03  0.18012105732E+03  0.41800000000E+01 0. -1.
        -11    1    1    2    0    0 -0.24683415679E+02 -0.54430690738E+02  0.85594777163E+02  0.10439557932E+03  0.00000000000E+00 0.  1.
         11    1    1    2    0    0  0.22083150744E+02  0.23522433893E+02  0.90128415469E+02  0.95729314831E+02  0.00000000000E+00 0. -1.
</event>
<event>
 7    1  0.2594791E-009  0.1525478E+03  0.7561462E-02  0.1197377E+00
         -1   -1    0    0    0  501 -0.00000000000E+00  0.00000000000E+00  0.11104335039E+03  0.11104335039E+03  0.00000000000E+00 0.  1.
          1   -1    0    0  501    0  0.00000000000E+00 -0.00000000000E+00 -0.34147712029E+03  0.34147712029E+03  0.00000000000E+00 0. -1.
         25    2    1    2    0    0  0.98771865738E+02 -0.67258744844E+02 -0.24827164500E+03  0.30260128893E+03  0.12509640335E+03 0.  0.
          5    1    3    3  502    0  0.68314911842E+02  0.14369230998E+02 -0.17579336453E+03  0.18919350251E+03  0.41800000000E+01 0.  1.
         -5    1    3    3    0  502  0.30456953896E+02 -0.81627975842E+02 -0.72478280473E+02  0.11340778642E+03  0.41800000000E+01 0.  1.
        -11    1    1    2    0    0 -0.20464609579E+02  0.66549711609E+02  0.10126522052E+00  0.69625244093E+02  0.00000000000E+00 0. -1.
         11    1    1    2    0    0 -0.78307256159E+02  0.70903323591E+00  0.17736609882E+02  0.80293937663E+02  0.00000000000E+00 0.  1.
</event>
<event>
 7    1  0.2594791E-009  0.1167496E+03  0.7561462E-02  0.1248558E+00
         -1   -1    0    0    0  501 -0.00000000000E+00  0.00000000000E+00  0.10818822444E+03  0.10818822444E+03  0.00000000000E+00 0.  1.
          1   -1    0    0  501    0  0.00000000000E+00 -0.00000000000E+00 -0.15690608435E+03  0.15690608435E+03  0.00000000000E+00 0. -1.
         25    2    1    2    0    0  0.23856548103E+02  0.67484237532E+02 -0.22158136816E+02  0.14581236194E+03  0.12508798769E+03 0.  0.
          5    1    3    3  502    0 -0.45426942790E+02  0.27873544031E+02  0.17952953758E+02  0.56394348447E+02  0.41800000000E+01 0. -1.
         -5    1    3    3    0  502  0.69283490893E+02  0.39610693501E+02 -0.40111090573E+02  0.89418013492E+02  0.41800000000E+01 0. -1.
        -11    1    1    2    0    0 -0.46436398228E+02 -0.26862270488E+02  0.16292361673E+02  0.56065690980E+02  0.00000000000E+00 0.  1.
         11    1    1    2    0    0  0.22579850125E+02 -0.40621967044E+02 -0.42852084765E+02  0.63216255875E+02  0.00000000000E+00 0. -1.
</event>
<event>
 7    1  0.2594791E-009  0.1256193E+03  0.7561462E-02  0.1234105E+00
         -3   -1    0    0    0  501 -0.00000000000E+00  0.00000000000E+00  0.95415171430E+03  0.95415171430E+03  0.00000000000E+00 0.  1.
          3   -1    0    0  501    0  0.00000000000E+00 -0.00000000000E+00 -0.21558408588E+02  0.21558408588E+02  0.00000000000E+00 0. -1.
         25    2    1    2    0    0  0.56317041479E+02 -0.48312444549E+02  0.70641057109E+03  0.72122842877E+03  0.12509536385E+03 0.  0.
          5    1    3    3  502    0 -0.35985625469E+02 -0.36798967420E+02  0.21922245215E+03  0.22522230167E+03  0.41800000000E+01 0.  1.
         -5    1    3    3    0  502  0.92302666947E+02 -0.11513477128E+02  0.48718811895E+03  0.49600612710E+03  0.41800000000E+01 0.  1.
        -11    1    1    2    0    0 -0.54259548486E+02 -0.37458273722E+01  0.63232720994E+02  0.83405676239E+02  0.00000000000E+00 0. -1.
         11    1    1    2    0    0 -0.20574929929E+01  0.52058271921E+02  0.16295001362E+03  0.17107601788E+03  0.00000000000E+00 0.  1.
</event>
<event>
 6    1  0.2594791E-009  0.6317803E+02  0.7561462E-02  0.1384959E+00
         -1   -1    0    0    0  501 -0.00000000000E+00  0.00000000000E+00  0.42119384027E+02  0.42119384027E+02  0.00000000000E+00 0.  1.
          1   -1    0    0  501    0  0.00000000000E+00 -0.00000000000E+00 -0.33287432665E+03  0.33287432665E+03  0.00000000000E+00 0. -1.
          5    1    1    2  502    0 -0.64323433259E+01  0.36783622834E+02 -0.22179392193E+03  0.22495427570E+03  0.41800000000E+01 0. -1.
         -5    1    1    2    0  502 -0.22432350937E+02 -0.14414277862E+02  0.48611290320E+01  0.27424163621E+02  0.41800000000E+01 0. -1.
        -11    1    1    2    0    0  0.43219144911E+02 -0.17596205334E+02  0.60353563904E+00  0.46667817437E+02  0.00000000000E+00 0.  1.
         11    1    1    2    0    0 -0.14354450648E+02 -0.47731396375E+01 -0.74425685362E+02  0.75947453921E+02  0.00000000000E+00 0. -1.
</event>
<event>
 7    1  0.2594791E-009  0.6746261E+02  0.7561462E-02  0.1368940E+00
          2   -1    0    0  501    0  0.00000000000E+00  0.00000000000E+00  0.70012808538E+03  0.70012808538E+03  0.00000000000E+00 0. -1.
         -2   -1    0    0    0  501 -0.00000000000E+00 -0.00000000000E+00 -0.18551153532E+02  0.18551153532E+02  0.00000000000E+00 0.  1.
         25    2    1    2    0    0  0.14544112282E+02 -0.26644037129E+02  0.33515708508E+03  0.35902719944E+03  0.12509525305E+03 0.  0.
          5    1    3    3  502    0 -0.76052422280E+01 -0.60827633969E+01  0.32736744095E+03  0.32753893434E+03  0.41800000000E+01 0.  1.
         -5    1    3    3    0  502  0.22149354510E+02 -0.20561273732E+02  0.77896441379E+01  0.31488265092E+02  0.41800000000E+01 0.  1.
        -11    1    1    2    0    0 -0.23534876531E+02  0.57260614075E+02  0.26652626562E+03  0.27362185330E+03  0.00000000000E+00 0. -1.
         11    1    1    2    0    0  0.89907642481E+01 -0.30616576946E+02  0.79893581146E+02  0.86030186179E+02  0.00000000000E+00 0.  1.
</event>
<event>
 7    1  0.2594791E-009  0.1100487E+03  0.7561462E-02  0.1260480E+00
          2   -1    0    0  501    0  0.00000000000E+00  0.00000000000E+00  0.46068308901E+03  0.46068308901E+03  0.00000000000E+00 0. -1.
         -2   -1    0    0    0  501 -0.00000000000E+00 -0.00000000000E+00 -0.28412916736E+02  0.28412916736E+02  0.00000000000E+00 0.  1.
         25    2    1    2    0    0  0.16495217321E+02  0.31716358660E+02  0.25549756016E+03  0.28671252396E+03  0.12508816310E+03 0.  0.
          5    1    3    3  502    0  0.17725830219E+02 -0.46718628829E+02  0.12059869916E+03  0.13060763368E+03  0.41800000000E+01 0. -1.
         -5    1    3    3    0  502 -0.12306128972E+01  0.78434987489E+02  0.13489886101E+03  0.15610489029E+03  0.41800000000E+01 0. -1.
        -11    1    1    2    0    0 -0.32129455377E+02 -0.54796715073E+02  0.15330382947E+03  0.16594289987E+03  0.00000000000E+00 0. -1.
         11    1    1    2    0    0  0.15634238055E+02  0.23080356413E+02  0.23468782639E+02  0.36440581915E+02  0.00000000000E+00 0.  1.
</event>
<event>
 7    1  0.2594791E-009  0.6211504E+02  0.7561462E-02  0.1389164E+00
          3   -1    0    0  501    0  0.00000000000E+00  0.00000000000E+00  0.26987604569E+03  0.26987604569E+03  0.00000000000E+00 0. -1.
         -3   -1    0    0    0  501 -0.00000000000E+00 -0.00000000000E+00 -0.56504935632E+02  0.56504935632E+02  0.00000000000E+00 0.  1.
         25    2    1    2    0    0  0.49960825121E+02 -0.89637496926E+01  0.15682733693E+03  0.20692758804E+03  0.12509108772E+03 0.  0.
          5    1    3    3  502    0  0.24708810574E+01  0.58940558033E+01  0.15680656638E+03  0.15699241003E+03  0.41800000000E+01 0. -1.
         -5    1    3    3    0  502  0.47489944064E+02 -0.14857805496E+02  0.20770550880E-01  0.49935178009E+02  0.41800000000E+01 0. -1.
        -11    1    1    2    0    0 -0.25508296157E+01  0.18182327384E+02  0.67479637532E+02  0.69932862392E+02  0.00000000000E+00 0. -1.
         11    1    1    2    0    0 -0.47409995506E+02 -0.92185776916E+01 -0.10935864413E+02  0.49520530883E+02  0.00000000000E+00 0.  1.
</event>
<event>
 7    1  0.2594791E-009  0.1428884E+03  0.7561462E-02  0.1209494E+00
         -2   -1    0    0    0  501 -0.00000000000E+00  0.00000000000E+00  0.57299934841E+02  0.57299934841E+02  0.00000000000E+00 0.  1.
          2   -1    0    0  501    0  0.00000000000E+00 -0.00000000000E+00 -0.37720638256E+03  0.37720638256E+03  0.00000000000E+00 0. -1.
         25    2    1    2    0    0  0.81286178696E+01 -0.97110458351E+02 -0.15913205737E+03  0.22464731094E+03  0.12508751767E+03 0.  0.
          5    1    3    3  502    0  0.29748010179E+02 -0.12156756711E+03 -0.11901483715E+03  0.17275885315E+03  0.41800000000E+01 0.  1.
         -5    1    3    3    0  502 -0.21619392309E+02  0.24457108756E+02 -0.40117220225E+02  0.51888457783E+02  0.41800000000E+01 0.  1.
        -11    1    1    2    0    0  0.32550060855E+02  0.14649866220E+02 -0.17842251667E+02  0.39905776355E+02  0.00000000000E+00 0.  1.
         11    1    1    2    0    0 -0.40678678724E+02  0.82460592131E+02 -0.14293213868E+03  0.16995323011E+03  0.00000000000E+00 0. -1.
</event>
<event>
 7    1  0.2594791E-009  0.1090692E+03  0.7561462E-02  0.1262303E+00
          2   -1    0    0  501    0  0.00000000000E+00  0.00000000000E+00  0.45162476512E+03  0.45162476512E+03  0.00000000000E+00 0. -1.
         -2   -1    0    0    0  501 -0.00000000000E+00 -0.00000000000E+00 -0.58381198179E+02  0.58381198179E+02  0.00000000000E+00 0.  1.
         25    2    1    2    0    0  0.45668648832E+02 -0.57781500740E+02  0.35735482418E+03  0.38571635294E+03  0.12510118803E+03 0.  0.
          5    1    3    3  502    0  0.15431131555E+02  0.35967720602E+02  0.16422196333E+03  0.16887309551E+03  0.41800000000E+01 0.  1.
         -5    1    3    3    0  502  0.30237517277E+02 -0.93749221343E+02  0.19313286085E+03  0.21684325743E+03  0.41800000000E+01 0.  1.
        -11    1    1    2    0    0  0.88446277982E+00  0.20563009917E+02  0.57357781427E+02  0.60938778635E+02  0.00000000000E+00 0. -1.
         11    1    1    2    0    0 -0.46553111612E+02  0.37218490824E+02 -0.21469038660E+02  0.63350831730E+02  0.00000000000E+00 0.  1.
</event>
<event>
 7    1  0.2594791E-009  0.7250215E+02  0.7561462E-02  0.1351785E+00
         -1   -1    0    0    0  501 -0.00000000000E+00  0.00000000000E+00  0.44758956172E+03  0.44758956172E+03  0.00000000000E+00 0.  1.
          1   -1    0    0  501    0  0.00000000000E+00 -0.00000000000E+00 -0.34504539201E+02  0.34504539201E+02  0.00000000000E+00 0. -1.
         25    2    1    2    0    0 -0.34948044034E+02 -0.52118622545E+02  0.27171556395E+03  0.30563884766E+03  0.12509212968E+03 0.  0.
          5    1    3    3  502    0 -0.33980893982E+02 -0.30108393044E+02  0.15074703407E+02  0.48020157958E+02  0.41800000000E+01 0. -1.
         -5    1    3    3    0  502 -0.96715005211E+00 -0.22010229501E+02  0.25664086055E+03  0.25761868970E+03  0.41800000000E+01 0. -1.
        -11    1    1    2    0    0  0.20151587629E+02  0.57742590618E+02  0.14734695817E+03  0.15953500975E+03  0.00000000000E+00 0.  1.
         11    1    1    2    0    0  0.14796456405E+02 -0.56239680724E+01 -0.59774996002E+01  0.16920243511E+02  0.00000000000E+00 0. -1.
</event>
<event>
 7    1  0.2594791E-009  0.1200201E+03  0.7561462E-02  0.1243064E+00
          1   -1    0    0  501    0  0.00000000000E+00  0.00000000000E+00  0.40921177601E+03  0.40921177601E+03  0.00000000000E+00 0. -1.
         -1   -1    0    0    0  501 -0.00000000000E+00 -0.00000000000E+00 -0.48299447826E+02  0.48299447826E+02  0.00000000000E+00 0.  1.
         25    2    1    2    0    0  0.47528267113E+02  0.74427292797E+02  0.17603071407E+03  0.23330766571E+03  0.12508915420E+03 0.  0.
          5    1    3    3  502    0 -0.20873468100E+02 -0.22693341515E+02  0.57872291981E+02  0.65706651100E+02  0.41800000000E+01 0. -1.
         -5    1    3    3    0  502  0.68401735213E+02  0.97120634312E+02  0.11815842209E+03  0.16760101461E+03  0.41800000000E+01 0. -1.
        -11    1    1    2    0    0 -0.61503554319E+01 -0.24276651753E+02  0.14666238248E+03  0.14878520466E+03  0.00000000000E+00 0. -1.
         11    1    1    2    0    0 -0.41377911681E+02 -0.50150641044E+02  0.38219231644E+02  0.75418353467E+02  0.00000000000E+00 0.  1.
</event>
<event>
 7    1  0.2594791E-009  0.9520958E+02  0.7561462E-02  0.1290705E+00
          1   -1    0    0  501    0  0.00000000000E+00  0.00000000000E+00  0.24051570265E+03  0.24051570265E+03  0.00000000000E+00 0.  1.
         -1   -1    0    0    0  501 -0.00000000000E+00 -0.00000000000E+00 -0.83385834280E+02  0.83385834280E+02  0.00000000000E+00 0. -1.
         25    2    1    2    0    0 -0.73080406069E+02  0.36509225714E+02  0.42462139970E+02  0.15532680996E+03  0.12509882193E+03 0.  0.
          5    1    3    3  502    0 -0.92624853242E+01  0.43927027410E+01 -0.42685777764E+02  0.44098044118E+02  0.41800000000E+01 0.  1.
         -5    1    3    3    0  502 -0.63817920745E+02  0.32116522973E+02  0.85147917733E+02  0.11122876584E+03  0.41800000000E+01 0.  1.
        -11    1    1    2    0    0  0.96500841820E+01 -0.42954927958E+02  0.90039101819E+02  0.10022619327E+03  0.00000000000E+00 0.  1.
         11    1    1    2    0    0  0.63430321887E+02  0.64457022444E+01  0.24628626581E+02  0.68348533704E+02  0.00000000000E+00 0. -1.
</event>
<event>
 7    1  0.2594791E-009  0.1534341E+03  0.7561462E-02  0.1196316E+00
         -1   -1    0    0    0  501 -0.00000000000E+00  0.00000000000E+00  0.11279727261E+03  0.11279727261E+03  0.00000000000E+00 0.  1.
          1   -1    0    0  501    0  0.00000000000E+00 -0.00000000000E+00 -0.36141062846E+03  0.36141062846E+03  0.00000000000E+00 0. -1.
         25    2    1    2    0    0 -0.82767339288E+02 -0.90317908623E+02 -0.26736651202E+03  0.31959292723E+03  0.12508809021E+03 0.  0.
          5    1    3    3  502    0 -0.26864093467E+02 -0.99533623747E+02 -0.10344648031E+03  0.14610704454E+03  0.41800000000E+01 0.  1.
         -5    1    3    3    0  502 -0.55903245821E+02  0.92157151236E+01 -0.16392003170E+03  0.17348588269E+03  0.41800000000E+01 0.  1.
        -11    1    1    2    0    0  0.69940181140E+02  0.16378040612E+02 -0.13228358502E+02  0.73040116518E+02  0.00000000000E+00 0.  1.
         11    1    1    2    0    0  0.12827158147E+02  0.73939868011E+02  0.31981514670E+02  0.81574857329E+02  0.00000000000E+00 0. -1.
</event>
<event>
 7    1  0.2975384E-009  0.9641760E+02  0.7561462E-02  0.1288015E+00
          2   -1    0    0  501    0  0.00000000000E+00  0.00000000000E+00  0.39869409984E+03  0.39869409984E+03  0.00000000000E+00 0. -1.
         -2   -1    0    0    0  501 -0.00000000000E+00 -0.00000000000E+00 -0.37794109454E+02  0.37794109454E+02  0.00000000000E+00 0.  1.
         25    2    1    2    0    0 -0.48032936118E+01 -0.22822217999E+02  0.10892994955E+03  0.16753837294E+03  0.12513771308E+03 0.  0.
          5    1    3    3  502    0 -0.46372999698E+02 -0.48315737284E+02  0.27467430629E+02  0.72503777250E+02  0.41800000000E+01 0.  1.
         -5    1    3    3    0  502  0.41569706086E+02  0.25493519285E+02  0.81462518921E+02  0.95034595693E+02  0.41800000000E+01 0.  1.
        -11    1    1    2    0    0  0.35169022232E+02 -0.51045007345E+01  0.42240424842E+02  0.55201173387E+02  0.00000000000E+00 0.  1.
         11    1    1    2    0    0 -0.30365728620E+02  0.27926718733E+02  0.20972961600E+03  0.21374866296E+03  0.00000000000E+00 0. -1.
</event>
<event>
 7    1  0.2594791E-009  0.1097994E+03  0.7561462E-02  0.1260942E+00
         -1   -1    0    0    0  501 -0.00000000000E+00  0.00000000000E+00  0.93535243718E+02  0.93535243718E+02  0.00000000000E+00 0.  1.
          1   -1    0    0  501    0  0.00000000000E+00 -0.00000000000E+00 -0.30634599120E+03  0.30634599120E+03  0.00000000000E+00 0. -1.
         25    2    1    2    0    0  0.38987297606E+02 -0.57750627085E+02 -0.24337612819E+03  0.28238856510E+03  0.12512480817E+03 0.  0.
          5    1    3    3  502    0  0.17912264301E+01 -0.70769556981E+02 -0.54605419393E+02  0.89502865398E+02  0.41800000000E+01 0. -1.
         -5    1    3    3    0  502  0.37196071176E+02  0.13018929896E+02 -0.18877070880E+03  0.19288569970E+03  0.41800000000E+01 0. -1.
        -11    1    1    2    0    0  0.97932204185E+01  0.59442412550E+02  0.32871649970E+02  0.68628368388E+02  0.00000000000E+00 0.  1.
         11    1    1    2    0    0 -0.48780518025E+02 -0.16917854647E+01 -0.23062692596E+01  0.48864301435E+02  0.00000000000E+00 0. -1.
</event>
<event>
 7    1  0.2594791E-009  0.1039594E+03  0.7561462E-02  0.1272183E+00
         -2   -1    0    0    0  501 -0.00000000000E+00  0.00000000000E+00  0.83794180206E+02  0.83794180206E+02  0.00000000000E+00 0. -1.
          2   -1    0    0  501    0  0.00000000000E+00 -0.00000000000E+00 -0.31124816425E+03  0.31124816425E+03  0.00000000000E+00 0.  1.
         25    2    1    2    0    0  0.65252476108E+02  0.12917728843E+02 -0.41299585926E+00  0.14167782296E+03  0.12509069349E+03 0.  0.
          5    1    3    3  502    0 -0.67122688935E+01 -0.46726933688E+02 -0.69003311550E+01  0.47890999735E+02  0.41800000000E+01 0.  1.
         -5    1    3    3    0  502  0.71964745002E+02  0.59644662531E+02  0.64873352958E+01  0.93786823227E+02  0.41800000000E+01 0.  1.
        -11    1    1    2    0    0 -0.51537510795E+02 -0.69336565524E+01 -0.23187879429E+03  0.23763830890E+03  0.00000000000E+00 0.  1.
         11    1    1    2    0    0 -0.13714965313E+02 -0.59840722907E+01  0.48378061083E+01  0.15726212597E+02  0.00000000000E+00 0. -1.
</event>
<event>
 6    1  0.2594791E-009  0.2730854E+03  0.7561462E-02  0.1099527E+00
         -1   -1    0    0    0  501 -0.00000000000E+00  0.00000000000E+00  0.10982396281E+03  0.10982396281E+03  0.00000000000E+00 0.  1.
          1   -1    0    0  501    0  0.00000000000E+00 -0.00000000000E+00 -0.98548583948E+03  0.98548583948E+03  0.00000000000E+00 0. -1.
          5    1    1    2  502    0  0.18925541513E+03  0.19788479066E+02 -0.68357092467E+02  0.20223590322E+03  0.41800000000E+01 0. -1.
         -5    1    1    2    0  502  0.70169055638E+02 -0.53011823477E+02 -0.99266038292E+02  0.13268446991E+03  0.41800000000E+01 0. -1.
        -11    1    1    2    0    0 -0.12540491335E+03 -0.12887694184E+02 -0.23636860548E+03  0.26788542814E+03  0.00000000000E+00 0.  1.
         11    1    1    2    0    0 -0.13401955742E+03  0.46111038595E+02 -0.47167014043E+03  0.49250400102E+03  0.00000000000E+00 0. -1.
</event>
<event>
 7    1  0.2594791E-009  0.1013126E+03  0.7561462E-02  0.1277560E+00
         -2   -1    0    0    0  501 -0.00000000000E+00  0.00000000000E+00  0.38177437885E+02  0.38177437885E+02  0.00000000000E+00 0.  1.
          2   -1    0    0  501    0  0.00000000000E+00 -0.00000000000E+00 -0.64324385659E+03  0.64324385659E+03  0.00000000000E+00 0. -1.
         25    2    1    2    0    0  0.32131962196E+02  0.46679173853E+02 -0.11109826367E+03  0.17664090626E+03  0.12509107605E+03 0.  0.
          5    1    3    3  502    0  0.58036823557E+02  0.17707680736E+02 -0.12177636372E+03  0.13612049811E+03  0.41800000000E+01 0.  1.
         -5    1    3    3    0  502 -0.25904861361E+02  0.28971493116E+02  0.10678100052E+02  0.40520408145E+02  0.41800000000E+01 0.  1.
        -11    1    1    2    0    0 -0.36828309402E-01 -0.65505702353E+02 -0.27663303904E+03  0.28428302216E+03  0.00000000000E+00 0.  1.
         11    1    1    2    0    0 -0.32095133887E+02  0.18826528500E+02 -0.21733511600E+03  0.22049736607E+03  0.00000000000E+00 0. -1.
</event>
<event>
 7    1  0.2594791E-009  0.1148364E+03  0.7561462E-02  0.1251867E+00
         -1   -1    0    0    0  501 -0.00000000000E+00  0.00000000000E+00  0.38181289874E+02  0.38181289874E+02  0.00000000000E+00 0.  1.
          1   -1    0    0  501    0  0.00000000000E+00 -0.00000000000E+00 -0.54418407992E+03  0.54418407992E+03  0.00000000000E+00 0. -1.
         25    2    1    2    0    0  0.58478510467E+02  0.40998928196E+02 -0.39633331519E+03  0.42168158109E+03  0.12503843732E+03 0.  0.
          5    1    3    3  502    0  0.66873440647E+02 -0.23446406032E+02 -0.13703682325E+03  0.15433196152E+03  0.41800000000E+01 0. -1.
         -5    1    3    3    0  502 -0.83949301803E+01  0.64445334228E+02 -0.25929649194E+03  0.26734961958E+03  0.41800000000E+01 0. -1.
        -11    1    1    2    0    0 -0.62813645310E+02 -0.52122213954E+02 -0.41669880229E+02  0.91644193176E+02  0.00000000000E+00 0.  1.
         11    1    1    2    0    0  0.43351348432E+01  0.11123285758E+02 -0.67999594626E+02  0.69039595520E+02  0.00000000000E+00 0. -1.
</event>
<event>
 7    1  0.2594791E-009  0.1159881E+03  0.7561462E-02  0.1249866E+00
         -2   -1    0    0    0  501 -0.00000000000E+00  0.00000000000E+00  0.18373912319E+02  0.18373912319E+02  0.00000000000E+00 0.  1.
          2   -1    0    0  501    0  0.00000000000E+00 -0.00000000000E+00 -0.77138640613E+03  0.77138640613E+03  0.00000000000E+00 0. -1.
         25    2    1    2    0    0 -0.40163045269E+01 -0.47397091856E+02 -0.48821694686E+03  0.50622444659E+03  0.12507912738E+03 0.  0.
          5    1    3    3  502    0 -0.59511616431E+02 -0.33133379143E+01 -0.27778952244E+03  0.28414274912E+03  0.41800000000E+01 0.  1.
         -5    1    3    3    0  502  0.55495311904E+02 -0.44083753942E+02 -0.21042742442E+03  0.22208169747E+03  0.41800000000E+01 0.  1.
        -11    1    1    2    0    0 -0.40796818524E+02  0.37331397925E+02 -0.15206581562E+03  0.16180860902E+03  0.00000000000E+00 0. -1.
         11    1    1    2    0    0  0.44813123051E+02  0.10065693931E+02 -0.11272973133E+03  0.12172726283E+03  0.00000000000E+00 0.  1.
</event>
<event>
 7    1  0.2594791E-009  0.1000154E+03  0.7561462E-02  0.1280264E+00
         -3   -1    0    0    0  501 -0.00000000000E+00  0.00000000000E+00  0.89759906192E+02  0.89759906192E+02  0.00000000000E+00 0.  1.
          3   -1    0    0  501    0  0.00000000000E+00 -0.00000000000E+00 -0.22833971364E+03  0.22833971364E+03  0.00000000000E+00 0. -1.
         25    2    1    2    0    0 -0.41706752432E+02 -0.34548523844E+02 -0.15991237732E+03  0.21012190976E+03  0.12508475065E+03 0.  0.
          5    1    3    3  502    0  0.39038855810E+01 -0.50473135769E+02 -0.15291164926E+03  0.16112796975E+03  0.41800000000E+01 0.  1.
         -5    1    3    3    0  502 -0.45610638013E+02  0.15924611924E+02 -0.70007280581E+01  0.48993940015E+02  0.41800000000E+01 0.  1.
        -11    1    1    2    0    0 -0.10237693091E+02  0.46356778162E+02 -0.64305256966E+01  0.47907336621E+02  0.00000000000E+00 0.  1.
         11    1    1    2    0    0  0.51944445522E+02 -0.11808254317E+02  0.27763095564E+02  0.60070373446E+02  0.00000000000E+00 0. -1.
</event>
<event>
 7    1  0.2594791E-009  0.1624638E+03  0.7561462E-02  0.1185943E+00
         -3   -1    0    0    0  501 -0.00000000000E+00  0.00000000000E+00  0.10231501092E+03  0.10231501092E+03  0.00000000000E+00 0.  1.
          3   -1    0    0  501    0  0.00000000000E+00 -0.00000000000E+00 -0.33726721418E+03  0.33726721418E+03  0.00000000000E+00 0. -1.
         25    2    1    2    0    0 -0.10249902072E+03 -0.10753951211E+03 -0.97325271336E+02  0.21723263531E+03  0.12508802298E+03 0.  0.
          5    1    3    3  502    0 -0.25606291489E+02 -0.41006982019E+02  0.27817992161E+02  0.55933601940E+02  0.41800000000E+01 0. -1.
         -5    1    3    3    0  502 -0.76892729231E+02 -0.66532530086E+02 -0.12514326350E+03  0.16129903337E+03  0.41800000000E+01 0. -1.
        -11    1    1    2    0    0 -0.12986605932E+02  0.37230173252E+02 -0.31552499587E+02  0.50500474891E+02  0.00000000000E+00 0.  1.
         11    1    1    2    0    0  0.11548562665E+03  0.70309338853E+02 -0.10607443234E+03  0.17184911489E+03  0.00000000000E+00 0. -1.
</event>
<event>
 7    1  0.2594791E-009  0.1872099E+03  0.7561462E-02  0.1161002E+00
          1   -1    0    0  501    0  0.00000000000E+00  0.00000000000E+00  0.14494916010E+03  0.14494916010E+03  0.00000000000E+00 0. -1.
         -1   -1    0    0    0  501 -0.00000000000E+00 -0.00000000000E+00 -0.27564533101E+03  0.27564533101E+03  0.00000000000E+00 0.  1.
         25    2    1    2    0    0  0.13511800246E+02 -0.16591995013E+03 -0.84031924334E+02  0.22454574580E+03  0.12508968403E+03 0.  0.
          5    1    3    3  502    0  0.46335370135E+02 -0.81776354928E+02  0.93704730618E+01  0.94549547415E+02  0.41800000000E+01 0.  1.
         -5    1    3    3    0  502 -0.32823569889E+02 -0.84143595207E+02 -0.93402397396E+02  0.12999619838E+03  0.41800000000E+01 0.  1.
        -11    1    1    2    0    0  0.37721048041E+02  0.45822806058E+02 -0.21173471622E+02  0.63015259429E+02  0.00000000000E+00 0.  1.
         11    1    1    2    0    0 -0.51232848288E+02  0.12009714408E+03 -0.25490774954E+02  0.13303348589E+03  0.00000000000E+00 0. -1.
</event>
<event>
 7    1  0.2594791E-009  0.7759452E+02  0.7561462E-02  0.1336020E+00
          2   -1    0    0  501    0  0.00000000000E+00  0.00000000000E+00  0.41719303037E+02  0.41719303037E+02  0.00000000000E+00 0. -1.
         -2   -1    0    0    0  501 -0.00000000000E+00 -0.00000000000E+00 -0.35591484495E+03  0.35591484495E+03  0.00000000000E+00 0.  1.
         25    2    1    2    0    0  0.48911458206E+02 -0.64425133743E+01 -0.13693957158E+03  0.19192017345E+03  0.12508824880E+03 0.  0.
          5    1    3    3  502    0  0.49352111304E+02 -0.45085526943E+02 -0.13760993478E+03  0.15304346500E+03  0.41800000000E+01 0. -1.
         -5    1    3    3    0  502 -0.44065309869E+00  0.38643013569E+02  0.67036319201E+00  0.38876708447E+02  0.41800000000E+01 0. -1.
        -11    1    1    2    0    0 -0.17111555516E+02  0.26815555360E+01  0.70108672945E+01  0.18685511299E+02  0.00000000000E+00 0. -1.
         11    1    1    2    0    0 -0.31799902690E+02  0.37609578383E+01 -0.18426683762E+03  0.18702846324E+03  0.00000000000E+00 0.  1.
</event>
<event>
 7    1  0.2594791E-009  0.9692616E+02  0.7561462E-02  0.1286896E+00
          1   -1    0    0  501    0  0.00000000000E+00  0.00000000000E+00  0.35219148953E+02  0.35219148953E+02  0.00000000000E+00 0. -1.
         -1   -1    0    0    0  501 -0.00000000000E+00 -0.00000000000E+00 -0.52411415728E+03  0.52411415728E+03  0.00000000000E+00 0.  1.
         25    2    1    2    0    0  0.55569576513E+02 -0.12752002456E+02 -0.39630979586E+03  0.41947601512E+03  0.12509229218E+03 0.  0.
          5    1    3    3  502    0  0.89491507850E+02 -0.14475257344E+02 -0.35188178873E+03  0.36339582922E+03  0.41800000000E+01 0. -1.
         -5    1    3    3    0  502 -0.33921931337E+02  0.17232548879E+01 -0.44428007132E+02  0.56080185902E+02  0.41800000000E+01 0. -1.
        -11    1    1    2    0    0  0.13908554158E+01  0.11830074447E+02  0.14377026477E+02  0.18670405205E+02  0.00000000000E+00 0. -1.
         11    1    1    2    0    0 -0.56960431929E+02  0.92192800938E+00 -0.10696223894E+03  0.12118688591E+03  0.00000000000E+00 0.  1.
</event>
<event>
 7    1  0.2594791E-009  0.9801553E+02  0.7561462E-02  0.1284525E+00
          1   -1    0    0  501    0  0.00000000000E+00  0.00000000000E+00  0.18526930339E+03  0.18526930339E+03  0.00000000000E+00 0. -1.
         -1   -1    0    0    0  501 -0.00000000000E+00 -0.00000000000E+00 -0.75510070439E+02  0.75510070439E+02  0.00000000000E+00 0.  1.
         25    2    1    2    0    0  0.21705565647E+02 -0.36240201956E+01  0.56044878276E+02  0.13882577699E+03  0.12508917968E+03 0.  0.
          5    1    3    3  502    0 -0.32153331503E+02 -0.72735632384E+01 -0.24842663731E+02  0.41489417809E+02  0.41800000000E+01 0.  1.
         -5    1    3    3    0  502  0.53858897150E+02  0.36495430428E+01  0.80887542007E+02  0.97336359181E+02  0.41800000000E+01 0.  1.
        -11    1    1    2    0    0 -0.16395449598E+02  0.54803343268E+02  0.20773829585E+02  0.60858600021E+02  0.00000000000E+00 0.  1.
         11    1    1    2    0    0 -0.53101160494E+01 -0.51179323073E+02  0.32940525085E+02  0.61094996812E+02  0.00000000000E+00 0. -1.
</event>
<event>
 7    1  0.2594791E-009  0.1129955E+03  0.7561462E-02  0.1255121E+00
          1   -1    0    0  501    0  0.00000000000E+00  0.00000000000E+00  0.43073436822E+03  0.43073436822E+03  0.00000000000E+00 0. -1.
         -1   -1    0    0    0  501 -0.00000000000E+00 -0.00000000000E+00 -0.45454809077E+02  0.45454809077E+02  0.00000000000E+00 0.  1.
         25    2    1    2    0    0  0.27820691675E+01 -0.36897159067E+02  0.73317480020E+02  0.14964086524E+03  0.12509114844E+03 0.  0.
          5    1    3    3  502    0  0.63038468860E+02 -0.28808683073E+02  0.41547161164E+02  0.80916177477E+02  0.41800000000E+01 0.  1.
         -5    1    3    3    0  502 -0.60256399693E+02 -0.80884759940E+01  0.31770318856E+02  0.68724687763E+02  0.41800000000E+01 0.  1.
        -11    1    1    2    0    0 -0.19413598947E+02 -0.24926019625E+02  0.83206846411E+02  0.89003222235E+02  0.00000000000E+00 0.  1.
         11    1    1    2    0    0  0.16631529779E+02  0.61823178693E+02  0.22875523271E+03  0.23754508982E+03  0.00000000000E+00 0. -1.
</event>
<event>
 7    1  0.2594791E-009  0.1685941E+03  0.7561462E-02  0.1179322E+00
          3   -1    0    0  501    0  0.00000000000E+00  0.00000000000E+00  0.37290388900E+02  0.37290388900E+02  0.00000000000E+00 0. -1.
         -3   -1    0    0    0  501 -0.00000000000E+00 -0.00000000000E+00 -0.93277766579E+03  0.93277766579E+03  0.00000000000E+00 0.  1.
         25    2    1    2    0    0 -0.54092043999E+02  0.13303531880E+03 -0.34756462727E+03  0.39632462019E+03  0.12509072376E+03 0.  0.
          5    1    3    3  502    0 -0.37819254145E+02 -0.83620229271E+01 -0.13473767905E+03  0.14025667174E+03  0.41800000000E+01 0.  1.
         -5    1    3    3    0  502 -0.16272789854E+02  0.14139734172E+03 -0.21282694822E+03  0.25606794845E+03  0.41800000000E+01 0.  1.
        -11    1    1    2    0    0  0.28444654179E+02 -0.12610239144E+03 -0.51727495233E+03  0.53318316532E+03  0.00000000000E+00 0.  1.
         11    1    1    2    0    0  0.25647389820E+02 -0.69329273614E+01 -0.30647697299E+02  0.40560269182E+02  0.00000000000E+00 0. -1.
</event>
<event>
 7    1  0.2594791E-009  0.1133103E+03  0.7561462E-02  0.1254560E+00
         -2   -1    0    0    0  501 -0.00000000000E+00  0.00000000000E+00  0.15624690258E+03  0.15624690258E+03  0.00000000000E+00 0. -1.
          2   -1    0    0  501    0  0.00000000000E+00 -0.00000000000E+00 -0.12209616654E+03  0.12209616654E+03  0.00000000000E+00 0.  1.
         25    2    1    2    0    0 -0.53299745395E+02 -0.64021173366E+02 -0.62145579530E+00  0.15029297876E+03  0.12509204515E+03 0.  0.
          5    1    3    3  502    0 -0.55424362971E+02 -0.89794821226E+02  0.30204058171E+02  0.10983955326E+03  0.41800000000E+01 0. -1.
         -5    1    3    3    0  502  0.21246175755E+01  0.25773647860E+02 -0.30825513966E+02  0.40453425506E+02  0.41800000000E+01 0. -1.
        -11    1    1    2    0    0  0.48094612300E+02  0.22720278910E+02 -0.22075974375E+02  0.57590376372E+02  0.00000000000E+00 0.  1.
         11    1    1    2    0    0  0.52051330955E+01  0.41300894455E+02  0.56848166207E+02  0.70459713982E+02  0.00000000000E+00 0. -1.
</event>
<event>
 7    1  0.2594791E-009  0.2330297E+03  0.7561462E-02  0.1124525E+00
          2   -1    0    0  501    0  0.00000000000E+00  0.00000000000E+00  0.16596089459E+04  0.16596089459E+04  0.00000000000E+00 0. -1.
         -2   -1    0    0    0  501 -0.00000000000E+00 -0.00000000000E+00 -0.35265628717E+02  0.35265628717E+02  0.00000000000E+00 0.  1.
         25    2    1    2    0    0 -0.38428392335E+02 -0.20872007213E+03  0.98415680741E+03  0.10145203233E+04  0.12508419120E+03 0.  0.
          5    1    3    3  502    0  0.41094050983E+02 -0.10656339664E+03  0.38956436625E+03  0.40598318485E+03  0.41800000000E+01 0. -1.
         -5    1    3    3    0  502 -0.79522443318E+02 -0.10215667549E+03  0.59459244115E+03  0.60853713840E+03  0.41800000000E+01 0. -1.
        -11    1    1    2    0    0 -0.82322571119E+01  0.13331581998E+03  0.29276995695E+03  0.32179982226E+03  0.00000000000E+00 0.  1.
         11    1    1    2    0    0  0.46660649446E+02  0.75404252149E+02  0.34741655278E+03  0.35855442905E+03  0.00000000000E+00 0. -1.
</event>
<event>
 7    1  0.2594791E-009  0.1067896E+03  0.7561462E-02  0.1266633E+00
          2   -1    0    0  501    0  0.00000000000E+00  0.00000000000E+00  0.22317022249E+04  0.22317022249E+04  0.00000000000E+00 0.  1.
         -2   -1    0    0    0  501 -0.00000000000E+00 -0.00000000000E+00 -0.10684184891E+02  0.10684184891E+02  0.00000000000E+00 0. -1.
         25    2    1    2    0    0  0.29090331938E+00  0.12703614087E+02  0.19798306987E+04  0.19838192425E+04  0.12509086623E+03 0.  0.
          5    1    3    3  502    0  0.29852051634E+02  0.61463819361E+02  0.10387035164E+04  0.10409569701E+04  0.41800000000E+01 0. -1.
         -5    1    3    3    0  502 -0.29561148315E+02 -0.48760205274E+02  0.94112718231E+03  0.94286227244E+03  0.41800000000E+01 0. -1.
        -11    1    1    2    0    0 -0.42740078616E+02 -0.15357631612E+02  0.81358948336E+02  0.93176443606E+02  0.00000000000E+00 0. -1.
         11    1    1    2    0    0  0.42449175297E+02  0.26540175256E+01  0.15982839290E+03  0.16539072365E+03  0.00000000000E+00 0.  1.
</event>
<event>
 7    1  0.4299236E-009  0.1073468E+03  0.7561462E-02  0.1265564E+00
         -2   -1    0    0    0  501 -0.00000000000E+00  0.00000000000E+00  0.18771865886E+03  0.18771865886E+03  0.00000000000E+00 0.  1.
          2   -1    0    0  501    0  0.00000000000E+00 -0.00000000000E+00 -0.12279652250E+03  0.12279652250E+03  0.00000000000E+00 0. -1.
         25    2    1    2    0    0  0.72412677374E+02 -0.19045213446E+02  0.11145363871E+03  0.18351149679E+03  0.12509292495E+03 0.  0.
          5    1    3    3  502    0  0.45984322924E+02 -0.68855415270E+02  0.39035169512E+02  0.91634289574E+02  0.41800000000E+01 0. -1.
         -5    1    3    3    0  502  0.26428354450E+02  0.49810201825E+02  0.72418469201E+02  0.91877207218E+02  0.41800000000E+01 0. -1.
        -11    1    1    2    0    0 -0.26114309330E+02  0.10607930903E+02  0.27435744657E+02  0.39334532343E+02  0.00000000000E+00 0.  1.
         11    1    1    2    0    0 -0.46298368044E+02  0.84372825431E+01 -0.73967247017E+02  0.87669152223E+02  0.00000000000E+00 0. -1.
</event>
<event>
 7    1  0.2594791E-009  0.7545573E+02  0.7561462E-02  0.1342466E+00
          2   -1    0    0  501    0  0.00000000000E+00  0.00000000000E+00  0.50816395645E+03  0.50816395645E+03  0.00000000000E+00 0. -1.
         -2   -1    0    0    0  501 -0.00000000000E+00 -0.00000000000E+00 -0.28259105475E+02  0.28259105475E+02  0.00000000000E+00 0.  1.
         25    2    1    2    0    0 -0.25346166623E+02 -0.35746576754E+02  0.20284276703E+03  0.24230993892E+03  0.12509465398E+03 0.  0.
          5    1    3    3  502    0 -0.44058203437E+01  0.79118969184E+01  0.19232585445E+03  0.19258430896E+03  0.41800000000E+01 0. -1.
         -5    1    3    3    0  502 -0.20940346279E+02 -0.43658473672E+02  0.10516912579E+02  0.49725629970E+02  0.41800000000E+01 0. -1.
        -11    1    1    2    0    0  0.55125387780E+02  0.19928418659E+02  0.22145272080E+03  0.22907915182E+03  0.00000000000E+00 0. -1.
         11    1    1    2    0    0 -0.29779221157E+02  0.15818158095E+02  0.55609363145E+02  0.65033971181E+02  0.00000000000E+00 0.  1.
</event>
<event>
 7    1  0.2594791E-009  0.8555475E+02  0.7561462E-02  0.1313988E+00
         -2   -1    0    0    0  501 -0.00000000000E+00  0.00000000000E+00  0.69393131915E+02  0.69393131915E+02  0.00000000000E+00 0.  1.
          2   -1    0    0  501    0  0.00000000000E+00 -0.00000000000E+00 -0.32631709029E+03  0.32631709029E+03  0.00000000000E+00 0. -1.
         25    2    1    2    0    0  0.50072050103E+02  0.93808050277E+01 -0.25738893909E+03  0.29067543847E+03  0.12509170579E+03 0.  0.
          5    1    3    3  502    0 -0.16579427519E+02  0.19271906627E+02 -0.12553128356E+01  0.25794030554E+02  0.41800000000E+01 0. -1.
         -5    1    3    3    0  502  0.66651477622E+02 -0.98911015989E+01 -0.25613362626E+03  0.26488140792E+03  0.41800000000E+01 0. -1.
        -11    1    1    2    0    0 -0.48626804095E+02  0.16926163813E+02 -0.33964019430E+02  0.61681567050E+02  0.00000000000E+00 0. -1.
         11    1    1    2    0    0 -0.14452460081E+01 -0.26306968841E+02  0.34429000148E+02  0.43353216684E+02  0.00000000000E+00 0.  1.
</event>
<event>
 6    1  0.2594791E-009  0.1161497E+03  0.7561462E-02  0.1249587E+00
         -2   -1    0    0    0  501 -0.00000000000E+00  0.00000000000E+00  0.10407843500E+04  0.10407843500E+04  0.00000000000E+00 0.  1.
          2   -1    0    0  501    0  0.00000000000E+00 -0.00000000000E+00 -0.15561963350E+02  0.15561963350E+02  0.00000000000E+00 0. -1.
          5    1    1    2  502    0  0.64435006512E+02 -0.62264144534E+02  0.27228647434E+03  0.28668116483E+03  0.41800000000E+01 0.  1.
         -5    1    1    2    0  502 -0.30703866688E+02  0.74196134660E+01  0.36046210016E+03  0.36186762241E+03  0.41800000000E+01 0.  1.
        -11    1    1    2    0    0 -0.42868277953E+02 -0.11002746564E+02  0.15834388710E+03  0.16441270105E+03  0.00000000000E+00 0. -1.
         11    1    1    2    0    0  0.91371381289E+01  0.65847277633E+02  0.23412992501E+03  0.24338482502E+03  0.00000000000E+00 0.  1.
</event>
<event>
 7    1  0.2594791E-009  0.1330374E+03  0.7561462E-02  0.1223017E+00
         -1   -1    0    0    0  501 -0.00000000000E+00  0.00000000000E+00  0.89720117093E+02  0.89720117093E+02  0.00000000000E+00 0.  1.
          1   -1    0    0  501    0  0.00000000000E+00 -0.00000000000E+00 -0.29547887638E+03  0.29547887638E+03  0.00000000000E+00 0. -1.
         25    2    1    2    0    0 -0.79368593656E+02 -0.90122433955E+02 -0.64085568669E+02  0.18486684448E+03  0.12508942127E+03 0.  0.
          5    1    3    3  502    0 -0.27850403067E+02 -0.11349583606E+02 -0.83343611412E+02  0.88702243276E+02  0.41800000000E+01 0.  1.
         -5    1    3    3    0  502 -0.51518190589E+02 -0.78772850349E+02  0.19258042742E+02  0.96164601200E+02  0.41800000000E+01 0.  1.
        -11    1    1    2    0    0  0.35356818963E+02 -0.59194369479E+01 -0.39899140558E+02  0.53638473116E+02  0.00000000000E+00 0.  1.
         11    1    1    2    0    0  0.44011774693E+02  0.96041870903E+02 -0.10177405006E+03  0.14669367588E+03  0.00000000000E+00 0. -1.
</event>
<event>
 7    1  0.2594791E-009  0.1486308E+03  0.7561462E-02  0.1202166E+00
          2   -1    0    0  501    0  0.00000000000E+00  0.00000000000E+00  0.11817148524E+04  0.11817148524E+04  0.00000000000E+00 0. -1.
         -2   -1    0    0    0  501 -0.00000000000E+00 -0.00000000000E+00 -0.20765301969E+02  0.20765301969E+02  0.00000000000E+00 0.  1.
         25    2    1    2    0    0 -0.36521070885E+02 -0.10780445385E+03  0.62260441571E+03  0.64516515531E+03  0.12508489227E+03 0.  0.
          5    1    3    3  502    0  0.39967966667E+02 -0.25551249869E+02  0.10205153623E+03  0.11261568797E+03  0.41800000000E+01 0. -1.
         -5    1    3    3    0  502 -0.76489037552E+02 -0.82253203984E+02  0.52055287948E+03  0.53254946734E+03  0.41800000000E+01 0. -1.
        -11    1    1    2    0    0 -0.15917719763E+02  0.72014902803E+02  0.20229387570E+03  0.21531914028E+03  0.00000000000E+00 0.  1.
         11    1    1    2    0    0  0.52438790648E+02  0.35789551050E+02  0.33605125905E+03  0.34199585880E+03  0.00000000000E+00 0. -1.
</event>
<event>
 7    1  0.2594791E-009  0.1258359E+03  0.7561462E-02  0.1233769E+00
          2   -1    0    0  501    0  0.00000000000E+00  0.00000000000E+00  0.73409788662E+03  0.73409788662E+03  0.00000000000E+00 0. -1.
         -2   -1    0    0    0  501 -0.00000000000E+00 -0.00000000000E+00 -0.29636281228E+02  0.29636281228E+02  0.00000000000E+00 0.  1.
         25    2    1    2    0    0 -0.92342894966E+02  0.24136591390E+02  0.30055999417E+03  0.33925531742E+03  0.12509226597E+03 0.  0.
          5    1    3    3  502    0 -0.81829836591E+02 -0.12576379084E+02  0.79412769897E+02  0.11479611444E+03  0.41800000000E+01 0. -1.
         -5    1    3    3    0  502 -0.10513058375E+02  0.36712970474E+02  0.22114722428E+03  0.22445920298E+03  0.41800000000E+01 0. -1.
        -11    1    1    2    0    0  0.72454293987E+02  0.25560008425E+02  0.22637490018E+03  0.23905759595E+03  0.00000000000E+00 0.  1.
         11    1    1    2    0    0  0.19888600979E+02 -0.49696599815E+02  0.17752671104E+03  0.18542125448E+03  0.00000000000E+00 0. -1.
</event>
<event>
 7    1  0.3496748E-009  0.1033883E+03  0.7561462E-02  0.1273328E+00
         -1   -1    0    0    0  501 -0.00000000000E+00  0.00000000000E+00  0.13322595377E+02  0.13322595377E+02  0.00000000000E+00 0.  1.
          1   -1    0    0  501    0  0.00000000000E+00 -0.00000000000E+00 -0.13163250142E+04  0.13163250142E+04  0.00000000000E+00 0. -1.
         25    2    1    2    0    0 -0.69634532508E+02  0.29461041056E+02 -0.70570345773E+03  0.72068173263E+03  0.12509144030E+03 0.  0.
          5    1    3    3  502    0 -0.28377430835E+02 -0.12936026839E+02 -0.33850315953E+02  0.46216183976E+02  0.41800000000E+01 0. -1.
         -5    1    3    3    0  502 -0.41257101674E+02  0.42397067895E+02 -0.67185314177E+03  0.67446554865E+03  0.41800000000E+01 0. -1.
        -11    1    1    2    0    0 -0.38085790962E+01 -0.41420337716E+02 -0.15664468058E+03  0.16207314894E+03  0.00000000000E+00 0.  1.
         11    1    1    2    0    0  0.73443111605E+02  0.11959296660E+02 -0.44065428054E+03  0.44689272805E+03  0.00000000000E+00 0. -1.
</event>
<event>
 7    1  0.2594791E-009  0.1006824E+03  0.7561462E-02  0.1278868E+00
         -2   -1    0    0    0  501 -0.00000000000E+00  0.00000000000E+00  0.39202573117E+02  0.39202573117E+02  0.00000000000E+00 0. -1.
          2   -1    0    0  501    0  0.00000000000E+00 -0.00000000000E+00 -0.38499472685E+03  0.38499472685E+03  0.00000000000E+00 0.  1.
         25    2    1    2    0    0 -0.41613748916E+02 -0.12948239482E+02 -0.12426158718E+03  0.18163316500E+03  0.12510117336E+03 0.  0.
          5    1    3    3  502    0 -0.74401229547E+02  0.11830693151E+02 -0.34791628733E+02  0.83086930913E+02  0.41800000000E+01 0.  1.
         -5    1    3    3    0  502  0.32787480631E+02 -0.24778932634E+02 -0.89469958446E+02  0.98546234088E+02  0.41800000000E+01 0.  1.
        -11    1    1    2    0    0  0.83156767352E+01  0.40524501102E+02 -0.46346555205E+02  0.62123979658E+02  0.00000000000E+00 0. -1.
         11    1    1    2    0    0  0.33298072181E+02 -0.27576261620E+02 -0.17518401135E+03  0.18044015531E+03  0.00000000000E+00 0.  1.
</event>
<event>
 7    1  0.2594791E-009  0.1038035E+03  0.7561462E-02  0.1272495E+00
          1   -1    0    0  501    0  0.00000000000E+00  0.00000000000E+00  0.17576001887E+02  0.17576001887E+02  0.00000000000E+00 0. -1.
         -1   -1    0    0    0  501 -0.00000000000E+00 -0.00000000000E+00 -0.87227629877E+03  0.87227629877E+03  0.00000000000E+00 0.  1.
         25    2    1    2    0    0 -0.35733047748E+02 -0.46703289304E+02 -0.44173433037E+03  0.46285638816E+03  0.12509504184E+03 0.  0.
          5    1    3    3  502    0 -0.60828334135E+02 -0.44113477096E+02 -0.13104959158E+03  0.15112098778E+03  0.41800000000E+01 0.  1.
         -5    1    3    3    0  502  0.25095286387E+02 -0.25898122080E+01 -0.31068473880E+03  0.31173540037E+03  0.41800000000E+01 0.  1.
        -11    1    1    2    0    0 -0.26591710051E+02 -0.34035226766E+01 -0.73461817623E+02  0.78200649988E+02  0.00000000000E+00 0.  1.
         11    1    1    2    0    0  0.62324757799E+02  0.50106811981E+02 -0.33950414889E+03  0.34879526252E+03  0.00000000000E+00 0. -1.
</event>
<event>
 7    1  0.2594791E-009  0.1124655E+03  0.7561462E-02  0.1256071E+00
         -2   -1    0    0    0  501 -0.00000000000E+00  0.00000000000E+00  0.15856101510E+03  0.15856101510E+03  0.00000000000E+00 0.  1.
          2   -1    0    0  501    0  0.00000000000E+00 -0.00000000000E+00 -0.11136384813E+03  0.11136384813E+03  0.00000000000E+00 0. -1.
         25    2    1    2    0    0  0.17773252477E+02 -0.80021870105E+02  0.29618952124E+02  0.15246061295E+03  0.12509023934E+03 0.  0.
          5    1    3    3  502    0 -0.54569025317E+01 -0.10690189668E+03  0.41331655011E+02  0.11481973439E+03  0.41800000000E+01 0.  1.
         -5    1    3    3    0  502  0.23230155009E+02  0.26880026574E+02 -0.11712702888E+02  0.37640878567E+02  0.41800000000E+01 0.  1.
        -11    1    1    2    0    0 -0.45763497768E+01  0.27708631762E+02 -0.33123794514E+02  0.43426915783E+02  0.00000000000E+00 0. -1.
         11    1    1    2    0    0 -0.13196902700E+02  0.52313238343E+02  0.50702009359E+02  0.74037334500E+02  0.00000000000E+00 0.  1.
</event>
<event>
 7    1  0.2594791E-009  0.1200881E+03  0.7561462E-02  0.1242952E+00
          1   -1    0    0  501    0  0.00000000000E+00  0.00000000000E+00  0.79276640873E+03  0.79276640873E+03  0.00000000000E+00 0. -1.
         -1   -1    0    0    0  501 -0.00000000000E+00 -0.00000000000E+00 -0.21497092945E+02  0.21497092945E+02  0.00000000000E+00 0.  1.
         25    2    1    2    0    0  0.69880030675E+01 -0.65695278976E+02  0.50190033926E+03  0.52145653523E+03  0.12509302828E+03 0.  0.
          5    1    3    3  502    0 -0.45916519498E+02 -0.69173484547E+01  0.83557792986E+02  0.95684657292E+02  0.41800000000E+01 0.  1.
         -5    1    3    3    0  502  0.52904522565E+02 -0.58777930522E+02  0.41834254627E+03  0.42577187794E+03  0.41800000000E+01 0.  1.
        -11    1    1    2    0    0  0.17965820629E+02  0.82398719317E+02  0.20925801475E+03  0.22561302354E+03  0.00000000000E+00 0.  1.
         11    1    1    2    0    0 -0.24953823697E+02 -0.16703440341E+02  0.60110961782E+02  0.67193942902E+02  0.00000000000E+00 0. -1.
</event>
<event>
 7    1  0.2594791E-009  0.8481945E+02  0.7561462E-02  0.1315905E+00
          1   -1    0    0  501    0  0.00000000000E+00  0.00000000000E+00  0.20969588529E+03  0.20969588529E+03  0.00000000000E+00 0. -1.
         -1   -1    0    0    0  501 -0.00000000000E+00 -0.00000000000E+00 -0.65850448142E+02  0.65850448142E+02  0.00000000000E+00 0.  1.
         25    2    1    2    0    0  0.73780159055E+01  0.44654396136E+02  0.67275926374E+02  0.14907435062E+03  0.12509461032E+03 0.  0.
          5    1    3    3  502    0 -0.20341262889E+02  0.69723633709E+02  0.81153303603E+02  0.10898845425E+03  0.41800000000E+01 0.  1.
         -5    1    3    3    0  502  0.27719278794E+02 -0.25069237573E+02 -0.13877377229E+02  0.40085896374E+02  0.41800000000E+01 0.  1.
        -11    1    1    2    0    0 -0.20230501651E+02 -0.41314826689E+02 -0.27159614538E+01  0.46082149993E+02  0.00000000000E+00 0.  1.
         11    1    1    2    0    0  0.12852485745E+02 -0.33395694468E+01  0.79285472230E+02  0.80389832818E+02  0.00000000000E+00 0. -1.
</event>
<event>
 7    1  0.2594791E-009  0.1073928E+03  0.7561462E-02  0.1265476E+00
          3   -1    0    0  501    0  0.00000000000E+00  0.00000000000E+00  0.36549921085E+02  0.36549921085E+02  0.00000000000E+00 0. -1.
         -3   -1    0    0    0  501 -0.00000000000E+00 -0.00000000000E+00 -0.49678402369E+03  0.49678402369E+03  0.00000000000E+00 0.  1.
         25    2    1    2    0    0  0.10235128274E+02 -0.46970927923E+02 -0.35493465750E+03  0.37939024011E+03  0.12508923724E+03 0.  0.
          5    1    3    3  502    0  0.19897151333E+02  0.33341931555E+02 -0.47645506274E+02  0.61604770100E+02  0.41800000000E+01 0. -1.
         -5    1    3    3    0  502 -0.96620230593E+01 -0.80312859478E+02 -0.30728915123E+03  0.31778547001E+03  0.41800000000E+01 0. -1.
        -11    1    1    2    0    0 -0.31149205367E+02 -0.11055917271E+02 -0.13607096085E+01  0.33081079673E+02  0.00000000000E+00 0. -1.
         11    1    1    2    0    0  0.20914077093E+02  0.58026845194E+02 -0.10393873549E+03  0.12086262499E+03  0.00000000000E+00 0.  1.
</event>
<event>
 7    1  0.2699581E-009  0.1274170E+03  0.7561462E-02  0.1231340E+00
         -1   -1    0    0    0  501 -0.00000000000E+00  0.00000000000E+00  0.40739170898E+03  0.40739170898E+03  0.00000000000E+00 0.  1.
          1   -1    0    0  501    0  0.00000000000E+00 -0.00000000000E+00 -0.67685031148E+02  0.67685031148E+02  0.00000000000E+00 0. -1.
         25    2    1    2    0    0 -0.18153743352E+02 -0.12165161587E+03  0.14704873067E+03  0.22890857587E+03  0.12508850016E+03 0.  0.
          5    1    3    3  502    0 -0.23247240349E+02 -0.74253296501E+02  0.16116748419E+03  0.17901512949E+03  0.41800000000E+01 0. -1.
         -5    1    3    3    0  502  0.50934969968E+01 -0.47398319371E+02 -0.14118753521E+02  0.49893446381E+02  0.41800000000E+01 0. -1.
        -11    1    1    2    0    0 -0.12071396554E+02  0.24445612828E+02  0.11484747206E+03  0.11803918180E+03  0.00000000000E+00 0.  1.
         11    1    1    2    0    0  0.30225139907E+02  0.97206003044E+02  0.77810475098E+02  0.12812898246E+03  0.00000000000E+00 0. -1.
</event>
<event>
 7    1  0.2594791E-009  0.9680611E+02  0.7561462E-02  0.1287159E+00
         -2   -1    0    0    0  501 -0.00000000000E+00  0.00000000000E+00  0.31235214828E+02  0.31235214828E+02  0.00000000000E+00 0.  1.
          2   -1    0    0  501    0  0.00000000000E+00 -0.00000000000E+00 -0.55143934883E+03  0.55143934883E+03  0.00000000000E+00 0. -1.
         25    2    1    2    0    0  0.58952243587E+02  0.39644538014E+02 -0.23784053444E+03  0.27796173776E+03  0.12509017314E+03 0.  0.
          5    1    3    3  502    0  0.29515556048E+02 -0.14274987351E+02 -0.80723185675E+00  0.33061568868E+02  0.41800000000E+01 0.  1.
         -5    1    3    3    0  502  0.29436687539E+02  0.53919525365E+02 -0.23703330258E+03  0.24490016889E+03  0.41800000000E+01 0.  1.
        -11    1    1    2    0    0 -0.63190344054E+02 -0.42430353610E+01 -0.24505650005E+03  0.25310810170E+03  0.00000000000E+00 0. -1.
         11    1    1    2    0    0  0.42381004668E+01 -0.35401502653E+02 -0.37307099519E+02  0.51604724204E+02  0.00000000000E+00 0.  1.
</event>
<event>
 7    1  0.2594791E-009  0.2480247E+03  0.7561462E-02  0.1114560E+00
          1   -1    0    0  501    0  0.00000000000E+00  0.00000000000E+00  0.69361679356E+03  0.69361679356E+03  0.00000000000E+00 0. -1.
         -1   -1    0    0    0  501 -0.00000000000E+00 -0.00000000000E+00 -0.18927121686E+03  0.18927121686E+03  0.00000000000E+00 0.  1.
         25    2    1    2    0    0  0.65380084641E+02  0.22723611045E+03  0.56194118312E+03  0.62236327623E+03  0.12508936392E+03 0.  0.
          5    1    3    3  502    0 -0.26227846458E+02  0.89529179807E+02  0.28341732714E+03  0.29840614553E+03  0.41800000000E+01 0.  1.
         -5    1    3    3    0  502  0.91607931100E+02  0.13770693064E+03  0.27852385597E+03  0.32395713070E+03  0.41800000000E+01 0.  1.
        -11    1    1    2    0    0 -0.33772083833E+02 -0.15017302973E+03  0.85516074932E+01  0.15416102781E+03  0.00000000000E+00 0. -1.
         11    1    1    2    0    0 -0.31608000809E+02 -0.77063080723E+02 -0.66147213907E+02  0.10636370637E+03  0.00000000000E+00 0.  1.
</event>
<event>
 6    1  0.2594791E-009  0.1317801E+03  0.7561462E-02  0.1224838E+00
          2   -1    0    0  501    0  0.00000000000E+00  0.00000000000E+00  0.15120506305E+04  0.15120506305E+04  0.00000000000E+00 0. -1.
         -2   -1    0    0    0  501 -0.00000000000E+00 -0.00000000000E+00 -0.16080671867E+02  0.16080671867E+02  0.00000000000E+00 0.  1.
          5    1    1    2  502    0 -0.19980423277E+01 -0.26375195816E+02  0.78480180010E+02  0.82923182415E+02  0.41800000000E+01 0. -1.
         -5    1    1    2    0  502 -0.47878866909E+02  0.11744892023E+03  0.92815605638E+03  0.93679121054E+03  0.41800000000E+01 0. -1.
        -11    1    1    2    0    0 -0.57214185339E+01 -0.10954387926E+02  0.34328950901E+01  0.12826457561E+02  0.00000000000E+00 0.  1.
         11    1    1    2    0    0  0.55598327771E+02 -0.80119336492E+02  0.48590082713E+03  0.49559045182E+03  0.00000000000E+00 0. -1.
</event>
<event>
 7    1  0.2594791E-009  0.1356363E+03  0.7561462E-02  0.1219324E+00
          2   -1    0    0  501    0  0.00000000000E+00  0.00000000000E+00  0.38356805527E+03  0.38356805527E+03  0.00000000000E+00 0. -1.
         -2   -1    0    0    0  501 -0.00000000000E+00 -0.00000000000E+00 -0.52898011797E+02  0.52898011797E+02  0.00000000000E+00 0.  1.
         25    2    1    2    0    0  0.24739067739E+02  0.85656603490E+02  0.13573581111E+03  0.20499258637E+03  0.12509466358E+03 0.  0.
          5    1    3    3  502    0  0.44667129637E+02  0.11133851643E+03  0.97599122478E+02  0.15470772062E+03  0.41800000000E+01 0. -1.
         -5    1    3    3    0  502 -0.19928061898E+02 -0.25681912944E+02  0.38136688633E+02  0.50284865749E+02  0.41800000000E+01 0. -1.
        -11    1    1    2    0    0 -0.49915244643E+02 -0.32275963832E+02  0.61303730252E+02  0.85389793487E+02  0.00000000000E+00 0.  1.
         11    1    1    2    0    0  0.25176176904E+02 -0.53380639659E+02  0.13363050211E+03  0.14608368720E+03  0.00000000000E+00 0. -1.
</event>
<event>
 7    1  0.2594791E-009  0.9936624E+02  0.7561462E-02  0.1281634E+00
         -1   -1    0    0    0  501 -0.00000000000E+00  0.00000000000E+00  0.34638772105E+03  0.34638772105E+03  0.00000000000E+00 0.  1.
          1   -1    0    0  501    0  0.00000000000E+00 -0.00000000000E+00 -0.40190721512E+02  0.40190721512E+02  0.00000000000E+00 0. -1.
         25    2    1    2    0    0 -0.22567724572E+02  0.12581417221E+02  0.13133985638E+03  0.18320796180E+03  0.12508958847E+03 0.  0.
          5    1    3    3  502    0 -0.57880769512E+02  0.43237924200E+02  0.45838297479E+02  0.85664015107E+02  0.41800000000E+01 0.  1.
         -5    1    3    3    0  502  0.35313044940E+02 -0.30656506979E+02  0.85501558896E+02  0.97543946695E+02  0.41800000000E+01 0.  1.
        -11    1    1    2    0    0  0.41846796776E+02 -0.31519653612E+02  0.16729705586E+03  0.17530815116E+03  0.00000000000E+00 0.  1.
         11    1    1    2    0    0 -0.19279072204E+02  0.18938236391E+02  0.75600873045E+01  0.28062329602E+02  0.00000000000E+00 0. -1.
</event>
<event>
 7    1  0.2594791E-009  0.1781993E+03  0.7561462E-02  0.1169557E+00
         -1   -1    0    0    0  501 -0.00000000000E+00  0.00000000000E+00  0.39936820940E+02  0.39936820940E+02  0.00000000000E+00 0.  1.
          1   -1    0    0  501    0  0.00000000000E+00 -0.00000000000E+00 -0.96359564158E+03  0.96359564158E+03  0.00000000000E+00 0. -1.
         25    2    1    2    0    0  0.40625995012E+02  0.14666725478E+03 -0.63698683283E+03  0.66675440079E+03  0.12508977049E+03 0.  0.
          5    1    3    3  502    0  0.82195666611E+02  0.64243035672E+02 -0.32343036684E+03  0.33986463458E+03  0.41800000000E+01 0.  1.
         -5    1    3    3    0  502 -0.41569671599E+02  0.82424219111E+02 -0.31355646599E+03  0.32688976621E+03  0.41800000000E+01 0.  1.
        -11    1    1    2    0    0  0.33929603543E+01 -0.77648689333E+02 -0.21266573533E+03  0.22642337803E+03  0.00000000000E+00 0. -1.
         11    1    1    2    0    0 -0.44018955366E+02 -0.69018565450E+02 -0.74006252489E+02  0.11035468371E+03  0.00000000000E+00 0.  1.
</event>
<event>
 7    1  0.2594791E-009  0.1083197E+03  0.7561462E-02  0.1263714E+00
          2   -1    0    0  501    0  0.00000000000E+00  0.00000000000E+00  0.12215170298E+03  0.12215170298E+03  0.00000000000E+00 0. -1.
         -2   -1    0    0    0  501 -0.00000000000E+00 -0.00000000000E+00 -0.10154844710E+03  0.10154844710E+03  0.00000000000E+00 0.  1.
         25    2    1    2    0    0  0.24590712134E+01  0.29686520183E+02  0.22811508939E+02  0.13059546419E+03  0.12508986296E+03 0.  0.
          5    1    3    3  502    0  0.34193961003E+02  0.68111276502E+02  0.17944814866E+01  0.76348317071E+02  0.41800000000E+01 0.  1.
         -5    1    3    3    0  502 -0.31734889789E+02 -0.38424756319E+02  0.21017027452E+02  0.54247147124E+02  0.41800000000E+01 0.  1.
        -11    1    1    2    0    0 -0.42048729843E+02 -0.28305192476E+02 -0.12437194061E+02  0.52191602759E+02  0.00000000000E+00 0.  1.
         11    1    1    2    0    0  0.39589658629E+02 -0.13813277064E+01  0.10228941002E+02  0.40913083123E+02  0.00000000000E+00 0. -1.
</event>
<event>
 7    1  0.2594791E-009  0.1177570E+03  0.7561462E-02  0.1246844E+00
          2   -1    0    0  501    0  0.00000000000E+00  0.00000000000E+00  0.37287872499E+03  0.37287872499E+03  0.00000000000E+00 0. -1.
         -2   -1    0    0    0  501 -0.00000000000E+00 -0.00000000000E+00 -0.40499947283E+02  0.40499947283E+02  0.00000000000E+00 0.  1.
         25    2    1    2    0    0 -0.46825123587E+02 -0.21139483620E+02  0.23068061971E+03  0.26739715564E+03  0.12509284777E+03 0.  0.
          5    1    3    3  502    0 -0.70420584901E+02  0.31247642724E+02  0.14296459846E+03  0.16245560245E+03  0.41800000000E+01 0.  1.
         -5    1    3    3    0  502  0.23595461314E+02 -0.52387126344E+02  0.87716021254E+02  0.10494155319E+03  0.41800000000E+01 0.  1.
        -11    1    1    2    0    0 -0.36399866060E+01  0.44847195895E+02  0.65641588788E+02  0.79582276047E+02  0.00000000000E+00 0. -1.
         11    1    1    2    0    0  0.50465110193E+02 -0.23707712276E+02  0.36056569208E+02  0.66399240592E+02  0.00000000000E+00 0.  1.
</event>
<event>
 7    1  0.2594791E-009  0.6679324E+02  0.7561462E-02  0.1371350E+00
         -1   -1    0    0    0  501 -0.00000000000E+00  0.00000000000E+00  0.61666496174E+02  0.61666496174E+02  0.00000000000E+00 0.  1.
          1   -1    0    0  501    0  0.00000000000E+00 -0.00000000000E+00 -0.22482395390E+03  0.22482395390E+03  0.00000000000E+00 0. -1.
         25    2    1    2    0    0  0.26000473948E+02 -0.12200728363E+01 -0.16129296182E+03  0.20577207440E+03  0.12509681789E+03 0.  0.
          5    1    3    3  502    0  0.33165481174E+02 -0.18925901662E+02  0.46383731711E+01  0.38692709920E+02  0.41800000000E+01 0. -1.
         -5    1    3    3    0  502 -0.71650072259E+01  0.17705828826E+02 -0.16593133499E+03  0.16707936448E+03  0.41800000000E+01 0. -1.
        -11    1    1    2    0    0 -0.45870025588E+02  0.18332108550E+02  0.12312328744E+02  0.50908927414E+02  0.00000000000E+00 0.  1.
         11    1    1    2    0    0  0.19869551640E+02 -0.17112035714E+02 -0.14176824654E+02  0.29809448266E+02  0.00000000000E+00 0. -1.
</event>
<event>
 7    1  0.2594791E-009  0.1918955E+03  0.7561462E-02  0.1156763E+00
          2   -1    0    0  501    0  0.00000000000E+00  0.00000000000E+00  0.42585440017E+03  0.42585440017E+03  0.00000000000E+00 0. -1.
         -2   -1    0    0    0  501 -0.00000000000E+00 -0.00000000000E+00 -0.12445749017E+03  0.12445749017E+03  0.00000000000E+00 0.  1.
         25    2    1    2    0    0 -0.48740384645E+02  0.18206509821E+03  0.24733716729E+03  0.33517653706E+03  0.12507722251E+03 0.  0.
          5    1    3    3  502    0 -0.29001550249E+01  0.99548015190E+02  0.21206007070E+03  0.23431851018E+03  0.41800000000E+01 0.  1.
         -5    1    3    3    0  502 -0.45840229620E+02  0.82517083019E+02  0.35277096584E+02  0.10085802687E+03  0.41800000000E+01 0.  1.
        -11    1    1    2    0    0  0.76661297555E+01 -0.93362142035E+01  0.34454372949E+02  0.36510796436E+02  0.00000000000E+00 0. -1.
         11    1    1    2    0    0  0.41074254890E+02 -0.17272888401E+03  0.19605369768E+02  0.17862455685E+03  0.00000000000E+00 0.  1.
</event>
<event>
 7    1  0.2594791E-009  0.9998733E+02  0.7561462E-02  0.1280323E+00
          3   -1    0    0  501    0  0.00000000000E+00  0.00000000000E+00  0.72976178383E+02  0.72976178383E+02  0.00000000000E+00 0. -1.
         -3   -1    0    0    0  501 -0.00000000000E+00 -0.00000000000E+00 -0.23248102630E+03  0.23248102630E+03  0.00000000000E+00 0.  1.
         25    2    1    2    0    0  0.10996005538E+01 -0.68295939859E+02 -0.60728384092E+02  0.15492302600E+03  0.12509061847E+03 0.  0.
          5    1    3    3  502    0 -0.35681428026E+02  0.15649143290E+02 -0.48523018346E+02  0.62369990389E+02  0.41800000000E+01 0.  1.
         -5    1    3    3    0  502  0.36781028580E+02 -0.83945083150E+02 -0.12205365745E+02  0.92553035614E+02  0.41800000000E+01 0.  1.
        -11    1    1    2    0    0 -0.54413503234E+01  0.46706329515E+02  0.23078962387E+01  0.47078826399E+02  0.00000000000E+00 0. -1.
         11    1    1    2    0    0  0.43417497696E+01  0.21589610345E+02 -0.10108436007E+03  0.10345535228E+03  0.00000000000E+00 0.  1.
</event>
<event>
 7    1  0.2594791E-009  0.8548932E+02  0.7561462E-02  0.1314158E+00
         -3   -1    0    0    0  501 -0.00000000000E+00  0.00000000000E+00  0.10104161615E+03  0.10104161615E+03  0.00000000000E+00 0.  1.
          3   -1    0    0  501    0  0.00000000000E+00 -0.00000000000E+00 -0.18806467152E+03  0.18806467152E+03  0.00000000000E+00 0. -1.
         25    2    1    2    0    0 -0.35128199144E+02 -0.15271788752E+02 -0.12556788760E+03  0.18133504182E+03  0.12509150686E+03 0.  0.
          5    1    3    3  502    0  0.34954739167E+02  0.23452276037E+02 -0.76265256021E+02  0.87210691532E+02  0.41800000000E+01 0. -1.
         -5    1    3    3    0  502 -0.70082938311E+02 -0.38724064789E+02 -0.49302631581E+02  0.94124350287E+02  0.41800000000E+01 0. -1.
        -11    1    1    2    0    0  0.24302150285E+02 -0.56431764502E+01  0.66612907767E+02  0.71131704816E+02  0.00000000000E+00 0.  1.
         11    1    1    2    0    0  0.10826048859E+02  0.20914965202E+02 -0.28068075536E+02  0.36639541040E+02  0.00000000000E+00 0. -1.
</event>
<event>
 7    1  0.2965366E-009  0.1563796E+03  0.7561462E-02  0.1192846E+00
          2   -1    0    0  501    0  0.00000000000E+00  0.00000000000E+00  0.72412678922E+03  0.72412678922E+03  0.00000000000E+00 0.  1.
         -2   -1    0    0    0  501 -0.00000000000E+00 -0.00000000000E+00 -0.40045130830E+02  0.40045130830E+02  0.00000000000E+00 0. -1.
         25    2    1    2    0    0  0.88163208530E+02 -0.84274777071E+02  0.25685896101E+03  0.31064346205E+03  0.12509134772E+03 0.  0.
          5    1    3    3  502    0  0.12072254095E+02  0.31624578172E+02  0.34109553583E+02  0.48236783777E+02  0.41800000000E+01 0. -1.
         -5    1    3    3    0  502  0.76090954435E+02 -0.11589935524E+03  0.22274940743E+03  0.26240667828E+03  0.41800000000E+01 0. -1.
        -11    1    1    2    0    0 -0.46446132468E+02  0.60452950587E+00  0.68084628313E+02  0.82420417917E+02  0.00000000000E+00 0.  1.
         11    1    1    2    0    0 -0.41717076063E+02  0.83670247565E+02  0.35913806906E+03  0.37110804008E+03  0.00000000000E+00 0. -1.
</event>
<event>
 7    1  0.2594791E-009  0.1790209E+03  0.7561462E-02  0.1168754E+00
          1   -1    0    0  501    0  0.00000000000E+00  0.00000000000E+00  0.13709339236E+03  0.13709339236E+03  0.00000000000E+00 0. -1.
         -1   -1    0    0    0  501 -0.00000000000E+00 -0.00000000000E+00 -0.29838245103E+03  0.29838245103E+03  0.00000000000E+00 0.  1.
         25    2    1    2    0    0  0.12562109876E+03  0.69392594318E+02  0.14171361469E+02  0.19090488764E+03  0.12509139075E+03 0.  0.
          5    1    3    3  502    0  0.74019792045E+02  0.10428112884E+03  0.94080172658E+01  0.12829445286E+03  0.41800000000E+01 0. -1.
         -5    1    3    3    0  502  0.51601306718E+02 -0.34888534518E+02  0.47633442028E+01  0.62610434784E+02  0.41800000000E+01 0. -1.
        -11    1    1    2    0    0 -0.69481054691E+02 -0.84624600698E+02 -0.13446684384E+03  0.17340782017E+03  0.00000000000E+00 0.  1.
         11    1    1    2    0    0 -0.56140044072E+02  0.15232006380E+02 -0.40993576301E+02  0.71163135574E+02  0.00000000000E+00 0. -1.
</event>
<event>
 7    1  0.3120179E-009  0.1912673E+03  0.7561462E-02  0.1157323E+00
          2   -1    0    0  501    0  0.00000000000E+00  0.00000000000E+00  0.78915197063E+03  0.78915197063E+03  0.00000000000E+00 0.  1.
         -2   -1    0    0    0  501 -0.00000000000E+00 -0.00000000000E+00 -0.52632298955E+02  0.52632298955E+02  0.00000000000E+00 0. -1.
         25    2    1    2    0    0 -0.14911872326E+03 -0.84797416288E+02  0.36126833864E+03  0.41903411497E+03  0.12509109309E+03 0.  0.
          5    1    3    3  502    0 -0.16537830453E+03 -0.88660185345E+02  0.28795474681E+03  0.34372375636E+03  0.41800000000E+01 0. -1.
         -5    1    3    3    0  502  0.16259581266E+02  0.38627690563E+01  0.73313591827E+02  0.75310358612E+02  0.41800000000E+01 0. -1.
        -11    1    1    2    0    0  0.32835943758E+02  0.42881293560E+02  0.20727702640E+03  0.21419796967E+03  0.00000000000E+00 0.  1.
         11    1    1    2    0    0  0.11628277950E+03  0.41916122728E+02  0.16797430664E+03  0.20855218495E+03  0.00000000000E+00 0. -1.
</event>
<event>
 7    1  0.2594791E-009  0.8673105E+02  0.7561462E-02  0.1310967E+00
          2   -1    0    0  501    0  0.00000000000E+00  0.00000000000E+00  0.15846531632E+03  0.15846531632E+03  0.00000000000E+00 0. -1.
         -2   -1    0    0    0  501 -0.00000000000E+00 -0.00000000000E+00 -0.17525503686E+03  0.17525503686E+03  0.00000000000E+00 0.  1.
         25    2    1    2    0    0  0.35699926675E+02  0.77023713311E+02 -0.10451148028E+03  0.18379828949E+03  0.12510805144E+03 0.  0.
          5    1    3    3  502    0  0.10321919915E+02  0.93322937773E+01 -0.11020793008E+03  0.11116156706E+03  0.41800000000E+01 0.  1.
         -5    1    3    3    0  502  0.25378006760E+02  0.67691419534E+02  0.56964498088E+01  0.72636722434E+02  0.41800000000E+01 0.  1.
        -11    1    1    2    0    0 -0.15545701067E+02 -0.52625808238E+02  0.10151821859E+03  0.11539971066E+03  0.00000000000E+00 0. -1.
         11    1    1    2    0    0 -0.20154225608E+02 -0.24397905074E+02 -0.13796458859E+02  0.34522353032E+02  0.00000000000E+00 0.  1.
</event>
<event>
 7    1  0.2594791E-009  0.1178021E+03  0.7561462E-02  0.1246768E+00
          1   -1    0    0  501    0  0.00000000000E+00  0.00000000000E+00  0.56273873106E+03  0.56273873106E+03  0.00000000000E+00 0. -1.
         -1   -1    0    0    0  501 -0.00000000000E+00 -0.00000000000E+00 -0.62183346882E+02  0.62183346882E+02  0.00000000000E+00 0.  1.
         25    2    1    2    0    0 -0.55957902374E+02 -0.19813336683E+01  0.49880740172E+03  0.51729291594E+03  0.12509166380E+03 0.  0.
          5    1    3    3  502    0 -0.19374449944E+02 -0.62718578589E+02  0.25542971660E+03  0.26376277587E+03  0.41800000000E+01 0. -1.
         -5    1    3    3    0  502 -0.36583452430E+02  0.60737244920E+02  0.24337768512E+03  0.25353014007E+03  0.41800000000E+01 0. -1.
        -11    1    1    2    0    0  0.39861155568E+02  0.40639901385E+02  0.22105842390E+02  0.61067025272E+02  0.00000000000E+00 0.  1.
         11    1    1    2    0    0  0.16096746806E+02 -0.38658567717E+02 -0.20357859932E+02  0.46562136728E+02  0.00000000000E+00 0. -1.
</event>
<event>
 7    1  0.2594791E-009  0.1479661E+03  0.7561462E-02  0.1202995E+00
         -1   -1    0    0    0  501 -0.00000000000E+00  0.00000000000E+00  0.23318489946E+03  0.23318489946E+03  0.00000000000E+00 0.  1.
          1   -1    0    0  501    0  0.00000000000E+00 -0.00000000000E+00 -0.11035124569E+03  0.11035124569E+03  0.00000000000E+00 0. -1.
         25    2    1    2    0    0  0.45240116174E+02 -0.10172799554E+03  0.10724653762E+03  0.19886055620E+03  0.12509375601E+03 0.  0.
          5    1    3    3  502    0  0.68699922242E+02 -0.64488929866E+01  0.48028153869E+02  0.84175076483E+02  0.41800000000E+01 0. -1.
         -5    1    3    3    0  502 -0.23459806068E+02 -0.95279102552E+02  0.59218383748E+02  0.11468547972E+03  0.41800000000E+01 0. -1.
        -11    1    1    2    0    0  0.15503686748E+02  0.35421359044E+02  0.35591875553E+02  0.52553007380E+02  0.00000000000E+00 0.  1.
         11    1    1    2    0    0 -0.60743802922E+02  0.66306636495E+02 -0.20004759399E+02  0.92122581571E+02  0.00000000000E+00 0. -1.
</event>
<event>
 7    1  0.2594791E-009  0.1144125E+03  0.7561462E-02  0.1252610E+00
          1   -1    0    0  501    0  0.00000000000E+00  0.00000000000E+00  0.34827145742E+02  0.34827145742E+02  0.00000000000E+00 0. -1.
         -1   -1    0    0    0  501 -0.00000000000E+00 -0.00000000000E+00 -0.52350510225E+03  0.52350510225E+03  0.00000000000E+00 0.  1.
         25    2    1    2    0    0 -0.33080785102E+02  0.64822239646E+02 -0.31247066804E+03  0.34435174647E+03  0.12507576030E+03 0.  0.
          5    1    3    3  502    0 -0.46240481553E+02  0.56727739699E+01 -0.25973541094E+03  0.26391346801E+03  0.41800000000E+01 0.  1.
         -5    1    3    3    0  502  0.13159696451E+02  0.59149465676E+02 -0.52735257095E+02  0.80438278458E+02  0.41800000000E+01 0.  1.
        -11    1    1    2    0    0 -0.22264468670E+02  0.13025378946E+02 -0.34136868460E+02  0.42786596617E+02  0.00000000000E+00 0.  1.
         11    1    1    2    0    0  0.55345253772E+02 -0.77847618592E+02 -0.14207042001E+03  0.17119390491E+03  0.00000000000E+00 0. -1.
</event>
<event>
 7    1  0.2594791E-009  0.1313003E+03  0.7561462E-02  0.1225539E+00
          1   -1    0    0  501    0  0.00000000000E+00  0.00000000000E+00  0.70335059316E+03  0.70335059316E+03  0.00000000000E+00 0. -1.
         -1   -1    0    0    0  501 -0.00000000000E+00 -0.00000000000E+00 -0.49570038555E+02  0.49570038555E+02  0.00000000000E+00 0.  1.
         25    2    1    2    0    0 -0.10919486630E+03  0.20433849494E+02  0.13868821354E+03  0.21730974212E+03  0.12509213570E+03 0.  0.
          5    1    3    3  502    0 -0.10434707292E+03  0.72117624354E+01  0.16013525002E+03  0.19131411825E+03  0.41800000000E+01 0.  1.
         -5    1    3    3    0  502 -0.48477933862E+01  0.13222087059E+02 -0.21447036476E+02  0.25995623872E+02  0.41800000000E+01 0.  1.
        -11    1    1    2    0    0  0.11919386141E+03  0.14158217463E+01  0.37552341999E+03  0.39398860404E+03  0.00000000000E+00 0. -1.
         11    1    1    2    0    0 -0.99989951079E+01 -0.21849671240E+02  0.13956892108E+03  0.14162228556E+03  0.00000000000E+00 0.  1.
</event>
<event>
 7    1  0.2594791E-009  0.2093908E+03  0.7561462E-02  0.1142049E+00
         -1   -1    0    0    0  501 -0.00000000000E+00  0.00000000000E+00  0.38726130143E+02  0.38726130143E+02  0.00000000000E+00 0.  1.
          1   -1    0    0  501    0  0.00000000000E+00 -0.00000000000E+00 -0.13953848585E+04  0.13953848585E+04  0.00000000000E+00 0. -1.
         25    2    1    2    0    0  0.55467278964E+02 -0.19471217190E+03 -0.58067872202E+03  0.62755444416E+03  0.12508938108E+03 0.  0.
          5    1    3    3  502    0 -0.41523981224E+01 -0.54784100064E+02 -0.46409105859E+02  0.72040388232E+02  0.41800000000E+01 0. -1.
         -5    1    3    3    0  502  0.59619677086E+02 -0.13992807183E+03 -0.53426961616E+03  0.55551405593E+03  0.41800000000E+01 0. -1.
        -11    1    1    2    0    0 -0.61254099355E+02  0.10451881716E+03 -0.54978142744E+03  0.56297057275E+03  0.00000000000E+00 0. -1.
         11    1    1    2    0    0  0.57868203918E+01  0.90193354743E+02 -0.22619857895E+03  0.24358597179E+03  0.00000000000E+00 0.  1.
</event>
<event>
 7    1  0.2594791E-009  0.2379802E+03  0.7561462E-02  0.1121146E+00
          1   -1    0    0  501    0  0.00000000000E+00  0.00000000000E+00  0.10536508608E+03  0.10536508608E+03  0.00000000000E+00 0. -1.
         -1   -1    0    0    0  501 -0.00000000000E+00 -0.00000000000E+00 -0.62668146665E+03  0.62668146665E+03  0.00000000000E+00 0.  1.
         25    2    1    2    0    0  0.88980662625E+02 -0.21147487443E+03 -0.32521600310E+03  0.41719434141E+03  0.12508592645E+03 0.  0.
          5    1    3    3  502    0  0.10887693819E+02 -0.29429036662E+02 -0.14807450131E+03  0.15142040950E+03  0.41800000000E+01 0.  1.
         -5    1    3    3    0  502  0.78092968806E+02 -0.18204583777E+03 -0.17714150179E+03  0.26577393191E+03  0.41800000000E+01 0.  1.
        -11    1    1    2    0    0 -0.49261428139E+02  0.24486909877E+02 -0.39245869971E+02  0.67576144958E+02  0.00000000000E+00 0.  1.
         11    1    1    2    0    0 -0.39719234486E+02  0.18698796455E+03 -0.15685450750E+03  0.24727606637E+03  0.00000000000E+00 0. -1.
</event>
<event>
 7    1  0.2594791E-009  0.9815078E+02  0.7561462E-02  0.1284233E+00
         -2   -1    0    0    0  501 -0.00000000000E+00  0.00000000000E+00  0.12506825962E+02  0.12506825962E+02  0.00000000000E+00 0.  1.
          2   -1    0    0  501    0  0.00000000000E+00 -0.00000000000E+00 -0.11943326824E+04  0.11943326824E+04  0.00000000000E+00 0. -1.
         25    2    1    2    0    0  0.56152301432E+02 -0.36821480487E+01 -0.68134462683E+03  0.69501220240E+03  0.12507926214E+03 0.  0.
          5    1    3    3  502    0  0.69378981304E+02  0.15462009591E+02 -0.65781400487E+03  0.66165644725E+03  0.41800000000E+01 0. -1.
         -5    1    3    3    0  502 -0.13226679872E+02 -0.19144157640E+02 -0.23530621957E+02  0.33355755154E+02  0.41800000000E+01 0. -1.
        -11    1    1    2    0    0 -0.67122744864E+02  0.29564302791E+02 -0.42497800190E+03  0.43126072506E+03  0.00000000000E+00 0.  1.
         11    1    1    2    0    0  0.10970443432E+02 -0.25882154742E+02 -0.75503227729E+02  0.80566580917E+02  0.00000000000E+00 0. -1.
</event>
<event>
 7    1  0.2594791E-009  0.1006601E+03  0.7561462E-02  0.1278914E+00
          2   -1    0    0  501    0  0.00000000000E+00  0.00000000000E+00  0.19753635321E+03  0.19753635321E+03  0.00000000000E+00 0. -1.
         -2   -1    0    0    0  501 -0.00000000000E+00 -0.00000000000E+00 -0.88855517457E+02  0.88855517457E+02  0.00000000000E+00 0.  1.
         25    2    1    2    0    0 -0.73644372350E+01  0.82656193970E+01 -0.20555542468E+02  0.12725221990E+03  0.12509213302E+03 0.  0.
          5    1    3    3  502    0  0.96737151002E+01 -0.52325615585E+02 -0.33280556175E+02  0.62901658400E+02  0.41800000000E+01 0.  1.
         -5    1    3    3    0  502 -0.17038152335E+02  0.60591234982E+02  0.12725013707E+02  0.64350561501E+02  0.41800000000E+01 0.  1.
        -11    1    1    2    0    0  0.31099136980E+02  0.27783975506E+02  0.31388656630E+02  0.52195338690E+02  0.00000000000E+00 0.  1.
         11    1    1    2    0    0 -0.23734699746E+02 -0.36049594903E+02  0.97847721589E+02  0.10694431207E+03  0.00000000000E+00 0. -1.
</event>
<event>
 7    1  0.2594791E-009  0.8270986E+02  0.7561462E-02  0.1321532E+00
          2   -1    0    0  501    0  0.00000000000E+00  0.00000000000E+00  0.27794163450E+03  0.27794163450E+03  0.00000000000E+00 0. -1.
         -2   -1    0    0    0  501 -0.00000000000E+00 -0.00000000000E+00 -0.45930645450E+02  0.45930645450E+02  0.00000000000E+00 0.  1.
         25    2    1    2    0    0  0.18512851686E+02 -0.10236885389E+02  0.16432842223E+03  0.20760274880E+03  0.12509017330E+03 0.  0.
          5    1    3    3  502    0  0.12234342474E+02 -0.61699188381E+02  0.45063366352E+02  0.77489666212E+02  0.41800000000E+01 0. -1.
         -5    1    3    3    0  502  0.62785092121E+01  0.51462302993E+02  0.11926505588E+03  0.13011308259E+03  0.41800000000E+01 0. -1.
        -11    1    1    2    0    0 -0.32407438616E+01 -0.17987481788E+02 -0.17462079073E+02  0.25277977122E+02  0.00000000000E+00 0.  1.
         11    1    1    2    0    0 -0.15272107825E+02  0.28224367177E+02  0.85144645895E+02  0.90991554028E+02  0.00000000000E+00 0. -1.
</event>
<event>
 7    1  0.2594791E-009  0.7316691E+02  0.7561462E-02  0.1349643E+00
          2   -1    0    0  501    0  0.00000000000E+00  0.00000000000E+00  0.54972366434E+02  0.54972366434E+02  0.00000000000E+00 0. -1.
         -2   -1    0    0    0  501 -0.00000000000E+00 -0.00000000000E+00 -0.33385792550E+03  0.33385792550E+03  0.00000000000E+00 0.  1.
         25    2    1    2    0    0 -0.21285836467E+02  0.63668856706E+02 -0.22377702445E+03  0.26501011641E+03  0.12508954783E+03 0.  0.
          5    1    3    3  502    0 -0.28957949215E+02  0.59525103731E+02 -0.33171439523E+02  0.74159406665E+02  0.41800000000E+01 0. -1.
         -5    1    3    3    0  502  0.76721127481E+01  0.41437529748E+01 -0.19060558493E+03  0.19085070974E+03  0.41800000000E+01 0. -1.
        -11    1    1    2    0    0 -0.23936907522E+01 -0.24139309560E+02 -0.71037699520E+02  0.75065243452E+02  0.00000000000E+00 0.  1.
         11    1    1    2    0    0  0.23679527219E+02 -0.39529547146E+02  0.15929164907E+02  0.48754932074E+02  0.00000000000E+00 0. -1.
</event>
<event>
 7    1  0.2594791E-009  0.1340991E+03  0.7561462E-02  0.1221497E+00
          1   -1    0    0  501    0  0.00000000000E+00  0.00000000000E+00  0.44411317514E+03  0.44411317514E+03  0.00000000000E+00 0. -1.
         -1   -1    0    0    0  501 -0.00000000000E+00 -0.00000000000E+00 -0.57448662011E+02  0.57448662011E+02  0.00000000000E+00 0.  1.
         25    2    1    2    0    0 -0.62678053410E+02  0.94720413894E+02  0.17515442995E+03  0.24336570337E+03  0.12508915244E+03 0.  0.
          5    1    3    3  502    0  0.23195669305E+02  0.43632032685E+02  0.11842107538E+03  0.12838542302E+03  0.41800000000E+01 0. -1.
         -5    1    3    3    0  502 -0.85873722715E+02  0.51088381210E+02  0.56733354573E+02  0.11498028035E+03  0.41800000000E+01 0. -1.
        -11    1    1    2    0    0  0.21807518256E+02 -0.89206938956E+01 -0.28305836011E+01  0.23730967861E+02  0.00000000000E+00 0.  1.
         11    1    1    2    0    0  0.40870535154E+02 -0.85799719999E+02  0.21434066677E+03  0.23446516592E+03  0.00000000000E+00 0. -1.
</event>
<event>
 7    1  0.2594791E-009  0.1521733E+03  0.7561462E-02  0.1197828E+00
         -4   -1    0    0    0  501 -0.00000000000E+00  0.00000000000E+00  0.25155236615E+03  0.25155236615E+03  0.00000000000E+00 0.  1.
          4   -1    0    0  501    0  0.00000000000E+00 -0.00000000000E+00 -0.17659221670E+03  0.17659221670E+03  0.00000000000E+00 0. -1.
         25    2    1    2    0    0 -0.11908039610E+03 -0.68444857596E+02 -0.79830133115E+02  0.20220223318E+03  0.12509218074E+03 0.  0.
          5    1    3    3  502    0 -0.13434388150E+03 -0.63922754087E+02 -0.32842767865E+02  0.15241560546E+03  0.41800000000E+01 0. -1.
         -5    1    3    3    0  502  0.15263485395E+02 -0.45221035093E+01 -0.46987365250E+02  0.49786627720E+02  0.41800000000E+01 0. -1.
        -11    1    1    2    0    0  0.75151273533E+02  0.54948377050E+02  0.15403220246E+03  0.17998043630E+03  0.00000000000E+00 0.  1.
         11    1    1    2    0    0  0.43929122568E+02  0.13496480546E+02  0.75808010550E+00  0.45961913387E+02  0.00000000000E+00 0. -1.
</event>
<event>
 7    1  0.2594791E-009  0.1195776E+03  0.7561462E-02  0.1243796E+00
          2   -1    0    0  501    0  0.00000000000E+00  0.00000000000E+00  0.25507326088E+03  0.25507326088E+03  0.00000000000E+00 0. -1.
         -2   -1    0    0    0  501 -0.00000000000E+00 -0.00000000000E+00 -0.69762604489E+02  0.69762604489E+02  0.00000000000E+00 0.  1.
         25    2    1    2    0    0  0.46327156392E+02  0.23968956733E+02  0.32223863802E+02  0.13931072932E+03  0.12509350742E+03 0.  0.
          5    1    3    3  502    0 -0.15471733555E+02  0.61025750932E+02  0.10741581343E+02  0.64002896698E+02  0.41800000000E+01 0.  1.
         -5    1    3    3    0  502  0.61798889946E+02 -0.37056794199E+02  0.21482282459E+02  0.75307832624E+02  0.41800000000E+01 0.  1.
        -11    1    1    2    0    0  0.25690774590E+02  0.51452965167E+01  0.49979490086E+02  0.56430837354E+02  0.00000000000E+00 0. -1.
         11    1    1    2    0    0 -0.72017930981E+02 -0.29114253249E+02  0.10310730250E+03  0.12909429869E+03  0.00000000000E+00 0.  1.
</event>
<event>
 7    1  0.2594791E-009  0.8813859E+02  0.7561462E-02  0.1307423E+00
          2   -1    0    0  501    0  0.00000000000E+00  0.00000000000E+00  0.60154515182E+03  0.60154515182E+03  0.00000000000E+00 0. -1.
         -2   -1    0    0    0  501 -0.00000000000E+00 -0.00000000000E+00 -0.26918806058E+02  0.26918806058E+02  0.00000000000E+00 0.  1.
         25    2    1    2    0    0 -0.53927545591E+02  0.28977000480E+02  0.25180376708E+03  0.28775029512E+03  0.12508896234E+03 0.  0.
          5    1    3    3  502    0 -0.36294856132E+02  0.39267963756E+02  0.23601687717E+02  0.58598648638E+02  0.41800000000E+01 0. -1.
         -5    1    3    3    0  502 -0.17632689460E+02 -0.10290963276E+02  0.22820207936E+03  0.22915164649E+03  0.41800000000E+01 0. -1.
        -11    1    1    2    0    0  0.62700690390E+02  0.85340726744E+01  0.13655391355E+03  0.15050308394E+03  0.00000000000E+00 0.  1.
         11    1    1    2    0    0 -0.87731447988E+01 -0.37511073154E+02  0.18626866514E+03  0.19021057881E+03  0.00000000000E+00 0. -1.
</event>
<event>
 7    1  0.2594791E-009  0.5914381E+02  0.7561462E-02  0.1401460E+00
          2   -1    0    0  501    0  0.00000000000E+00  0.00000000000E+00  0.12819969531E+03  0.12819969531E+03  0.00000000000E+00 0. -1.
         -2   -1    0    0    0  501 -0.00000000000E+00 -0.00000000000E+00 -0.12433659478E+03  0.12433659478E+03  0.00000000000E+00 0.  1.
         25    2    1    2    0    0  0.28844060531E+02 -0.12249803902E+02  0.59080481842E+02  0.14184653497E+03  0.12509156097E+03 0.  0.
          5    1    3    3  502    0  0.38710844170E+02  0.13858110216E+02  0.90574504728E+02  0.99557972969E+02  0.41800000000E+01 0.  1.
         -5    1    3    3    0  502 -0.98667836383E+01 -0.26107914118E+02 -0.31494022885E+02  0.42288562005E+02  0.41800000000E+01 0.  1.
        -11    1    1    2    0    0 -0.17922071080E+02  0.25749759926E+02  0.17502888984E+02  0.35924948028E+02  0.00000000000E+00 0. -1.
         11    1    1    2    0    0 -0.10921989451E+02 -0.13499956024E+02 -0.72720270299E+02  0.74764807086E+02  0.00000000000E+00 0.  1.
</event>
<event>
 7    1  0.2594791E-009  0.1501861E+03  0.7561462E-02  0.1200244E+00
          2   -1    0    0  501    0  0.00000000000E+00  0.00000000000E+00  0.30759263730E+03  0.30759263730E+03  0.00000000000E+00 0. -1.
         -2   -1    0    0    0  501 -0.00000000000E+00 -0.00000000000E+00 -0.95655256634E+02  0.95655256634E+02  0.00000000000E+00 0.  1.
         25    2    1    2    0    0 -0.92311135243E+02 -0.47019637557E+02  0.20758780635E+03  0.26357508208E+03  0.12508770740E+03 0.  0.
          5    1    3    3  502    0 -0.57161019230E+02  0.38256545929E+02  0.73264789433E+02  0.10057905943E+03  0.41800000000E+01 0. -1.
         -5    1    3    3    0  502 -0.35150116013E+02 -0.85276183487E+02  0.13432301691E+03  0.16299602264E+03  0.41800000000E+01 0. -1.
        -11    1    1    2    0    0  0.54854683261E+02 -0.23190818255E+02 -0.38185766165E+01  0.59677733321E+02  0.00000000000E+00 0.  1.
         11    1    1    2    0    0  0.37456451982E+02  0.70210455813E+02  0.81681509416E+01  0.79995078538E+02  0.00000000000E+00 0. -1.
</event>
<event>
 7    1  0.2594791E-009  0.8799011E+02  0.7561462E-02  0.1307793E+00
          2   -1    0    0  501    0  0.00000000000E+00  0.00000000000E+00  0.23976304438E+03  0.23976304438E+03  0.00000000000E+00 0. -1.
         -2   -1    0    0    0  501 -0.00000000000E+00 -0.00000000000E+00 -0.62824980565E+02  0.62824980565E+02  0.00000000000E+00 0.  1.
         25    2    1    2    0    0 -0.51660646850E+02  0.17856760676E+02  0.11515879023E+03  0.17860196331E+03  0.12509767382E+03 0.  0.
          5    1    3    3  502    0 -0.57928853394E+01  0.44342382604E+02 -0.69374951714E+01  0.45446734259E+02  0.41800000000E+01 0. -1.
         -5    1    3    3    0  502 -0.45867761511E+02 -0.26485621928E+02  0.12209628540E+03  0.13315522905E+03  0.41800000000E+01 0. -1.
        -11    1    1    2    0    0  0.44595149620E+02  0.12863772260E+02  0.76277955264E+02  0.89289027689E+02  0.00000000000E+00 0. -1.
         11    1    1    2    0    0  0.70654972304E+01 -0.30720532936E+02 -0.14498681671E+02  0.34697033954E+02  0.00000000000E+00 0.  1.
</event>
<event>
 7    1  0.2594791E-009  0.9730509E+02  0.7561462E-02  0.1286067E+00
         -1   -1    0    0    0  501 -0.00000000000E+00  0.00000000000E+00  0.75673083090E+02  0.75673083090E+02  0.00000000000E+00 0.  1.
          1   -1    0    0  501    0  0.00000000000E+00 -0.00000000000E+00 -0.16696499045E+03  0.16696499045E+03  0.00000000000E+00 0. -1.
         25    2    1    2    0    0  0.36988831054E+02  0.38590599273E+01 -0.86440625629E+02  0.15653296093E+03  0.12509004810E+03 0.  0.
          5    1    3    3  502    0  0.53217685359E+02  0.54283825994E+02 -0.61321652458E+02  0.97758238833E+02  0.41800000000E+01 0. -1.
         -5    1    3    3    0  502 -0.16228854305E+02 -0.50424766067E+02 -0.25118973171E+02  0.58774722102E+02  0.41800000000E+01 0. -1.
        -11    1    1    2    0    0 -0.36307179183E+02 -0.25067699316E+02  0.24050827300E+02  0.50249806995E+02  0.00000000000E+00 0.  1.
         11    1    1    2    0    0 -0.68165187033E+00  0.21208639389E+02 -0.28902109034E+02  0.35855305613E+02  0.00000000000E+00 0. -1.
</event>
<event>
 7    1  0.2594791E-009  0.1014290E+03  0.7561462E-02  0.1277319E+00
         -4   -1    0    0    0  501 -0.00000000000E+00  0.00000000000E+00  0.14724062074E+02  0.14724062074E+02  0.00000000000E+00 0.  1.
          4   -1    0    0  501    0  0.00000000000E+00 -0.00000000000E+00 -0.79717211889E+03  0.79717211889E+03  0.00000000000E+00 0. -1.
         25    2    1    2    0    0 -0.11616668802E+02 -0.27497098260E+01 -0.46771180291E+03  0.48429609105E+03  0.12508343346E+03 0.  0.
          5    1    3    3  502    0  0.15890734027E+01 -0.60138917499E+02 -0.31186254241E+03  0.31763962648E+03  0.41800000000E+01 0. -1.
         -5    1    3    3    0  502 -0.13205742205E+02  0.57389207673E+02 -0.15584926051E+03  0.16665646457E+03  0.41800000000E+01 0. -1.
        -11    1    1    2    0    0  0.10630790833E+02 -0.39677634523E+02 -0.90539031394E+02  0.99421549982E+02  0.00000000000E+00 0. -1.
         11    1    1    2    0    0  0.98587796865E+00  0.42427344349E+02 -0.22419722251E+03  0.22817853993E+03  0.00000000000E+00 0.  1.
</event>
<event>
 7    1  0.2594791E-009  0.1615770E+03  0.7561462E-02  0.1186928E+00
          1   -1    0    0  501    0  0.00000000000E+00  0.00000000000E+00  0.13038594701E+04  0.13038594701E+04  0.00000000000E+00 0. -1.
         -1   -1    0    0    0  501 -0.00000000000E+00 -0.00000000000E+00 -0.24627620961E+02  0.24627620961E+02  0.00000000000E+00 0.  1.
         25    2    1    2    0    0  0.14022721589E+03  0.59964321610E+01  0.61082983199E+03  0.63910874754E+03  0.12508908130E+03 0.  0.
          5    1    3    3  502    0  0.67574514147E+02  0.42316716763E+02  0.13881347848E+03  0.16013642211E+03  0.41800000000E+01 0.  1.
         -5    1    3    3    0  502  0.72652701738E+02 -0.36320284602E+02  0.47201635351E+03  0.47897232543E+03  0.41800000000E+01 0.  1.
        -11    1    1    2    0    0 -0.46222644337E+02 -0.40885774217E+02  0.16672864299E+03  0.17778250695E+03  0.00000000000E+00 0.  1.
         11    1    1    2    0    0 -0.94004571549E+02  0.34889342056E+02  0.50167337421E+03  0.51159583662E+03  0.00000000000E+00 0. -1.
</event>
<event>
 7    1  0.2594791E-009  0.1407998E+03  0.7561462E-02  0.1212257E+00
          4   -1    0    0  501    0  0.00000000000E+00  0.00000000000E+00  0.10481872446E+03  0.10481872446E+03  0.00000000000E+00 0.  1.
         -4   -1    0    0    0  501 -0.00000000000E+00 -0.00000000000E+00 -0.27320576987E+03  0.27320576987E+03  0.00000000000E+00 0. -1.
         25    2    1    2    0    0  0.12645022976E+03  0.79690185244E+01 -0.11789023772E+03  0.21353834143E+03  0.12508936504E+03 0.  0.
          5    1    3    3  502    0  0.36180688176E+02 -0.16068217157E+02  0.21840355273E+02  0.45405983284E+02  0.41800000000E+01 0. -1.
         -5    1    3    3    0  502  0.90269541587E+02  0.24037235681E+02 -0.13973059299E+03  0.16813235814E+03  0.41800000000E+01 0. -1.
        -11    1    1    2    0    0 -0.16900919986E+02  0.28234271808E+02 -0.35056854386E+02  0.48081163051E+02  0.00000000000E+00 0. -1.
         11    1    1    2    0    0 -0.10954930978E+03 -0.36203290333E+02 -0.15439953302E+02  0.11640498985E+03  0.00000000000E+00 0.  1.
</event>
<event>
 7    1  0.2594791E-009  0.8190037E+02  0.7561462E-02  0.1323743E+00
         -3   -1    0    0    0  501 -0.00000000000E+00  0.00000000000E+00  0.10319440795E+03  0.10319440795E+03  0.00000000000E+00 0.  1.
          3   -1    0    0  501    0  0.00000000000E+00 -0.00000000000E+00 -0.14105701151E+03  0.14105701151E+03  0.00000000000E+00 0. -1.
         25    2    1    2    0    0  0.36915128047E+01  0.52710255928E+02 -0.33652259067E+02  0.13989922167E+03  0.12508924549E+03 0.  0.
          5    1    3    3  502    0 -0.56029868956E+01  0.57525185257E+02 -0.76286614825E+02  0.95800106485E+02  0.41800000000E+01 0. -1.
         -5    1    3    3    0  502  0.92944997003E+01 -0.48149293282E+01  0.42634355758E+02  0.44099115184E+02  0.41800000000E+01 0. -1.
        -11    1    1    2    0    0  0.16584684877E+02 -0.67484889051E+02  0.16951929442E+02  0.71530622355E+02  0.00000000000E+00 0. -1.
         11    1    1    2    0    0 -0.20276197681E+02  0.14774633123E+02 -0.21162273934E+02  0.32821575440E+02  0.00000000000E+00 0.  1.
</event>
<event>
 7    1  0.2594791E-009  0.7585517E+02  0.7561462E-02  0.1341243E+00
         -1   -1    0    0    0  501 -0.00000000000E+00  0.00000000000E+00  0.16464097743E+03  0.16464097743E+03  0.00000000000E+00 0.  1.
          1   -1    0    0  501    0  0.00000000000E+00 -0.00000000000E+00 -0.96500494604E+02  0.96500494604E+02  0.00000000000E+00 0. -1.
         25    2    1    2    0    0 -0.44484826453E+02 -0.43440867182E+02  0.45601299368E+02  0.14694798206E+03  0.12509285431E+03 0.  0.
          5    1    3    3  502    0  0.66262527705E+01  0.71973312277E+01  0.70043111047E+02  0.70846443861E+02  0.41800000000E+01 0. -1.
         -5    1    3    3    0  502 -0.51111079223E+02 -0.50638198410E+02 -0.24441811678E+02  0.76101538195E+02  0.41800000000E+01 0. -1.
        -11    1    1    2    0    0  0.48101065194E+02  0.34033826356E+02 -0.26154641928E+02  0.64467659362E+02  0.00000000000E+00 0. -1.
         11    1    1    2    0    0 -0.36162387415E+01  0.94070408257E+01  0.48693825387E+02  0.49725830617E+02  0.00000000000E+00 0.  1.
</event>
<event>
 7    1  0.2594791E-009  0.2131918E+03  0.7561462E-02  0.1139063E+00
          2   -1    0    0  501    0  0.00000000000E+00  0.00000000000E+00  0.87702143646E+03  0.87702143646E+03  0.00000000000E+00 0. -1.
         -2   -1    0    0    0  501 -0.00000000000E+00 -0.00000000000E+00 -0.59420904072E+02  0.59420904072E+02  0.00000000000E+00 0.  1.
         25    2    1    2    0    0  0.13964376436E+03  0.13617672342E+03  0.32813593951E+03  0.40170401767E+03  0.12509373320E+03 0.  0.
          5    1    3    3  502    0  0.86124918121E+02  0.16026582177E+02  0.70961304983E+02  0.11281547794E+03  0.41800000000E+01 0.  1.
         -5    1    3    3    0  502  0.53518846242E+02  0.12015014124E+03  0.25717463453E+03  0.28888853973E+03  0.41800000000E+01 0.  1.
        -11    1    1    2    0    0 -0.91026819386E+02 -0.40225993451E+02  0.16268165717E+03  0.19070745653E+03  0.00000000000E+00 0. -1.
         11    1    1    2    0    0 -0.48616944977E+02 -0.95950729966E+02  0.32678293570E+03  0.34403086633E+03  0.00000000000E+00 0.  1.
</event>
<event>
 7    1  0.2594791E-009  0.1449191E+03  0.7561462E-02  0.1206859E+00
         -1   -1    0    0    0  501 -0.00000000000E+00  0.00000000000E+00  0.15273960148E+03  0.15273960148E+03  0.00000000000E+00 0.  1.
          1   -1    0    0  501    0  0.00000000000E+00 -0.00000000000E+00 -0.16249633272E+03  0.16249633272E+03  0.00000000000E+00 0. -1.
         25    2    1    2    0    0 -0.52506255523E+02 -0.95995792613E+02  0.29503782749E+02  0.16878922555E+03  0.12508888998E+03 0.  0.
          5    1    3    3  502    0 -0.43282565752E+02  0.20592359389E+02  0.17293100906E+02  0.51126798279E+02  0.41800000000E+01 0. -1.
         -5    1    3    3    0  502 -0.92236897712E+01 -0.11658815200E+03  0.12210681842E+02  0.11766242727E+03  0.41800000000E+01 0. -1.
        -11    1    1    2    0    0 -0.10133561533E+02  0.38014694508E+02 -0.46351823118E+02  0.60797183933E+02  0.00000000000E+00 0. -1.
         11    1    1    2    0    0  0.62639817056E+02  0.57981098105E+02  0.70913091259E+01  0.85649524712E+02  0.00000000000E+00 0.  1.
</event>
<event>
 7    1  0.2594791E-009  0.1094092E+03  0.7561462E-02  0.1261668E+00
          2   -1    0    0  501    0  0.00000000000E+00  0.00000000000E+00  0.32787701795E+02  0.32787701795E+02  0.00000000000E+00 0. -1.
         -2   -1    0    0    0  501 -0.00000000000E+00 -0.00000000000E+00 -0.39001113575E+03  0.39001113575E+03  0.00000000000E+00 0.  1.
         25    2    1    2    0    0 -0.27854723836E+02 -0.84965853820E+01 -0.17508466171E+03  0.21714383414E+03  0.12509487734E+03 0.  0.
          5    1    3    3  502    0 -0.61565640542E+02 -0.45438834634E+02 -0.88509455570E+02  0.11707438624E+03  0.41800000000E+01 0. -1.
         -5    1    3    3    0  502  0.33710916706E+02  0.36942249252E+02 -0.86575206138E+02  0.10006944790E+03  0.41800000000E+01 0. -1.
        -11    1    1    2    0    0  0.11544134206E+02 -0.39581623554E+02 -0.10973395952E+03  0.11722420326E+03  0.00000000000E+00 0.  1.
         11    1    1    2    0    0  0.16310589630E+02  0.48078208936E+02 -0.72404812723E+02  0.88430800144E+02  0.00000000000E+00 0. -1.
</event>
<event>
 7    1  0.2594791E-009  0.9518323E+02  0.7561462E-02  0.1290764E+00
          1   -1    0    0  501    0  0.00000000000E+00  0.00000000000E+00  0.38390676116E+03  0.38390676116E+03  0.00000000000E+00 0. -1.
         -1   -1    0    0    0  501 -0.00000000000E+00 -0.00000000000E+00 -0.32382640627E+02  0.32382640627E+02  0.00000000000E+00 0.  1.
         25    2    1    2    0    0  0.12208439315E+02 -0.14521774294E+02  0.16669209650E+03  0.20926948304E+03  0.12509010183E+03 0.  0.
          5    1    3    3  502    0  0.14597331820E+02  0.40471936681E+02  0.14265310881E+03  0.14905851740E+03  0.41800000000E+01 0.  1.
         -5    1    3    3    0  502 -0.23888925045E+01 -0.54993710975E+02  0.24038987692E+02  0.60210965641E+02  0.41800000000E+01 0.  1.
        -11    1    1    2    0    0  0.56070729324E+01 -0.36999191416E+02  0.92694941900E+02  0.99963651825E+02  0.00000000000E+00 0. -1.
         11    1    1    2    0    0 -0.17815512248E+02  0.51520965710E+02  0.92137082130E+02  0.10705626692E+03  0.00000000000E+00 0.  1.
</event>
<event>
 7    1  0.2594791E-009  0.1454029E+03  0.7561462E-02  0.1206238E+00
         -2   -1    0    0    0  501 -0.00000000000E+00  0.00000000000E+00  0.30588469154E+02  0.30588469154E+02  0.00000000000E+00 0.  1.
          2   -1    0    0  501    0  0.00000000000E+00 -0.00000000000E+00 -0.88525118939E+03  0.88525118939E+03  0.00000000000E+00 0. -1.
         25    2    1    2    0    0 -0.89841018318E+02 -0.81444083666E+02 -0.52507579834E+03  0.55322377893E+03  0.12508960084E+03 0.  0.
          5    1    3    3  502    0 -0.33805160097E+01 -0.65094102558E+02 -0.10233905941E+03  0.12140603592E+03  0.41800000000E+01 0.  1.
         -5    1    3    3    0  502 -0.86460502308E+02 -0.16349981108E+02 -0.42273673893E+03  0.43181774301E+03  0.41800000000E+01 0.  1.
        -11    1    1    2    0    0  0.15126788711E+02  0.56715192566E+02 -0.69958842322E+02  0.91321806944E+02  0.00000000000E+00 0. -1.
         11    1    1    2    0    0  0.74714229607E+02  0.24728891100E+02 -0.25962807957E+03  0.27129407267E+03  0.00000000000E+00 0.  1.
</event>
<event>
 7    1  0.2594791E-009  0.3006108E+03  0.7561462E-02  0.1084936E+00
          1   -1    0    0  501    0  0.00000000000E+00  0.00000000000E+00  0.44039958748E+03  0.44039958748E+03  0.00000000000E+00 0. -1.
         -1   -1    0    0    0  501 -0.00000000000E+00 -0.00000000000E+00 -0.23213124309E+03  0.23213124309E+03  0.00000000000E+00 0.  1.
         25    2    1    2    0    0  0.93047111042E+02 -0.27986035157E+03  0.45848404712E+02  0.32361891249E+03  0.12509013971E+03 0.  0.
          5    1    3    3  502    0  0.42479105350E+02 -0.17388302141E+03 -0.33075293809E+02  0.18207478405E+03  0.41800000000E+01 0.  1.
         -5    1    3    3    0  502  0.50568005692E+02 -0.10597733016E+03  0.78923698521E+02  0.14154412844E+03  0.41800000000E+01 0.  1.
        -11    1    1    2    0    0 -0.73379738532E+02  0.27471830603E+03  0.13497588386E+03  0.31475899180E+03  0.00000000000E+00 0.  1.
         11    1    1    2    0    0 -0.19667372510E+02  0.51420455402E+01  0.27444055816E+02  0.34152926279E+02  0.00000000000E+00 0. -1.
</event>
<event>
 7    1  0.2594791E-009  0.1035500E+03  0.7561462E-02  0.1273003E+00
         -2   -1    0    0    0  501 -0.00000000000E+00  0.00000000000E+00  0.90534228002E+03  0.90534228002E+03  0.00000000000E+00 0.  1.
          2   -1    0    0  501    0  0.00000000000E+00 -0.00000000000E+00 -0.18497114132E+02  0.18497114132E+02  0.00000000000E+00 0. -1.
         25    2    1    2    0    0  0.54710117243E+02  0.34029054121E+02  0.59632477724E+03  0.61269933185E+03  0.12508420303E+03 0.  0.
          5    1    3    3  502    0  0.23154427448E+02  0.55761321368E+02  0.54583306147E+03  0.54917816404E+03  0.41800000000E+01 0.  1.
         -5    1    3    3    0  502  0.31555689795E+02 -0.21732267247E+02  0.50491715775E+02  0.63521167810E+02  0.41800000000E+01 0.  1.
        -11    1    1    2    0    0 -0.23029031885E+02  0.29274459312E+02  0.66737738405E+02  0.76428110044E+02  0.00000000000E+00 0. -1.
         11    1    1    2    0    0 -0.31681085358E+02 -0.63303513432E+02  0.22378265024E+03  0.23471195226E+03  0.00000000000E+00 0.  1.
</event>
<event>
 7    1  0.2594791E-009  0.1609148E+03  0.7561462E-02  0.1187668E+00
          1   -1    0    0  501    0  0.00000000000E+00  0.00000000000E+00  0.18650234709E+03  0.18650234709E+03  0.00000000000E+00 0. -1.
         -1   -1    0    0    0  501 -0.00000000000E+00 -0.00000000000E+00 -0.16042461473E+03  0.16042461473E+03  0.00000000000E+00 0.  1.
         25    2    1    2    0    0  0.11678472081E+03  0.68398691959E+02  0.36778905556E+01  0.18433233833E+03  0.12509129466E+03 0.  0.
          5    1    3    3  502    0  0.11623510092E+03  0.20028759200E+01 -0.87340560290E+01  0.11665490274E+03  0.41800000000E+01 0.  1.
         -5    1    3    3    0  502  0.54961988106E+00  0.66395816039E+02  0.12411946585E+02  0.67677435586E+02  0.41800000000E+01 0.  1.
        -11    1    1    2    0    0 -0.42675022203E+02 -0.81131993666E+01  0.46944172273E+02  0.63958868302E+02  0.00000000000E+00 0. -1.
         11    1    1    2    0    0 -0.74109698603E+02 -0.60285492592E+02 -0.24544330472E+02  0.98635755193E+02  0.00000000000E+00 0.  1.
</event>
<event>
 6    1  0.2594791E-009  0.2790102E+03  0.7561462E-02  0.1096231E+00
         -1   -1    0    0    0  501 -0.00000000000E+00  0.00000000000E+00  0.16551581999E+03  0.16551581999E+03  0.00000000000E+00 0.  1.
          1   -1    0    0  501    0  0.00000000000E+00 -0.00000000000E+00 -0.99024209285E+03  0.99024209285E+03  0.00000000000E+00 0. -1.
          5    1    1    2  502    0  0.51722162471E+02 -0.14231560994E+01 -0.54104401986E+02  0.74979771793E+02  0.41800000000E+01 0. -1.
         -5    1    1    2    0  502  0.20970522761E+03 -0.91245995296E+02  0.27957225811E+02  0.23043696105E+03  0.41800000000E+01 0. -1.
        -11    1    1    2    0    0 -0.11078963255E+03  0.38068740319E+02 -0.47542540016E+03  0.48964567065E+03  0.00000000000E+00 0. -1.
         11    1    1    2    0    0 -0.15063775753E+03  0.54600411077E+02 -0.32315369653E+03  0.36069550935E+03  0.00000000000E+00 0.  1.
</event>
<event>
 7    1  0.2594791E-009  0.1629979E+03  0.7561462E-02  0.1185353E+00
         -2   -1    0    0    0  501 -0.00000000000E+00  0.00000000000E+00  0.46858740537E+03  0.46858740537E+03  0.00000000000E+00 0.  1.
          2   -1    0    0  501    0  0.00000000000E+00 -0.00000000000E+00 -0.10105524442E+03  0.10105524442E+03  0.00000000000E+00 0. -1.
         25    2    1    2    0    0 -0.14546391714E+03 -0.24837509933E+02  0.36148574896E+02  0.19680042793E+03  0.12508811246E+03 0.  0.
          5    1    3    3  502    0  0.14622721509E+02 -0.16200586949E+01  0.31386751383E+02  0.34914884174E+02  0.41800000000E+01 0.  1.
         -5    1    3    3    0  502 -0.16008663865E+03 -0.23217451238E+02  0.47618235126E+01  0.16188554376E+03  0.41800000000E+01 0.  1.
        -11    1    1    2    0    0  0.66673804328E+02  0.21387986300E+02  0.24956684213E+03  0.25920349309E+03  0.00000000000E+00 0.  1.
         11    1    1    2    0    0  0.78790112809E+02  0.34495236333E+01  0.81816743925E+02  0.11363872877E+03  0.00000000000E+00 0. -1.
</event>
<event>
 7    1  0.2594791E-009  0.8636412E+02  0.7561462E-02  0.1311903E+00
         -1   -1    0    0    0  501 -0.00000000000E+00  0.00000000000E+00  0.27336981598E+02  0.27336981598E+02  0.00000000000E+00 0.  1.
          1   -1    0    0  501    0  0.00000000000E+00 -0.00000000000E+00 -0.48404826250E+03  0.48404826250E+03  0.00000000000E+00 0. -1.
         25    2    1    2    0    0  0.23942822603E+02 -0.26669477026E+02 -0.26770744354E+03  0.29765754972E+03  0.12509285279E+03 0.  0.
          5    1    3    3  502    0 -0.21199613968E+02  0.54843991864E+01 -0.22863100257E+03  0.22971528030E+03  0.41800000000E+01 0. -1.
         -5    1    3    3    0  502  0.45142436570E+02 -0.32153876212E+02 -0.39076440969E+02  0.67942269419E+02  0.41800000000E+01 0. -1.
        -11    1    1    2    0    0 -0.46516563688E+02 -0.13795621675E+02 -0.63300124029E+02  0.79755975179E+02  0.00000000000E+00 0.  1.
         11    1    1    2    0    0  0.22573741085E+02  0.40465098701E+02 -0.12570371333E+03  0.13397171919E+03  0.00000000000E+00 0. -1.
</event>
<event>
 7    1  0.2594791E-009  0.1484615E+03  0.7561462E-02  0.1202376E+00
         -1   -1    0    0    0  501 -0.00000000000E+00  0.00000000000E+00  0.26371378706E+02  0.26371378706E+02  0.00000000000E+00 0.  1.
          1   -1    0    0  501    0  0.00000000000E+00 -0.00000000000E+00 -0.89920601679E+03  0.89920601679E+03  0.00000000000E+00 0. -1.
         25    2    1    2    0    0 -0.86976860195E+02 -0.62173422392E+02 -0.40924285868E+03  0.44108717003E+03  0.12509062926E+03 0.  0.
          5    1    3    3  502    0 -0.14551745479E+02  0.33566084762E+02 -0.16300965859E+03  0.16711689483E+03  0.41800000000E+01 0.  1.
         -5    1    3    3    0  502 -0.72425114716E+02 -0.95739507154E+02 -0.24623320008E+03  0.27397027520E+03  0.41800000000E+01 0.  1.
        -11    1    1    2    0    0  0.57758357148E+02  0.85093612284E+02 -0.36192707817E+03  0.37625544592E+03  0.00000000000E+00 0. -1.
         11    1    1    2    0    0  0.29218503047E+02 -0.22920189892E+02 -0.10166470124E+03  0.10823477955E+03  0.00000000000E+00 0.  1.
</event>
<event>
 7    1  0.2594791E-009  0.1666623E+03  0.7561462E-02  0.1181374E+00
         -2   -1    0    0    0  501 -0.00000000000E+00  0.00000000000E+00  0.41287248584E+02  0.41287248584E+02  0.00000000000E+00 0.  1.
          2   -1    0    0  501    0  0.00000000000E+00 -0.00000000000E+00 -0.91306693728E+03  0.91306693728E+03  0.00000000000E+00 0. -1.
         25    2    1    2    0    0 -0.32071700085E+02 -0.12286169068E+03 -0.70065874981E+03  0.72297561959E+03  0.12508986311E+03 0.  0.
          5    1    3    3  502    0 -0.78365938689E+02 -0.55317326231E+02 -0.39643611296E+03  0.40789740253E+03  0.41800000000E+01 0. -1.
         -5    1    3    3    0  502  0.46294238605E+02 -0.67544364445E+02 -0.30422263685E+03  0.31507821706E+03  0.41800000000E+01 0. -1.
        -11    1    1    2    0    0 -0.30165472750E+02  0.24232169778E+02 -0.35523052590E+02  0.52526574833E+02  0.00000000000E+00 0.  1.
         11    1    1    2    0    0  0.62237172834E+02  0.98629520898E+02 -0.13559788629E+03  0.17885199144E+03  0.00000000000E+00 0. -1.
</event>
<event>
 7    1  0.2594791E-009  0.1154685E+03  0.7561462E-02  0.1250766E+00
         -2   -1    0    0    0  501 -0.00000000000E+00  0.00000000000E+00  0.12412912380E+03  0.12412912380E+03  0.00000000000E+00 0.  1.
          2   -1    0    0  501    0  0.00000000000E+00 -0.00000000000E+00 -0.24284489135E+03  0.24284489135E+03  0.00000000000E+00 0. -1.
         25    2    1    2    0    0 -0.36042299771E+02  0.36433202866E+02 -0.19517158684E+03  0.23741531054E+03  0.12509059008E+03 0.  0.
          5    1    3    3  502    0 -0.56477475201E+02  0.69448135166E+02 -0.98550513323E+02  0.13320069354E+03  0.41800000000E+01 0. -1.
         -5    1    3    3    0  502  0.20435175430E+02 -0.33014932300E+02 -0.96621073519E+02  0.10421461701E+03  0.41800000000E+01 0. -1.
        -11    1    1    2    0    0  0.12639799772E+02 -0.64501847397E+02  0.61689082665E+02  0.90143195949E+02  0.00000000000E+00 0.  1.
         11    1    1    2    0    0  0.23402499999E+02  0.28068644532E+02  0.14766736630E+02  0.39415508658E+02  0.00000000000E+00 0. -1.
</event>
<event>
 7    1  0.2594791E-009  0.1298288E+03  0.7561462E-02  0.1227710E+00
          1   -1    0    0  501    0  0.00000000000E+00  0.00000000000E+00  0.15848951779E+03  0.15848951779E+03  0.00000000000E+00 0. -1.
         -1   -1    0    0    0  501 -0.00000000000E+00 -0.00000000000E+00 -0.18144984768E+03  0.18144984768E+03  0.00000000000E+00 0.  1.
         25    2    1    2    0    0 -0.49535293712E+02 -0.11759984349E+03 -0.24851917282E+02  0.18041200706E+03  0.12508959185E+03 0.  0.
          5    1    3    3  502    0 -0.10327611644E+02 -0.43898084994E+02 -0.71539751256E+02  0.84670596066E+02  0.41800000000E+01 0.  1.
         -5    1    3    3    0  502 -0.39207682068E+02 -0.73701758493E+02  0.46687833974E+02  0.95741410995E+02  0.41800000000E+01 0.  1.
        -11    1    1    2    0    0  0.52462078925E+02  0.99862204310E+02  0.38130596479E+02  0.11907422879E+03  0.00000000000E+00 0. -1.
         11    1    1    2    0    0 -0.29267852128E+01  0.17737639177E+02 -0.36239009088E+02  0.40453129606E+02  0.00000000000E+00 0.  1.
</event>
<event>
 7    1  0.2594791E-009  0.1207823E+03  0.7561462E-02  0.1241812E+00
          2   -1    0    0  501    0  0.00000000000E+00  0.00000000000E+00  0.80699430007E+03  0.80699430007E+03  0.00000000000E+00 0. -1.
         -2   -1    0    0    0  501 -0.00000000000E+00 -0.00000000000E+00 -0.23434799621E+02  0.23434799621E+02  0.00000000000E+00 0.  1.
         25    2    1    2    0    0  0.67474763552E+02 -0.23262873616E+02  0.51030474112E+03  0.53023915645E+03  0.12509448114E+03 0.  0.
          5    1    3    3  502    0 -0.67750529019E+01  0.38415666366E+02  0.78501531167E+02  0.87758917266E+02  0.41800000000E+01 0. -1.
         -5    1    3    3    0  502  0.74249816454E+02 -0.61678539982E+02  0.43180320995E+03  0.44248023918E+03  0.41800000000E+01 0. -1.
        -11    1    1    2    0    0 -0.21327484877E+02  0.48597890123E+02  0.58110569193E+02  0.78698505624E+02  0.00000000000E+00 0.  1.
         11    1    1    2    0    0 -0.46147278676E+02 -0.25335016507E+02  0.21514419014E+03  0.22149143762E+03  0.00000000000E+00 0. -1.
</event>
<event>
 7    1  0.2594791E-009  0.7796815E+02  0.7561462E-02  0.1334918E+00
         -4   -1    0    0    0  501 -0.00000000000E+00  0.00000000000E+00  0.28923731593E+03  0.28923731593E+03  0.00000000000E+00 0.  1.
          4   -1    0    0  501    0  0.00000000000E+00 -0.00000000000E+00 -0.58383434517E+02  0.58383434517E+02  0.00000000000E+00 0. -1.
         25    2    1    2    0    0 -0.23373135652E+02  0.30973771282E+02  0.20916705192E+03  0.24678773211E+03  0.12509057173E+03 0.  0.
          5    1    3    3  502    0  0.12976521230E+02 -0.27929388215E+02  0.53995079792E+01  0.31544697109E+02  0.41800000000E+01 0.  1.
         -5    1    3    3    0  502 -0.36349656881E+02  0.58903159497E+02  0.20376754394E+03  0.21524303500E+03  0.41800000000E+01 0.  1.
        -11    1    1    2    0    0  0.14561304682E+02  0.72656233161E+01  0.49910143449E+02  0.52496126479E+02  0.00000000000E+00 0.  1.
         11    1    1    2    0    0  0.88118309699E+01 -0.38239394598E+02 -0.28223313951E+02  0.48336891859E+02  0.00000000000E+00 0. -1.
</event>
<event>
 7    1  0.2594791E-009  0.1161810E+03  0.7561462E-02  0.1249533E+00
         -1   -1    0    0    0  501 -0.00000000000E+00  0.00000000000E+00  0.39135703899E+02  0.39135703899E+02  0.00000000000E+00 0.  1.
          1   -1    0    0  501    0  0.00000000000E+00 -0.00000000000E+00 -0.43725952687E+03  0.43725952687E+03  0.00000000000E+00 0. -1.
         25    2    1    2    0    0  0.52291111070E+02  0.44833754750E+02 -0.25604282085E+03  0.29317255598E+03  0.12509114920E+03 0.  0.
          5    1    3    3  502    0 -0.24959643361E+02  0.36031576120E+02 -0.17632096863E+03  0.18173556243E+03  0.41800000000E+01 0.  1.
         -5    1    3    3    0  502  0.77250754430E+02  0.88021786297E+01 -0.79721852219E+02  0.11143699354E+03  0.41800000000E+01 0.  1.
        -11    1    1    2    0    0 -0.76444741663E+02 -0.37987304782E+02 -0.83149854579E+02  0.11916682495E+03  0.00000000000E+00 0.  1.
         11    1    1    2    0    0  0.24153630594E+02 -0.68464499676E+01 -0.58931147541E+02  0.64055849838E+02  0.00000000000E+00 0. -1.
</event>
<event>
 7    1  0.2594791E-009  0.1328785E+03  0.7561462E-02  0.1223246E+00
          2   -1    0    0  501    0  0.00000000000E+00  0.00000000000E+00  0.51377799849E+03  0.51377799849E+03  0.00000000000E+00 0.  1.
         -2   -1    0    0    0  501 -0.00000000000E+00 -0.00000000000E+00 -0.72506089323E+02  0.72506089323E+02  0.00000000000E+00 0. -1.
         25    2    1    2    0    0 -0.49959742861E+02 -0.67532911596E+02  0.43749337270E+03  0.46271530382E+03  0.12509328992E+03 0.  0.
          5    1    3    3  502    0 -0.70709556497E+02 -0.89403267009E+02  0.28059961154E+03  0.30289668194E+03  0.41800000000E+01 0.  1.
         -5    1    3    3    0  502  0.20749813636E+02  0.21870355412E+02  0.15689376115E+03  0.15981862188E+03  0.41800000000E+01 0.  1.
        -11    1    1    2    0    0  0.39026014249E+02  0.88992917541E+02  0.12454881140E+02  0.97968838030E+02  0.00000000000E+00 0.  1.
         11    1    1    2    0    0  0.10933728612E+02 -0.21460005945E+02 -0.86763446667E+01  0.25599945963E+02  0.00000000000E+00 0. -1.
</event>
<event>
 7    1  0.2594791E-009  0.1358479E+03  0.7561462E-02  0.1219028E+00
         -3   -1    0    0    0  501 -0.00000000000E+00  0.00000000000E+00  0.75340829325E+02  0.75340829325E+02  0.00000000000E+00 0. -1.
          3   -1    0    0  501    0  0.00000000000E+00 -0.00000000000E+00 -0.26549028591E+03  0.26549028591E+03  0.00000000000E+00 0.  1.
         25    2    1    2    0    0  0.80957880985E+02 -0.34250265149E+02 -0.75998391435E+02  0.17073786524E+03  0.12509358085E+03 0.  0.
          5    1    3    3  502    0 -0.21353924922E+02 -0.43690130838E+02 -0.14487215239E+02  0.50913352350E+02  0.41800000000E+01 0. -1.
         -5    1    3    3    0  502  0.10231180591E+03  0.94398656886E+01 -0.61511176196E+02  0.11982451289E+03  0.41800000000E+01 0. -1.
        -11    1    1    2    0    0 -0.97633024729E+02  0.33983958311E+02 -0.75547112336E+02  0.12804094315E+03  0.00000000000E+00 0. -1.
         11    1    1    2    0    0  0.16675143744E+02  0.26630683789E+00 -0.38603952817E+02  0.42052306849E+02  0.00000000000E+00 0.  1.
</event>
<event>
 7    1  0.2594791E-009  0.9936475E+02  0.7561462E-02  0.1281637E+00
          2   -1    0    0  501    0  0.00000000000E+00  0.00000000000E+00  0.12303647557E+03  0.12303647557E+03  0.00000000000E+00 0. -1.
         -2   -1    0    0    0  501 -0.00000000000E+00 -0.00000000000E+00 -0.12988589061E+03  0.12988589061E+03  0.00000000000E+00 0.  1.
         25    2    1    2    0    0  0.28534685772E+02 -0.25513848360E+02 -0.55533932838E+02  0.14212021247E+03  0.12509577269E+03 0.  0.
          5    1    3    3  502    0  0.23950821052E+02  0.46159613951E+02 -0.45991181350E+02  0.69548637306E+02  0.41800000000E+01 0.  1.
         -5    1    3    3    0  502  0.45838647197E+01 -0.71673462311E+02 -0.95427514882E+01  0.72571575161E+02  0.41800000000E+01 0.  1.
        -11    1    1    2    0    0 -0.47566354402E+02  0.70234422216E+01  0.64088615179E+02  0.80120143580E+02  0.00000000000E+00 0.  1.
         11    1    1    2    0    0  0.19031668631E+02  0.18490406138E+02 -0.15404097383E+02  0.30682010139E+02  0.00000000000E+00 0. -1.
</event>
<event>
 7    1  0.2594791E-009  0.1342205E+03  0.7561462E-02  0.1221324E+00
         -1   -1    0    0    0  501 -0.00000000000E+00  0.00000000000E+00  0.26452736324E+02  0.26452736324E+02  0.00000000000E+00 0.  1.
          1   -1    0    0  501    0  0.00000000000E+00 -0.00000000000E+00 -0.68416509582E+03  0.68416509582E+03  0.00000000000E+00 0. -1.
         25    2    1    2    0    0  0.99402672160E+01  0.78965220438E+02 -0.35981764386E+03  0.38916660634E+03  0.12509035019E+03 0.  0.
          5    1    3    3  502    0 -0.48214942267E+02  0.75175129721E+02 -0.23184801400E+03  0.24848934541E+03  0.41800000000E+01 0.  1.
         -5    1    3    3    0  502  0.58155209483E+02  0.37900907167E+01 -0.12796962986E+03  0.14067726094E+03  0.41800000000E+01 0.  1.
        -11    1    1    2    0    0 -0.46321156959E+02 -0.68606302868E+02 -0.19613476600E+03  0.21288804759E+03  0.00000000000E+00 0.  1.
         11    1    1    2    0    0  0.36380889743E+02 -0.10358917569E+02 -0.10175994964E+03  0.10856317820E+03  0.00000000000E+00 0. -1.
</event>
<event>
 7    1  0.2594791E-009  0.9953388E+02  0.7561462E-02  0.1281279E+00
          1   -1    0    0  501    0  0.00000000000E+00  0.00000000000E+00  0.67412375820E+02  0.67412375820E+02  0.00000000000E+00 0. -1.
         -1   -1    0    0    0  501 -0.00000000000E+00 -0.00000000000E+00 -0.23503315547E+03  0.23503315547E+03  0.00000000000E+00 0.  1.
         25    2    1    2    0    0 -0.29652547431E+02 -0.24238451898E+02 -0.35828086129E+02  0.13563853533E+03  0.12508950552E+03 0.  0.
          5    1    3    3  502    0  0.18991639553E+02 -0.46063306952E+02 -0.59015514755E+02  0.77348652232E+02  0.41800000000E+01 0.  1.
         -5    1    3    3    0  502 -0.48644186984E+02  0.21824855054E+02  0.23187428626E+02  0.58289883100E+02  0.41800000000E+01 0.  1.
        -11    1    1    2    0    0 -0.30327253044E+02  0.18045051511E+02 -0.79543552578E+02  0.87020359215E+02  0.00000000000E+00 0.  1.
         11    1    1    2    0    0  0.59979800475E+02  0.61934003863E+01 -0.52249140946E+02  0.79786636744E+02  0.00000000000E+00 0. -1.
</event>
<event>
 7    1  0.2594791E-009  0.1518959E+03  0.7561462E-02  0.1198162E+00
         -4   -1    0    0    0  501 -0.00000000000E+00  0.00000000000E+00  0.19382310081E+03  0.19382310081E+03  0.00000000000E+00 0.  1.
          4   -1    0    0  501    0  0.00000000000E+00 -0.00000000000E+00 -0.14067196009E+03  0.14067196009E+03  0.00000000000E+00 0. -1.
         25    2    1    2    0    0  0.69411121126E+02 -0.98687285194E+02 -0.10505524130E+01  0.17378639273E+03  0.12507406862E+03 0.  0.
          5    1    3    3  502    0  0.85601792779E+02 -0.13825636491E+02  0.59142429467E+01  0.87013020985E+02  0.41800000000E+01 0.  1.
         -5    1    3    3    0  502 -0.16190671653E+02 -0.84861648703E+02 -0.69647953597E+01  0.86773371743E+02  0.41800000000E+01 0.  1.
        -11    1    1    2    0    0 -0.18643755523E+02 -0.94291524390E+00 -0.19335081919E+02  0.26876087922E+02  0.00000000000E+00 0. -1.
         11    1    1    2    0    0 -0.50767365602E+02  0.99630200437E+02  0.73536775055E+02  0.13383258024E+03  0.00000000000E+00 0.  1.
</event>
<event>
 7    1  0.2594791E-009  0.7589604E+02  0.7561462E-02  0.1341119E+00
          2   -1    0    0  501    0  0.00000000000E+00  0.00000000000E+00  0.67365227312E+03  0.67365227312E+03  0.00000000000E+00 0. -1.
         -2   -1    0    0    0  501 -0.00000000000E+00 -0.00000000000E+00 -0.38848004711E+02  0.38848004711E+02  0.00000000000E+00 0.  1.
         25    2    1    2    0    0 -0.96800161325E+01  0.36672567501E+01  0.60304751570E+03  0.61597192418E+03  0.12509178109E+03 0.  0.
          5    1    3    3  502    0  0.31907295940E+02  0.33030567652E+02  0.48701844285E+03  0.48919682134E+03  0.41800000000E+01 0. -1.
         -5    1    3    3    0  502 -0.41587312073E+02 -0.29363310902E+02  0.11602907285E+03  0.12677510283E+03  0.41800000000E+01 0. -1.
        -11    1    1    2    0    0 -0.12434708582E+02 -0.22396660289E+02 -0.23095511859E+02  0.34491086351E+02  0.00000000000E+00 0.  1.
         11    1    1    2    0    0  0.22114724715E+02  0.18729403539E+02  0.54852264566E+02  0.62037267301E+02  0.00000000000E+00 0. -1.
</event>
<event>
 7    1  0.2594791E-009  0.1198787E+03  0.7561462E-02  0.1243297E+00
          1   -1    0    0  501    0  0.00000000000E+00  0.00000000000E+00  0.57801251039E+03  0.57801251039E+03  0.00000000000E+00 0. -1.
         -1   -1    0    0    0  501 -0.00000000000E+00 -0.00000000000E+00 -0.42586437570E+02  0.42586437570E+02  0.00000000000E+00 0.  1.
         25    2    1    2    0    0  0.12597193824E+02  0.10166607816E+03  0.37930558550E+03  0.41232698249E+03  0.12508450166E+03 0.  0.
          5    1    3    3  502    0  0.69011988186E+01  0.64339383910E+02  0.52806583626E+02  0.83625298453E+02  0.41800000000E+01 0. -1.
         -5    1    3    3    0  502  0.56959950052E+01  0.37326694248E+02  0.32649900188E+03  0.32870168404E+03  0.41800000000E+01 0. -1.
        -11    1    1    2    0    0  0.79400196241E+01 -0.11312741431E+03  0.11946571357E+03  0.16472071060E+03  0.00000000000E+00 0. -1.
         11    1    1    2    0    0 -0.20537213448E+02  0.11461336153E+02  0.36654773744E+02  0.43551254871E+02  0.00000000000E+00 0.  1.
</event>
<event>
 7    1  0.2594791E-009  0.1136279E+03  0.7561462E-02  0.1253995E+00
         -2   -1    0    0    0  501 -0.00000000000E+00  0.00000000000E+00  0.12321487098E+03  0.12321487098E+03  0.00000000000E+00 0.  1.
          2   -1    0    0  501    0  0.00000000000E+00 -0.00000000000E+00 -0.16847626200E+03  0.16847626200E+03  0.00000000000E+00 0. -1.
         25    2    1    2    0    0  0.69259690423E+02 -0.44197636742E+02 -0.72474311173E+02  0.16628029993E+03  0.12508507726E+03 0.  0.
          5    1    3    3  502    0  0.75004100053E+02 -0.16546709186E+02 -0.10030942818E+03  0.12640752506E+03  0.41800000000E+01 0.  1.
         -5    1    3    3    0  502 -0.57444096300E+01 -0.27650927556E+02  0.27835117012E+02  0.39872774869E+02  0.41800000000E+01 0.  1.
        -11    1    1    2    0    0 -0.74260428242E+02 -0.30026191334E+01  0.22809809756E+02  0.77742616019E+02  0.00000000000E+00 0.  1.
         11    1    1    2    0    0  0.50007378196E+01  0.47200255875E+02  0.44031103957E+01  0.47668217028E+02  0.00000000000E+00 0. -1.
</event>
<event>
 7    1  0.2594791E-009  0.1087513E+03  0.7561462E-02  0.1262900E+00
          2   -1    0    0  501    0  0.00000000000E+00  0.00000000000E+00  0.41072730798E+03  0.41072730798E+03  0.00000000000E+00 0. -1.
         -2   -1    0    0    0  501 -0.00000000000E+00 -0.00000000000E+00 -0.40953547670E+02  0.40953547670E+02  0.00000000000E+00 0.  1.
         25    2    1    2    0    0  0.90643334138E+01 -0.37385062836E+02  0.10843240113E+03  0.16995462644E+03  0.12508870600E+03 0.  0.
          5    1    3    3  502    0 -0.17567830181E+02  0.40020954386E+02  0.16797433334E+02  0.47009909741E+02  0.41800000000E+01 0.  1.
         -5    1    3    3    0  502  0.26632163595E+02 -0.77406017221E+02  0.91634967799E+02  0.12294471670E+03  0.41800000000E+01 0.  1.
        -11    1    1    2    0    0  0.25741259623E+02 -0.14202217076E+02  0.29383775481E+02  0.41565871558E+02  0.00000000000E+00 0.  1.
         11    1    1    2    0    0 -0.34805593036E+02  0.51587279912E+02  0.23195758370E+03  0.24016035766E+03  0.00000000000E+00 0. -1.
</event>
<event>
 7    1  0.2594791E-009  0.9715903E+02  0.7561462E-02  0.1286386E+00
          2   -1    0    0  501    0  0.00000000000E+00  0.00000000000E+00  0.52653053067E+03  0.52653053067E+03  0.00000000000E+00 0. -1.
         -2   -1    0    0    0  501 -0.00000000000E+00 -0.00000000000E+00 -0.41510141429E+02  0.41510141429E+02  0.00000000000E+00 0.  1.
         25    2    1    2    0    0 -0.11469453290E+02 -0.88340312979E+02  0.35386003810E+03  0.38574545346E+03  0.12508824504E+03 0.  0.
          5    1    3    3  502    0 -0.29149093280E+02 -0.27444804380E+02  0.18294800742E+02  0.44216049809E+02  0.41800000000E+01 0.  1.
         -5    1    3    3    0  502  0.17679639990E+02 -0.60895508599E+02  0.33556523735E+03  0.34152940365E+03  0.41800000000E+01 0.  1.
        -11    1    1    2    0    0 -0.38134911179E+01  0.28573119200E+02  0.11495191047E+03  0.11851121287E+03  0.00000000000E+00 0. -1.
         11    1    1    2    0    0  0.15282944408E+02  0.59767193779E+02  0.16208440666E+02  0.63784005760E+02  0.00000000000E+00 0.  1.
</event>
<event>
 7    1  0.2594791E-009  0.7479319E+02  0.7561462E-02  0.1344513E+00
          2   -1    0    0  501    0  0.00000000000E+00  0.00000000000E+00  0.59895057878E+02  0.59895057878E+02  0.00000000000E+00 0.  1.
         -2   -1    0    0    0  501 -0.00000000000E+00 -0.00000000000E+00 -0.23973927181E+03  0.23973927181E+03  0.00000000000E+00 0. -1.
         25    2    1    2    0    0  0.81023320544E+01  0.49430304556E+01 -0.15568019158E+03  0.19991347355E+03  0.12505596156E+03 0.  0.
          5    1    3    3  502    0 -0.21642507665E+02  0.34270464598E+02 -0.15245869587E+03  0.15780997823E+03  0.41800000000E+01 0.  1.
         -5    1    3    3    0  502  0.29744839720E+02 -0.29327434143E+02 -0.32214957045E+01  0.42103495317E+02  0.41800000000E+01 0.  1.
        -11    1    1    2    0    0  0.16543225898E+02  0.23807502038E+02 -0.47202969246E+02  0.55394907546E+02  0.00000000000E+00 0. -1.
         11    1    1    2    0    0 -0.24645557952E+02 -0.28750532494E+02  0.23038946887E+02  0.44325948598E+02  0.00000000000E+00 0.  1.
</event>
<event>
 7    1  0.2594791E-009  0.1251773E+03  0.7561462E-02  0.1234792E+00
          2   -1    0    0  501    0  0.00000000000E+00  0.00000000000E+00  0.65582489819E+03  0.65582489819E+03  0.00000000000E+00 0. -1.
         -2   -1    0    0    0  501 -0.00000000000E+00 -0.00000000000E+00 -0.45070612108E+02  0.45070612108E+02  0.00000000000E+00 0.  1.
         25    2    1    2    0    0 -0.83814492196E+02 -0.37232628797E+02  0.52557546287E+03  0.54798355646E+03  0.12508106667E+03 0.  0.
          5    1    3    3  502    0 -0.78740700039E+02  0.28864051444E+02  0.35819164936E+03  0.36790210842E+03  0.41800000000E+01 0. -1.
         -5    1    3    3    0  502 -0.50737921571E+01 -0.66096680241E+02  0.16738381351E+03  0.18008144805E+03  0.41800000000E+01 0. -1.
        -11    1    1    2    0    0  0.26698487166E+02  0.33343228345E+02  0.85595956708E+02  0.95662154994E+02  0.00000000000E+00 0. -1.
         11    1    1    2    0    0  0.57116005030E+02  0.38894004524E+01 -0.41713349666E+00  0.57249798836E+02  0.00000000000E+00 0.  1.
</event>
<event>
 7    1  0.2594791E-009  0.7974499E+02  0.7561462E-02  0.1329777E+00
         -2   -1    0    0    0  501 -0.00000000000E+00  0.00000000000E+00  0.22616841241E+03  0.22616841241E+03  0.00000000000E+00 0.  1.
          2   -1    0    0  501    0  0.00000000000E+00 -0.00000000000E+00 -0.70630205398E+02  0.70630205398E+02  0.00000000000E+00 0. -1.
         25    2    1    2    0    0  0.20842369599E+02 -0.61446752675E+02  0.79997019544E+02  0.16204507331E+03  0.12509586270E+03 0.  0.
          5    1    3    3  502    0  0.33870630902E+02 -0.45498176811E+02  0.11092370509E+03  0.12465490156E+03  0.41800000000E+01 0.  1.
         -5    1    3    3    0  502 -0.13028261302E+02 -0.15948575865E+02 -0.30926685549E+02  0.37390171753E+02  0.41800000000E+01 0.  1.
        -11    1    1    2    0    0 -0.25158777319E+02  0.58403701228E+01  0.74629561376E+02  0.78972434624E+02  0.00000000000E+00 0.  1.
         11    1    1    2    0    0  0.43164077197E+01  0.55606382553E+02  0.91162609023E+00  0.55781109870E+02  0.00000000000E+00 0. -1.
</event>
<event>
 7    1  0.2594791E-009  0.1346107E+03  0.7561462E-02  0.1220770E+00
         -1   -1    0    0    0  501 -0.00000000000E+00  0.00000000000E+00  0.90915712607E+03  0.90915712607E+03  0.00000000000E+00 0.  1.
          1   -1    0    0  501    0  0.00000000000E+00 -0.00000000000E+00 -0.50825154264E+02  0.50825154264E+02  0.00000000000E+00 0. -1.
         25    2    1    2    0    0 -0.10883640918E+03 -0.24248162979E+02  0.77327403415E+03  0.79122290140E+03  0.12509040907E+03 0.  0.
          5    1    3    3  502    0  0.13967456044E+02  0.19114009240E+02  0.27996343258E+03  0.28099364968E+03  0.41800000000E+01 0.  1.
         -5    1    3    3    0  502 -0.12280386522E+03 -0.43362172219E+02  0.49331060157E+03  0.51022925173E+03  0.41800000000E+01 0.  1.
        -11    1    1    2    0    0  0.79838692490E+02  0.48372568791E+01  0.10228366830E+03  0.12984438637E+03  0.00000000000E+00 0.  1.
         11    1    1    2    0    0  0.28997716691E+02  0.19410906100E+02 -0.17225730646E+02  0.38914992551E+02  0.00000000000E+00 0. -1.
</event>
<event>
 7    1  0.2594791E-009  0.1299043E+03  0.7561462E-02  0.1227598E+00
          2   -1    0    0  501    0  0.00000000000E+00  0.00000000000E+00  0.10967574378E+03  0.10967574378E+03  0.00000000000E+00 0. -1.
         -2   -1    0    0    0  501 -0.00000000000E+00 -0.00000000000E+00 -0.21775271978E+03  0.21775271978E+03  0.00000000000E+00 0.  1.
         25    2    1    2    0    0 -0.82435287600E+02 -0.71885519438E+02 -0.69831048999E+02  0.18023675865E+03  0.12508320917E+03 0.  0.
          5    1    3    3  502    0 -0.92937380856E+02 -0.79456807599E+02 -0.92788406975E+02  0.15355097493E+03  0.41800000000E+01 0.  1.
         -5    1    3    3    0  502  0.10502093256E+02  0.75712881611E+01  0.22957357976E+02  0.26685783714E+02  0.41800000000E+01 0.  1.
        -11    1    1    2    0    0  0.72539179414E+02  0.26218336012E+02 -0.57954494126E+02  0.96478272594E+02  0.00000000000E+00 0.  1.
         11    1    1    2    0    0  0.98961081859E+01  0.45667183426E+02  0.19708567128E+02  0.50713432318E+02  0.00000000000E+00 0. -1.
</event>
<event>
 7    1  0.2594791E-009  0.2608660E+03  0.7561462E-02  0.1106624E+00
          1   -1    0    0  501    0  0.00000000000E+00  0.00000000000E+00  0.53118098251E+03  0.53118098251E+03  0.00000000000E+00 0. -1.
         -1   -1    0    0    0  501 -0.00000000000E+00 -0.00000000000E+00 -0.17405913938E+03  0.17405913938E+03  0.00000000000E+00 0.  1.
         25    2    1    2    0    0 -0.18319591123E+03  0.16460637090E+03  0.18217917554E+02  0.27683381927E+03  0.12509624989E+03 0.  0.
          5    1    3    3  502    0 -0.36219166101E+02  0.10861929811E+03 -0.16380014727E+02  0.11574004147E+03  0.41800000000E+01 0.  1.
         -5    1    3    3    0  502 -0.14697674513E+03  0.55987072783E+02  0.34597932280E+02  0.16109377780E+03  0.41800000000E+01 0.  1.
        -11    1    1    2    0    0  0.14156774172E+03 -0.14855341377E+03  0.21731587210E+03  0.29889083376E+03  0.00000000000E+00 0.  1.
         11    1    1    2    0    0  0.41628169512E+02 -0.16052957123E+02  0.12158805347E+03  0.12951546887E+03  0.00000000000E+00 0. -1.
</event>
<event>
 7    1  0.2594791E-009  0.1193141E+03  0.7561462E-02  0.1244233E+00
         -2   -1    0    0    0  501 -0.00000000000E+00  0.00000000000E+00  0.42552783151E+03  0.42552783151E+03  0.00000000000E+00 0.  1.
          2   -1    0    0  501    0  0.00000000000E+00 -0.00000000000E+00 -0.38890799279E+02  0.38890799279E+02  0.00000000000E+00 0. -1.
         25    2    1    2    0    0 -0.38312313437E+01 -0.65954226653E+02  0.16635716750E+03  0.21837308683E+03  0.12508980583E+03 0.  0.
          5    1    3    3  502    0  0.33608474730E+02  0.21682534558E+02  0.80715528212E+02  0.90178327625E+02  0.41800000000E+01 0.  1.
         -5    1    3    3    0  502 -0.37439706074E+02 -0.87636761211E+02  0.85641639289E+02  0.12819475920E+03  0.41800000000E+01 0.  1.
        -11    1    1    2    0    0  0.41336145254E+02  0.39072413687E+02  0.16209016718E+03  0.17178053648E+03  0.00000000000E+00 0.  1.
         11    1    1    2    0    0 -0.37504913911E+02  0.26881812967E+02  0.58189697543E+02  0.74265007480E+02  0.00000000000E+00 0. -1.
</event>
<event>
 7    1  0.2594791E-009  0.7981948E+02  0.7561462E-02  0.1329564E+00
         -2   -1    0    0    0  501 -0.00000000000E+00  0.00000000000E+00  0.22298966069E+02  0.22298966069E+02  0.00000000000E+00 0.  1.
          2   -1    0    0  501    0  0.00000000000E+00 -0.00000000000E+00 -0.61451929775E+03  0.61451929775E+03  0.00000000000E+00 0. -1.
         25    2    1    2    0    0 -0.84931292271E+01 -0.37225315380E+02 -0.32394419781E+03  0.34936430679E+03  0.12513080444E+03 0.  0.
          5    1    3    3  502    0 -0.40054755293E+02 -0.52448837506E+02 -0.29880854333E+03  0.30603804003E+03  0.41800000000E+01 0.  1.
         -5    1    3    3    0  502  0.31561626066E+02  0.15223522126E+02 -0.25135654479E+02  0.43326266766E+02  0.41800000000E+01 0.  1.
        -11    1    1    2    0    0  0.67883531801E+01 -0.93840900125E+01  0.31876199610E+01  0.12012651884E+02  0.00000000000E+00 0.  1.
         11    1    1    2    0    0  0.17047760470E+01  0.46609405392E+02 -0.27146375384E+03  0.27544130515E+03  0.00000000000E+00 0. -1.
</event>
<event>
 7    1  0.2594791E-009  0.8984449E+02  0.7561462E-02  0.1303229E+00
         -2   -1    0    0    0  501 -0.00000000000E+00  0.00000000000E+00  0.44212581203E+02  0.44212581203E+02  0.00000000000E+00 0.  1.
          2   -1    0    0  501    0  0.00000000000E+00 -0.00000000000E+00 -0.27741953489E+03  0.27741953489E+03  0.00000000000E+00 0. -1.
         25    2    1    2    0    0 -0.21421334660E+01 -0.25959690541E+02 -0.14009551629E+03  0.18961360103E+03  0.12509224494E+03 0.  0.
          5    1    3    3  502    0 -0.99761735850E+01 -0.54877894551E+02 -0.14810952204E+03  0.15831933006E+03  0.41800000000E+01 0.  1.
         -5    1    3    3    0  502  0.78340401190E+01  0.28918204009E+02  0.80140057549E+01  0.31294270976E+02  0.41800000000E+01 0.  1.
        -11    1    1    2    0    0  0.37532854263E+02 -0.14060948528E+02 -0.42720835195E+02  0.58578965358E+02  0.00000000000E+00 0.  1.
         11    1    1    2    0    0 -0.35390720797E+02  0.40020639070E+02 -0.50390602203E+02  0.73439549702E+02  0.00000000000E+00 0. -1.
</event>
<event>
 7    1  0.2594791E-009  0.6573597E+02  0.7561462E-02  0.1375224E+00
          3   -1    0    0  501    0  0.00000000000E+00  0.00000000000E+00  0.14655884011E+03  0.14655884011E+03  0.00000000000E+00 0. -1.
         -3   -1    0    0    0  501 -0.00000000000E+00 -0.00000000000E+00 -0.91395892735E+02  0.91395892735E+02  0.00000000000E+00 0.  1.
         25    2    1    2    0    0  0.41737480908E+02 -0.11303320379E+02  0.23817694310E+02  0.13447533878E+03  0.12508617755E+03 0.  0.
          5    1    3    3  502    0  0.24694667880E+02 -0.19145226481E+02 -0.49496574695E+02  0.58683469779E+02  0.41800000000E+01 0. -1.
         -5    1    3    3    0  502  0.17042813027E+02  0.78419061014E+01  0.73314269006E+02  0.75791869003E+02  0.41800000000E+01 0. -1.
        -11    1    1    2    0    0  0.18263074189E+02  0.97565403725E+01 -0.16697209201E+02  0.26599375067E+02  0.00000000000E+00 0.  1.
         11    1    1    2    0    0 -0.60000555097E+02  0.15467800068E+01  0.48042462265E+02  0.76880018995E+02  0.00000000000E+00 0. -1.
</event>
<event>
 7    1  0.2594791E-009  0.4204391E+03  0.7561462E-02  0.1036923E+00
         -2   -1    0    0    0  501 -0.00000000000E+00  0.00000000000E+00  0.52511161425E+03  0.52511161425E+03  0.00000000000E+00 0.  1.
          2   -1    0    0  501    0  0.00000000000E+00 -0.00000000000E+00 -0.38241073947E+03  0.38241073947E+03  0.00000000000E+00 0. -1.
         25    2    1    2    0    0  0.79581388018E+02 -0.41079512786E+03  0.18997802959E+03  0.47626137052E+03  0.12508959562E+03 0.  0.
          5    1    3    3  502    0  0.88349664323E+02 -0.37724711934E+03  0.20485744447E+03  0.43829795481E+03  0.41800000000E+01 0.  1.
         -5    1    3    3    0  502 -0.87682763042E+01 -0.33548008522E+02 -0.14879414884E+02  0.37963415710E+02  0.41800000000E+01 0.  1.
        -11    1    1    2    0    0 -0.90072662870E+01  0.57337422916E+02 -0.40479620819E+02  0.70762353086E+02  0.00000000000E+00 0. -1.
         11    1    1    2    0    0 -0.70574121732E+02  0.35345770495E+03 -0.67975339916E+01  0.36049863011E+03  0.00000000000E+00 0.  1.
</event>
<event>
 7    1  0.2594791E-009  0.8127383E+02  0.7561462E-02  0.1325475E+00
          2   -1    0    0  501    0  0.00000000000E+00  0.00000000000E+00  0.13639569902E+03  0.13639569902E+03  0.00000000000E+00 0. -1.
         -2   -1    0    0    0  501 -0.00000000000E+00 -0.00000000000E+00 -0.11673037069E+03  0.11673037069E+03  0.00000000000E+00 0.  1.
         25    2    1    2    0    0  0.58158067734E+02  0.91523618379E+01 -0.18794817858E+02  0.13952277610E+03  0.12508890159E+03 0.  0.
          5    1    3    3  502    0  0.17930305626E+02 -0.97603475306E+01  0.51890020820E+02  0.55917858547E+02  0.41800000000E+01 0.  1.
         -5    1    3    3    0  502  0.40227762107E+02  0.18912709369E+02 -0.70684838677E+02  0.83604917551E+02  0.41800000000E+01 0.  1.
        -11    1    1    2    0    0 -0.71485862076E+02  0.11577074828E+02  0.57453312671E+01  0.72644793135E+02  0.00000000000E+00 0.  1.
         11    1    1    2    0    0  0.13327794342E+02 -0.20729436666E+02  0.32714814913E+02  0.40958500477E+02  0.00000000000E+00 0. -1.
</event>
<event>
 7    1  0.2594791E-009  0.2109602E+03  0.7561462E-02  0.1140808E+00
         -1   -1    0    0    0  501 -0.00000000000E+00  0.00000000000E+00  0.10172675950E+04  0.10172675950E+04  0.00000000000E+00 0.  1.
          1   -1    0    0  501    0  0.00000000000E+00 -0.00000000000E+00 -0.47140609166E+02  0.47140609166E+02  0.00000000000E+00 0. -1.
         25    2    1    2    0    0  0.13454234063E+03 -0.12852622829E+03  0.59251286370E+03  0.63351482488E+03  0.12509559111E+03 0.  0.
          5    1    3    3  502    0  0.71928258731E+02 -0.14266114485E+03  0.42904566566E+03  0.45784662528E+03  0.41800000000E+01 0.  1.
         -5    1    3    3    0  502  0.62614081894E+02  0.14134916562E+02  0.16346719804E+03  0.17566819961E+03  0.41800000000E+01 0.  1.
        -11    1    1    2    0    0 -0.61788442344E+02  0.16088313854E+02  0.66552914479E+02  0.92227630760E+02  0.00000000000E+00 0. -1.
         11    1    1    2    0    0 -0.72753898281E+02  0.11243791444E+03  0.31106120770E+03  0.33866574857E+03  0.00000000000E+00 0.  1.
</event>
<event>
 7    1  0.2594791E-009  0.1723768E+03  0.7561462E-02  0.1175392E+00
         -2   -1    0    0    0  501 -0.00000000000E+00  0.00000000000E+00  0.11953957275E+03  0.11953957275E+03  0.00000000000E+00 0.  1.
          2   -1    0    0  501    0  0.00000000000E+00 -0.00000000000E+00 -0.50114605592E+03  0.50114605592E+03  0.00000000000E+00 0. -1.
         25    2    1    2    0    0  0.15150125564E+00  0.14974186917E+03  0.60899808688E+01  0.19521140407E+03  0.12509098319E+03 0.  0.
          5    1    3    3  502    0 -0.34155803609E+02  0.15258016494E+02 -0.33960213406E+02  0.50697085538E+02  0.41800000000E+01 0.  1.
         -5    1    3    3    0  502  0.34307304864E+02  0.13448385268E+03  0.40050194275E+02  0.14451431853E+03  0.41800000000E+01 0.  1.
        -11    1    1    2    0    0  0.38147292308E+02 -0.82010752547E+02 -0.26668585092E+03  0.28160668054E+03  0.00000000000E+00 0. -1.
         11    1    1    2    0    0 -0.38298793564E+02 -0.67731116624E+02 -0.12101061312E+03  0.14386754406E+03  0.00000000000E+00 0.  1.
</event>
<event>
 7    1  0.2594791E-009  0.9213826E+02  0.7561462E-02  0.1297755E+00
          1   -1    0    0  501    0  0.00000000000E+00  0.00000000000E+00  0.52382091056E+03  0.52382091056E+03  0.00000000000E+00 0. -1.
         -1   -1    0    0    0  501 -0.00000000000E+00 -0.00000000000E+00 -0.23215692058E+02  0.23215692058E+02  0.00000000000E+00 0.  1.
         25    2    1    2    0    0 -0.56449947516E+01 -0.74466136888E+01  0.35270636758E+03  0.37434887875E+03  0.12509189930E+03 0.  0.
          5    1    3    3  502    0  0.17898821428E+02  0.43140046174E+02  0.59024706099E+02  0.75384479321E+02  0.41800000000E+01 0.  1.
         -5    1    3    3    0  502 -0.23543816179E+02 -0.50586659863E+02  0.29368166148E+03  0.29896439943E+03  0.41800000000E+01 0.  1.
        -11    1    1    2    0    0  0.24335193879E+02 -0.30566816395E+02  0.36344185081E+02  0.53361331644E+02  0.00000000000E+00 0.  1.
         11    1    1    2    0    0 -0.18690199127E+02  0.38013430084E+02  0.11155466584E+03  0.11932639222E+03  0.00000000000E+00 0. -1.
</event>
<event>
 7    1  0.2594791E-009  0.1247472E+03  0.7561462E-02  0.1235465E+00
          1   -1    0    0  501    0  0.00000000000E+00  0.00000000000E+00  0.69514644024E+03  0.69514644024E+03  0.00000000000E+00 0. -1.
         -1   -1    0    0    0  501 -0.00000000000E+00 -0.00000000000E+00 -0.22789179173E+02  0.22789179173E+02  0.00000000000E+00 0.  1.
         25    2    1    2    0    0  0.31490184317E+02 -0.46684911291E+02  0.33124512650E+03  0.35852676691E+03  0.12508795350E+03 0.  0.
          5    1    3    3  502    0  0.27318410575E+02  0.40908447909E+02  0.11643564232E+03  0.12646947406E+03  0.41800000000E+01 0.  1.
         -5    1    3    3    0  502  0.41717737414E+01 -0.87593359200E+02  0.21480948418E+03  0.23205729285E+03  0.41800000000E+01 0.  1.
        -11    1    1    2    0    0 -0.48416543623E+02  0.69020441986E+02  0.23528879658E+03  0.24993759402E+03  0.00000000000E+00 0.  1.
         11    1    1    2    0    0  0.16926359306E+02 -0.22335530695E+02  0.10582333800E+03  0.10947125849E+03  0.00000000000E+00 0. -1.
</event>
<event>
 7    1  0.2594791E-009  0.8895813E+02  0.7561462E-02  0.1305395E+00
         -2   -1    0    0    0  501 -0.00000000000E+00  0.00000000000E+00  0.11975383764E+02  0.11975383764E+02  0.00000000000E+00 0.  1.
          2   -1    0    0  501    0  0.00000000000E+00 -0.00000000000E+00 -0.12593263118E+04  0.12593263118E+04  0.00000000000E+00 0. -1.
         25    2    1    2    0    0 -0.46290681129E+02  0.23100512218E+02 -0.83657700241E+03  0.84745780554E+03  0.12508873007E+03 0.  0.
          5    1    3    3  502    0  0.97607898343E+01  0.12325218129E+02 -0.68870580321E+03  0.68889791682E+03  0.41800000000E+01 0. -1.
         -5    1    3    3    0  502 -0.56051470963E+02  0.10775294088E+02 -0.14787119920E+03  0.15855988873E+03  0.41800000000E+01 0. -1.
        -11    1    1    2    0    0  0.15584559755E+02 -0.56757337670E+02 -0.22683839376E+03  0.23435001763E+03  0.00000000000E+00 0. -1.
         11    1    1    2    0    0  0.30706121374E+02  0.33656825452E+02 -0.18393553188E+03  0.18949387240E+03  0.00000000000E+00 0.  1.
</event>
<event>
 7    1  0.2594791E-009  0.1013479E+03  0.7561462E-02  0.1277487E+00
         -2   -1    0    0    0  501 -0.00000000000E+00  0.00000000000E+00  0.14329580831E+02  0.14329580831E+02  0.00000000000E+00 0.  1.
          2   -1    0    0  501    0  0.00000000000E+00 -0.00000000000E+00 -0.13863236501E+04  0.13863236501E+04  0.00000000000E+00 0. -1.
         25    2    1    2    0    0 -0.43180364657E+02  0.27038909877E+02 -0.11304508799E+04  0.11384914976E+04  0.12509217272E+03 0.  0.
          5    1    3    3  502    0 -0.46892580352E+02  0.56958496257E+02 -0.36341153597E+03  0.37084848829E+03  0.41800000000E+01 0.  1.
         -5    1    3    3    0  502  0.37122156950E+01 -0.29919586379E+02 -0.76703934391E+03  0.76764300928E+03  0.41800000000E+01 0.  1.
        -11    1    1    2    0    0  0.37099557174E+01  0.29321438959E+02 -0.10751526989E+03  0.11150355964E+03  0.00000000000E+00 0.  1.
         11    1    1    2    0    0  0.39470408940E+02 -0.56360348837E+02 -0.13402791951E+03  0.15065817373E+03  0.00000000000E+00 0. -1.
</event>
<event>
 7    1  0.2594791E-009  0.1283984E+03  0.7561462E-02  0.1229852E+00
         -1   -1    0    0    0  501 -0.00000000000E+00  0.00000000000E+00  0.45276814451E+02  0.45276814451E+02  0.00000000000E+00 0.  1.
          1   -1    0    0  501    0  0.00000000000E+00 -0.00000000000E+00 -0.47990254580E+03  0.47990254580E+03  0.00000000000E+00 0. -1.
         25    2    1    2    0    0 -0.65081318326E+02 -0.61170234280E+02 -0.15603512791E+03  0.21902654315E+03  0.12509312493E+03 0.  0.
          5    1    3    3  502    0 -0.86228026258E+02 -0.28592161712E+02 -0.45291567763E+02  0.10159519051E+03  0.41800000000E+01 0.  1.
         -5    1    3    3    0  502  0.21146707932E+02 -0.32578072567E+02 -0.11074356015E+03  0.11743135264E+03  0.41800000000E+01 0.  1.
        -11    1    1    2    0    0  0.10214966962E+02 -0.23656486247E+02 -0.63016133154E+02  0.68080892541E+02  0.00000000000E+00 0.  1.
         11    1    1    2    0    0  0.54866351364E+02  0.84826720526E+02 -0.21557447029E+03  0.23807192457E+03  0.00000000000E+00 0. -1.
</event>
<event>
 7    1  0.2594791E-009  0.1097289E+03  0.7561462E-02  0.1261073E+00
         -2   -1    0    0    0  501 -0.00000000000E+00  0.00000000000E+00  0.56103966715E+02  0.56103966715E+02  0.00000000000E+00 0. -1.
          2   -1    0    0  501    0  0.00000000000E+00 -0.00000000000E+00 -0.39127028009E+03  0.39127028009E+03  0.00000000000E+00 0.  1.
         25    2    1    2    0    0 -0.64858713710E+02  0.13164272906E+02 -0.30976931412E+03  0.34056759964E+03  0.12509720671E+03 0.  0.
          5    1    3    3  502    0  0.24482093097E+02 -0.10380960686E+02 -0.17535240902E+03  0.17740653025E+03  0.41800000000E+01 0. -1.
         -5    1    3    3    0  502 -0.89340806807E+02  0.23545233591E+02 -0.13441690510E+03  0.16316106938E+03  0.41800000000E+01 0. -1.
        -11    1    1    2    0    0  0.67362136059E+02  0.17250368977E+02 -0.30384191043E+02  0.75884330857E+02  0.00000000000E+00 0. -1.
         11    1    1    2    0    0 -0.25034223493E+01 -0.30414641883E+02  0.49871917846E+01  0.30922316314E+02  0.00000000000E+00 0.  1.
</event>
<event>
 7    1  0.2594791E-009  0.1467121E+03  0.7561462E-02  0.1204572E+00
          1   -1    0    0  501    0  0.00000000000E+00  0.00000000000E+00  0.96998917312E+03  0.96998917312E+03  0.00000000000E+00 0. -1.
         -1   -1    0    0    0  501 -0.00000000000E+00 -0.00000000000E+00 -0.23972904227E+02  0.23972904227E+02  0.00000000000E+00 0.  1.
         25    2    1    2    0    0 -0.89204649925E+02 -0.58786395718E+02  0.51270391402E+03  0.53844909751E+03  0.12509523280E+03 0.  0.
          5    1    3    3  502    0 -0.74734100838E+02 -0.94666006702E+02  0.32332240717E+03  0.34511112708E+03  0.41800000000E+01 0.  1.
         -5    1    3    3    0  502 -0.14470549087E+02  0.35879610984E+02  0.18938150685E+03  0.19333797043E+03  0.41800000000E+01 0.  1.
        -11    1    1    2    0    0 -0.12182548124E+02 -0.59281024237E+01  0.14824789593E+02  0.20083108914E+02  0.00000000000E+00 0.  1.
         11    1    1    2    0    0  0.10138719805E+03  0.64714498142E+02  0.41848756528E+03  0.43542987092E+03  0.00000000000E+00 0. -1.
</event>
<event>
 7    1  0.2594791E-009  0.1040879E+03  0.7561462E-02  0.1271927E+00
         -4   -1    0    0    0  501 -0.00000000000E+00  0.00000000000E+00  0.13584224814E+03  0.13584224814E+03  0.00000000000E+00 0. -1.
          4   -1    0    0  501    0  0.00000000000E+00 -0.00000000000E+00 -0.13256511801E+03  0.13256511801E+03  0.00000000000E+00 0.  1.
         25    2    1    2    0    0 -0.21776280216E-02 -0.48114605781E+02 -0.60753535615E+02  0.14714474182E+03  0.12508224358E+03 0.  0.
          5    1    3    3  502    0  0.40305837110E+02 -0.74543798876E+02 -0.30915606621E+02  0.90302744082E+02  0.41800000000E+01 0. -1.
         -5    1    3    3    0  502 -0.40308014738E+02  0.26429193095E+02 -0.29837928994E+02  0.56841997734E+02  0.41800000000E+01 0. -1.
        -11    1    1    2    0    0 -0.96731092147E+01 -0.11229555029E+02  0.59103327271E+02  0.60933367234E+02  0.00000000000E+00 0. -1.
         11    1    1    2    0    0  0.96752868427E+01  0.59344160810E+02  0.49273384673E+01  0.60329257099E+02  0.00000000000E+00 0.  1.
</event>
<event>
 7    1  0.2594791E-009  0.1542236E+03  0.7561462E-02  0.1195377E+00
         -1   -1    0    0    0  501 -0.00000000000E+00  0.00000000000E+00  0.10750534168E+03  0.10750534168E+03  0.00000000000E+00 0.  1.
          1   -1    0    0  501    0  0.00000000000E+00 -0.00000000000E+00 -0.26828584449E+03  0.26828584449E+03  0.00000000000E+00 0. -1.
         25    2    1    2    0    0  0.97449413554E+02 -0.88237050436E+02 -0.82055332170E+02  0.19916084002E+03  0.12509915023E+03 0.  0.
          5    1    3    3  502    0  0.99649125998E+02 -0.11132008225E+03 -0.89791461198E+02  0.17436194519E+03  0.41800000000E+01 0.  1.
         -5    1    3    3    0  502 -0.21997124437E+01  0.23083031816E+02  0.77361290273E+01  0.24798894834E+02  0.41800000000E+01 0.  1.
        -11    1    1    2    0    0 -0.24755602216E+02  0.43540080407E+02  0.12593925515E+02  0.51644800346E+02  0.00000000000E+00 0.  1.
         11    1    1    2    0    0 -0.72693811339E+02  0.44696970029E+02 -0.91319096156E+02  0.12498554580E+03  0.00000000000E+00 0. -1.
</event>
<event>
 7    1  0.2594791E-009  0.1348805E+03  0.7561462E-02  0.1220389E+00
         -2   -1    0    0    0  501 -0.00000000000E+00  0.00000000000E+00  0.42929600065E+02  0.42929600065E+02  0.00000000000E+00 0. -1.
          2   -1    0    0  501    0  0.00000000000E+00 -0.00000000000E+00 -0.57627866696E+03  0.57627866696E+03  0.00000000000E+00 0.  1.
         25    2    1    2    0    0 -0.78661874741E+02 -0.78238291193E+02 -0.24059065333E+03  0.29297861773E+03  0.12507472658E+03 0.  0.
          5    1    3    3  502    0  0.14264992993E+02  0.10961954687E+02  0.16962854252E+01  0.18547351829E+02  0.41800000000E+01 0.  1.
         -5    1    3    3    0  502 -0.92926867733E+02 -0.89200245881E+02 -0.24228693875E+03  0.27443126590E+03  0.41800000000E+01 0.  1.
        -11    1    1    2    0    0  0.40036271288E+02  0.59817616577E+01 -0.28357414248E+02  0.49424967719E+02  0.00000000000E+00 0. -1.
         11    1    1    2    0    0  0.38625603452E+02  0.72256529536E+02 -0.26440099932E+03  0.27680468158E+03  0.00000000000E+00 0.  1.
</event>
<event>
 7    1  0.2594791E-009  0.2534495E+03  0.7561462E-02  0.1111144E+00
         -1   -1    0    0    0  501 -0.00000000000E+00  0.00000000000E+00  0.67607277429E+02  0.67607277429E+02  0.00000000000E+00 0.  1.
          1   -1    0    0  501    0  0.00000000000E+00 -0.00000000000E+00 -0.10227536482E+04  0.10227536482E+04  0.00000000000E+00 0. -1.
         25    2    1    2    0    0  0.21004246570E+03 -0.96123140432E+02 -0.60762749194E+03  0.66197553775E+03  0.12507177175E+03 0.  0.
          5    1    3    3  502    0  0.81019384062E+02 -0.10297447652E+03 -0.26206548077E+03  0.29302503651E+03  0.41800000000E+01 0.  1.
         -5    1    3    3    0  502  0.12902308163E+03  0.68513360881E+01 -0.34556201117E+03  0.36895050124E+03  0.41800000000E+01 0.  1.
        -11    1    1    2    0    0  0.77796174811E+01  0.90976218485E+01 -0.39176892059E+02  0.40964839105E+02  0.00000000000E+00 0. -1.
         11    1    1    2    0    0 -0.21782208318E+03  0.87025518584E+02 -0.30834198673E+03  0.38742054874E+03  0.00000000000E+00 0.  1.
</event>
<event>
 7    1  0.2594791E-009  0.1239116E+03  0.7561462E-02  0.1236780E+00
          1   -1    0    0  501    0  0.00000000000E+00  0.00000000000E+00  0.53410757438E+03  0.53410757438E+03  0.00000000000E+00 0. -1.
         -1   -1    0    0    0  501 -0.00000000000E+00 -0.00000000000E+00 -0.43897898043E+02  0.43897898043E+02  0.00000000000E+00 0.  1.
         25    2    1    2    0    0 -0.57905766557E+02  0.68705852589E+02  0.15124209163E+03  0.21586844947E+03  0.12510573614E+03 0.  0.
          5    1    3    3  502    0  0.12180958661E+02  0.51548419301E+02  0.57887242957E+01  0.53447142255E+02  0.41800000000E+01 0.  1.
         -5    1    3    3    0  502 -0.70086725217E+02  0.17157433289E+02  0.14545336733E+03  0.16242130721E+03  0.41800000000E+01 0.  1.
        -11    1    1    2    0    0  0.77389949128E+02 -0.38421935961E+02  0.28014995800E+03  0.29317136347E+03  0.00000000000E+00 0. -1.
         11    1    1    2    0    0 -0.19484182572E+02 -0.30283916628E+02  0.58817626712E+02  0.68965659489E+02  0.00000000000E+00 0.  1.
</event>
<event>
 7    1  0.2594791E-009  0.1023703E+03  0.7561462E-02  0.1275389E+00
          2   -1    0    0  501    0  0.00000000000E+00  0.00000000000E+00  0.89366965870E+03  0.89366965870E+03  0.00000000000E+00 0. -1.
         -2   -1    0    0    0  501 -0.00000000000E+00 -0.00000000000E+00 -0.15002802737E+02  0.15002802737E+02  0.00000000000E+00 0.  1.
         25    2    1    2    0    0  0.26416968510E+01 -0.10075777939E+02  0.60867465241E+03  0.62148109695E+03  0.12508165938E+03 0.  0.
          5    1    3    3  502    0 -0.37394196072E+02  0.43426088851E+02  0.32247329038E+03  0.32755250953E+03  0.41800000000E+01 0. -1.
         -5    1    3    3    0  502  0.40035892923E+02 -0.53501866790E+02  0.28620136203E+03  0.29392858741E+03  0.41800000000E+01 0. -1.
        -11    1    1    2    0    0  0.32224758952E+02 -0.16766117891E+02  0.20813085649E+03  0.21127704849E+03  0.00000000000E+00 0. -1.
         11    1    1    2    0    0 -0.34866455803E+02  0.26841895830E+02  0.61861347067E+02  0.75914315995E+02  0.00000000000E+00 0.  1.
</event>
<event>
 7    1  0.2594791E-009  0.2287272E+03  0.7561462E-02  0.1127539E+00
          1   -1    0    0  501    0  0.00000000000E+00  0.00000000000E+00  0.30342649251E+03  0.30342649251E+03  0.00000000000E+00 0. -1.
         -1   -1    0    0    0  501 -0.00000000000E+00 -0.00000000000E+00 -0.22168082275E+03  0.22168082275E+03  0.00000000000E+00 0.  1.
         25    2    1    2    0    0 -0.70851234249E+02  0.21255480657E+03  0.11277296427E+03  0.28029556855E+03  0.12509364928E+03 0.  0.
          5    1    3    3  502    0 -0.38332664466E+02  0.79888216369E+02  0.11297244988E+03  0.14363762429E+03  0.41800000000E+01 0. -1.
         -5    1    3    3    0  502 -0.32518569783E+02  0.13266659020E+03 -0.19948561053E+00  0.13665794427E+03  0.41800000000E+01 0. -1.
        -11    1    1    2    0    0  0.57985268070E+02 -0.79425457833E+02  0.22277309812E+02  0.10083140978E+03  0.00000000000E+00 0.  1.
         11    1    1    2    0    0  0.12865966179E+02 -0.13312934874E+03 -0.53304604322E+02  0.14398033693E+03  0.00000000000E+00 0. -1.
</event>
<event>
 7    1  0.2594791E-009  0.1291748E+03  0.7561462E-02  0.1228685E+00
          2   -1    0    0  501    0  0.00000000000E+00  0.00000000000E+00  0.10832323708E+03  0.10832323708E+03  0.00000000000E+00 0. -1.
         -2   -1    0    0    0  501 -0.00000000000E+00 -0.00000000000E+00 -0.25576218852E+03  0.25576218852E+03  0.00000000000E+00 0.  1.
         25    2    1    2    0    0  0.96437888189E+02 -0.76087401090E+02 -0.48782401477E+02  0.18198101838E+03  0.12509120462E+03 0.  0.
          5    1    3    3  502    0  0.39810979256E+02 -0.54509525817E+02 -0.87016517972E+02  0.11020684767E+03  0.41800000000E+01 0. -1.
         -5    1    3    3    0  502  0.56626908933E+02 -0.21577875273E+02  0.38234116495E+02  0.71774170707E+02  0.41800000000E+01 0. -1.
        -11    1    1    2    0    0 -0.80813150459E+02  0.80165132290E+02 -0.11308175080E+03  0.16045153812E+03  0.00000000000E+00 0.  1.
         11    1    1    2    0    0 -0.15624737731E+02 -0.40777311996E+01  0.14425200834E+02  0.21652869094E+02  0.00000000000E+00 0. -1.
</event>
<event>
 7    1  0.2594791E-009  0.1750437E+03  0.7561462E-02  0.1172688E+00
         -2   -1    0    0    0  501 -0.00000000000E+00  0.00000000000E+00  0.52580351874E+02  0.52580351874E+02  0.00000000000E+00 0.  1.
          2   -1    0    0  501    0  0.00000000000E+00 -0.00000000000E+00 -0.10453555448E+04  0.10453555448E+04  0.00000000000E+00 0. -1.
         25    2    1    2    0    0  0.46482029005E+02 -0.13058271133E+03 -0.15110778778E+03  0.24019498789E+03  0.12509054785E+03 0.  0.
          5    1    3    3  502    0  0.57814578890E+02 -0.44603921347E+01 -0.63867355371E+02  0.86365109346E+02  0.41800000000E+01 0. -1.
         -5    1    3    3    0  502 -0.11332549885E+02 -0.12612231920E+03 -0.87240432413E+02  0.15382987855E+03  0.41800000000E+01 0. -1.
        -11    1    1    2    0    0  0.36275922222E+01  0.11161178387E+03 -0.57537128373E+03  0.58610789439E+03  0.00000000000E+00 0. -1.
         11    1    1    2    0    0 -0.50109621227E+02  0.18970927460E+02 -0.26629612142E+03  0.27163301440E+03  0.00000000000E+00 0.  1.
</event>
<event>
 7    1  0.2594791E-009  0.1076496E+03  0.7561462E-02  0.1264985E+00
         -1   -1    0    0    0  501 -0.00000000000E+00  0.00000000000E+00  0.78640505944E+02  0.78640505944E+02  0.00000000000E+00 0.  1.
          1   -1    0    0  501    0  0.00000000000E+00 -0.00000000000E+00 -0.27462216958E+03  0.27462216958E+03  0.00000000000E+00 0. -1.
         25    2    1    2    0    0 -0.97391667614E+02 -0.46373893722E+01 -0.82304983074E+02  0.17868528308E+03  0.12509067851E+03 0.  0.
          5    1    3    3  502    0 -0.46201485860E+02  0.11132723312E+01  0.29863976477E+02  0.55182843004E+02  0.41800000000E+01 0.  1.
         -5    1    3    3    0  502 -0.51190181754E+02 -0.57506617034E+01 -0.11216895955E+03  0.12350244008E+03  0.41800000000E+01 0.  1.
        -11    1    1    2    0    0  0.10573300696E+03  0.11575211303E+02 -0.64883699158E+02  0.12459273130E+03  0.00000000000E+00 0.  1.
         11    1    1    2    0    0 -0.83413393433E+01 -0.69378219312E+01 -0.48792981406E+02  0.49984661143E+02  0.00000000000E+00 0. -1.
</event>
<event>
 7    1  0.2594791E-009  0.1389504E+03  0.7561462E-02  0.1214748E+00
          2   -1    0    0  501    0  0.00000000000E+00  0.00000000000E+00  0.18993807275E+03  0.18993807275E+03  0.00000000000E+00 0.  1.
         -2   -1    0    0    0  501 -0.00000000000E+00 -0.00000000000E+00 -0.15216206272E+03  0.15216206272E+03  0.00000000000E+00 0. -1.
         25    2    1    2    0    0 -0.86918293790E+00  0.12584842565E+03  0.61860271234E+02  0.18791657219E+03  0.12508942093E+03 0.  0.
          5    1    3    3  502    0 -0.66414530645E+00  0.81132566133E+02  0.10010757343E+03  0.12892607585E+03  0.41800000000E+01 0. -1.
         -5    1    3    3    0  502 -0.20503763145E+00  0.44715859516E+02 -0.38247302196E+02  0.58990496336E+02  0.41800000000E+01 0. -1.
        -11    1    1    2    0    0  0.37767296232E+02 -0.99443948117E+02 -0.10882358138E+02  0.10692938418E+03  0.00000000000E+00 0.  1.
         11    1    1    2    0    0 -0.36898113295E+02 -0.26404477532E+02 -0.13201903065E+02  0.47254179106E+02  0.00000000000E+00 0. -1.
</event>
<event>
 7    1  0.2594791E-009  0.3126445E+03  0.7561462E-02  0.1079085E+00
         -1   -1    0    0    0  501 -0.00000000000E+00  0.00000000000E+00  0.11028008353E+03  0.11028008353E+03  0.00000000000E+00 0.  1.
          1   -1    0    0  501    0  0.00000000000E+00 -0.00000000000E+00 -0.11455800372E+04  0.11455800372E+04  0.00000000000E+00 0. -1.
         25    2    1    2    0    0 -0.13842307017E+03  0.27299204218E+03 -0.77939325847E+03  0.84663302002E+03  0.12509203733E+03 0.  0.
          5    1    3    3  502    0 -0.77755155783E+02  0.16296020876E+03 -0.60679179144E+03  0.63310002721E+03  0.41800000000E+01 0.  1.
         -5    1    3    3    0  502 -0.60667914382E+02  0.11003183342E+03 -0.17260146703E+03  0.21353299282E+03  0.41800000000E+01 0.  1.
        -11    1    1    2    0    0  0.67132715285E+02 -0.46888265820E+02 -0.74549150530E+02  0.11073791933E+03  0.00000000000E+00 0.  1.
         11    1    1    2    0    0  0.71290354880E+02 -0.22610377636E+03 -0.18135754463E+03  0.29848918134E+03  0.00000000000E+00 0. -1.
</event>
<event>
 7    1  0.2594791E-009  0.8192978E+02  0.7561462E-02  0.1323663E+00
         -1   -1    0    0    0  501 -0.00000000000E+00  0.00000000000E+00  0.43887228161E+02  0.43887228161E+02  0.00000000000E+00 0.  1.
          1   -1    0    0  501    0  0.00000000000E+00 -0.00000000000E+00 -0.55585409804E+03  0.55585409804E+03  0.00000000000E+00 0. -1.
         25    2    1    2    0    0 -0.64274617899E+01 -0.33973588021E+02 -0.47480106699E+03  0.49221940320E+03  0.12509344796E+03 0.  0.
          5    1    3    3  502    0  0.54509900516E+02  0.27800177252E+01 -0.14969911596E+03  0.15939371214E+03  0.41800000000E+01 0. -1.
         -5    1    3    3    0  502 -0.60937362306E+02 -0.36753605746E+02 -0.32510195103E+03  0.33282569105E+03  0.41800000000E+01 0. -1.
        -11    1    1    2    0    0 -0.28616383431E+01  0.24128413688E+02 -0.68880049180E+02  0.73039923988E+02  0.00000000000E+00 0. -1.
         11    1    1    2    0    0  0.92891001330E+01  0.98451743330E+01  0.31714246286E+02  0.34481999020E+02  0.00000000000E+00 0.  1.
</event>
<event>
 7    1  0.2594791E-009  0.1086175E+03  0.7561462E-02  0.1263152E+00
          2   -1    0    0  501    0  0.00000000000E+00  0.00000000000E+00  0.20869265210E+03  0.20869265210E+03  0.00000000000E+00 0. -1.
         -2   -1    0    0    0  501 -0.00000000000E+00 -0.00000000000E+00 -0.61416293712E+02  0.61416293712E+02  0.00000000000E+00 0.  1.
         25    2    1    2    0    0  0.11514370066E+02  0.47034110075E+01  0.11649487609E+03  0.17138578103E+03  0.12508927608E+03 0.  0.
          5    1    3    3  502    0  0.21813359345E+02  0.61806518871E+02  0.47029738895E+02  0.80778321110E+02  0.41800000000E+01 0. -1.
         -5    1    3    3    0  502 -0.10298989279E+02 -0.57103107863E+02  0.69465137196E+02  0.90607459922E+02  0.41800000000E+01 0. -1.
        -11    1    1    2    0    0  0.29766899489E+02 -0.32147723444E+02  0.19093972202E+02  0.47792511990E+02  0.00000000000E+00 0.  1.
         11    1    1    2    0    0 -0.41281269555E+02  0.27444312436E+02  0.11687510091E+02  0.50930652787E+02  0.00000000000E+00 0. -1.
</event>
<event>
 7    1  0.2594791E-009  0.1174865E+03  0.7561462E-02  0.1247302E+00
          1   -1    0    0  501    0  0.00000000000E+00  0.00000000000E+00  0.73113243073E+02  0.73113243073E+02  0.00000000000E+00 0. -1.
         -1   -1    0    0    0  501 -0.00000000000E+00 -0.00000000000E+00 -0.29718304594E+03  0.29718304594E+03  0.00000000000E+00 0.  1.
         25    2    1    2    0    0 -0.71647638587E+02  0.13069587201E+02 -0.36896837258E+02  0.14937332137E+03  0.12508722682E+03 0.  0.
          5    1    3    3  502    0 -0.71536015692E+02 -0.43986422177E+02 -0.37728800907E+02  0.92158242686E+02  0.41800000000E+01 0. -1.
         -5    1    3    3    0  502 -0.11162289532E+00  0.57056009378E+02  0.83196364820E+00  0.57215078689E+02  0.41800000000E+01 0. -1.
        -11    1    1    2    0    0  0.50922462404E+02 -0.36310908423E+02 -0.17768343553E+03  0.18836927167E+03  0.00000000000E+00 0.  1.
         11    1    1    2    0    0  0.20725176183E+02  0.23241321222E+02 -0.94895300752E+01  0.32553695965E+02  0.00000000000E+00 0. -1.
</event>
<event>
 7    1  0.2594791E-009  0.1554987E+03  0.7561462E-02  0.1193874E+00
         -2   -1    0    0    0  501 -0.00000000000E+00  0.00000000000E+00  0.61906382954E+02  0.61906382954E+02  0.00000000000E+00 0.  1.
          2   -1    0    0  501    0  0.00000000000E+00 -0.00000000000E+00 -0.49051285856E+03  0.49051285856E+03  0.00000000000E+00 0. -1.
         25    2    1    2    0    0 -0.28850842030E+02 -0.12978131280E+03 -0.20790532890E+03  0.27667390075E+03  0.12509301071E+03 0.  0.
          5    1    3    3  502    0  0.13831160999E+02 -0.55210489349E+01  0.12605953235E+02  0.19954083614E+02  0.41800000000E+01 0. -1.
         -5    1    3    3    0  502 -0.42682003029E+02 -0.12426026387E+03 -0.22051128214E+03  0.25671981713E+03  0.41800000000E+01 0. -1.
        -11    1    1    2    0    0  0.58359612733E+02  0.43211949365E+02 -0.11454673459E+03  0.13562474469E+03  0.00000000000E+00 0. -1.
         11    1    1    2    0    0 -0.29508770703E+02  0.86569363439E+02 -0.10615441211E+03  0.14012059608E+03  0.00000000000E+00 0.  1.
</event>
<event>
 7    1  0.2594791E-009  0.1095263E+03  0.7561462E-02  0.1261450E+00
         -2   -1    0    0    0  501 -0.00000000000E+00  0.00000000000E+00  0.10586194549E+03  0.10586194549E+03  0.00000000000E+00 0. -1.
          2   -1    0    0  501    0  0.00000000000E+00 -0.00000000000E+00 -0.21704284084E+03  0.21704284084E+03  0.00000000000E+00 0.  1.
         25    2    1    2    0    0 -0.74997682172E+02 -0.32137309426E+02  0.11725547540E+02  0.14980903819E+03  0.12509116863E+03 0.  0.
          5    1    3    3  502    0 -0.73081331828E+02 -0.68818131213E+02  0.34688166709E+02  0.10628996921E+03  0.41800000000E+01 0. -1.
         -5    1    3    3    0  502 -0.19163503443E+01  0.36680821787E+02 -0.22962619170E+02  0.43519068979E+02  0.41800000000E+01 0. -1.
        -11    1    1    2    0    0  0.30711121022E+02  0.14152716604E+02 -0.12058912023E+03  0.12524060149E+03  0.00000000000E+00 0.  1.
         11    1    1    2    0    0  0.44286561151E+02  0.17984592822E+02 -0.23173226512E+01  0.47855146659E+02  0.00000000000E+00 0. -1.
</event>
<event>
 7    1  0.2594791E-009  0.1127978E+03  0.7561462E-02  0.1255475E+00
          2   -1    0    0  501    0  0.00000000000E+00  0.00000000000E+00  0.77931190437E+03  0.77931190437E+03  0.00000000000E+00 0. -1.
         -2   -1    0    0    0  501 -0.00000000000E+00 -0.00000000000E+00 -0.18562629854E+02  0.18562629854E+02  0.00000000000E+00 0.  1.
         25    2    1    2    0    0  0.42414573741E+02 -0.22693322319E+01  0.46081637776E+03  0.47937772288E+03  0.12508845372E+03 0.  0.
          5    1    3    3  502    0  0.47647079736E+02 -0.50894876096E+02  0.36605522033E+03  0.37265859624E+03  0.41800000000E+01 0. -1.
         -5    1    3    3    0  502 -0.52325059951E+01  0.48625543864E+02  0.94761157431E+02  0.10671912665E+03  0.41800000000E+01 0. -1.
        -11    1    1    2    0    0 -0.52601255372E+02 -0.38153643662E+02  0.19710243764E+03  0.20753786044E+03  0.00000000000E+00 0. -1.
         11    1    1    2    0    0  0.10186681630E+02  0.40422975894E+02  0.10283045912E+03  0.11095895090E+03  0.00000000000E+00 0.  1.
</event>
<event>
 7    1  0.3021133E-009  0.9445590E+02  0.7561462E-02  0.1292406E+00
          2   -1    0    0  501    0  0.00000000000E+00  0.00000000000E+00  0.22590105263E+03  0.22590105263E+03  0.00000000000E+00 0. -1.
         -2   -1    0    0    0  501 -0.00000000000E+00 -0.00000000000E+00 -0.64668031043E+02  0.64668031043E+02  0.00000000000E+00 0.  1.
         25    2    1    2    0    0  0.41788847449E+02  0.31307374020E+02  0.79618558847E+02  0.15720328011E+03  0.12508915590E+03 0.  0.
          5    1    3    3  502    0  0.84140535740E+02  0.19062240405E+02  0.31833428437E+02  0.92053453655E+02  0.41800000000E+01 0.  1.
         -5    1    3    3    0  502 -0.42351688291E+02  0.12245133614E+02  0.47785130410E+02  0.65149826451E+02  0.41800000000E+01 0.  1.
        -11    1    1    2    0    0 -0.10805842567E+02 -0.24146251322E+02 -0.15854133235E+02  0.30840901854E+02  0.00000000000E+00 0.  1.
         11    1    1    2    0    0 -0.30983004881E+02 -0.71611226976E+01  0.97468595973E+02  0.10252490171E+03  0.00000000000E+00 0. -1.
</event>
<event>
 7    1  0.2594791E-009  0.1162211E+03  0.7561462E-02  0.1249465E+00
         -2   -1    0    0    0  501 -0.00000000000E+00  0.00000000000E+00  0.24088520749E+02  0.24088520749E+02  0.00000000000E+00 0.  1.
          2   -1    0    0  501    0  0.00000000000E+00 -0.00000000000E+00 -0.76219907380E+03  0.76219907380E+03  0.00000000000E+00 0. -1.
         25    2    1    2    0    0 -0.40633227738E+02 -0.26342562192E+02 -0.60231542690E+03  0.61706975796E+03  0.12508486290E+03 0.  0.
          5    1    3    3  502    0 -0.79278178812E+02 -0.43165431265E+02 -0.44951116924E+03  0.45850414149E+03  0.41800000000E+01 0.  1.
         -5    1    3    3    0  502  0.38644951074E+02  0.16822869073E+02 -0.15280425766E+03  0.15856561647E+03  0.41800000000E+01 0.  1.
        -11    1    1    2    0    0  0.40272523055E+02 -0.25638243521E+02 -0.78310390749E+02  0.91715390985E+02  0.00000000000E+00 0. -1.
         11    1    1    2    0    0  0.36070468213E+00  0.51980805713E+02 -0.57484735401E+02  0.77502445604E+02  0.00000000000E+00 0.  1.
</event>
<event>
 7    1  0.2594791E-009  0.6297796E+02  0.7561462E-02  0.1385743E+00
          1   -1    0    0  501    0  0.00000000000E+00  0.00000000000E+00  0.24352075384E+03  0.24352075384E+03  0.00000000000E+00 0. -1.
         -1   -1    0    0    0  501 -0.00000000000E+00 -0.00000000000E+00 -0.44724314690E+02  0.44724314690E+02  0.00000000000E+00 0.  1.
         25    2    1    2    0    0  0.23479177804E+02  0.19911710560E+02  0.15863008234E+03  0.20434506131E+03  0.12508258492E+03 0.  0.
          5    1    3    3  502    0  0.20499805312E+02 -0.96093307770E+01 -0.15436084375E+02  0.27718700486E+02  0.41800000000E+01 0. -1.
         -5    1    3    3    0  502  0.29793724921E+01  0.29521041337E+02  0.17406616672E+03  0.17662636082E+03  0.41800000000E+01 0. -1.
        -11    1    1    2    0    0 -0.79045217756E+01  0.24585460403E+02  0.88359915304E+01  0.27294707803E+02  0.00000000000E+00 0. -1.
         11    1    1    2    0    0 -0.15574656028E+02 -0.44497170963E+02  0.31330365283E+02  0.56605299424E+02  0.00000000000E+00 0.  1.
</event>
<event>
 6    1  0.2594791E-009  0.1009996E+03  0.7561462E-02  0.1278208E+00
         -2   -1    0    0    0  501 -0.00000000000E+00  0.00000000000E+00  0.99194134912E+01  0.99194134912E+01  0.00000000000E+00 0.  1.
          2   -1    0    0  501    0  0.00000000000E+00 -0.00000000000E+00 -0.21709202568E+04  0.21709202568E+04  0.00000000000E+00 0. -1.
          5    1    1    2  502    0 -0.62386494738E+02 -0.25009595329E+02 -0.96978159808E+03  0.97211695539E+03  0.41800000000E+01 0. -1.
         -5    1    1    2    0  502  0.61929773848E+02 -0.11931066095E+02 -0.86664082855E+03  0.86894271695E+03  0.41800000000E+01 0. -1.
        -11    1    1    2    0    0  0.12142940893E+02 -0.14376641763E+02 -0.10963157049E+02  0.21779110505E+02  0.00000000000E+00 0.  1.
         11    1    1    2    0    0 -0.11686220004E+02  0.51317303187E+02 -0.31361525966E+03  0.31800088747E+03  0.00000000000E+00 0. -1.
</event>
<event>
 7    1  0.2594791E-009  0.1243124E+03  0.7561462E-02  0.1236148E+00
          1   -1    0    0  501    0  0.00000000000E+00  0.00000000000E+00  0.15244853822E+03  0.15244853822E+03  0.00000000000E+00 0. -1.
         -1   -1    0    0    0  501 -0.00000000000E+00 -0.00000000000E+00 -0.11133469317E+03  0.11133469317E+03  0.00000000000E+00 0.  1.
         25    2    1    2    0    0  0.95281644003E+01 -0.71294867885E+02  0.33072139999E+02  0.14803793149E+03  0.12509084144E+03 0.  0.
          5    1    3    3  502    0  0.59482067300E+02 -0.24073413608E+02 -0.12431022905E+02  0.65495406736E+02  0.41800000000E+01 0. -1.
         -5    1    3    3    0  502 -0.49953902900E+02 -0.47221454277E+02  0.45503162904E+02  0.82542524757E+02  0.41800000000E+01 0. -1.
        -11    1    1    2    0    0  0.30700260534E+02 -0.31215415989E+01  0.13767074647E+01  0.30889243148E+02  0.00000000000E+00 0. -1.
         11    1    1    2    0    0 -0.40228424935E+02  0.74416409484E+02  0.66649975852E+01  0.84856056743E+02  0.00000000000E+00 0.  1.
</event>
<event>
 7    1  0.2594791E-009  0.1367122E+03  0.7561462E-02  0.1217823E+00
          1   -1    0    0  501    0  0.00000000000E+00  0.00000000000E+00  0.50390018804E+02  0.50390018804E+02  0.00000000000E+00 0. -1.
         -1   -1    0    0    0  501 -0.00000000000E+00 -0.00000000000E+00 -0.61030641053E+03  0.61030641053E+03  0.00000000000E+00 0.  1.
         25    2    1    2    0    0 -0.89898735441E+02  0.10236991251E+03 -0.32906413867E+03  0.37748088688E+03  0.12508889233E+03 0.  0.
          5    1    3    3  502    0 -0.23033644203E+02  0.30564890219E+02 -0.24559813530E+03  0.24859742103E+03  0.41800000000E+01 0.  1.
         -5    1    3    3    0  502 -0.66865091239E+02  0.71805022290E+02 -0.83466003368E+02  0.12888346585E+03  0.41800000000E+01 0.  1.
        -11    1    1    2    0    0  0.43028902301E+02 -0.40418549276E+02 -0.26718228334E+02  0.64799762995E+02  0.00000000000E+00 0. -1.
         11    1    1    2    0    0  0.46869833140E+02 -0.61951363234E+02 -0.20413402472E+03  0.21841577945E+03  0.00000000000E+00 0.  1.
</event>
<event>
 7    1  0.2594791E-009  0.8101144E+02  0.7561462E-02  0.1326205E+00
         -2   -1    0    0    0  501 -0.00000000000E+00  0.00000000000E+00  0.28311327231E+02  0.28311327231E+02  0.00000000000E+00 0.  1.
          2   -1    0    0  501    0  0.00000000000E+00 -0.00000000000E+00 -0.57798572182E+03  0.57798572182E+03  0.00000000000E+00 0. -1.
         25    2    1    2    0    0 -0.19982944798E+02 -0.14509186773E+02 -0.45307490477E+03  0.47067407013E+03  0.12508947347E+03 0.  0.
          5    1    3    3  502    0  0.16120043082E+02  0.44905163679E+02 -0.28075754145E+03  0.28481327040E+03  0.41800000000E+01 0.  1.
         -5    1    3    3    0  502 -0.36102987880E+02 -0.59414350452E+02 -0.17231736332E+03  0.18586079973E+03  0.41800000000E+01 0.  1.
        -11    1    1    2    0    0  0.30721185627E+02  0.13915200643E+02 -0.11192760208E+03  0.11689829838E+03  0.00000000000E+00 0. -1.
         11    1    1    2    0    0 -0.10738240829E+02  0.59398613016E+00  0.15328112271E+02  0.18724680543E+02  0.00000000000E+00 0.  1.
</event>
<event>
 7    1  0.2594791E-009  0.9671862E+02  0.7561462E-02  0.1287352E+00
          1   -1    0    0  501    0  0.00000000000E+00  0.00000000000E+00  0.84499667823E+02  0.84499667823E+02  0.00000000000E+00 0. -1.
         -1   -1    0    0    0  501 -0.00000000000E+00 -0.00000000000E+00 -0.17028571338E+03  0.17028571338E+03  0.00000000000E+00 0.  1.
         25    2    1    2    0    0  0.32143686338E+02  0.39219761631E+02 -0.51749176968E+02  0.14453949087E+03  0.12506910422E+03 0.  0.
          5    1    3    3  502    0  0.45102804176E+02  0.53112417343E+02 -0.82551740774E+02  0.10810852938E+03  0.41800000000E+01 0. -1.
         -5    1    3    3    0  502 -0.12959117838E+02 -0.13892655712E+02  0.30802563806E+02  0.36430961488E+02  0.41800000000E+01 0. -1.
        -11    1    1    2    0    0  0.12246995300E+02  0.23992705424E+02 -0.14407579141E+02  0.30548602981E+02  0.00000000000E+00 0.  1.
         11    1    1    2    0    0 -0.44390681638E+02 -0.63212467054E+02 -0.19629289452E+02  0.79697287355E+02  0.00000000000E+00 0. -1.
</event>
<event>
 7    1  0.2594791E-009  0.9773117E+02  0.7561462E-02  0.1285141E+00
          1   -1    0    0  501    0  0.00000000000E+00  0.00000000000E+00  0.69031981887E+03  0.69031981887E+03  0.00000000000E+00 0. -1.
         -1   -1    0    0    0  501 -0.00000000000E+00 -0.00000000000E+00 -0.22911035014E+02  0.22911035014E+02  0.00000000000E+00 0.  1.
         25    2    1    2    0    0  0.27295472839E+02  0.13191571902E+02  0.52127169297E+03  0.53692726169E+03  0.12509055140E+03 0.  0.
          5    1    3    3  502    0  0.14223764741E+02  0.53805636884E+02  0.45221409445E+03  0.45564506106E+03  0.41800000000E+01 0. -1.
         -5    1    3    3    0  502  0.13071708098E+02 -0.40614064982E+02  0.69057598518E+02  0.81282200635E+02  0.41800000000E+01 0. -1.
        -11    1    1    2    0    0 -0.44696173032E+02 -0.43156470543E+02  0.76754534837E+02  0.98749620007E+02  0.00000000000E+00 0.  1.
         11    1    1    2    0    0  0.17400700193E+02  0.29964898642E+02  0.69382556051E+02  0.77553972187E+02  0.00000000000E+00 0. -1.
</event>
<event>
 7    1  0.2594791E-009  0.1065604E+03  0.7561462E-02  0.1267075E+00
          2   -1    0    0  501    0  0.00000000000E+00  0.00000000000E+00  0.44206782859E+03  0.44206782859E+03  0.00000000000E+00 0. -1.
         -2   -1    0    0    0  501 -0.00000000000E+00 -0.00000000000E+00 -0.41235774637E+02  0.41235774637E+02  0.00000000000E+00 0.  1.
         25    2    1    2    0    0  0.35989156779E+01 -0.76907736003E+02  0.17820642700E+03  0.23094703815E+03  0.12510496295E+03 0.  0.
          5    1    3    3  502    0 -0.29765890911E+02 -0.31274469612E+02  0.16779969903E+03  0.17331564300E+03  0.41800000000E+01 0.  1.
         -5    1    3    3    0  502  0.33364806589E+02 -0.45633266391E+02  0.10406727962E+02  0.57631395152E+02  0.41800000000E+01 0.  1.
        -11    1    1    2    0    0  0.16750486995E+02  0.88207175654E+02  0.13838205228E+03  0.16495659139E+03  0.00000000000E+00 0.  1.
         11    1    1    2    0    0 -0.20349402673E+02 -0.11299439651E+02  0.84243574685E+02  0.87399973691E+02  0.00000000000E+00 0. -1.
</event>
<event>
 7    1  0.2594791E-009  0.1148394E+03  0.7561462E-02  0.1251862E+00
          2   -1    0    0  501    0  0.00000000000E+00  0.00000000000E+00  0.38674520581E+02  0.38674520581E+02  0.00000000000E+00 0. -1.
         -2   -1    0    0    0  501 -0.00000000000E+00 -0.00000000000E+00 -0.61133035400E+03  0.61133035400E+03  0.00000000000E+00 0.  1.
         25    2    1    2    0    0 -0.13627166296E+02 -0.47942251539E+02 -0.10047652476E+03  0.16800873327E+03  0.12508894148E+03 0.  0.
          5    1    3    3  502    0 -0.68265501192E+02 -0.14318052563E+02 -0.59433787281E+02  0.91733487630E+02  0.41800000000E+01 0.  1.
         -5    1    3    3    0  502  0.54638334895E+02 -0.33624198976E+02 -0.41042737481E+02  0.76275245636E+02  0.41800000000E+01 0.  1.
        -11    1    1    2    0    0 -0.34452119422E+02  0.18004163354E+02 -0.15504132810E+03  0.15984026980E+03  0.00000000000E+00 0.  1.
         11    1    1    2    0    0  0.48079285718E+02  0.29938088185E+02 -0.31713798055E+03  0.32215587151E+03  0.00000000000E+00 0. -1.
</event>
<event>
 7    1  0.2594791E-009  0.2521267E+03  0.7561462E-02  0.1111968E+00
          2   -1    0    0  501    0  0.00000000000E+00  0.00000000000E+00  0.44217879258E+03  0.44217879258E+03  0.00000000000E+00 0.  1.
         -2   -1    0    0    0  501 -0.00000000000E+00 -0.00000000000E+00 -0.14853634413E+03  0.14853634413E+03  0.00000000000E+00 0. -1.
         25    2    1    2    0    0  0.65091685136E+02 -0.22194072591E+03  0.12712638301E+03  0.29206367384E+03  0.12508180935E+03 0.  0.
          5    1    3    3  502    0 -0.10951687814E+02  0.11638613417E+02  0.29374923548E+01  0.16777903611E+02  0.41800000000E+01 0.  1.
         -5    1    3    3    0  502  0.76043372951E+02 -0.23357933933E+03  0.12418889066E+03  0.27528577023E+03  0.41800000000E+01 0.  1.
        -11    1    1    2    0    0  0.10480410296E+02  0.85000477010E+02  0.91009790971E+02  0.12497080517E+03  0.00000000000E+00 0.  1.
         11    1    1    2    0    0 -0.75572095433E+02  0.13694024890E+03  0.75506274463E+02  0.17368065770E+03  0.00000000000E+00 0. -1.
</event>
<event>
 7    1  0.2594791E-009  0.7769165E+02  0.7561462E-02  0.1335733E+00
          1   -1    0    0  501    0  0.00000000000E+00  0.00000000000E+00  0.37908116482E+03  0.37908116482E+03  0.00000000000E+00 0. -1.
         -1   -1    0    0    0  501 -0.00000000000E+00 -0.00000000000E+00 -0.34029255132E+02  0.34029255132E+02  0.00000000000E+00 0.  1.
         25    2    1    2    0    0  0.20756809568E+02 -0.24468741774E+02  0.20450513039E+03  0.24186675893E+03  0.12509043229E+03 0.  0.
          5    1    3    3  502    0  0.56648634535E+02 -0.33257010033E+02  0.49217461060E+02  0.82188365261E+02  0.41800000000E+01 0.  1.
         -5    1    3    3    0  502 -0.35891824966E+02  0.87882682592E+01  0.15528766933E+03  0.15967839367E+03  0.41800000000E+01 0.  1.
        -11    1    1    2    0    0 -0.28443496936E+02  0.18720987071E+01  0.14429438305E+03  0.14708299103E+03  0.00000000000E+00 0. -1.
         11    1    1    2    0    0  0.76866873676E+01  0.22596643067E+02 -0.37476037505E+01  0.24160669992E+02  0.00000000000E+00 0.  1.
</event>
<event>
 7    1  0.2594791E-009  0.1102336E+03  0.7561462E-02  0.1260138E+00
         -2   -1    0    0    0  501 -0.00000000000E+00  0.00000000000E+00  0.16789484157E+03  0.16789484157E+03  0.00000000000E+00 0.  1.
          2   -1    0    0  501    0  0.00000000000E+00 -0.00000000000E+00 -0.11131354745E+03  0.11131354745E+03  0.00000000000E+00 0. -1.
         25    2    1    2    0    0  0.55850594598E+02 -0.43073414435E+02 -0.12405625583E+02  0.14414279100E+03  0.12509451109E+03 0.  0.
          5    1    3    3  502    0 -0.22768353632E+02  0.54228382437E+01  0.33362988556E+02  0.40967871645E+02  0.41800000000E+01 0. -1.
         -5    1    3    3    0  502  0.78618948229E+02 -0.48496252678E+02 -0.45768614139E+02  0.10317491936E+03  0.41800000000E+01 0. -1.
        -11    1    1    2    0    0 -0.19361565548E+02  0.60690919893E+02  0.11500630209E+02  0.64734244981E+02  0.00000000000E+00 0. -1.
         11    1    1    2    0    0 -0.36489029049E+02 -0.17617505459E+02  0.57486289496E+02  0.70331353034E+02  0.00000000000E+00 0.  1.
</event>
<event>
 7    1  0.2594791E-009  0.1026387E+03  0.7561462E-02  0.1274843E+00
         -2   -1    0    0    0  501 -0.00000000000E+00  0.00000000000E+00  0.12077491395E+03  0.12077491395E+03  0.00000000000E+00 0.  1.
          2   -1    0    0  501    0  0.00000000000E+00 -0.00000000000E+00 -0.15279719838E+03  0.15279719838E+03  0.00000000000E+00 0. -1.
         25    2    1    2    0    0  0.25534634454E+02  0.33344258455E+02  0.52560616105E+02  0.14203544401E+03  0.12509033480E+03 0.  0.
          5    1    3    3  502    0  0.16505235657E+02  0.77866852770E+02  0.54194022562E+02  0.96385341447E+02  0.41800000000E+01 0.  1.
         -5    1    3    3    0  502  0.90293987963E+01 -0.44522594314E+02 -0.16334064571E+01  0.45650102560E+02  0.41800000000E+01 0.  1.
        -11    1    1    2    0    0 -0.20844922282E+02 -0.54463459000E+02 -0.91777810165E+02  0.10873796756E+03  0.00000000000E+00 0. -1.
         11    1    1    2    0    0 -0.46897121713E+01  0.21119200545E+02  0.71949096339E+01  0.22798700764E+02  0.00000000000E+00 0.  1.
</event>
<event>
 7    1  0.2594791E-009  0.1084233E+03  0.7561462E-02  0.1263518E+00
         -2   -1    0    0    0  501 -0.00000000000E+00  0.00000000000E+00  0.17100715152E+02  0.17100715152E+02  0.00000000000E+00 0.  1.
          2   -1    0    0  501    0  0.00000000000E+00 -0.00000000000E+00 -0.10603989484E+04  0.10603989484E+04  0.00000000000E+00 0. -1.
         25    2    1    2    0    0  0.78213532206E+02 -0.35958225480E+02 -0.59450223474E+03  0.61358945833E+03  0.12509502653E+03 0.  0.
          5    1    3    3  502    0 -0.43796676769E+01 -0.38153290714E+02 -0.51803282698E+02  0.64621262596E+02  0.41800000000E+01 0.  1.
         -5    1    3    3    0  502  0.82593199883E+02  0.21950652340E+01 -0.54269895205E+03  0.54896819574E+03  0.41800000000E+01 0.  1.
        -11    1    1    2    0    0 -0.20552895360E+02 -0.89355215022E+01 -0.23853393814E+02  0.32729947275E+02  0.00000000000E+00 0.  1.
         11    1    1    2    0    0 -0.57660636846E+02  0.44893746982E+02 -0.42494260471E+03  0.43118025796E+03  0.00000000000E+00 0. -1.
</event>
<event>
 7    1  0.2594791E-009  0.1174808E+03  0.7561462E-02  0.1247312E+00
          2   -1    0    0  501    0  0.00000000000E+00  0.00000000000E+00  0.14962922816E+04  0.14962922816E+04  0.00000000000E+00 0. -1.
         -2   -1    0    0    0  501 -0.00000000000E+00 -0.00000000000E+00 -0.12234961884E+02  0.12234961884E+02  0.00000000000E+00 0.  1.
         25    2    1    2    0    0 -0.18584234177E+02 -0.80382028241E+02  0.85392181896E+03  0.86696996060E+03  0.12509114866E+03 0.  0.
          5    1    3    3  502    0 -0.49704018591E+02 -0.53150770007E+02  0.76875317479E+03  0.77220101656E+03  0.41800000000E+01 0.  1.
         -5    1    3    3    0  502  0.31119784414E+02 -0.27231258234E+02  0.85168644164E+02  0.94768944046E+02  0.41800000000E+01 0.  1.
        -11    1    1    2    0    0  0.35740616966E+02  0.92724502221E+02  0.52284830324E+03  0.53220820476E+03  0.00000000000E+00 0.  1.
         11    1    1    2    0    0 -0.17156382789E+02 -0.12342473980E+02  0.10728719751E+03  0.10934907812E+03  0.00000000000E+00 0. -1.
</event>
<event>
 7    1  0.2598602E-009  0.1281448E+03  0.7561462E-02  0.1230235E+00
          1   -1    0    0  501    0  0.00000000000E+00  0.00000000000E+00  0.42226996800E+02  0.42226996800E+02  0.00000000000E+00 0. -1.
         -1   -1    0    0    0  501 -0.00000000000E+00 -0.00000000000E+00 -0.51755007600E+03  0.51755007600E+03  0.00000000000E+00 0.  1.
         25    2    1    2    0    0 -0.56213716072E+02 -0.82365472943E+02 -0.24019598524E+03  0.28858943297E+03  0.12508275857E+03 0.  0.
          5    1    3    3  502    0 -0.10284077926E+02  0.26463167871E+02 -0.10574875685E+03  0.10957341597E+03  0.41800000000E+01 0.  1.
         -5    1    3    3    0  502 -0.45929638146E+02 -0.10882864081E+03 -0.13444722839E+03  0.17901601700E+03  0.41800000000E+01 0.  1.
        -11    1    1    2    0    0  0.41485161913E+02  0.84858905143E+02 -0.23792569308E+03  0.25598962453E+03  0.00000000000E+00 0.  1.
         11    1    1    2    0    0  0.14728554158E+02 -0.24934321992E+01  0.27985991212E+01  0.15198015291E+02  0.00000000000E+00 0. -1.
</event>
<event>
 7    1  0.2594791E-009  0.8806803E+02  0.7561462E-02  0.1307599E+00
          1   -1    0    0  501    0  0.00000000000E+00  0.00000000000E+00  0.32596413375E+03  0.32596413375E+03  0.00000000000E+00 0. -1.
         -1   -1    0    0    0  501 -0.00000000000E+00 -0.00000000000E+00 -0.40623606689E+02  0.40623606689E+02  0.00000000000E+00 0.  1.
         25    2    1    2    0    0 -0.10390107575E+02 -0.34547250230E+02  0.18930595439E+03  0.22975181359E+03  0.12509070568E+03 0.  0.
          5    1    3    3  502    0 -0.30515727626E+02 -0.59785338844E+02  0.18509089640E+03  0.19693046668E+03  0.41800000000E+01 0. -1.
         -5    1    3    3    0  502  0.20125620051E+02  0.25238088615E+02  0.42150579805E+01  0.32821346912E+02  0.41800000000E+01 0. -1.
        -11    1    1    2    0    0 -0.24817845123E+02  0.32734535336E+02  0.77917925767E+01  0.41811329466E+02  0.00000000000E+00 0.  1.
         11    1    1    2    0    0  0.35207952698E+02  0.18127148940E+01  0.88242780100E+02  0.95024597385E+02  0.00000000000E+00 0. -1.
</event>
<event>
 7    1  0.2594791E-009  0.1410347E+03  0.7561462E-02  0.1211943E+00
          2   -1    0    0  501    0  0.00000000000E+00  0.00000000000E+00  0.17431983034E+04  0.17431983034E+04  0.00000000000E+00 0. -1.
         -2   -1    0    0    0  501 -0.00000000000E+00 -0.00000000000E+00 -0.14844966598E+02  0.14844966598E+02  0.00000000000E+00 0.  1.
         25    2    1    2    0    0 -0.40982340730E+02  0.80811320912E+02  0.13321047657E+04  0.13410300038E+04  0.12509333548E+03 0.  0.
          5    1    3    3  502    0 -0.32337096422E+02 -0.28183001858E+02  0.47953133321E+03  0.48146416412E+03  0.41800000000E+01 0.  1.
         -5    1    3    3    0  502 -0.86452443086E+01  0.10899432277E+03  0.85257343247E+03  0.85956583971E+03  0.41800000000E+01 0.  1.
        -11    1    1    2    0    0 -0.45235059600E+00 -0.87571212722E+02  0.28264405110E+03  0.29589961396E+03  0.00000000000E+00 0. -1.
         11    1    1    2    0    0  0.41434691326E+02  0.67598918108E+01  0.11360452003E+03  0.12111365222E+03  0.00000000000E+00 0.  1.
</event>
<event>
 7    1  0.2594791E-009  0.1796789E+03  0.7561462E-02  0.1168114E+00
         -2   -1    0    0    0  501 -0.00000000000E+00  0.00000000000E+00  0.39696468822E+03  0.39696468822E+03  0.00000000000E+00 0.  1.
          2   -1    0    0  501    0  0.00000000000E+00 -0.00000000000E+00 -0.92489593912E+02  0.92489593912E+02  0.00000000000E+00 0. -1.
         25    2    1    2    0    0 -0.14402775834E+03  0.48538445168E+02  0.10318158195E+03  0.22224846068E+03  0.12509182064E+03 0.  0.
          5    1    3    3  502    0 -0.81578325536E+01  0.59572079165E+02  0.36170901074E+02  0.70293593823E+02  0.41800000000E+01 0. -1.
         -5    1    3    3    0  502 -0.13586992578E+03 -0.11033633997E+02  0.67010680874E+02  0.15195486686E+03  0.41800000000E+01 0. -1.
        -11    1    1    2    0    0  0.13155211667E+03 -0.22000350114E+02  0.19650125008E+03  0.23749256006E+03  0.00000000000E+00 0.  1.
         11    1    1    2    0    0  0.12475641672E+02 -0.26538095054E+02  0.47922622835E+01  0.29713261383E+02  0.00000000000E+00 0. -1.
</event>
<event>
 7    1  0.2594791E-009  0.1145528E+03  0.7561462E-02  0.1252364E+00
          2   -1    0    0  501    0  0.00000000000E+00  0.00000000000E+00  0.70499556322E+03  0.70499556322E+03  0.00000000000E+00 0. -1.
         -2   -1    0    0    0  501 -0.00000000000E+00 -0.00000000000E+00 -0.25903516731E+02  0.25903516731E+02  0.00000000000E+00 0.  1.
         25    2    1    2    0    0  0.36363069757E+02 -0.69859642745E+02  0.42364613643E+03  0.44869383441E+03  0.12508983011E+03 0.  0.
          5    1    3    3  502    0  0.60490555552E+02 -0.86711068616E+02  0.23501805306E+03  0.25773799564E+03  0.41800000000E+01 0.  1.
         -5    1    3    3    0  502 -0.24127485796E+02  0.16851425871E+02  0.18862808337E+03  0.19095583877E+03  0.41800000000E+01 0.  1.
        -11    1    1    2    0    0 -0.12816694862E+02 -0.59932795298E+01 -0.56229432657E+00  0.14159916723E+02  0.00000000000E+00 0.  1.
         11    1    1    2    0    0 -0.23546374895E+02  0.75852922274E+02  0.25600820438E+03  0.26804532882E+03  0.00000000000E+00 0. -1.
</event>
<event>
 7    1  0.2594791E-009  0.1081547E+03  0.7561462E-02  0.1264026E+00
          2   -1    0    0  501    0  0.00000000000E+00  0.00000000000E+00  0.21195413387E+03  0.21195413387E+03  0.00000000000E+00 0. -1.
         -2   -1    0    0    0  501 -0.00000000000E+00 -0.00000000000E+00 -0.59075625611E+02  0.59075625611E+02  0.00000000000E+00 0.  1.
         25    2    1    2    0    0  0.23525753767E+02  0.12309288834E+02  0.10037070133E+03  0.16256486003E+03  0.12509227134E+03 0.  0.
          5    1    3    3  502    0 -0.43421042625E+02 -0.18768732678E+02  0.65298289693E+02  0.80740270658E+02  0.41800000000E+01 0. -1.
         -5    1    3    3    0  502  0.66946796393E+02  0.31078021512E+02  0.35072411639E+02  0.81824589376E+02  0.41800000000E+01 0. -1.
        -11    1    1    2    0    0 -0.31113003715E+02 -0.48662000434E+02  0.32865133671E+02  0.66453941174E+02  0.00000000000E+00 0. -1.
         11    1    1    2    0    0  0.75872499474E+01  0.36352711600E+02  0.19642673254E+02  0.42010958272E+02  0.00000000000E+00 0.  1.
</event>
<event>
 6    1  0.2594791E-009  0.5962750E+02  0.7561462E-02  0.1399402E+00
          1   -1    0    0  501    0  0.00000000000E+00  0.00000000000E+00  0.16415510286E+03  0.16415510286E+03  0.00000000000E+00 0. -1.
         -1   -1    0    0    0  501 -0.00000000000E+00 -0.00000000000E+00 -0.92059285676E+02  0.92059285676E+02  0.00000000000E+00 0.  1.
          5    1    1    2  502    0  0.28135153629E+02 -0.15909139125E+02  0.93037077197E+02  0.98580209529E+02  0.41800000000E+01 0.  1.
         -5    1    1    2    0  502 -0.33385524764E+01 -0.28008150146E+02 -0.37714911840E+02  0.47280962156E+02  0.41800000000E+01 0.  1.
        -11    1    1    2    0    0 -0.28501577682E+02  0.22223175680E+02 -0.37321240383E+02  0.51952713609E+02  0.00000000000E+00 0.  1.
         11    1    1    2    0    0  0.37049765294E+01  0.21694113591E+02  0.54094892207E+02  0.58400503238E+02  0.00000000000E+00 0. -1.
</event>
<event>
 7    1  0.3238177E-009  0.1219425E+03  0.7561462E-02  0.1239926E+00
          2   -1    0    0  501    0  0.00000000000E+00  0.00000000000E+00  0.26956978758E+03  0.26956978758E+03  0.00000000000E+00 0.  1.
         -2   -1    0    0    0  501 -0.00000000000E+00 -0.00000000000E+00 -0.72077627183E+02  0.72077627183E+02  0.00000000000E+00 0. -1.
         25    2    1    2    0    0 -0.62533722265E+02 -0.91356252348E+00  0.33262805519E+02  0.14375496711E+03  0.12509106811E+03 0.  0.
          5    1    3    3  502    0  0.37204232881E+02  0.11723490453E+02  0.91391693023E+01  0.40281409958E+02  0.41800000000E+01 0.  1.
         -5    1    3    3    0  502 -0.99737955146E+02 -0.12637052976E+02  0.24123636217E+02  0.10347355715E+03  0.41800000000E+01 0.  1.
        -11    1    1    2    0    0  0.61049525559E+02  0.34693846697E+02  0.76340075319E+02  0.10372326002E+03  0.00000000000E+00 0. -1.
         11    1    1    2    0    0  0.14841967062E+01 -0.33780284174E+02  0.87889279558E+02  0.94169187636E+02  0.00000000000E+00 0.  1.
</event>
<event>
 7    1  0.2594791E-009  0.1679972E+03  0.7561462E-02  0.1179953E+00
          1   -1    0    0  501    0  0.00000000000E+00  0.00000000000E+00  0.10247238000E+03  0.10247238000E+03  0.00000000000E+00 0. -1.
         -1   -1    0    0    0  501 -0.00000000000E+00 -0.00000000000E+00 -0.31791832426E+03  0.31791832426E+03  0.00000000000E+00 0.  1.
         25    2    1    2    0    0  0.64724243393E+02 -0.12812051916E+03 -0.12551403214E+03  0.22804653111E+03  0.12508937994E+03 0.  0.
          5    1    3    3  502    0 -0.26035195222E+02 -0.86109404099E+02 -0.65208001068E+02  0.11118550566E+03  0.41800000000E+01 0. -1.
         -5    1    3    3    0  502  0.90759438615E+02 -0.42011115064E+02 -0.60306031069E+02  0.11686102545E+03  0.41800000000E+01 0. -1.
        -11    1    1    2    0    0 -0.12184771427E+02  0.75887312985E+01 -0.54230888867E+02  0.56098545478E+02  0.00000000000E+00 0.  1.
         11    1    1    2    0    0 -0.52539471966E+02  0.12053178787E+03 -0.35701023253E+02  0.13624562768E+03  0.00000000000E+00 0. -1.
</event>
<event>
 7    1  0.2594791E-009  0.9517989E+02  0.7561462E-02  0.1290771E+00
          2   -1    0    0  501    0  0.00000000000E+00  0.00000000000E+00  0.15191362620E+03  0.15191362620E+03  0.00000000000E+00 0. -1.
         -2   -1    0    0    0  501 -0.00000000000E+00 -0.00000000000E+00 -0.10007183520E+03  0.10007183520E+03  0.00000000000E+00 0.  1.
         25    2    1    2    0    0 -0.50403903644E+02 -0.30208224659E+02  0.16161890935E+02  0.13914590684E+03  0.12508911356E+03 0.  0.
          5    1    3    3  502    0 -0.23814203575E+02 -0.47644283862E+02  0.62858627576E+02  0.82497112297E+02  0.41800000000E+01 0. -1.
         -5    1    3    3    0  502 -0.26589700069E+02  0.17436059203E+02 -0.46696736642E+02  0.56648794544E+02  0.41800000000E+01 0. -1.
        -11    1    1    2    0    0  0.32592183200E+02 -0.28633122559E+02  0.26073116149E+02  0.50615348452E+02  0.00000000000E+00 0. -1.
         11    1    1    2    0    0  0.17811720444E+02  0.58841347218E+02  0.96067839150E+01  0.62224206100E+02  0.00000000000E+00 0.  1.
</event>
<event>
 7    1  0.2594791E-009  0.2503322E+03  0.7561462E-02  0.1113095E+00
         -4   -1    0    0    0  501 -0.00000000000E+00  0.00000000000E+00  0.62331789954E+03  0.62331789954E+03  0.00000000000E+00 0.  1.
          4   -1    0    0  501    0  0.00000000000E+00 -0.00000000000E+00 -0.15820617216E+03  0.15820617216E+03  0.00000000000E+00 0. -1.
         25    2    1    2    0    0  0.24978352456E+03  0.33642368812E+01  0.42328332193E+02  0.28256488090E+03  0.12509235381E+03 0.  0.
          5    1    3    3  502    0  0.19675056043E+03  0.49830753695E+01  0.84925202199E+02  0.21439537411E+03  0.41800000000E+01 0.  1.
         -5    1    3    3    0  502  0.53032964127E+02 -0.16188384882E+01 -0.42596870005E+02  0.68169506793E+02  0.41800000000E+01 0.  1.
        -11    1    1    2    0    0 -0.16838092174E+03  0.69890513620E+01  0.19995338751E+03  0.26150016984E+03  0.00000000000E+00 0. -1.
         11    1    1    2    0    0 -0.81402602815E+02 -0.10353288243E+02  0.22283000766E+03  0.23745902097E+03  0.00000000000E+00 0.  1.
</event>
<event>
 7    1  0.2594791E-009  0.1062985E+03  0.7561462E-02  0.1267582E+00
          2   -1    0    0  501    0  0.00000000000E+00  0.00000000000E+00  0.96617109941E+03  0.96617109941E+03  0.00000000000E+00 0. -1.
         -2   -1    0    0    0  501 -0.00000000000E+00 -0.00000000000E+00 -0.22837912452E+02  0.22837912452E+02  0.00000000000E+00 0.  1.
         25    2    1    2    0    0  0.36393983028E+02  0.88974605657E+02  0.61391465791E+03  0.63385712199E+03  0.12507054587E+03 0.  0.
          5    1    3    3  502    0  0.16015929467E+02  0.22066845693E+02  0.16078015486E+02  0.31928524199E+02  0.41800000000E+01 0.  1.
         -5    1    3    3    0  502  0.20378053562E+02  0.66907759964E+02  0.59783664243E+03  0.60192859779E+03  0.41800000000E+01 0.  1.
        -11    1    1    2    0    0  0.16357511921E+02 -0.38951748900E+02  0.45564727173E+02  0.62136553662E+02  0.00000000000E+00 0.  1.
         11    1    1    2    0    0 -0.52751494950E+02 -0.50022856758E+02  0.28385380187E+03  0.29301533621E+03  0.00000000000E+00 0. -1.
</event>
<event>
 7    1  0.2594791E-009  0.1219183E+03  0.7561462E-02  0.1239966E+00
          2   -1    0    0  501    0  0.00000000000E+00  0.00000000000E+00  0.16550635277E+03  0.16550635277E+03  0.00000000000E+00 0. -1.
         -2   -1    0    0    0  501 -0.00000000000E+00 -0.00000000000E+00 -0.17655471803E+03  0.17655471803E+03  0.00000000000E+00 0.  1.
         25    2    1    2    0    0  0.39550135169E+02  0.10364991770E+03  0.64942163793E+02  0.17935952619E+03  0.12507932030E+03 0.  0.
          5    1    3    3  502    0  0.55312844076E+02  0.63560371209E+02  0.94707750174E+02  0.12683241640E+03  0.41800000000E+01 0.  1.
         -5    1    3    3    0  502 -0.15762708907E+02  0.40089546491E+02 -0.29765586380E+02  0.52527109786E+02  0.41800000000E+01 0.  1.
        -11    1    1    2    0    0 -0.44490901567E+02 -0.75651264766E+02 -0.94349481916E+02  0.12885797965E+03  0.00000000000E+00 0.  1.
         11    1    1    2    0    0  0.49407663972E+01 -0.27998652934E+02  0.18358952861E+02  0.33843564956E+02  0.00000000000E+00 0. -1.
</event>
<event>
 7    1  0.2594791E-009  0.1032676E+03  0.7561462E-02  0.1273571E+00
          2   -1    0    0  501    0  0.00000000000E+00  0.00000000000E+00  0.48227771048E+03  0.48227771048E+03  0.00000000000E+00 0. -1.
         -2   -1    0    0    0  501 -0.00000000000E+00 -0.00000000000E+00 -0.26783132081E+02  0.26783132081E+02  0.00000000000E+00 0.  1.
         25    2    1    2    0    0  0.94229351445E+01 -0.29261523072E+02  0.23223670969E+03  0.26556826940E+03  0.12509031916E+03 0.  0.
          5    1    3    3  502    0  0.54354006518E+02 -0.43134872333E+02  0.18964847590E+03  0.20198760370E+03  0.41800000000E+01 0. -1.
         -5    1    3    3    0  502 -0.44931071373E+02  0.13873349261E+02  0.42588233784E+02  0.63580665703E+02  0.41800000000E+01 0. -1.
        -11    1    1    2    0    0 -0.26226327996E+02  0.53926042235E+02  0.18782821151E+03  0.19716813979E+03  0.00000000000E+00 0.  1.
         11    1    1    2    0    0  0.16803392851E+02 -0.24664519164E+02  0.35429657197E+02  0.46324433359E+02  0.00000000000E+00 0. -1.
</event>
<event>
 7    1  0.2594791E-009  0.2137438E+03  0.7561462E-02  0.1138635E+00
         -3   -1    0    0    0  501 -0.00000000000E+00  0.00000000000E+00  0.12731002605E+03  0.12731002605E+03  0.00000000000E+00 0.  1.
          3   -1    0    0  501    0  0.00000000000E+00 -0.00000000000E+00 -0.50674260125E+03  0.50674260125E+03  0.00000000000E+00 0. -1.
         25    2    1    2    0    0  0.18866837528E+03 -0.31422263096E+02 -0.35524752814E+03  0.42241103751E+03  0.12508862422E+03 0.  0.
          5    1    3    3  502    0 -0.32798419014E+01 -0.25125881263E+02 -0.10476674883E+02  0.27736264866E+02  0.41800000000E+01 0.  1.
         -5    1    3    3    0  502  0.19194821718E+03 -0.62963818332E+01 -0.34477085326E+03  0.39467477264E+03  0.41800000000E+01 0.  1.
        -11    1    1    2    0    0 -0.11921402729E+03  0.61358677514E+02 -0.22766308882E+02  0.13599697214E+03  0.00000000000E+00 0.  1.
         11    1    1    2    0    0 -0.69454347982E+02 -0.29936414417E+02 -0.14187381767E+01  0.75644617652E+02  0.00000000000E+00 0. -1.
</event>
<event>
 7    1  0.2594791E-009  0.1629507E+03  0.7561462E-02  0.1185405E+00
          2   -1    0    0  501    0  0.00000000000E+00  0.00000000000E+00  0.20870316753E+03  0.20870316753E+03  0.00000000000E+00 0.  1.
         -2   -1    0    0    0  501 -0.00000000000E+00 -0.00000000000E+00 -0.14791718168E+03  0.14791718168E+03  0.00000000000E+00 0. -1.
         25    2    1    2    0    0 -0.13338139527E+03 -0.10313825736E+02  0.69876756215E+02  0.19602825047E+03  0.12508933734E+03 0.  0.
          5    1    3    3  502    0 -0.46033176069E+02  0.55646523908E+02  0.39201281825E+02  0.82278805405E+02  0.41800000000E+01 0. -1.
         -5    1    3    3    0  502 -0.87348219202E+02 -0.65960349645E+02  0.30675474391E+02  0.11374944506E+03  0.41800000000E+01 0. -1.
        -11    1    1    2    0    0  0.85534956840E+01  0.16988255790E+02 -0.28321278127E+02  0.34115361905E+02  0.00000000000E+00 0. -1.
         11    1    1    2    0    0  0.12482789959E+03 -0.66744300534E+01  0.19230507767E+02  0.12647673684E+03  0.00000000000E+00 0.  1.
</event>
<event>
 7    1  0.2594791E-009  0.1091149E+03  0.7561462E-02  0.1262218E+00
         -1   -1    0    0    0  501 -0.00000000000E+00  0.00000000000E+00  0.42832824118E+02  0.42832824118E+02  0.00000000000E+00 0.  1.
          1   -1    0    0  501    0  0.00000000000E+00 -0.00000000000E+00 -0.33054853229E+03  0.33054853229E+03  0.00000000000E+00 0. -1.
         25    2    1    2    0    0 -0.40909730600E+02 -0.21254878580E+01 -0.11807641734E+03  0.17683111936E+03  0.12509628566E+03 0.  0.
          5    1    3    3  502    0 -0.50886871822E+02  0.51763368579E+02 -0.88087946055E+02  0.11421855668E+03  0.41800000000E+01 0.  1.
         -5    1    3    3    0  502  0.99771412219E+01 -0.53888856437E+02 -0.29988471282E+02  0.62612562677E+02  0.41800000000E+01 0.  1.
        -11    1    1    2    0    0  0.39114398022E+02 -0.35540626578E+02 -0.13640807663E+03  0.14628819378E+03  0.00000000000E+00 0. -1.
         11    1    1    2    0    0  0.17953325774E+01  0.37666114436E+02 -0.33231214204E+02  0.50262043266E+02  0.00000000000E+00 0.  1.
</event>
<event>
 7    1  0.2594791E-009  0.9669469E+02  0.7561462E-02  0.1287404E+00
         -2   -1    0    0    0  501 -0.00000000000E+00  0.00000000000E+00  0.84685641196E+03  0.84685641196E+03  0.00000000000E+00 0.  1.
          2   -1    0    0  501    0  0.00000000000E+00 -0.00000000000E+00 -0.15671414426E+02  0.15671414426E+02  0.00000000000E+00 0. -1.
         25    2    1    2    0    0 -0.20672414608E+02  0.23213070399E+02  0.56780288434E+03  0.58224735525E+03  0.12508266016E+03 0.  0.
          5    1    3    3  502    0 -0.43957194799E+02 -0.22121481596E+02  0.46308497912E+03  0.46571103188E+03  0.41800000000E+01 0. -1.
         -5    1    3    3    0  502  0.23284780191E+02  0.45334551995E+02  0.10471790521E+03  0.11653632337E+03  0.41800000000E+01 0. -1.
        -11    1    1    2    0    0 -0.18564275870E+02 -0.44507478139E+02  0.10179687507E+03  0.11264169620E+03  0.00000000000E+00 0.  1.
         11    1    1    2    0    0  0.39236690478E+02  0.21294407740E+02  0.16158523813E+03  0.16763877493E+03  0.00000000000E+00 0. -1.
</event>
<event>
 7    1  0.3924136E-009  0.1148677E+03  0.7561462E-02  0.1251812E+00
          2   -1    0    0  501    0  0.00000000000E+00  0.00000000000E+00  0.30309880741E+03  0.30309880741E+03  0.00000000000E+00 0. -1.
         -2   -1    0    0    0  501 -0.00000000000E+00 -0.00000000000E+00 -0.57391203328E+02  0.57391203328E+02  0.00000000000E+00 0.  1.
         25    2    1    2    0    0  0.14928338207E+02  0.72645040139E+02  0.15084513547E+03  0.20950625725E+03  0.12505382758E+03 0.  0.
          5    1    3    3  502    0  0.27548721105E+02  0.10097253503E+03  0.79176796768E+02  0.13130431224E+03  0.41800000000E+01 0. -1.
         -5    1    3    3    0  502 -0.12620382898E+02 -0.28327494893E+02  0.71668338700E+02  0.78201945011E+02  0.41800000000E+01 0. -1.
        -11    1    1    2    0    0 -0.36840343317E+02 -0.40007780682E+02  0.97438332354E+02  0.11158880778E+03  0.00000000000E+00 0. -1.
         11    1    1    2    0    0  0.21912005110E+02 -0.32637259457E+02 -0.25758637452E+01  0.39394945702E+02  0.00000000000E+00 0.  1.
</event>
<event>
 7    1  0.4404296E-009  0.9706232E+02  0.7561462E-02  0.1286598E+00
          2   -1    0    0  501    0  0.00000000000E+00  0.00000000000E+00  0.64620916744E+03  0.64620916744E+03  0.00000000000E+00 0. -1.
         -2   -1    0    0    0  501 -0.00000000000E+00 -0.00000000000E+00 -0.24972671616E+02  0.24972671616E+02  0.00000000000E+00 0.  1.
         25    2    1    2    0    0 -0.13128390195E+02 -0.63965029783E+02  0.37018500515E+03  0.39616739043E+03  0.12509110097E+03 0.  0.
          5    1    3    3  502    0 -0.52039775525E+02 -0.18881973899E+02  0.29492242275E+03  0.30010227426E+03  0.41800000000E+01 0. -1.
         -5    1    3    3    0  502  0.38911385329E+02 -0.45083055884E+02  0.75262582396E+02  0.96065116172E+02  0.41800000000E+01 0. -1.
        -11    1    1    2    0    0 -0.15576180659E+02  0.34077918891E+02  0.24646326931E+02  0.44848226175E+02  0.00000000000E+00 0.  1.
         11    1    1    2    0    0  0.28704570855E+02  0.29887110893E+02  0.22640516375E+03  0.23016622245E+03  0.00000000000E+00 0. -1.
</event>
<event>
 7    1  0.2594791E-009  0.1441303E+03  0.7561462E-02  0.1207877E+00
         -2   -1    0    0    0  501 -0.00000000000E+00  0.00000000000E+00  0.33810276227E+02  0.33810276227E+02  0.00000000000E+00 0.  1.
          2   -1    0    0  501    0  0.00000000000E+00 -0.00000000000E+00 -0.67892371425E+03  0.67892371425E+03  0.00000000000E+00 0. -1.
         25    2    1    2    0    0  0.52708884915E+02  0.89835104244E+02 -0.38694999536E+03  0.41979630746E+03  0.12510023317E+03 0.  0.
          5    1    3    3  502    0  0.87091326636E+02  0.63789431325E+02 -0.33583079902E+03  0.35278008546E+03  0.41800000000E+01 0.  1.
         -5    1    3    3    0  502 -0.34382441721E+02  0.26045672920E+02 -0.51119196340E+02  0.67016221999E+02  0.41800000000E+01 0.  1.
        -11    1    1    2    0    0  0.22459462265E+02 -0.42471541139E+02 -0.11230904190E+03  0.12215391989E+03  0.00000000000E+00 0.  1.
         11    1    1    2    0    0 -0.75168347180E+02 -0.47363563105E+02 -0.14585440076E+03  0.17078376313E+03  0.00000000000E+00 0. -1.
</event>
<event>
 7    1  0.2594791E-009  0.9723442E+02  0.7561462E-02  0.1286221E+00
          4   -1    0    0  501    0  0.00000000000E+00  0.00000000000E+00  0.16466968771E+03  0.16466968771E+03  0.00000000000E+00 0. -1.
         -4   -1    0    0    0  501 -0.00000000000E+00 -0.00000000000E+00 -0.83406353915E+02  0.83406353915E+02  0.00000000000E+00 0.  1.
         25    2    1    2    0    0 -0.44491525561E+01 -0.43039029131E+02  0.42188802437E+02  0.13891990415E+03  0.12508673683E+03 0.  0.
          5    1    3    3  502    0  0.11126471982E+01  0.43133406777E+02  0.15130877054E+01  0.43376152416E+02  0.41800000000E+01 0.  1.
         -5    1    3    3    0  502 -0.55617997543E+01 -0.86172435909E+02  0.40675714731E+02  0.95543751736E+02  0.41800000000E+01 0.  1.
        -11    1    1    2    0    0  0.24760820267E+02  0.11859787950E+02 -0.23641909833E+02  0.36231101157E+02  0.00000000000E+00 0.  1.
         11    1    1    2    0    0 -0.20311667711E+02  0.31179241181E+02  0.62716441192E+02  0.72925036315E+02  0.00000000000E+00 0. -1.
</event>
<event>
 7    1  0.2594791E-009  0.1303869E+03  0.7561462E-02  0.1226883E+00
         -1   -1    0    0    0  501 -0.00000000000E+00  0.00000000000E+00  0.16678456280E+03  0.16678456280E+03  0.00000000000E+00 0.  1.
          1   -1    0    0  501    0  0.00000000000E+00 -0.00000000000E+00 -0.11158347427E+03  0.11158347427E+03  0.00000000000E+00 0. -1.
         25    2    1    2    0    0 -0.37282130878E+02 -0.42097813223E+02  0.17665693703E+02  0.13828399385E+03  0.12509277781E+03 0.  0.
          5    1    3    3  502    0  0.40859580073E+02  0.55978985706E+00  0.26247878563E+02  0.48746714530E+02  0.41800000000E+01 0. -1.
         -5    1    3    3    0  502 -0.78141710950E+02 -0.42657603080E+02 -0.85821848599E+01  0.89537279319E+02  0.41800000000E+01 0. -1.
        -11    1    1    2    0    0  0.74851368330E+02  0.95567424748E+00  0.38042538903E+01  0.74954072617E+02  0.00000000000E+00 0.  1.
         11    1    1    2    0    0 -0.37569237453E+02  0.41142138976E+02  0.33731140942E+02  0.65129970609E+02  0.00000000000E+00 0. -1.
</event>
<event>
 7    1  0.2594791E-009  0.1225222E+03  0.7561462E-02  0.1238993E+00
          2   -1    0    0  501    0  0.00000000000E+00  0.00000000000E+00  0.20372798797E+03  0.20372798797E+03  0.00000000000E+00 0. -1.
         -2   -1    0    0    0  501 -0.00000000000E+00 -0.00000000000E+00 -0.99623368943E+02  0.99623368943E+02  0.00000000000E+00 0.  1.
         25    2    1    2    0    0 -0.62507598919E+02  0.29141886191E+02 -0.75932235899E+01  0.14304353852E+03  0.12508935771E+03 0.  0.
          5    1    3    3  502    0 -0.58358064685E+02 -0.37190356846E+02 -0.25855426774E+02  0.73991633647E+02  0.41800000000E+01 0. -1.
         -5    1    3    3    0  502 -0.41495342346E+01  0.66332243038E+02  0.18262203184E+02  0.69051904868E+02  0.41800000000E+01 0. -1.
        -11    1    1    2    0    0  0.78866484236E+02 -0.37966526693E+01  0.55456459183E+02  0.96487075675E+02  0.00000000000E+00 0.  1.
         11    1    1    2    0    0 -0.16358885316E+02 -0.25345233522E+02  0.56241383433E+02  0.63820742721E+02  0.00000000000E+00 0. -1.
</event>
<event>
 7    1  0.2594791E-009  0.1198358E+03  0.7561462E-02  0.1243368E+00
         -2   -1    0    0    0  501 -0.00000000000E+00  0.00000000000E+00  0.25406021913E+03  0.25406021913E+03  0.00000000000E+00 0.  1.
          2   -1    0    0  501    0  0.00000000000E+00 -0.00000000000E+00 -0.74050485168E+02  0.74050485168E+02  0.00000000000E+00 0. -1.
         25    2    1    2    0    0  0.54700641761E+02  0.48943664673E+01  0.23048661139E+02  0.13854696817E+03  0.12509159275E+03 0.  0.
          5    1    3    3  502    0  0.91706217757E+02 -0.13122845515E+02  0.28028957013E+02  0.96877934954E+02  0.41800000000E+01 0. -1.
         -5    1    3    3    0  502 -0.37005575997E+02  0.18017211982E+02 -0.49802958744E+01  0.41669033220E+02  0.41800000000E+01 0. -1.
        -11    1    1    2    0    0  0.24295536083E+02 -0.10293713077E+02  0.49347312398E+02  0.55958831684E+02  0.00000000000E+00 0.  1.
         11    1    1    2    0    0 -0.78996177843E+02  0.53993466096E+01  0.10761376042E+03  0.13360490444E+03  0.00000000000E+00 0. -1.
</event>
<event>
 7    1  0.2594791E-009  0.1592660E+03  0.7561462E-02  0.1189528E+00
         -1   -1    0    0    0  501 -0.00000000000E+00  0.00000000000E+00  0.25212869845E+02  0.25212869845E+02  0.00000000000E+00 0.  1.
          1   -1    0    0  501    0  0.00000000000E+00 -0.00000000000E+00 -0.11787540766E+04  0.11787540766E+04  0.00000000000E+00 0. -1.
         25    2    1    2    0    0  0.74864101793E+02  0.99678165975E+02 -0.44342846695E+03  0.47730642213E+03  0.12510893171E+03 0.  0.
          5    1    3    3  502    0  0.79130796091E+02  0.11964708741E+03 -0.42787467844E+03  0.45129959147E+03  0.41800000000E+01 0. -1.
         -5    1    3    3    0  502 -0.42666942981E+01 -0.19968921438E+02 -0.15553788514E+02  0.26006830656E+02  0.41800000000E+01 0. -1.
        -11    1    1    2    0    0 -0.57047868942E+02 -0.43625523543E+01 -0.25915830631E+03  0.26539879228E+03  0.00000000000E+00 0. -1.
         11    1    1    2    0    0 -0.17816232851E+02 -0.95315613621E+02 -0.45095443354E+03  0.46126173208E+03  0.00000000000E+00 0.  1.
</event>
<event>
 7    1  0.2594791E-009  0.4072571E+03  0.7561462E-02  0.1041295E+00
          2   -1    0    0  501    0  0.00000000000E+00  0.00000000000E+00  0.11863778501E+04  0.11863778501E+04  0.00000000000E+00 0. -1.
         -2   -1    0    0    0  501 -0.00000000000E+00 -0.00000000000E+00 -0.15370445882E+03  0.15370445882E+03  0.00000000000E+00 0.  1.
         25    2    1    2    0    0  0.10493914572E+03 -0.38338331110E+03  0.69703936887E+03  0.81209726968E+03  0.12507240353E+03 0.  0.
          5    1    3    3  502    0 -0.14652212328E+02 -0.18476349373E+00  0.26709494117E+02  0.30750462430E+02  0.41800000000E+01 0.  1.
         -5    1    3    3    0  502  0.11959135805E+03 -0.38319854760E+03  0.67032987476E+03  0.78134680725E+03  0.41800000000E+01 0.  1.
        -11    1    1    2    0    0 -0.31066894020E+01  0.27104538873E+02  0.60802366919E+02  0.66642594259E+02  0.00000000000E+00 0. -1.
         11    1    1    2    0    0 -0.10183245632E+03  0.35627877222E+03  0.27483165550E+03  0.46134244501E+03  0.00000000000E+00 0.  1.
</event>
<event>
 7    1  0.2594791E-009  0.9589624E+02  0.7561462E-02  0.1289170E+00
          1   -1    0    0  501    0  0.00000000000E+00  0.00000000000E+00  0.23198438092E+02  0.23198438092E+02  0.00000000000E+00 0. -1.
         -1   -1    0    0    0  501 -0.00000000000E+00 -0.00000000000E+00 -0.56917387020E+03  0.56917387020E+03  0.00000000000E+00 0.  1.
         25    2    1    2    0    0 -0.24804871678E+02 -0.28394016945E+02 -0.30495900029E+03  0.33176522351E+03  0.12508664922E+03 0.  0.
          5    1    3    3  502    0  0.66664581476E+00 -0.55442393972E+02 -0.28298846310E+03  0.28839945581E+03  0.41800000000E+01 0. -1.
         -5    1    3    3    0  502 -0.25471517493E+02  0.27048377028E+02 -0.21970537194E+02  0.43365767695E+02  0.41800000000E+01 0. -1.
        -11    1    1    2    0    0  0.44790041176E+02 -0.18010355160E+02 -0.12842670127E+03  0.13720035816E+03  0.00000000000E+00 0.  1.
         11    1    1    2    0    0 -0.19985169498E+02  0.46404372105E+02 -0.11258973055E+03  0.12340672662E+03  0.00000000000E+00 0. -1.
</event>
<event>
 7    1  0.2594791E-009  0.1168439E+03  0.7561462E-02  0.1248396E+00
          1   -1    0    0  501    0  0.00000000000E+00  0.00000000000E+00  0.93354617491E+02  0.93354617491E+02  0.00000000000E+00 0. -1.
         -1   -1    0    0    0  501 -0.00000000000E+00 -0.00000000000E+00 -0.23381127411E+03  0.23381127411E+03  0.00000000000E+00 0.  1.
         25    2    1    2    0    0  0.23003723721E+02  0.78312459299E+02 -0.12873977644E+02  0.14991566694E+03  0.12508779040E+03 0.  0.
          5    1    3    3  502    0  0.83526799242E+01  0.10297087935E+03 -0.39378898180E+02  0.11063877836E+03  0.41800000000E+01 0.  1.
         -5    1    3    3    0  502  0.14651043796E+02 -0.24658420052E+02  0.26504920537E+02  0.39276888579E+02  0.41800000000E+01 0.  1.
        -11    1    1    2    0    0 -0.42201796576E+02 -0.66521571023E+02 -0.43065460081E+02  0.89781651230E+02  0.00000000000E+00 0. -1.
         11    1    1    2    0    0  0.19198072855E+02 -0.11790888276E+02 -0.84517218894E+02  0.87468573426E+02  0.00000000000E+00 0.  1.
</event>
<event>
 7    1  0.2594791E-009  0.2106954E+03  0.7561462E-02  0.1141016E+00
         -1   -1    0    0    0  501 -0.00000000000E+00  0.00000000000E+00  0.70442970974E+02  0.70442970974E+02  0.00000000000E+00 0.  1.
          1   -1    0    0  501    0  0.00000000000E+00 -0.00000000000E+00 -0.72279518801E+03  0.72279518801E+03  0.00000000000E+00 0. -1.
         25    2    1    2    0    0 -0.31590741386E+01 -0.18216570583E+03 -0.47327121237E+03  0.52232908633E+03  0.12509080636E+03 0.  0.
          5    1    3    3  502    0  0.36641512834E+02 -0.17336953528E+03 -0.34821148398E+03  0.39072791838E+03  0.41800000000E+01 0. -1.
         -5    1    3    3    0  502 -0.39800586973E+02 -0.87961705436E+01 -0.12505972839E+03  0.13160116795E+03  0.41800000000E+01 0. -1.
        -11    1    1    2    0    0 -0.39621071060E+02  0.12888520046E+03 -0.12302951552E+03  0.18253078058E+03  0.00000000000E+00 0.  1.
         11    1    1    2    0    0  0.42780145198E+02  0.53280505371E+02 -0.56051489152E+02  0.88378292085E+02  0.00000000000E+00 0. -1.
</event>
<event>
 7    1  0.4218050E-009  0.1628751E+03  0.7561462E-02  0.1185488E+00
          2   -1    0    0  501    0  0.00000000000E+00  0.00000000000E+00  0.55297065236E+03  0.55297065236E+03  0.00000000000E+00 0. -1.
         -2   -1    0    0    0  501 -0.00000000000E+00 -0.00000000000E+00 -0.56999917493E+02  0.56999917493E+02  0.00000000000E+00 0.  1.
         25    2    1    2    0    0  0.85434863993E+02 -0.10931570652E+03  0.22696294206E+03  0.29395264934E+03  0.12508774243E+03 0.  0.
          5    1    3    3  502    0  0.11816786940E+03 -0.81195213635E+02  0.17577801796E+03  0.22687373597E+03  0.41800000000E+01 0.  1.
         -5    1    3    3    0  502 -0.32733005409E+02 -0.28120492889E+02  0.51184924094E+02  0.67078913363E+02  0.41800000000E+01 0.  1.
        -11    1    1    2    0    0 -0.25435933336E+02  0.38500212341E+02  0.20031943475E+02  0.50304391601E+02  0.00000000000E+00 0.  1.
         11    1    1    2    0    0 -0.59998930657E+02  0.70815494183E+02  0.24897584933E+03  0.26571352891E+03  0.00000000000E+00 0. -1.
</event>
<event>
 7    1  0.2594791E-009  0.6959979E+02  0.7561462E-02  0.1361459E+00
         -2   -1    0    0    0  501 -0.00000000000E+00  0.00000000000E+00  0.13370992143E+03  0.13370992143E+03  0.00000000000E+00 0.  1.
          2   -1    0    0  501    0  0.00000000000E+00 -0.00000000000E+00 -0.10178365119E+03  0.10178365119E+03  0.00000000000E+00 0. -1.
         25    2    1    2    0    0  0.20970664359E+02 -0.14162576287E+02  0.51770635965E+02  0.13772665320E+03  0.12509230561E+03 0.  0.
          5    1    3    3  502    0  0.59684743831E+02 -0.18923073787E+02 -0.10997091649E+02  0.63708396561E+02  0.41800000000E+01 0. -1.
         -5    1    3    3    0  502 -0.38714079472E+02  0.47604974998E+01  0.62767727614E+02  0.74018256638E+02  0.41800000000E+01 0. -1.
        -11    1    1    2    0    0 -0.20208414323E+02 -0.26563998885E+01  0.34941871189E+02  0.40452080688E+02  0.00000000000E+00 0.  1.
         11    1    1    2    0    0 -0.76225003590E+00  0.16818976175E+02 -0.54786236914E+02  0.57314838741E+02  0.00000000000E+00 0. -1.
</event>
<event>
 7    1  0.2594791E-009  0.1249470E+03  0.7561462E-02  0.1235152E+00
         -1   -1    0    0    0  501 -0.00000000000E+00  0.00000000000E+00  0.56549769806E+02  0.56549769806E+02  0.00000000000E+00 0.  1.
          1   -1    0    0  501    0  0.00000000000E+00 -0.00000000000E+00 -0.35151973421E+03  0.35151973421E+03  0.00000000000E+00 0. -1.
         25    2    1    2    0    0 -0.36315239289E+02  0.76671352475E+02 -0.21619736416E+03  0.26379109219E+03  0.12508855724E+03 0.  0.
          5    1    3    3  502    0  0.38495648497E+02  0.50815660281E+02 -0.13978784305E+03  0.15369534719E+03  0.41800000000E+01 0. -1.
         -5    1    3    3    0  502 -0.74810887786E+02  0.25855692194E+02 -0.76409521113E+02  0.11009574500E+03  0.41800000000E+01 0. -1.
        -11    1    1    2    0    0  0.54993908219E+02 -0.62811017906E+02 -0.27366105270E+02  0.87854753026E+02  0.00000000000E+00 0.  1.
         11    1    1    2    0    0 -0.18678668930E+02 -0.13860334569E+02 -0.51406494968E+02  0.56423658799E+02  0.00000000000E+00 0. -1.
</event>
<event>
 7    1  0.2594791E-009  0.1270583E+03  0.7561462E-02  0.1231887E+00
         -2   -1    0    0    0  501 -0.00000000000E+00  0.00000000000E+00  0.35437142899E+02  0.35437142899E+02  0.00000000000E+00 0.  1.
          2   -1    0    0  501    0  0.00000000000E+00 -0.00000000000E+00 -0.58778182156E+03  0.58778182156E+03  0.00000000000E+00 0. -1.
         25    2    1    2    0    0  0.26663611725E+02  0.74457108983E+02 -0.40092859892E+03  0.42737096335E+03  0.12508952640E+03 0.  0.
          5    1    3    3  502    0 -0.42363831907E+02 -0.19180813878E+01 -0.15454830279E+03  0.16031538786E+03  0.41800000000E+01 0. -1.
         -5    1    3    3    0  502  0.69027443632E+02  0.76375190371E+02 -0.24638029613E+03  0.26705557549E+03  0.41800000000E+01 0. -1.
        -11    1    1    2    0    0  0.23387021473E+02 -0.44148684072E+02 -0.11875751927E+03  0.12883868775E+03  0.00000000000E+00 0.  1.
         11    1    1    2    0    0 -0.50050633198E+02 -0.30308424912E+02 -0.32658560468E+02  0.67009313352E+02  0.00000000000E+00 0. -1.
</event>
<event>
 7    1  0.2594791E-009  0.2284881E+03  0.7561462E-02  0.1127708E+00
          2   -1    0    0  501    0  0.00000000000E+00  0.00000000000E+00  0.69518113286E+03  0.69518113286E+03  0.00000000000E+00 0. -1.
         -2   -1    0    0    0  501 -0.00000000000E+00 -0.00000000000E+00 -0.84818670135E+02  0.84818670135E+02  0.00000000000E+00 0.  1.
         25    2    1    2    0    0 -0.20208427898E+03  0.30605043041E+02  0.42990902212E+03  0.49218284875E+03  0.12508982707E+03 0.  0.
          5    1    3    3  502    0 -0.19915399251E+03 -0.76760528501E+01  0.37959989694E+03  0.42875959310E+03  0.41800000000E+01 0.  1.
         -5    1    3    3    0  502 -0.29302864737E+01  0.38281095891E+02  0.50309125179E+02  0.63423255654E+02  0.41800000000E+01 0.  1.
        -11    1    1    2    0    0  0.15148938264E+03  0.13232145330E+02  0.95148652636E+02  0.17938056980E+03  0.00000000000E+00 0.  1.
         11    1    1    2    0    0  0.50594896336E+02 -0.43837188371E+02  0.85304787971E+02  0.10843638444E+03  0.00000000000E+00 0. -1.
</event>
<event>
 7    1  0.2594791E-009  0.1177084E+03  0.7561462E-02  0.1246926E+00
         -4   -1    0    0    0  501 -0.00000000000E+00  0.00000000000E+00  0.53801111987E+02  0.53801111987E+02  0.00000000000E+00 0.  1.
          4   -1    0    0  501    0  0.00000000000E+00 -0.00000000000E+00 -0.44109016480E+03  0.44109016480E+03  0.00000000000E+00 0. -1.
         25    2    1    2    0    0  0.81000204857E+02 -0.63107041900E+02 -0.14930495203E+03  0.22018452515E+03  0.12508287050E+03 0.  0.
          5    1    3    3  502    0  0.43046140614E+02 -0.17569908853E+02  0.12068822408E+02  0.48216188082E+02  0.41800000000E+01 0.  1.
         -5    1    3    3    0  502  0.37954064244E+02 -0.45537133047E+02 -0.16137377444E+03  0.17196833707E+03  0.41800000000E+01 0.  1.
        -11    1    1    2    0    0 -0.80525194380E+02  0.79353750537E+02 -0.16553877555E+03  0.20046049702E+03  0.00000000000E+00 0. -1.
         11    1    1    2    0    0 -0.47501047781E+00 -0.16246708637E+02 -0.72445325230E+02  0.74246254613E+02  0.00000000000E+00 0.  1.
</event>
<event>
 7    1  0.2594791E-009  0.1036855E+03  0.7561462E-02  0.1272731E+00
          1   -1    0    0  501    0  0.00000000000E+00  0.00000000000E+00  0.74092091763E+02  0.74092091763E+02  0.00000000000E+00 0.  1.
         -1   -1    0    0    0  501 -0.00000000000E+00 -0.00000000000E+00 -0.19579315915E+03  0.19579315915E+03  0.00000000000E+00 0. -1.
         25    2    1    2    0    0 -0.22412167625E+02 -0.16836692163E+02 -0.19086585681E+02  0.12964408719E+03  0.12512998093E+03 0.  0.
          5    1    3    3  502    0 -0.12707674153E+01 -0.66712793118E+02 -0.31509780260E+02  0.73909067559E+02  0.41800000000E+01 0. -1.
         -5    1    3    3    0  502 -0.21141400210E+02  0.49876100955E+02  0.12423194579E+02  0.55735019627E+02  0.41800000000E+01 0. -1.
        -11    1    1    2    0    0 -0.29545085819E+02  0.17272141066E+02 -0.12914390720E+02  0.36578961723E+02  0.00000000000E+00 0.  1.
         11    1    1    2    0    0  0.51957253444E+02 -0.43544890361E+00 -0.89700090981E+02  0.10366220200E+03  0.00000000000E+00 0. -1.
</event>
<event>
 7    1  0.2594791E-009  0.1165762E+03  0.7561462E-02  0.1248855E+00
         -1   -1    0    0    0  501 -0.00000000000E+00  0.00000000000E+00  0.21180256569E+03  0.21180256569E+03  0.00000000000E+00 0.  1.
          1   -1    0    0  501    0  0.00000000000E+00 -0.00000000000E+00 -0.14212808148E+03  0.14212808148E+03  0.00000000000E+00 0. -1.
         25    2    1    2    0    0 -0.53907267250E+02  0.49729785123E+02  0.15047452254E+03  0.20897159943E+03  0.12508997740E+03 0.  0.
          5    1    3    3  502    0 -0.19843922098E+02  0.89079975669E+02  0.10945647894E+03  0.14257354765E+03  0.41800000000E+01 0. -1.
         -5    1    3    3    0  502 -0.34063345151E+02 -0.39350190546E+02  0.41018043604E+02  0.66398051779E+02  0.41800000000E+01 0. -1.
        -11    1    1    2    0    0  0.62544599721E+02 -0.32916028163E+02 -0.96406618134E+01  0.71331859814E+02  0.00000000000E+00 0.  1.
         11    1    1    2    0    0 -0.86373324714E+01 -0.16813756960E+02 -0.71159376513E+02  0.73627187920E+02  0.00000000000E+00 0. -1.
</event>
<event>
 7    1  0.2594791E-009  0.1663732E+03  0.7561462E-02  0.1181684E+00
          2   -1    0    0  501    0  0.00000000000E+00  0.00000000000E+00  0.67054174097E+03  0.67054174097E+03  0.00000000000E+00 0. -1.
         -2   -1    0    0    0  501 -0.00000000000E+00 -0.00000000000E+00 -0.57475505354E+02  0.57475505354E+02  0.00000000000E+00 0.  1.
         25    2    1    2    0    0 -0.12645220814E+03 -0.80187255489E+02  0.20002204621E+03  0.27942060276E+03  0.12508755889E+03 0.  0.
          5    1    3    3  502    0 -0.43829922893E+02  0.11510312952E+02  0.12936568712E+03  0.13713680341E+03  0.41800000000E+01 0. -1.
         -5    1    3    3    0  502 -0.82622285244E+02 -0.91697568441E+02  0.70656359085E+02  0.14228379935E+03  0.41800000000E+01 0. -1.
        -11    1    1    2    0    0  0.89618833891E+01  0.37779668102E+02  0.42503525871E+02  0.57568814364E+02  0.00000000000E+00 0.  1.
         11    1    1    2    0    0  0.11749032475E+03  0.42407587387E+02  0.37054066354E+03  0.39102782920E+03  0.00000000000E+00 0. -1.
</event>
<event>
 7    1  0.2594791E-009  0.2208560E+03  0.7561462E-02  0.1133247E+00
          2   -1    0    0  501    0  0.00000000000E+00  0.00000000000E+00  0.90558123381E+03  0.90558123381E+03  0.00000000000E+00 0. -1.
         -2   -1    0    0    0  501 -0.00000000000E+00 -0.00000000000E+00 -0.59738113120E+02  0.59738113120E+02  0.00000000000E+00 0.  1.
         25    2    1    2    0    0  0.14559500881E+03  0.14393254282E+03  0.41785366716E+03  0.48183368393E+03  0.12509008090E+03 0.  0.
          5    1    3    3  502    0  0.21329636200E+02 -0.19820024727E+02  0.91503333455E+02  0.96115135093E+02  0.41800000000E+01 0. -1.
         -5    1    3    3    0  502  0.12426537261E+03  0.16375256755E+03  0.32635033370E+03  0.38571854883E+03  0.41800000000E+01 0. -1.
        -11    1    1    2    0    0 -0.78605938159E+02 -0.97217455581E+02  0.15837867460E+03  0.20177693563E+03  0.00000000000E+00 0.  1.
         11    1    1    2    0    0 -0.66989070647E+02 -0.46715087243E+02  0.26961077893E+03  0.28170872738E+03  0.00000000000E+00 0. -1.
</event>
<event>
 7    1  0.2594791E-009  0.1096988E+03  0.7561462E-02  0.1261129E+00
         -1   -1    0    0    0  501 -0.00000000000E+00  0.00000000000E+00  0.53324702985E+03  0.53324702985E+03  0.00000000000E+00 0.  1.
          1   -1    0    0  501    0  0.00000000000E+00 -0.00000000000E+00 -0.56319900209E+02  0.56319900209E+02  0.00000000000E+00 0. -1.
         25    2    1    2    0    0 -0.63381132754E+02 -0.71384175721E+02  0.91264979473E+02  0.18191398569E+03  0.12510209103E+03 0.  0.
          5    1    3    3  502    0 -0.37974858066E+02 -0.44128394714E+02 -0.22174531497E+02  0.62438668406E+02  0.41800000000E+01 0.  1.
         -5    1    3    3    0  502 -0.25406274688E+02 -0.27255781007E+02  0.11343951097E+03  0.11947531729E+03  0.41800000000E+01 0.  1.
        -11    1    1    2    0    0  0.80076462133E+02  0.70707063977E+02  0.36861640114E+03  0.38378350651E+03  0.00000000000E+00 0.  1.
         11    1    1    2    0    0 -0.16695329379E+02  0.67711174382E+00  0.17045749033E+02  0.23869437854E+02  0.00000000000E+00 0. -1.
</event>
<event>
 7    1  0.2594791E-009  0.1062562E+03  0.7561462E-02  0.1267664E+00
          1   -1    0    0  501    0  0.00000000000E+00  0.00000000000E+00  0.16322620070E+03  0.16322620070E+03  0.00000000000E+00 0. -1.
         -1   -1    0    0    0  501 -0.00000000000E+00 -0.00000000000E+00 -0.14426055761E+03  0.14426055761E+03  0.00000000000E+00 0.  1.
         25    2    1    2    0    0  0.37266776799E+02  0.39006942255E+02 -0.81886835809E+02  0.15894626717E+03  0.12509239693E+03 0.  0.
          5    1    3    3  502    0 -0.29397624469E+02  0.82612536824E+00  0.16554235338E+02  0.34006145256E+02  0.41800000000E+01 0. -1.
         -5    1    3    3    0  502  0.66664401267E+02  0.38180816886E+02 -0.98441071147E+02  0.12494012191E+03  0.41800000000E+01 0. -1.
        -11    1    1    2    0    0 -0.49470521921E+02 -0.62312578993E+02  0.58781614371E+02  0.98921525605E+02  0.00000000000E+00 0. -1.
         11    1    1    2    0    0  0.12203745123E+02  0.23305636738E+02  0.42070864527E+02  0.49618965536E+02  0.00000000000E+00 0.  1.
</event>
<event>
 7    1  0.2594791E-009  0.9349377E+02  0.7561462E-02  0.1294605E+00
          1   -1    0    0  501    0  0.00000000000E+00  0.00000000000E+00  0.49253870846E+02  0.49253870846E+02  0.00000000000E+00 0. -1.
         -1   -1    0    0    0  501 -0.00000000000E+00 -0.00000000000E+00 -0.27267453162E+03  0.27267453162E+03  0.00000000000E+00 0.  1.
         25    2    1    2    0    0 -0.25191973456E+02 -0.71412592594E+01 -0.86516062378E+02  0.15433123008E+03  0.12508983340E+03 0.  0.
          5    1    3    3  502    0 -0.36101244669E+02  0.32671553812E+02  0.94546228336E+01  0.49775421526E+02  0.41800000000E+01 0.  1.
         -5    1    3    3    0  502  0.10909271214E+02 -0.39812813071E+02 -0.95970685212E+02  0.10455580856E+03  0.41800000000E+01 0.  1.
        -11    1    1    2    0    0  0.11833341301E+02  0.50183203972E+02 -0.75670733868E+02  0.91566598121E+02  0.00000000000E+00 0.  1.
         11    1    1    2    0    0  0.13358632154E+02 -0.43041944713E+02 -0.61233864528E+02  0.76030574263E+02  0.00000000000E+00 0. -1.
</event>
<event>
 7    1  0.2594791E-009  0.1220093E+03  0.7561462E-02  0.1239819E+00
          3   -1    0    0  501    0  0.00000000000E+00  0.00000000000E+00  0.32395501321E+03  0.32395501321E+03  0.00000000000E+00 0. -1.
         -3   -1    0    0    0  501 -0.00000000000E+00 -0.00000000000E+00 -0.47197242300E+02  0.47197242300E+02  0.00000000000E+00 0.  1.
         25    2    1    2    0    0  0.63368765215E+01  0.59979844597E+02  0.14769387949E+03  0.20272923095E+03  0.12509165152E+03 0.  0.
          5    1    3    3  502    0  0.15710244023E+02 -0.35888351170E+02  0.24905269735E+02  0.46610410613E+02  0.41800000000E+01 0. -1.
         -5    1    3    3    0  502 -0.93733675012E+01  0.95868195767E+02  0.12278860975E+03  0.15611882034E+03  0.41800000000E+01 0. -1.
        -11    1    1    2    0    0 -0.42726324933E+02 -0.57626885687E+02  0.86207590593E+02  0.11215233155E+03  0.00000000000E+00 0.  1.
         11    1    1    2    0    0  0.36389448411E+02 -0.23529589103E+01  0.42856300833E+02  0.56270693015E+02  0.00000000000E+00 0. -1.
</event>
<event>
 7    1  0.2594791E-009  0.1217614E+03  0.7561462E-02  0.1240219E+00
          2   -1    0    0  501    0  0.00000000000E+00  0.00000000000E+00  0.40802022299E+03  0.40802022299E+03  0.00000000000E+00 0.  1.
         -2   -1    0    0    0  501 -0.00000000000E+00 -0.00000000000E+00 -0.57945265061E+02  0.57945265061E+02  0.00000000000E+00 0. -1.
         25    2    1    2    0    0 -0.10958347150E+03 -0.62115182922E+01  0.17191711337E+03  0.23927073013E+03  0.12509143952E+03 0.  0.
          5    1    3    3  502    0 -0.15017773872E+02 -0.75829716461E+01  0.13742638368E+03  0.13851540825E+03  0.41800000000E+01 0.  1.
         -5    1    3    3    0  502 -0.94565697631E+02  0.13714533538E+01  0.34490729692E+02  0.10075532188E+03  0.41800000000E+01 0.  1.
        -11    1    1    2    0    0  0.10962252319E+03 -0.14703933971E+02  0.17269486308E+03  0.20507759263E+03  0.00000000000E+00 0.  1.
         11    1    1    2    0    0 -0.39051689385E-01  0.20915452263E+02  0.54629814739E+01  0.21617165286E+02  0.00000000000E+00 0. -1.
</event>
<event>
 7    1  0.2594791E-009  0.1051674E+03  0.7561462E-02  0.1269790E+00
          3   -1    0    0  501    0  0.00000000000E+00  0.00000000000E+00  0.10028493307E+03  0.10028493307E+03  0.00000000000E+00 0. -1.
         -3   -1    0    0    0  501 -0.00000000000E+00 -0.00000000000E+00 -0.17373937050E+03  0.17373937050E+03  0.00000000000E+00 0.  1.
         25    2    1    2    0    0 -0.26464327522E+02  0.57589660292E+02 -0.80577808252E+02  0.16172993021E+03  0.12508739960E+03 0.  0.
          5    1    3    3  502    0 -0.66740234894E+02 -0.23229407172E+00 -0.55217490444E+02  0.86722295663E+02  0.41800000000E+01 0. -1.
         -5    1    3    3    0  502  0.40275907372E+02  0.57821954364E+02 -0.25360317808E+02  0.75007634547E+02  0.41800000000E+01 0. -1.
        -11    1    1    2    0    0  0.14972822668E+02 -0.59383841680E+02  0.42835352877E+02  0.74736159437E+02  0.00000000000E+00 0. -1.
         11    1    1    2    0    0  0.11491504854E+02  0.17941813876E+01 -0.35711982052E+02  0.37558213919E+02  0.00000000000E+00 0.  1.
</event>
<event>
 7    1  0.2594791E-009  0.1190728E+03  0.7561462E-02  0.1244635E+00
          2   -1    0    0  501    0  0.00000000000E+00  0.00000000000E+00  0.18530989361E+03  0.18530989361E+03  0.00000000000E+00 0.  1.
         -2   -1    0    0    0  501 -0.00000000000E+00 -0.00000000000E+00 -0.17874312074E+03  0.17874312074E+03  0.00000000000E+00 0. -1.
         25    2    1    2    0    0 -0.32568117116E+02  0.71709718306E+02  0.12620199104E+03  0.19436585622E+03  0.12509267592E+03 0.  0.
          5    1    3    3  502    0 -0.53911635192E+02 -0.99858413712E-01  0.84340588285E+01  0.54727325251E+02  0.41800000000E+01 0. -1.
         -5    1    3    3    0  502  0.21343518077E+02  0.71809576720E+02  0.11776793221E+03  0.13963853096E+03  0.41800000000E+01 0. -1.
        -11    1    1    2    0    0 -0.22138044193E+02 -0.48687320775E+01 -0.61570240650E+02  0.65610152312E+02  0.00000000000E+00 0. -1.
         11    1    1    2    0    0  0.54706161309E+02 -0.66840986228E+02 -0.58064977521E+02  0.10407700582E+03  0.00000000000E+00 0.  1.
</event>
<event>
 6    1  0.2594791E-009  0.1500397E+03  0.7561462E-02  0.1200424E+00
         -2   -1    0    0    0  501 -0.00000000000E+00  0.00000000000E+00  0.43277986890E+03  0.43277986890E+03  0.00000000000E+00 0.  1.
          2   -1    0    0  501    0  0.00000000000E+00 -0.00000000000E+00 -0.63815131643E+02  0.63815131643E+02  0.00000000000E+00 0. -1.
          5    1    1    2  502    0  0.26848163054E+02  0.55157130846E+02  0.50793476631E+02  0.79753260816E+02  0.41800000000E+01 0.  1.
         -5    1    1    2    0  502  0.98116382796E+02 -0.57102864486E+02  0.14375773151E+03  0.18322477855E+03  0.41800000000E+01 0.  1.
        -11    1    1    2    0    0 -0.73433334685E+02  0.20215082414E+01  0.28370469641E+02  0.78749124987E+02  0.00000000000E+00 0. -1.
         11    1    1    2    0    0 -0.51531211164E+02 -0.75774600984E-01  0.14604305947E+03  0.15486783619E+03  0.00000000000E+00 0.  1.
</event>
<event>
 7    1  0.2594791E-009  0.9684792E+02  0.7561462E-02  0.1287068E+00
          3   -1    0    0  501    0  0.00000000000E+00  0.00000000000E+00  0.18057238755E+03  0.18057238755E+03  0.00000000000E+00 0. -1.
         -3   -1    0    0    0  501 -0.00000000000E+00 -0.00000000000E+00 -0.90097416673E+02  0.90097416673E+02  0.00000000000E+00 0.  1.
         25    2    1    2    0    0 -0.62201239248E+02  0.22881486761E+02  0.63933459392E+02  0.15532301998E+03  0.12508076073E+03 0.  0.
          5    1    3    3  502    0  0.13073308700E+02  0.19453811624E+02  0.75326524062E+02  0.78999492494E+02  0.41800000000E+01 0. -1.
         -5    1    3    3    0  502 -0.75274547947E+02  0.34276751371E+01 -0.11393064670E+02  0.76323527487E+02  0.41800000000E+01 0. -1.
        -11    1    1    2    0    0 -0.14626505855E+02 -0.56703136718E+01 -0.18805386514E+02  0.24489379180E+02  0.00000000000E+00 0.  1.
         11    1    1    2    0    0  0.76827745103E+02 -0.17211173090E+02  0.45346898001E+02  0.90857405065E+02  0.00000000000E+00 0. -1.
</event>
<event>
 7    1  0.2594791E-009  0.6106403E+02  0.7561462E-02  0.1393420E+00
          2   -1    0    0  501    0  0.00000000000E+00  0.00000000000E+00  0.68091361984E+03  0.68091361984E+03  0.00000000000E+00 0. -1.
         -2   -1    0    0    0  501 -0.00000000000E+00 -0.00000000000E+00 -0.21540762116E+02  0.21540762116E+02  0.00000000000E+00 0.  1.
         25    2    1    2    0    0 -0.66587338047E+01  0.10326592523E+02  0.49317645349E+03  0.50894106784E+03  0.12508804501E+03 0.  0.
          5    1    3    3  502    0 -0.28187043625E+02 -0.17122060151E+02  0.45806700695E+03  0.45927173833E+03  0.41800000000E+01 0.  1.
         -5    1    3    3    0  502  0.21528309821E+02  0.27448652675E+02  0.35109446540E+02  0.49669329508E+02  0.41800000000E+01 0.  1.
        -11    1    1    2    0    0  0.55304519778E+01  0.21349681361E+02 -0.21963368501E+01  0.22163453901E+02  0.00000000000E+00 0.  1.
         11    1    1    2    0    0  0.11282818270E+01 -0.31676273884E+02  0.16839274108E+03  0.17134986021E+03  0.00000000000E+00 0. -1.
</event>
<event>
 7    1  0.2594791E-009  0.1279580E+03  0.7561462E-02  0.1230518E+00
         -2   -1    0    0    0  501 -0.00000000000E+00  0.00000000000E+00  0.40003969892E+02  0.40003969892E+02  0.00000000000E+00 0.  1.
          2   -1    0    0  501    0  0.00000000000E+00 -0.00000000000E+00 -0.85758676792E+03  0.85758676792E+03  0.00000000000E+00 0. -1.
         25    2    1    2    0    0  0.12081532965E+03  0.21177365306E+02 -0.63405902577E+03  0.65781692280E+03  0.12508969213E+03 0.  0.
          5    1    3    3  502    0  0.64552893307E+02 -0.61387389985E+01 -0.54528772080E+03  0.54914563733E+03  0.41800000000E+01 0.  1.
         -5    1    3    3    0  502  0.56262436343E+02  0.27316104305E+02 -0.88771304973E+02  0.10867128546E+03  0.41800000000E+01 0.  1.
        -11    1    1    2    0    0 -0.48466739274E+02  0.99777509520E+01 -0.11837544322E+02  0.50879345372E+02  0.00000000000E+00 0.  1.
         11    1    1    2    0    0 -0.72348590376E+02 -0.31155116259E+02 -0.17168622793E+03  0.18889446964E+03  0.00000000000E+00 0. -1.
</event>
<event>
 6    1  0.2594791E-009  0.1220057E+03  0.7561462E-02  0.1239824E+00
          2   -1    0    0  501    0  0.00000000000E+00  0.00000000000E+00  0.14754130146E+03  0.14754130146E+03  0.00000000000E+00 0.  1.
         -2   -1    0    0    0  501 -0.00000000000E+00 -0.00000000000E+00 -0.10581754614E+03  0.10581754614E+03  0.00000000000E+00 0. -1.
          5    1    1    2  502    0  0.37720961615E+01 -0.97153786602E+02  0.18630502020E+02  0.99084080285E+02  0.41800000000E+01 0.  1.
         -5    1    1    2    0  502 -0.51414245858E+01  0.37145238228E+02 -0.11374789367E+02  0.39408897509E+02  0.41800000000E+01 0.  1.
        -11    1    1    2    0    0 -0.18086336821E+02 -0.19800062741E+02  0.33586287673E+01  0.27026624861E+02  0.00000000000E+00 0.  1.
         11    1    1    2    0    0  0.19455665245E+02  0.79808611115E+02  0.31109413906E+02  0.87839244941E+02  0.00000000000E+00 0. -1.
</event>
<event>
 7    1  0.2594791E-009  0.9786381E+02  0.7561462E-02  0.1284853E+00
         -2   -1    0    0    0  501 -0.00000000000E+00  0.00000000000E+00  0.59016075702E+03  0.59016075702E+03  0.00000000000E+00 0.  1.
          2   -1    0    0  501    0  0.00000000000E+00 -0.00000000000E+00 -0.22494229436E+02  0.22494229436E+02  0.00000000000E+00 0. -1.
         25    2    1    2    0    0  0.17075030773E+02 -0.32054214979E+02  0.37697325252E+03  0.39884245735E+03  0.12508974098E+03 0.  0.
          5    1    3    3  502    0 -0.44426540353E+02 -0.30957555820E+02  0.26970322399E+03  0.27511704633E+03  0.41800000000E+01 0.  1.
         -5    1    3    3    0  502  0.61501571126E+02 -0.10966591587E+01  0.10727002853E+03  0.12372541103E+03  0.41800000000E+01 0.  1.
        -11    1    1    2    0    0 -0.20386669923E+02 -0.19436629443E+02  0.17649610849E+02  0.33240150989E+02  0.00000000000E+00 0. -1.
         11    1    1    2    0    0  0.33116391498E+01  0.51490844422E+02  0.17304366421E+03  0.18057237811E+03  0.00000000000E+00 0.  1.
</event>
<event>
 7    1  0.2594791E-009  0.1615857E+03  0.7561462E-02  0.1186918E+00
         -1   -1    0    0    0  501 -0.00000000000E+00  0.00000000000E+00  0.10251122653E+03  0.10251122653E+03  0.00000000000E+00 0.  1.
          1   -1    0    0  501    0  0.00000000000E+00 -0.00000000000E+00 -0.35110063919E+03  0.35110063919E+03  0.00000000000E+00 0. -1.
         25    2    1    2    0    0  0.12875571125E+03  0.57734620418E+02 -0.46576302869E+02  0.19424079850E+03  0.12509522868E+03 0.  0.
          5    1    3    3  502    0  0.13553761223E+03  0.38383970262E+02  0.24328377778E+01  0.14095092977E+03  0.41800000000E+01 0.  1.
         -5    1    3    3    0  502 -0.67819009850E+01  0.19350650156E+02 -0.49009140647E+02  0.53289868731E+02  0.41800000000E+01 0.  1.
        -11    1    1    2    0    0 -0.92766702425E+01 -0.39351393748E+02 -0.66029247778E+02  0.77423835883E+02  0.00000000000E+00 0.  1.
         11    1    1    2    0    0 -0.11947904100E+03 -0.18383226670E+02 -0.13598386202E+03  0.18194723134E+03  0.00000000000E+00 0. -1.
</event>
<event>
 7    1  0.2776493E-009  0.1173378E+03  0.7561462E-02  0.1247555E+00
         -1   -1    0    0    0  501 -0.00000000000E+00  0.00000000000E+00  0.53072940330E+02  0.53072940330E+02  0.00000000000E+00 0.  1.
          1   -1    0    0  501    0  0.00000000000E+00 -0.00000000000E+00 -0.46682335729E+03  0.46682335729E+03  0.00000000000E+00 0. -1.
         25    2    1    2    0    0 -0.92964247995E+02 -0.35544103493E+02 -0.31284567326E+03  0.35132134715E+03  0.12509412050E+03 0.  0.
          5    1    3    3  502    0 -0.93180310860E+02  0.58978422325E+01 -0.11045877053E+03  0.14469266485E+03  0.41800000000E+01 0.  1.
         -5    1    3    3    0  502  0.21606286452E+00 -0.41441945725E+02 -0.20238690273E+03  0.20662868230E+03  0.41800000000E+01 0.  1.
        -11    1    1    2    0    0  0.40138349069E+02  0.16747417922E+02  0.97081463141E+01  0.44562441337E+02  0.00000000000E+00 0.  1.
         11    1    1    2    0    0  0.52825898926E+02  0.18796685571E+02 -0.11061289001E+03  0.12401250913E+03  0.00000000000E+00 0. -1.
</event>
<event>
 7    1  0.2594791E-009  0.1164726E+03  0.7561462E-02  0.1249032E+00
         -2   -1    0    0    0  501 -0.00000000000E+00  0.00000000000E+00  0.12377801150E+03  0.12377801150E+03  0.00000000000E+00 0.  1.
          2   -1    0    0  501    0  0.00000000000E+00 -0.00000000000E+00 -0.31361902942E+03  0.31361902942E+03  0.00000000000E+00 0. -1.
         25    2    1    2    0    0 -0.74669673787E+02  0.70001454565E+02  0.43431419880E+02  0.16736013109E+03  0.12508941371E+03 0.  0.
          5    1    3    3  502    0 -0.57183762587E+01  0.15039132338E+02 -0.41595962955E+02  0.44794774948E+02  0.41800000000E+01 0. -1.
         -5    1    3    3    0  502 -0.68951297528E+02  0.54962322227E+02  0.85027382835E+02  0.12256535615E+03  0.41800000000E+01 0. -1.
        -11    1    1    2    0    0  0.67815745704E+02 -0.86655155368E+02 -0.22447455807E+03  0.24999383700E+03  0.00000000000E+00 0.  1.
         11    1    1    2    0    0  0.68539280833E+01  0.16653700804E+02 -0.87978797321E+01  0.20043072828E+02  0.00000000000E+00 0. -1.
</event>
<event>
 7    1  0.2594791E-009  0.8684969E+02  0.7561462E-02  0.1310665E+00
          2   -1    0    0  501    0  0.00000000000E+00  0.00000000000E+00  0.16351562543E+03  0.16351562543E+03  0.00000000000E+00 0. -1.
         -2   -1    0    0    0  501 -0.00000000000E+00 -0.00000000000E+00 -0.78444559722E+02  0.78444559722E+02  0.00000000000E+00 0.  1.
         25    2    1    2    0    0  0.37638665780E+01  0.22621138426E+02  0.74410261889E+02  0.14734547940E+03  0.12509164892E+03 0.  0.
          5    1    3    3  502    0  0.16452297137E+02  0.53917093858E+02 -0.90212959033E+01  0.57241482082E+02  0.41800000000E+01 0. -1.
         -5    1    3    3    0  502 -0.12688430559E+02 -0.31295955432E+02  0.83431557792E+02  0.90103997315E+02  0.41800000000E+01 0. -1.
        -11    1    1    2    0    0  0.37671879144E+02 -0.45691745129E+01 -0.17046292041E+02  0.41600768098E+02  0.00000000000E+00 0.  1.
         11    1    1    2    0    0 -0.41435745722E+02 -0.18051963913E+02  0.27707095855E+02  0.53013937652E+02  0.00000000000E+00 0. -1.
</event>
