<event>
 7    1  0.6419647E-006  0.1999269E+03  0.7546771E-02  0.1154001E+00
         -2   -1    0    0    0  501 -0.00000000000E+00  0.00000000000E+00  0.23409074958E+03  0.23409074958E+03  0.00000000000E+00 0.  1.
          2   -1    0    0  501    0  0.00000000000E+00 -0.00000000000E+00 -0.15791606704E+03  0.15791606704E+03  0.00000000000E+00 0. -1.
         23    2    1    2    0    0 -0.14387259260E+03  0.60368453368E+02  0.13367026800E+02  0.20037327706E+03  0.12500839848E+03 0.  0.
          5    1    3    3  502    0  0.13625626986E+02  0.28347584539E+02 -0.18016111809E+02  0.36550151090E+02  0.47000000000E+01 0. -1.
         -5    1    3    3    0  502 -0.15749821959E+03  0.32020868829E+02  0.31383138610E+02  0.16382312597E+03  0.47000000000E+01 0. -1.
        -11    1    1    2    0    0  0.78772568927E+02 -0.55971588426E+02  0.78528872991E+02  0.12451795139E+03  0.00000000000E+00 0.  1.
         11    1    1    2    0    0  0.65100023676E+02 -0.43968649424E+01 -0.15721217252E+02  0.67115588173E+02  0.00000000000E+00 0. -1.
<mgrwt>
<rscale>  0 0.19503038E+03</rscale>
<asrwt>0</asrwt>
<pdfrwt beam="2">  1        2 0.24294780E-01 0.19992692E+03</pdfrwt>
<pdfrwt beam="1">  1       -2 0.36013961E-01 0.19992692E+03</pdfrwt>
<totfact> 0.16005922E+03</totfact>
</mgrwt>
</event>
<event>
 7    1  0.6419647E-006  0.1307894E+03  0.7546771E-02  0.1240277E+00
          1   -1    0    0  501    0  0.00000000000E+00  0.00000000000E+00  0.29540887058E+03  0.29540887058E+03  0.00000000000E+00 0. -1.
         -1   -1    0    0    0  501 -0.00000000000E+00 -0.00000000000E+00 -0.44352996102E+02  0.44352996102E+02  0.00000000000E+00 0.  1.
         23    2    1    2    0    0  0.63966484737E+01  0.37957251512E+02  0.14191325732E+03  0.19299025156E+03  0.12499677812E+03 0.  0.
          5    1    3    3  502    0 -0.33468884039E+01 -0.29460535388E+02 -0.55106365477E+01  0.30521826985E+02  0.47000000000E+01 0. -1.
         -5    1    3    3    0  502  0.97435368777E+01  0.67417786900E+02  0.14742389387E+03  0.16246842458E+03  0.47000000000E+01 0. -1.
        -11    1    1    2    0    0 -0.83169712791E+01  0.78096558960E+01 -0.12420072078E+02  0.16864783631E+02  0.00000000000E+00 0.  1.
         11    1    1    2    0    0  0.19203228053E+01 -0.45766907408E+02  0.12156268923E+03  0.12990683149E+03  0.00000000000E+00 0. -1.
<mgrwt>
<rscale>  0 0.12172549E+03</rscale>
<asrwt>0</asrwt>
<pdfrwt beam="1">  1        1 0.45447517E-01 0.13078939E+03</pdfrwt>
<pdfrwt beam="2">  1       -1 0.68235380E-02 0.13078939E+03</pdfrwt>
<totfact> 0.92711937E+03</totfact>
</mgrwt>
</event>
<event>
 7    1  0.6419647E-006  0.1299061E+03  0.7546771E-02  0.1240304E+00
          2   -1    0    0  501    0  0.00000000000E+00  0.00000000000E+00  0.77146252422E+03  0.77146252422E+03  0.00000000000E+00 0.  1.
         -2   -1    0    0    0  501 -0.00000000000E+00 -0.00000000000E+00 -0.22975629117E+02  0.22975629117E+02  0.00000000000E+00 0. -1.
         23    2    1    2    0    0 -0.17245503117E+02 -0.30876900744E+02  0.60932673769E+03  0.62302061010E+03  0.12499926786E+03 0.  0.
          5    1    3    3  502    0 -0.56518502236E+02 -0.37291676217E+02  0.52814151946E+03  0.53248527190E+03  0.47000000000E+01 0.  1.
         -5    1    3    3    0  502  0.39272999119E+02  0.64147754729E+01  0.81185218231E+02  0.90535338203E+02  0.47000000000E+01 0.  1.
        -11    1    1    2    0    0 -0.20580237390E+02  0.27680222165E+02  0.87364866216E+01  0.35581836218E+02  0.00000000000E+00 0. -1.
         11    1    1    2    0    0  0.37825740507E+02  0.31966785791E+01  0.13042367079E+03  0.13583570701E+03  0.00000000000E+00 0.  1.
<mgrwt>
<rscale>  0 0.12170886E+03</rscale>
<asrwt>0</asrwt>
<pdfrwt beam="1">  1        2 0.11868652E+00 0.12990615E+03</pdfrwt>
<pdfrwt beam="2">  1       -2 0.35347128E-02 0.12990615E+03</pdfrwt>
<totfact> 0.11738602E+04</totfact>
</mgrwt>
</event>
<event>
 7    1  0.6419647E-006  0.1368780E+03  0.7546771E-02  0.1230001E+00
         -3   -1    0    0    0  501 -0.00000000000E+00  0.00000000000E+00  0.58514277818E+02  0.58514277818E+02  0.00000000000E+00 0.  1.
          3   -1    0    0  501    0  0.00000000000E+00 -0.00000000000E+00 -0.25345702181E+03  0.25345702181E+03  0.00000000000E+00 0. -1.
         23    2    1    2    0    0  0.32775617028E+02  0.45095394794E+02 -0.12411049276E+03  0.18476741014E+03  0.12501098246E+03 0.  0.
          5    1    3    3  502    0  0.64691308378E+01  0.84448505313E+02 -0.10095763406E+03  0.13186331400E+03  0.47000000000E+01 0. -1.
         -5    1    3    3    0  502  0.26306486191E+02 -0.39353110518E+02 -0.23152858700E+02  0.52904096147E+02  0.47000000000E+01 0. -1.
        -11    1    1    2    0    0 -0.25651798371E+02 -0.66266325980E+02 -0.23461961007E+02  0.74831172201E+02  0.00000000000E+00 0. -1.
         11    1    1    2    0    0 -0.71238186571E+01  0.21170931186E+02 -0.47370290225E+02  0.52372717283E+02  0.00000000000E+00 0.  1.
<mgrwt>
<rscale>  0 0.12829976E+03</rscale>
<asrwt>0</asrwt>
<pdfrwt beam="2">  1        3 0.38993388E-01 0.13687798E+03</pdfrwt>
<pdfrwt beam="1">  1       -3 0.90021966E-02 0.13687798E+03</pdfrwt>
<totfact> 0.13209540E+03</totfact>
</mgrwt>
</event>
<event>
 7    1  0.6419647E-006  0.1617315E+03  0.7546771E-02  0.1194040E+00
         -1   -1    0    0    0  501 -0.00000000000E+00  0.00000000000E+00  0.67243766860E+02  0.67243766860E+02  0.00000000000E+00 0.  1.
          1   -1    0    0  501    0  0.00000000000E+00 -0.00000000000E+00 -0.33790520403E+03  0.33790520403E+03  0.00000000000E+00 0. -1.
         23    2    1    2    0    0 -0.89702804257E+02 -0.49852997747E+02 -0.12257955201E+03  0.20293547868E+03  0.12500058984E+03 0.  0.
          5    1    3    3  502    0 -0.66819032366E+02 -0.22524938540E+02  0.45535921661E+01  0.70816531574E+02  0.47000000000E+01 0.  1.
         -5    1    3    3    0  502 -0.22883771891E+02 -0.27328059207E+02 -0.12713314418E+03  0.13211894711E+03  0.47000000000E+01 0.  1.
        -11    1    1    2    0    0  0.49657951708E+02  0.10414362288E+02 -0.13540166135E+03  0.14459592320E+03  0.00000000000E+00 0. -1.
         11    1    1    2    0    0  0.40044852549E+02  0.39438635459E+02 -0.12680223807E+02  0.57617569008E+02  0.00000000000E+00 0.  1.
<mgrwt>
<rscale>  0 0.15535725E+03</rscale>
<asrwt>0</asrwt>
<pdfrwt beam="2">  1        1 0.51985415E-01 0.16173145E+03</pdfrwt>
<pdfrwt beam="1">  1       -1 0.10345195E-01 0.16173145E+03</pdfrwt>
<totfact> 0.42302557E+03</totfact>
</mgrwt>
</event>
<event>
 7    1  0.6419647E-006  0.1875935E+03  0.7546771E-02  0.1166466E+00
         -2   -1    0    0    0  501 -0.00000000000E+00  0.00000000000E+00  0.27109892759E+03  0.27109892759E+03  0.00000000000E+00 0.  1.
          2   -1    0    0  501    0  0.00000000000E+00 -0.00000000000E+00 -0.11742303409E+03  0.11742303409E+03  0.00000000000E+00 0. -1.
         23    2    1    2    0    0  0.10570815801E+03 -0.91603735046E+02  0.48673431265E+02  0.19380510353E+03  0.12500342514E+03 0.  0.
          5    1    3    3  502    0  0.61458721316E+02 -0.78453116601E+02  0.87958847154E+02  0.13300719801E+03  0.47000000000E+01 0. -1.
         -5    1    3    3    0  502  0.44249436695E+02 -0.13150618446E+02 -0.39285415889E+02  0.60797905514E+02  0.47000000000E+01 0. -1.
        -11    1    1    2    0    0 -0.60239182742E+02  0.90577805494E+01  0.11559455266E+02  0.62003415486E+02  0.00000000000E+00 0.  1.
         11    1    1    2    0    0 -0.45468975268E+02  0.82545954497E+02  0.93443006966E+02  0.13271344267E+03  0.00000000000E+00 0. -1.
<mgrwt>
<rscale>  0 0.18138878E+03</rscale>
<asrwt>0</asrwt>
<pdfrwt beam="2">  1        2 0.18065082E-01 0.18759348E+03</pdfrwt>
<pdfrwt beam="1">  1       -2 0.41707527E-01 0.18759348E+03</pdfrwt>
<totfact> 0.16935809E+03</totfact>
</mgrwt>
</event>
<event>
 7    1  0.6419647E-006  0.1263978E+03  0.7546771E-02  0.1248010E+00
          1   -1    0    0  501    0  0.00000000000E+00  0.00000000000E+00  0.50507872509E+03  0.50507872509E+03  0.00000000000E+00 0. -1.
         -1   -1    0    0    0  501 -0.00000000000E+00 -0.00000000000E+00 -0.25851777042E+02  0.25851777042E+02  0.00000000000E+00 0.  1.
         23    2    1    2    0    0  0.18704202658E+02 -0.87221566130E+00  0.34666204032E+03  0.36898642341E+03  0.12500321000E+03 0.  0.
          5    1    3    3  502    0 -0.38621760583E+02 -0.19553862307E+02  0.25808883282E+03  0.26173637414E+03  0.47000000000E+01 0. -1.
         -5    1    3    3    0  502  0.57325963241E+02  0.18681646646E+02  0.88573207499E+02  0.10725004927E+03  0.47000000000E+01 0. -1.
        -11    1    1    2    0    0 -0.51862200470E+02  0.17738871459E+02  0.67039079229E+02  0.86594419809E+02  0.00000000000E+00 0.  1.
         11    1    1    2    0    0  0.33157997812E+02 -0.16866655798E+02  0.65525828499E+02  0.75349658906E+02  0.00000000000E+00 0. -1.
<mgrwt>
<rscale>  0 0.11707036E+03</rscale>
<asrwt>0</asrwt>
<pdfrwt beam="1">  1        1 0.77704412E-01 0.12639783E+03</pdfrwt>
<pdfrwt beam="2">  1       -1 0.39771968E-02 0.12639783E+03</pdfrwt>
<totfact> 0.10461061E+04</totfact>
</mgrwt>
</event>
<event>
 7    1  0.6419647E-006  0.1307199E+03  0.7546771E-02  0.1238744E+00
          1   -1    0    0  501    0  0.00000000000E+00  0.00000000000E+00  0.29287661114E+03  0.29287661114E+03  0.00000000000E+00 0. -1.
         -1   -1    0    0    0  501 -0.00000000000E+00 -0.00000000000E+00 -0.46043819929E+02  0.46043819929E+02  0.00000000000E+00 0.  1.
         23    2    1    2    0    0 -0.19218276438E+02  0.33056399873E+02  0.14463599349E+03  0.19495451037E+03  0.12500249109E+03 0.  0.
          5    1    3    3  502    0  0.90789048510E+01 -0.44171129712E+02  0.72201436183E+02  0.85256393310E+02  0.47000000000E+01 0.  1.
         -5    1    3    3    0  502 -0.28297181289E+02  0.77227529585E+02  0.72434557307E+02  0.10969811706E+03  0.47000000000E+01 0.  1.
        -11    1    1    2    0    0  0.15174521319E+02 -0.61017631435E+02  0.37107197880E+02  0.73009325279E+02  0.00000000000E+00 0.  1.
         11    1    1    2    0    0  0.40437551183E+01  0.27961231562E+02  0.65089599838E+02  0.70956595416E+02  0.00000000000E+00 0. -1.
<mgrwt>
<rscale>  0 0.12267780E+03</rscale>
<asrwt>0</asrwt>
<pdfrwt beam="1">  1        1 0.45057939E-01 0.13071989E+03</pdfrwt>
<pdfrwt beam="2">  1       -1 0.70836648E-02 0.13071989E+03</pdfrwt>
<totfact> 0.88594642E+03</totfact>
</mgrwt>
</event>
<event>
 7    1  0.6419647E-006  0.1496118E+03  0.7546771E-02  0.1209229E+00
          1   -1    0    0  501    0  0.00000000000E+00  0.00000000000E+00  0.13373171166E+03  0.13373171166E+03  0.00000000000E+00 0. -1.
         -1   -1    0    0    0  501 -0.00000000000E+00 -0.00000000000E+00 -0.14143644922E+03  0.14143644922E+03  0.00000000000E+00 0.  1.
         23    2    1    2    0    0  0.72850688278E+02 -0.38054433015E+02 -0.10179723568E+02  0.14995767152E+03  0.12501325459E+03 0.  0.
          5    1    3    3  502    0  0.61623202067E+02 -0.97562784777E+01 -0.63013249159E+02  0.88799569662E+02  0.47000000000E+01 0.  1.
         -5    1    3    3    0  502  0.11227486212E+02 -0.28298154537E+02  0.52833525591E+02  0.61158101861E+02  0.47000000000E+01 0.  1.
        -11    1    1    2    0    0 -0.80294981304E+02  0.11355037095E+02 -0.26304894125E+02  0.85253553269E+02  0.00000000000E+00 0.  1.
         11    1    1    2    0    0  0.74442930255E+01  0.26699395920E+02  0.28779880128E+02  0.39956936086E+02  0.00000000000E+00 0. -1.
<mgrwt>
<rscale>  0 0.14309131E+03</rscale>
<asrwt>0</asrwt>
<pdfrwt beam="1">  1        1 0.20574110E-01 0.14961175E+03</pdfrwt>
<pdfrwt beam="2">  1       -1 0.21759454E-01 0.14961175E+03</pdfrwt>
<totfact> 0.41648669E+03</totfact>
</mgrwt>
</event>
<event>
 7    1  0.6419647E-006  0.1552691E+03  0.7546771E-02  0.1202116E+00
          1   -1    0    0  501    0  0.00000000000E+00  0.00000000000E+00  0.22343641664E+02  0.22343641664E+02  0.00000000000E+00 0. -1.
         -1   -1    0    0    0  501 -0.00000000000E+00 -0.00000000000E+00 -0.10489834261E+04  0.10489834261E+04  0.00000000000E+00 0.  1.
         23    2    1    2    0    0  0.61525059101E+02  0.68537398846E+02 -0.36038722169E+03  0.39241233310E+03  0.12500312666E+03 0.  0.
          5    1    3    3  502    0  0.18097788379E+02  0.19808161724E+02 -0.11505308810E+01  0.27263655961E+02  0.47000000000E+01 0.  1.
         -5    1    3    3    0  502  0.43427270723E+02  0.48729237122E+02 -0.35923669081E+03  0.36514867714E+03  0.47000000000E+01 0.  1.
        -11    1    1    2    0    0 -0.28848863169E+02  0.18469606865E+02 -0.11923814772E+03  0.12406094936E+03  0.00000000000E+00 0. -1.
         11    1    1    2    0    0 -0.32676195932E+02 -0.87007005711E+02 -0.54701441507E+03  0.55485378535E+03  0.00000000000E+00 0.  1.
<mgrwt>
<rscale>  0 0.14867033E+03</rscale>
<asrwt>0</asrwt>
<pdfrwt beam="1">  1        1 0.34374831E-02 0.15526909E+03</pdfrwt>
<pdfrwt beam="2">  1       -1 0.16138208E+00 0.15526909E+03</pdfrwt>
<totfact> 0.86380078E+02</totfact>
</mgrwt>
</event>
<event>
 7    1  0.6419647E-006  0.1353946E+03  0.7546771E-02  0.1226656E+00
         -2   -1    0    0    0  501 -0.00000000000E+00  0.00000000000E+00  0.60781431709E+02  0.60781431709E+02  0.00000000000E+00 0.  1.
          2   -1    0    0  501    0  0.00000000000E+00 -0.00000000000E+00 -0.26620053959E+03  0.26620053959E+03  0.00000000000E+00 0. -1.
         23    2    1    2    0    0 -0.69715496744E+02  0.15714239697E+02 -0.13053220186E+03  0.18807009952E+03  0.11499790779E+03 0.  0.
          5    1    3    3  502    0 -0.34133025007E+02  0.61804622436E+02 -0.42890407279E+02  0.82743892748E+02  0.47000000000E+01 0. -1.
         -5    1    3    3    0  502 -0.35582471737E+02 -0.46090382739E+02 -0.87641794578E+02  0.10532620677E+03  0.47000000000E+01 0.  1.
        -11    1    1    2    0    0  0.53692355688E+02 -0.52591982162E+02 -0.37443651274E+02  0.83969117345E+02  0.00000000000E+00 0.  1.
         11    1    1    2    0    0  0.16023141056E+02  0.36877742465E+02 -0.37443254755E+02  0.54942754439E+02  0.00000000000E+00 0. -1.
<mgrwt>
<rscale>  0 0.13054054E+03</rscale>
<asrwt>0</asrwt>
<pdfrwt beam="2">  1        2 0.40953930E-01 0.13539463E+03</pdfrwt>
<pdfrwt beam="1">  1       -2 0.93509894E-02 0.13539463E+03</pdfrwt>
<totfact> 0.87155759E+03</totfact>
</mgrwt>
</event>
<event>
 7    1  0.6419647E-006  0.1401677E+03  0.7546771E-02  0.1224179E+00
          1   -1    0    0  501    0  0.00000000000E+00  0.00000000000E+00  0.42636752997E+03  0.42636752997E+03  0.00000000000E+00 0. -1.
         -1   -1    0    0    0  501 -0.00000000000E+00 -0.00000000000E+00 -0.40850649471E+02  0.40850649471E+02  0.00000000000E+00 0.  1.
         23    2    1    2    0    0  0.63311314128E+02  0.36696705122E+01  0.28431884088E+03  0.31699239223E+03  0.12500073790E+03 0.  0.
          5    1    3    3  502    0  0.64904134688E+02  0.53238735257E+02  0.22081602722E+03  0.23628101385E+03  0.47000000000E+01 0.  1.
         -5    1    3    3    0  502 -0.15928205596E+01 -0.49569064745E+02  0.63502813658E+02  0.80711378377E+02  0.47000000000E+01 0.  1.
        -11    1    1    2    0    0 -0.42838559380E+02 -0.28980931547E+02  0.90633348345E+01  0.52508862123E+02  0.00000000000E+00 0.  1.
         11    1    1    2    0    0 -0.20472754748E+02  0.25311261035E+02  0.92134704782E+02  0.97716925082E+02  0.00000000000E+00 0. -1.
<mgrwt>
<rscale>  0 0.13223363E+03</rscale>
<asrwt>0</asrwt>
<pdfrwt beam="1">  1        1 0.65595002E-01 0.14016766E+03</pdfrwt>
<pdfrwt beam="2">  1       -1 0.62847156E-02 0.14016766E+03</pdfrwt>
<totfact> 0.66582737E+03</totfact>
</mgrwt>
</event>
<event>
 7    1  0.6419647E-006  0.1280107E+03  0.7546771E-02  0.1245051E+00
          2   -1    0    0  501    0  0.00000000000E+00  0.00000000000E+00  0.16937260184E+03  0.16937260184E+03  0.00000000000E+00 0. -1.
         -2   -1    0    0    0  501 -0.00000000000E+00 -0.00000000000E+00 -0.85691182897E+02  0.85691182897E+02  0.00000000000E+00 0.  1.
         23    2    1    2    0    0 -0.20428821636E+02 -0.18544639786E+02  0.94930931196E+02  0.15936942268E+03  0.12500196306E+03 0.  0.
          5    1    3    3  502    0 -0.69231340809E+02  0.10081976736E+02  0.62820109454E+02  0.94143937441E+02  0.47000000000E+01 0.  1.
         -5    1    3    3    0  502  0.48802519173E+02 -0.28626616522E+02  0.32110821742E+02  0.65225485235E+02  0.47000000000E+01 0.  1.
        -11    1    1    2    0    0  0.13741911995E+02  0.52001654945E+02 -0.24486012620E+02  0.59098029378E+02  0.00000000000E+00 0.  1.
         11    1    1    2    0    0  0.66869096413E+01 -0.33457015159E+02  0.13236500366E+02  0.36596332683E+02  0.00000000000E+00 0. -1.
<mgrwt>
<rscale>  0 0.11882307E+03</rscale>
<asrwt>0</asrwt>
<pdfrwt beam="1">  1        2 0.26057323E-01 0.12801067E+03</pdfrwt>
<pdfrwt beam="2">  1       -2 0.13183259E-01 0.12801067E+03</pdfrwt>
<totfact> 0.81931249E+03</totfact>
</mgrwt>
</event>
<event>
 6    1  0.6419647E-006  0.3913668E+03  0.7546771E-02  0.1102166E+00
         -2   -1    0    0    0  501 -0.00000000000E+00  0.00000000000E+00  0.56779519307E+03  0.56779519307E+03  0.00000000000E+00 0.  1.
          2   -1    0    0  501    0  0.00000000000E+00 -0.00000000000E+00 -0.10061714901E+03  0.10061714901E+03  0.00000000000E+00 0. -1.
          5    1    1    2  502    0  0.34977750591E+02  0.42713459385E+02 -0.70666499188E+02  0.89798255866E+02  0.47000000000E+01 0. -1.
         -5    1    1    2    0  502 -0.32366954950E+02 -0.59458242175E+02  0.45050465206E+03  0.45558691142E+03  0.47000000000E+01 0.  1.
        -11    1    1    2    0    0  0.35098489002E+02 -0.38559069908E+00  0.12076239652E+02  0.37119916144E+02  0.00000000000E+00 0. -1.
         11    1    1    2    0    0 -0.37709284643E+02  0.17130373490E+02  0.75263651542E+02  0.85907258643E+02  0.00000000000E+00 0.  1.
<mgrwt>
<rscale>  0 0.26845678E+03</rscale>
<asrwt>0</asrwt>
<pdfrwt beam="2">  1        2 0.15479562E-01 0.39136678E+03</pdfrwt>
<pdfrwt beam="1">  1       -2 0.87353105E-01 0.39136678E+03</pdfrwt>
<totfact> 0.44079359E+02</totfact>
</mgrwt>
</event>
<event>
 7    1  0.6419647E-006  0.3154143E+03  0.7546771E-02  0.1079423E+00
         -2   -1    0    0    0  501 -0.00000000000E+00  0.00000000000E+00  0.11061475433E+03  0.11061475433E+03  0.00000000000E+00 0.  1.
          2   -1    0    0  501    0  0.00000000000E+00 -0.00000000000E+00 -0.89255509228E+03  0.89255509228E+03  0.00000000000E+00 0. -1.
         23    2    1    2    0    0  0.27312184813E+03  0.96246586975E+02 -0.49397712092E+03  0.58608834287E+03  0.12500880057E+03 0.  0.
          5    1    3    3  502    0  0.25770501271E+03  0.11547490185E+03 -0.48112703265E+03  0.55789930819E+03  0.47000000000E+01 0.  1.
         -5    1    3    3    0  502  0.15416835417E+02 -0.19228314877E+02 -0.12850088270E+02  0.28189034673E+02  0.47000000000E+01 0.  1.
        -11    1    1    2    0    0 -0.16282718320E+03 -0.41371953539E+02 -0.21861681847E+03  0.27571297294E+03  0.00000000000E+00 0. -1.
         11    1    1    2    0    0 -0.11029466493E+03 -0.54874633436E+02 -0.69346398568E+02  0.14136853080E+03  0.00000000000E+00 0.  1.
<mgrwt>
<rscale>  0 0.31193315E+03</rscale>
<asrwt>0</asrwt>
<pdfrwt beam="2">  1        2 0.13731617E+00 0.31541425E+03</pdfrwt>
<pdfrwt beam="1">  1       -2 0.17017654E-01 0.31541425E+03</pdfrwt>
<totfact> 0.85176652E+02</totfact>
</mgrwt>
</event>
<event>
 7    1  0.6419647E-006  0.1144721E+03  0.7546771E-02  0.1263462E+00
          1   -1    0    0  501    0  0.00000000000E+00  0.00000000000E+00  0.70024650555E+03  0.70024650555E+03  0.00000000000E+00 0. -1.
         -1   -1    0    0    0  501 -0.00000000000E+00 -0.00000000000E+00 -0.16931927409E+02  0.16931927409E+02  0.00000000000E+00 0.  1.
         23    2    1    2    0    0 -0.29743744518E+02 -0.56296783025E+01  0.48708877856E+03  0.50035920811E+03  0.11039689907E+03 0.  0.
          5    1    3    3  502    0 -0.60600007452E+02  0.33680147717E+01  0.43305804861E+03  0.43731575308E+03  0.47000000000E+01 0. -1.
         -5    1    3    3    0  502  0.30856262935E+02 -0.89976930742E+01  0.54030729957E+02  0.63043455034E+02  0.47000000000E+01 0.  1.
        -11    1    1    2    0    0  0.40506465007E+02  0.36034490146E+02  0.83391104954E+02  0.99465243040E+02  0.00000000000E+00 0.  1.
         11    1    1    2    0    0 -0.10762720489E+02 -0.30404811844E+02  0.11283469462E+03  0.11735398180E+03  0.00000000000E+00 0. -1.
<mgrwt>
<rscale>  0 0.10845272E+03</rscale>
<asrwt>0</asrwt>
<pdfrwt beam="1">  1        1 0.10773021E+00 0.11447209E+03</pdfrwt>
<pdfrwt beam="2">  1       -1 0.26049124E-02 0.11447209E+03</pdfrwt>
<totfact> 0.12342932E+04</totfact>
</mgrwt>
</event>
<event>
 7    1  0.6419647E-006  0.1476713E+03  0.7546771E-02  0.1209101E+00
         -4   -1    0    0    0  501 -0.00000000000E+00  0.00000000000E+00  0.32812568429E+02  0.32812568429E+02  0.00000000000E+00 0. -1.
          4   -1    0    0  501    0  0.00000000000E+00 -0.00000000000E+00 -0.61093969763E+03  0.61093969763E+03  0.00000000000E+00 0.  1.
         23    2    1    2    0    0  0.71614752647E+02  0.32466124412E+02 -0.36610041752E+03  0.39476111694E+03  0.12499640677E+03 0.  0.
          5    1    3    3  502    0  0.66645894685E+01  0.40453942138E+02 -0.29555740384E+03  0.29842454180E+03  0.47000000000E+01 0.  1.
         -5    1    3    3    0  502  0.64950163178E+02 -0.79878177263E+01 -0.70543013681E+02  0.96336575132E+02  0.47000000000E+01 0.  1.
        -11    1    1    2    0    0 -0.95778664690E+02 -0.30320996975E+02 -0.19498500427E+03  0.21934463148E+03  0.00000000000E+00 0. -1.
         11    1    1    2    0    0  0.24163912043E+02 -0.21451274370E+01 -0.17041707404E+02  0.29646517641E+02  0.00000000000E+00 0.  1.
<mgrwt>
<rscale>  0 0.14318908E+03</rscale>
<asrwt>0</asrwt>
<pdfrwt beam="2">  1        4 0.93990713E-01 0.14767134E+03</pdfrwt>
<pdfrwt beam="1">  1       -4 0.50480880E-02 0.14767134E+03</pdfrwt>
<totfact> 0.39244187E+02</totfact>
</mgrwt>
</event>
<event>
 7    1  0.6419647E-006  0.1302045E+03  0.7546771E-02  0.1241509E+00
         -2   -1    0    0    0  501 -0.00000000000E+00  0.00000000000E+00  0.80155438417E+02  0.80155438417E+02  0.00000000000E+00 0. -1.
          2   -1    0    0  501    0  0.00000000000E+00 -0.00000000000E+00 -0.17359104849E+03  0.17359104849E+03  0.00000000000E+00 0.  1.
         23    2    1    2    0    0 -0.19672997296E+02  0.30671410437E+02 -0.86857316283E+02  0.15651644518E+03  0.12500176790E+03 0.  0.
          5    1    3    3  502    0 -0.15808822871E+02 -0.43751904786E+02 -0.62332894095E+02  0.77920650275E+02  0.47000000000E+01 0.  1.
         -5    1    3    3    0  502 -0.38641744252E+01  0.74423315223E+02 -0.24524422188E+02  0.78595794903E+02  0.47000000000E+01 0.  1.
        -11    1    1    2    0    0 -0.10556435809E+02 -0.56347290867E+02 -0.29749676297E+01  0.57404755529E+02  0.00000000000E+00 0. -1.
         11    1    1    2    0    0  0.30229433104E+02  0.25675880430E+02 -0.36033261629E+01  0.39825286202E+02  0.00000000000E+00 0.  1.
<mgrwt>
<rscale>  0 0.12096799E+03</rscale>
<asrwt>0</asrwt>
<pdfrwt beam="2">  1        2 0.26706315E-01 0.13020447E+03</pdfrwt>
<pdfrwt beam="1">  1       -2 0.12331606E-01 0.13020447E+03</pdfrwt>
<totfact> 0.88888451E+03</totfact>
</mgrwt>
</event>
<event>
 7    1  0.6419647E-006  0.1302796E+03  0.7546771E-02  0.1235167E+00
          1   -1    0    0  501    0  0.00000000000E+00  0.00000000000E+00  0.27619669992E+03  0.27619669992E+03  0.00000000000E+00 0. -1.
         -1   -1    0    0    0  501 -0.00000000000E+00 -0.00000000000E+00 -0.10769744529E+03  0.10769744529E+03  0.00000000000E+00 0.  1.
         23    2    1    2    0    0  0.46104641816E+01 -0.50825509917E+02  0.22505011466E+03  0.26003906916E+03  0.11986773772E+03 0.  0.
          5    1    3    3  502    0  0.13456553248E+02 -0.89315747634E+02  0.15994408880E+03  0.18374597449E+03  0.47000000000E+01 0. -1.
         -5    1    3    3    0  502 -0.88460890668E+01  0.38490237716E+02  0.65106025861E+02  0.76293094672E+02  0.47000000000E+01 0.  1.
        -11    1    1    2    0    0  0.18298761319E+02  0.32891606509E+02 -0.78734431068E+02  0.87268625978E+02  0.00000000000E+00 0.  1.
         11    1    1    2    0    0 -0.22909225501E+02  0.17933903408E+02  0.22183571040E+02  0.36586450068E+02  0.00000000000E+00 0. -1.
<mgrwt>
<rscale>  0 0.12493780E+03</rscale>
<asrwt>0</asrwt>
<pdfrwt beam="1">  1        1 0.42491800E-01 0.13027956E+03</pdfrwt>
<pdfrwt beam="2">  1       -1 0.16568838E-01 0.13027956E+03</pdfrwt>
<totfact> 0.25866590E+03</totfact>
</mgrwt>
</event>
<event>
 7    1  0.6419647E-006  0.3543925E+03  0.7546771E-02  0.1061885E+00
         -1   -1    0    0    0  501 -0.00000000000E+00  0.00000000000E+00  0.35422115446E+03  0.35422115446E+03  0.00000000000E+00 0. -1.
          1   -1    0    0  501    0  0.00000000000E+00 -0.00000000000E+00 -0.38146696541E+03  0.38146696541E+03  0.00000000000E+00 0.  1.
         23    2    1    2    0    0  0.28120474531E+03 -0.17576360280E+03 -0.12858851720E+03  0.37700002524E+03  0.12500023769E+03 0.  0.
          5    1    3    3  502    0  0.11124895195E+03 -0.14886593926E+02 -0.53413075756E+01  0.11246581505E+03  0.47000000000E+01 0. -1.
         -5    1    3    3    0  502  0.16995579336E+03 -0.16087700888E+03 -0.12324720962E+03  0.26453421019E+03  0.47000000000E+01 0. -1.
        -11    1    1    2    0    0 -0.96269235361E+02  0.33097736836E+02 -0.52722904304E+01  0.10193636695E+03  0.00000000000E+00 0.  1.
         11    1    1    2    0    0 -0.18493550995E+03  0.14266586597E+03  0.10661499667E+03  0.25675172768E+03  0.00000000000E+00 0. -1.
<mgrwt>
<rscale>  0 0.35178415E+03</rscale>
<asrwt>0</asrwt>
<pdfrwt beam="2">  1        1 0.58687225E-01 0.35439246E+03</pdfrwt>
<pdfrwt beam="1">  1       -1 0.54495562E-01 0.35439246E+03</pdfrwt>
<totfact> 0.22535471E+02</totfact>
</mgrwt>
</event>
<event>
 7    1  0.6419647E-006  0.1259042E+03  0.7546771E-02  0.1249545E+00
         -2   -1    0    0    0  501 -0.00000000000E+00  0.00000000000E+00  0.18968435485E+03  0.18968435485E+03  0.00000000000E+00 0.  1.
          2   -1    0    0  501    0  0.00000000000E+00 -0.00000000000E+00 -0.62563951299E+02  0.62563951299E+02  0.00000000000E+00 0. -1.
         23    2    1    2    0    0 -0.14560707424E+02 -0.33136502461E+01  0.63640307526E+02  0.14107426219E+03  0.12501545597E+03 0.  0.
          5    1    3    3  502    0  0.20119384208E+02  0.54317012623E+02  0.24116831892E+02  0.62919305954E+02  0.47000000000E+01 0.  1.
         -5    1    3    3    0  502 -0.34680091632E+02 -0.57630662869E+02  0.39523475634E+02  0.78154956238E+02  0.47000000000E+01 0.  1.
        -11    1    1    2    0    0 -0.30261881535E+02  0.26590148583E+02  0.22556301921E+02  0.46169299670E+02  0.00000000000E+00 0.  1.
         11    1    1    2    0    0  0.44822588959E+02 -0.23276498337E+02  0.40923794102E+02  0.65004744284E+02  0.00000000000E+00 0. -1.
<mgrwt>
<rscale>  0 0.11617437E+03</rscale>
<asrwt>0</asrwt>
<pdfrwt beam="2">  1        2 0.96252233E-02 0.12590416E+03</pdfrwt>
<pdfrwt beam="1">  1       -2 0.29182208E-01 0.12590416E+03</pdfrwt>
<totfact> 0.67949434E+03</totfact>
</mgrwt>
</event>
<event>
 7    1  0.6419647E-006  0.1697917E+03  0.7546771E-02  0.1182404E+00
         -1   -1    0    0    0  501 -0.00000000000E+00  0.00000000000E+00  0.29423992813E+02  0.29423992813E+02  0.00000000000E+00 0.  1.
          1   -1    0    0  501    0  0.00000000000E+00 -0.00000000000E+00 -0.98728948151E+03  0.98728948151E+03  0.00000000000E+00 0. -1.
         23    2    1    2    0    0 -0.97210478008E+02 -0.61277861721E+02 -0.65867040642E+03  0.68020286547E+03  0.12499752205E+03 0.  0.
          5    1    3    3  502    0 -0.66325686536E+02  0.10762380158E+02 -0.13707820995E+03  0.15273326804E+03  0.47000000000E+01 0.  1.
         -5    1    3    3    0  502 -0.30884791472E+02 -0.72040241879E+02 -0.52159219647E+03  0.52746959743E+03  0.47000000000E+01 0.  1.
        -11    1    1    2    0    0 -0.12774882238E+02  0.26757753234E+02 -0.23998638742E+02  0.38145899331E+02  0.00000000000E+00 0.  1.
         11    1    1    2    0    0  0.10998536025E+03  0.34520108487E+02 -0.27519644353E+03  0.29836470953E+03  0.00000000000E+00 0. -1.
<mgrwt>
<rscale>  0 0.16570310E+03</rscale>
<asrwt>0</asrwt>
<pdfrwt beam="2">  1        1 0.15189069E+00 0.16979174E+03</pdfrwt>
<pdfrwt beam="1">  1       -1 0.45267680E-02 0.16979174E+03</pdfrwt>
<totfact> 0.33037560E+03</totfact>
</mgrwt>
</event>
<event>
 7    1  0.6419647E-006  0.1196227E+03  0.7546771E-02  0.1250643E+00
          1   -1    0    0  501    0  0.00000000000E+00  0.00000000000E+00  0.49099957359E+02  0.49099957359E+02  0.00000000000E+00 0. -1.
         -1   -1    0    0    0  501 -0.00000000000E+00 -0.00000000000E+00 -0.45938114224E+03  0.45938114224E+03  0.00000000000E+00 0.  1.
         23    2    1    2    0    0 -0.32576951945E+02 -0.25813157437E+02 -0.43620596798E+02  0.12732776094E+03  0.11216962756E+03 0.  0.
          5    1    3    3  502    0 -0.36377511765E+02 -0.64931467729E+02 -0.97085923155E+01  0.75204824502E+02  0.47000000000E+01 0. -1.
         -5    1    3    3    0  502  0.38005598195E+01  0.39118310292E+02 -0.33912004482E+02  0.52122936439E+02  0.47000000000E+01 0.  1.
        -11    1    1    2    0    0 -0.32033603702E+01 -0.31836343518E+02 -0.72130542984E+02  0.78908995162E+02  0.00000000000E+00 0. -1.
         11    1    1    2    0    0  0.35780312315E+02  0.57649500955E+02 -0.29453004510E+03  0.30224434349E+03  0.00000000000E+00 0.  1.
<mgrwt>
<rscale>  0 0.11553894E+03</rscale>
<asrwt>0</asrwt>
<pdfrwt beam="1">  1        1 0.75538399E-02 0.11962275E+03</pdfrwt>
<pdfrwt beam="2">  1       -1 0.70674019E-01 0.11962275E+03</pdfrwt>
<totfact> 0.19129186E+03</totfact>
</mgrwt>
</event>
<event>
 7    1  0.6419647E-006  0.1348747E+03  0.7546771E-02  0.1232460E+00
         -2   -1    0    0    0  501 -0.00000000000E+00  0.00000000000E+00  0.93207906729E+01  0.93207906729E+01  0.00000000000E+00 0.  1.
          2   -1    0    0  501    0  0.00000000000E+00 -0.00000000000E+00 -0.21733561352E+04  0.21733561352E+04  0.00000000000E+00 0. -1.
         23    2    1    2    0    0 -0.29656858175E+02 -0.40986692500E+02 -0.17622354644E+04  0.17673893239E+04  0.12502700530E+03 0.  0.
          5    1    3    3  502    0 -0.76677266538E+01 -0.78561270371E+02 -0.73924878046E+03  0.74346588130E+03  0.47000000000E+01 0. -1.
         -5    1    3    3    0  502 -0.21989131521E+02  0.37574577871E+02 -0.10229866839E+04  0.10239234426E+04  0.47000000000E+01 0. -1.
        -11    1    1    2    0    0 -0.76305298013E+00 -0.28173225178E+02 -0.13972971100E+03  0.14254369507E+03  0.00000000000E+00 0.  1.
         11    1    1    2    0    0  0.30419911155E+02  0.69159917678E+02 -0.26207016914E+03  0.27274390692E+03  0.00000000000E+00 0. -1.
<mgrwt>
<rscale>  0 0.12668460E+03</rscale>
<asrwt>0</asrwt>
<pdfrwt beam="2">  1        2 0.33436234E+00 0.13487472E+03</pdfrwt>
<pdfrwt beam="1">  1       -2 0.14339684E-02 0.13487472E+03</pdfrwt>
<totfact> 0.75033301E+03</totfact>
</mgrwt>
</event>
<event>
 7    1  0.6419647E-006  0.2006374E+03  0.7546771E-02  0.1153394E+00
          2   -1    0    0  501    0  0.00000000000E+00  0.00000000000E+00  0.21218590298E+03  0.21218590298E+03  0.00000000000E+00 0. -1.
         -2   -1    0    0    0  501 -0.00000000000E+00 -0.00000000000E+00 -0.19134871995E+03  0.19134871995E+03  0.00000000000E+00 0.  1.
         23    2    1    2    0    0  0.74398729978E+01  0.15676391576E+03  0.74572036328E+02  0.21404759314E+03  0.12500042613E+03 0.  0.
          5    1    3    3  502    0  0.63156258389E+02  0.11238329970E+03  0.53111596125E+02  0.13950502022E+03  0.47000000000E+01 0.  1.
         -5    1    3    3    0  502 -0.55716385391E+02  0.44380616059E+02  0.21460440204E+02  0.74542572914E+02  0.47000000000E+01 0.  1.
        -11    1    1    2    0    0 -0.23155185410E+02 -0.96670090951E+02 -0.74248055996E+02  0.12407273236E+03  0.00000000000E+00 0.  1.
         11    1    1    2    0    0  0.15715312412E+02 -0.60093824805E+02  0.20513202693E+02  0.65414297432E+02  0.00000000000E+00 0. -1.
<mgrwt>
<rscale>  0 0.19572787E+03</rscale>
<asrwt>0</asrwt>
<pdfrwt beam="1">  1        2 0.32643985E-01 0.20063744E+03</pdfrwt>
<pdfrwt beam="2">  1       -2 0.29438265E-01 0.20063744E+03</pdfrwt>
<totfact> 0.16742533E+03</totfact>
</mgrwt>
</event>
<event>
 7    1  0.6419647E-006  0.1425389E+03  0.7546771E-02  0.1220535E+00
          2   -1    0    0  501    0  0.00000000000E+00  0.00000000000E+00  0.87101534359E+02  0.87101534359E+02  0.00000000000E+00 0. -1.
         -2   -1    0    0    0  501 -0.00000000000E+00 -0.00000000000E+00 -0.19275578457E+03  0.19275578457E+03  0.00000000000E+00 0.  1.
         23    2    1    2    0    0  0.53852169504E+02 -0.42422931701E+02 -0.78518729534E+02  0.16273456028E+03  0.12497033619E+03 0.  0.
          5    1    3    3  502    0  0.78901949857E+02 -0.51468284286E+02 -0.17418494912E+02  0.95916609320E+02  0.47000000000E+01 0. -1.
         -5    1    3    3    0  502 -0.25049780353E+02  0.90453525845E+01 -0.61100234622E+02  0.66817950956E+02  0.47000000000E+01 0. -1.
        -11    1    1    2    0    0  0.47983222311E+01  0.53743167161E+02 -0.16723027219E+02  0.56489039221E+02  0.00000000000E+00 0.  1.
         11    1    1    2    0    0 -0.58650491735E+02 -0.11320235460E+02 -0.10412493453E+02  0.60633719427E+02  0.00000000000E+00 0. -1.
<mgrwt>
<rscale>  0 0.13477686E+03</rscale>
<asrwt>0</asrwt>
<pdfrwt beam="1">  1        2 0.13400236E-01 0.14253893E+03</pdfrwt>
<pdfrwt beam="2">  1       -2 0.29654736E-01 0.14253893E+03</pdfrwt>
<totfact> 0.44647108E+03</totfact>
</mgrwt>
</event>
<event>
 7    1  0.6419647E-006  0.1590288E+03  0.7546771E-02  0.1197084E+00
         -2   -1    0    0    0  501 -0.00000000000E+00  0.00000000000E+00  0.57368048069E+02  0.57368048069E+02  0.00000000000E+00 0. -1.
          2   -1    0    0  501    0  0.00000000000E+00 -0.00000000000E+00 -0.39625587665E+03  0.39625587665E+03  0.00000000000E+00 0.  1.
         23    2    1    2    0    0  0.73321196717E+02 -0.65491032505E+02 -0.23081133408E+03  0.28029274577E+03  0.12500031265E+03 0.  0.
          5    1    3    3  502    0  0.45975381441E+01 -0.19360072822E+02  0.12007526080E+02  0.23711188482E+02  0.47000000000E+01 0. -1.
         -5    1    3    3    0  502  0.68723658573E+02 -0.46130959683E+02 -0.24281886016E+03  0.25658155729E+03  0.47000000000E+01 0. -1.
        -11    1    1    2    0    0 -0.23099127327E+02 -0.86625223993E+00  0.12918080892E+02  0.26480122548E+02  0.00000000000E+00 0. -1.
         11    1    1    2    0    0 -0.50222069391E+02  0.66357284745E+02 -0.12099457539E+03  0.14685105640E+03  0.00000000000E+00 0.  1.
<mgrwt>
<rscale>  0 0.15279187E+03</rscale>
<asrwt>0</asrwt>
<pdfrwt beam="2">  1        2 0.60962443E-01 0.15902878E+03</pdfrwt>
<pdfrwt beam="1">  1       -2 0.88258534E-02 0.15902878E+03</pdfrwt>
<totfact> 0.63112827E+03</totfact>
</mgrwt>
</event>
<event>
 7    1  0.6419647E-006  0.1378908E+03  0.7546771E-02  0.1227208E+00
          2   -1    0    0  501    0  0.00000000000E+00  0.00000000000E+00  0.45846508346E+03  0.45846508346E+03  0.00000000000E+00 0. -1.
         -2   -1    0    0    0  501 -0.00000000000E+00 -0.00000000000E+00 -0.40507767475E+02  0.40507767475E+02  0.00000000000E+00 0.  1.
         23    2    1    2    0    0 -0.29682919563E+02  0.50073918057E+02  0.33287855786E+03  0.36030822687E+03  0.12500164431E+03 0.  0.
          5    1    3    3  502    0 -0.40149235271E+02  0.35076049564E+02  0.33679701919E+03  0.34102289143E+03  0.47000000000E+01 0.  1.
         -5    1    3    3    0  502  0.10466315708E+02  0.14997868493E+02 -0.39184613232E+01  0.19285335438E+02  0.47000000000E+01 0.  1.
        -11    1    1    2    0    0 -0.26176438662E+02 -0.20738371879E+02  0.82609156603E+00  0.33406113760E+02  0.00000000000E+00 0.  1.
         11    1    1    2    0    0  0.55859358225E+02 -0.29335546178E+02  0.84252666560E+02  0.10525851031E+03  0.00000000000E+00 0. -1.
<mgrwt>
<rscale>  0 0.13016722E+03</rscale>
<asrwt>0</asrwt>
<pdfrwt beam="1">  1        2 0.70533086E-01 0.13789084E+03</pdfrwt>
<pdfrwt beam="2">  1       -2 0.62319646E-02 0.13789084E+03</pdfrwt>
<totfact> 0.91345623E+03</totfact>
</mgrwt>
</event>
<event>
 7    1  0.6419647E-006  0.1522224E+03  0.7546771E-02  0.1206949E+00
         -1   -1    0    0    0  501 -0.00000000000E+00  0.00000000000E+00  0.37267448224E+02  0.37267448224E+02  0.00000000000E+00 0.  1.
          1   -1    0    0  501    0  0.00000000000E+00 -0.00000000000E+00 -0.53615265773E+03  0.53615265773E+03  0.00000000000E+00 0. -1.
         23    2    1    2    0    0  0.27536808099E+02  0.82387254370E+02 -0.33006780583E+03  0.36347821179E+03  0.12500287403E+03 0.  0.
          5    1    3    3  502    0  0.54487079682E+02 -0.10239133486E+02 -0.12123729681E+03  0.13339510428E+03  0.47000000000E+01 0. -1.
         -5    1    3    3    0  502 -0.26950271583E+02  0.92626387856E+02 -0.20883050902E+03  0.23008310751E+03  0.47000000000E+01 0. -1.
        -11    1    1    2    0    0 -0.16545990317E+02 -0.87656091323E+02 -0.17488888019E+03  0.19632493616E+03  0.00000000000E+00 0. -1.
         11    1    1    2    0    0 -0.10990817782E+02  0.52688369529E+01  0.60714765158E+01  0.13616958010E+02  0.00000000000E+00 0.  1.
<mgrwt>
<rscale>  0 0.14484946E+03</rscale>
<asrwt>0</asrwt>
<pdfrwt beam="2">  1        1 0.82485023E-01 0.15222238E+03</pdfrwt>
<pdfrwt beam="1">  1       -1 0.57334537E-02 0.15222238E+03</pdfrwt>
<totfact> 0.56982228E+03</totfact>
</mgrwt>
</event>
<event>
 7    1  0.6419647E-006  0.1317134E+03  0.7546771E-02  0.1236130E+00
          2   -1    0    0  501    0  0.00000000000E+00  0.00000000000E+00  0.95435143183E+02  0.95435143183E+02  0.00000000000E+00 0. -1.
         -2   -1    0    0    0  501 -0.00000000000E+00 -0.00000000000E+00 -0.20036499271E+03  0.20036499271E+03  0.00000000000E+00 0.  1.
         23    2    1    2    0    0 -0.40022361453E+02 -0.11035857437E+02  0.19640840325E+02  0.13316976314E+03  0.12499937456E+03 0.  0.
          5    1    3    3  502    0 -0.73717470639E+02 -0.20070051981E+02 -0.21029930701E+02  0.79381486817E+02  0.47000000000E+01 0. -1.
         -5    1    3    3    0  502  0.33695109186E+02  0.90341945439E+01  0.40670771026E+02  0.53788276325E+02  0.47000000000E+01 0. -1.
        -11    1    1    2    0    0  0.29280467736E+01 -0.30460456225E+02 -0.94576638833E+02  0.99403991189E+02  0.00000000000E+00 0.  1.
         11    1    1    2    0    0  0.37094314679E+02  0.41496313662E+02 -0.29994051019E+02  0.63226381564E+02  0.00000000000E+00 0. -1.
<mgrwt>
<rscale>  0 0.12432369E+03</rscale>
<asrwt>0</asrwt>
<pdfrwt beam="1">  1        2 0.14682330E-01 0.13171341E+03</pdfrwt>
<pdfrwt beam="2">  1       -2 0.30825383E-01 0.13171341E+03</pdfrwt>
<totfact> 0.37201733E+03</totfact>
</mgrwt>
</event>
<event>
 7    1  0.6419647E-006  0.1376432E+03  0.7546771E-02  0.1228834E+00
          1   -1    0    0  501    0  0.00000000000E+00  0.00000000000E+00  0.73384768195E+03  0.73384768195E+03  0.00000000000E+00 0. -1.
         -1   -1    0    0    0  501 -0.00000000000E+00 -0.00000000000E+00 -0.40727559148E+02  0.40727559148E+02  0.00000000000E+00 0.  1.
         23    2    1    2    0    0  0.57504136923E+02  0.37595795695E+01  0.64182647234E+03  0.65641973415E+03  0.12499914634E+03 0.  0.
          5    1    3    3  502    0  0.12050315066E+02  0.17904220609E+02  0.12702256560E+02  0.25479570847E+02  0.47000000000E+01 0. -1.
         -5    1    3    3    0  502  0.45453821857E+02 -0.14144641040E+02  0.62912421578E+03  0.63094016331E+03  0.47000000000E+01 0. -1.
        -11    1    1    2    0    0 -0.42496621254E+01 -0.32237052822E+02 -0.80392402517E+01  0.33495023312E+02  0.00000000000E+00 0.  1.
         11    1    1    2    0    0 -0.53254474798E+02  0.28477473252E+02  0.59332890718E+02  0.84660483638E+02  0.00000000000E+00 0. -1.
<mgrwt>
<rscale>  0 0.12907534E+03</rscale>
<asrwt>0</asrwt>
<pdfrwt beam="1">  1        1 0.11289963E+00 0.13764319E+03</pdfrwt>
<pdfrwt beam="2">  1       -1 0.62657789E-02 0.13764319E+03</pdfrwt>
<totfact> 0.32171004E+03</totfact>
</mgrwt>
</event>
<event>
 7    1  0.6419647E-006  0.1323233E+03  0.7546771E-02  0.1237935E+00
          2   -1    0    0  501    0  0.00000000000E+00  0.00000000000E+00  0.23376360327E+03  0.23376360327E+03  0.00000000000E+00 0. -1.
         -2   -1    0    0    0  501 -0.00000000000E+00 -0.00000000000E+00 -0.10100156820E+03  0.10100156820E+03  0.00000000000E+00 0.  1.
         23    2    1    2    0    0 -0.16587876785E+02 -0.40103745797E+02  0.18106696166E+03  0.22426481482E+03  0.12500397786E+03 0.  0.
          5    1    3    3  502    0 -0.65875590556E+02  0.24959374428E+01  0.10424321794E+03  0.12342836636E+03  0.47000000000E+01 0. -1.
         -5    1    3    3    0  502  0.49287713771E+02 -0.42599683240E+02  0.76823743719E+02  0.10083644847E+03  0.47000000000E+01 0. -1.
        -11    1    1    2    0    0 -0.90209592993E+01  0.63640195018E+02 -0.35558322592E+02  0.73456425412E+02  0.00000000000E+00 0. -1.
         11    1    1    2    0    0  0.25608836084E+02 -0.23536449221E+02 -0.12746604001E+02  0.37043931232E+02  0.00000000000E+00 0.  1.
<mgrwt>
<rscale>  0 0.12318426E+03</rscale>
<asrwt>0</asrwt>
<pdfrwt beam="1">  1        2 0.35963631E-01 0.13232333E+03</pdfrwt>
<pdfrwt beam="2">  1       -2 0.15538703E-01 0.13232333E+03</pdfrwt>
<totfact> 0.44386070E+03</totfact>
</mgrwt>
</event>
<event>
 7    1  0.6419647E-006  0.1267873E+03  0.7546771E-02  0.1247361E+00
          1   -1    0    0  501    0  0.00000000000E+00  0.00000000000E+00  0.97676793757E+02  0.97676793757E+02  0.00000000000E+00 0. -1.
         -1   -1    0    0    0  501 -0.00000000000E+00 -0.00000000000E+00 -0.12407097176E+03  0.12407097176E+03  0.00000000000E+00 0.  1.
         23    2    1    2    0    0  0.13100328061E+02  0.16668605395E+02 -0.14012589741E+02  0.12755931555E+03  0.12500226122E+03 0.  0.
          5    1    3    3  502    0  0.29494914457E+02  0.15734869569E+02 -0.65295914765E+02  0.73506343836E+02  0.47000000000E+01 0.  1.
         -5    1    3    3    0  502 -0.16394586396E+02  0.93373582639E+00  0.51283325023E+02  0.54052971714E+02  0.47000000000E+01 0.  1.
        -11    1    1    2    0    0  0.13197023165E+02  0.11618578713E+02 -0.41989901079E+02  0.45522572251E+02  0.00000000000E+00 0.  1.
         11    1    1    2    0    0 -0.26297351226E+02 -0.28287184108E+02  0.29608312816E+02  0.48665877718E+02  0.00000000000E+00 0. -1.
<mgrwt>
<rscale>  0 0.11745189E+03</rscale>
<asrwt>0</asrwt>
<pdfrwt beam="1">  1        1 0.15027199E-01 0.12678733E+03</pdfrwt>
<pdfrwt beam="2">  1       -1 0.19087842E-01 0.12678733E+03</pdfrwt>
<totfact> 0.76093561E+03</totfact>
</mgrwt>
</event>
<event>
 7    1  0.6419647E-006  0.1377521E+03  0.7546771E-02  0.1227577E+00
         -2   -1    0    0    0  501 -0.00000000000E+00  0.00000000000E+00  0.50663462389E+03  0.50663462389E+03  0.00000000000E+00 0. -1.
          2   -1    0    0  501    0  0.00000000000E+00 -0.00000000000E+00 -0.30049764286E+02  0.30049764286E+02  0.00000000000E+00 0.  1.
         23    2    1    2    0    0  0.31136499702E+02  0.48789047130E+02  0.27036239716E+03  0.30343278524E+03  0.12500310647E+03 0.  0.
          5    1    3    3  502    0  0.84656016826E+01 -0.23003944315E+02  0.24216463631E+01  0.25075929435E+02  0.47000000000E+01 0.  1.
         -5    1    3    3    0  502  0.22670898020E+02  0.71792991445E+02  0.26794075079E+03  0.27835685580E+03  0.47000000000E+01 0.  1.
        -11    1    1    2    0    0 -0.20815126023E+02 -0.41561828821E+02  0.21363459416E+03  0.21863301423E+03  0.00000000000E+00 0. -1.
         11    1    1    2    0    0 -0.10321373679E+02 -0.72272183085E+01 -0.74121317202E+01  0.14618588705E+02  0.00000000000E+00 0.  1.
<mgrwt>
<rscale>  0 0.12991798E+03</rscale>
<asrwt>0</asrwt>
<pdfrwt beam="2">  1        2 0.46230410E-02 0.13775206E+03</pdfrwt>
<pdfrwt beam="1">  1       -2 0.77943782E-01 0.13775206E+03</pdfrwt>
<totfact> 0.25243392E+03</totfact>
</mgrwt>
</event>
<event>
 7    1  0.6419647E-006  0.2370114E+03  0.7546771E-02  0.1124705E+00
          1   -1    0    0  501    0  0.00000000000E+00  0.00000000000E+00  0.44847592511E+03  0.44847592511E+03  0.00000000000E+00 0. -1.
         -1   -1    0    0    0  501 -0.00000000000E+00 -0.00000000000E+00 -0.15903670499E+03  0.15903670499E+03  0.00000000000E+00 0.  1.
         23    2    1    2    0    0  0.28167017282E+01 -0.20135126138E+03  0.30523663108E+03  0.38645028534E+03  0.12499663121E+03 0.  0.
          5    1    3    3  502    0 -0.26952195905E+02 -0.15393084755E+03  0.13293616833E+03  0.20521998329E+03  0.47000000000E+01 0. -1.
         -5    1    3    3    0  502  0.29768897633E+02 -0.47420413829E+02  0.17230046276E+03  0.18123030205E+03  0.47000000000E+01 0. -1.
        -11    1    1    2    0    0  0.59438138801E+01  0.83327046975E+02  0.37128696969E+02  0.91418082564E+02  0.00000000000E+00 0. -1.
         11    1    1    2    0    0 -0.87605156083E+01  0.11802421441E+03 -0.52926107931E+02  0.12964426220E+03  0.00000000000E+00 0.  1.
<mgrwt>
<rscale>  0 0.23277039E+03</rscale>
<asrwt>0</asrwt>
<pdfrwt beam="1">  1        1 0.68996296E-01 0.23701144E+03</pdfrwt>
<pdfrwt beam="2">  1       -1 0.24467186E-01 0.23701144E+03</pdfrwt>
<totfact> 0.75588413E+02</totfact>
</mgrwt>
</event>
<event>
 7    1  0.6419647E-006  0.1253568E+03  0.7546771E-02  0.1249449E+00
         -1   -1    0    0    0  501 -0.00000000000E+00  0.00000000000E+00  0.30027623967E+03  0.30027623967E+03  0.00000000000E+00 0.  1.
          1   -1    0    0  501    0  0.00000000000E+00 -0.00000000000E+00 -0.39594891169E+02  0.39594891169E+02  0.00000000000E+00 0. -1.
         23    2    1    2    0    0 -0.38701717220E+01  0.86131631823E+01  0.15425905810E+03  0.19877170537E+03  0.12500067617E+03 0.  0.
          5    1    3    3  502    0  0.24668926389E+01  0.62580366975E+02  0.11677191115E+03  0.13259018487E+03  0.47000000000E+01 0.  1.
         -5    1    3    3    0  502 -0.63370643609E+01 -0.53967203793E+02  0.37487146951E+02  0.66181520506E+02  0.47000000000E+01 0.  1.
        -11    1    1    2    0    0  0.13581807737E+02 -0.25838942452E+02  0.11565029054E+03  0.11927743353E+03  0.00000000000E+00 0.  1.
         11    1    1    2    0    0 -0.97116360151E+01  0.17225779269E+02 -0.92280001352E+01  0.21821991935E+02  0.00000000000E+00 0. -1.
<mgrwt>
<rscale>  0 0.11622995E+03</rscale>
<asrwt>0</asrwt>
<pdfrwt beam="2">  1        1 0.60915219E-02 0.12535683E+03</pdfrwt>
<pdfrwt beam="1">  1       -1 0.46196343E-01 0.12535683E+03</pdfrwt>
<totfact> 0.56919114E+03</totfact>
</mgrwt>
</event>
<event>
 7    1  0.6419647E-006  0.1162883E+03  0.7546771E-02  0.1260458E+00
         -4   -1    0    0    0  501 -0.00000000000E+00  0.00000000000E+00  0.49180596491E+02  0.49180596491E+02  0.00000000000E+00 0.  1.
          4   -1    0    0  501    0  0.00000000000E+00 -0.00000000000E+00 -0.90851785716E+03  0.90851785716E+03  0.00000000000E+00 0. -1.
         23    2    1    2    0    0 -0.28748737183E+01 -0.17836597449E+02 -0.85648909311E+03  0.86434746293E+03  0.11487628547E+03 0.  0.
          5    1    3    3  502    0 -0.37647467754E+02 -0.53894327442E+02 -0.47119060869E+03  0.47577789995E+03  0.47000000000E+01 0. -1.
         -5    1    3    3    0  502  0.34772594036E+02  0.36057729993E+02 -0.38529848442E+03  0.38856956299E+03  0.47000000000E+01 0.  1.
        -11    1    1    2    0    0  0.10347978719E+02 -0.35473795880E+02  0.94307081217E+01  0.38136716080E+02  0.00000000000E+00 0. -1.
         11    1    1    2    0    0 -0.74731050009E+01  0.53310393329E+02 -0.12278875683E+02  0.55214274634E+02  0.00000000000E+00 0.  1.
<mgrwt>
<rscale>  0 0.11006043E+03</rscale>
<asrwt>0</asrwt>
<pdfrwt beam="2">  1        4 0.13977198E+00 0.11628831E+03</pdfrwt>
<pdfrwt beam="1">  1       -4 0.75662455E-02 0.11628831E+03</pdfrwt>
<totfact> 0.75844820E+01</totfact>
</mgrwt>
</event>
<event>
 7    1  0.6419647E-006  0.1311628E+03  0.7546771E-02  0.1244886E+00
          1   -1    0    0  501    0  0.00000000000E+00  0.00000000000E+00  0.34762889388E+03  0.34762889388E+03  0.00000000000E+00 0. -1.
         -1   -1    0    0    0  501 -0.00000000000E+00 -0.00000000000E+00 -0.34827100342E+02  0.34827100342E+02  0.00000000000E+00 0.  1.
         23    2    1    2    0    0 -0.39407204211E+02  0.50468142261E+01  0.17744014356E+03  0.22065512291E+03  0.12500112256E+03 0.  0.
          5    1    3    3  502    0 -0.46611912251E+02  0.53407474304E+02  0.14591040518E+03  0.16228667541E+03  0.47000000000E+01 0. -1.
         -5    1    3    3    0  502  0.72047080401E+01 -0.48360660078E+02  0.31529738383E+02  0.58368447500E+02  0.47000000000E+01 0. -1.
        -11    1    1    2    0    0  0.24002078224E+02 -0.18983574294E+02  0.13754916722E+03  0.14091220406E+03  0.00000000000E+00 0. -1.
         11    1    1    2    0    0  0.15405125987E+02  0.13936760068E+02 -0.21875172398E+01  0.20888667251E+02  0.00000000000E+00 0.  1.
<mgrwt>
<rscale>  0 0.11892231E+03</rscale>
<asrwt>0</asrwt>
<pdfrwt beam="1">  1        1 0.53481366E-01 0.13116279E+03</pdfrwt>
<pdfrwt beam="2">  1       -1 0.53580157E-02 0.13116279E+03</pdfrwt>
<totfact> 0.10861877E+04</totfact>
</mgrwt>
</event>
<event>
 7    1  0.6419647E-006  0.1401868E+03  0.7546771E-02  0.1224079E+00
          3   -1    0    0  501    0  0.00000000000E+00  0.00000000000E+00  0.39220777855E+03  0.39220777855E+03  0.00000000000E+00 0. -1.
         -3   -1    0    0    0  501 -0.00000000000E+00 -0.00000000000E+00 -0.42731027441E+02  0.42731027441E+02  0.00000000000E+00 0.  1.
         23    2    1    2    0    0 -0.41637935478E+02 -0.47912221621E+02  0.24542829942E+03  0.28264356112E+03  0.12499213509E+03 0.  0.
          5    1    3    3  502    0 -0.18366490338E+01  0.81462162819E+01 -0.12453350139E+02  0.15713371664E+02  0.47000000000E+01 0. -1.
         -5    1    3    3    0  502 -0.39801286444E+02 -0.56058437902E+02  0.25788164956E+03  0.26693018946E+03  0.47000000000E+01 0. -1.
        -11    1    1    2    0    0 -0.18197719715E+02  0.44278622765E+02  0.65102292952E+02  0.80808798929E+02  0.00000000000E+00 0.  1.
         11    1    1    2    0    0  0.59835655193E+02  0.36335988554E+01  0.38946158733E+02  0.71486445939E+02  0.00000000000E+00 0. -1.
<mgrwt>
<rscale>  0 0.13230208E+03</rscale>
<asrwt>0</asrwt>
<pdfrwt beam="1">  1        3 0.60339656E-01 0.14018678E+03</pdfrwt>
<pdfrwt beam="2">  1       -3 0.65740045E-02 0.14018678E+03</pdfrwt>
<totfact> 0.92760889E+02</totfact>
</mgrwt>
</event>
<event>
 7    1  0.6419647E-006  0.1307158E+03  0.7546771E-02  0.1237915E+00
         -4   -1    0    0    0  501 -0.00000000000E+00  0.00000000000E+00  0.14728011225E+02  0.14728011225E+02  0.00000000000E+00 0.  1.
          4   -1    0    0  501    0  0.00000000000E+00 -0.00000000000E+00 -0.10247316180E+04  0.10247316180E+04  0.00000000000E+00 0. -1.
         23    2    1    2    0    0 -0.37812312963E+02 -0.57932233982E+01 -0.71739952063E+03  0.72921101460E+03  0.12499319647E+03 0.  0.
          5    1    3    3  502    0 -0.59510093432E+02  0.42094827238E+01 -0.68985735548E+03  0.69244814382E+03  0.47000000000E+01 0.  1.
         -5    1    3    3    0  502  0.21697780469E+02 -0.10002706122E+02 -0.27542165152E+02  0.36762870784E+02  0.47000000000E+01 0.  1.
        -11    1    1    2    0    0 -0.10205266551E+02  0.13540461760E+02 -0.37983178826E+01  0.17375810450E+02  0.00000000000E+00 0.  1.
         11    1    1    2    0    0  0.48017579514E+02 -0.77472383616E+01 -0.28880576821E+03  0.29287280413E+03  0.00000000000E+00 0. -1.
<mgrwt>
<rscale>  0 0.12319663E+03</rscale>
<asrwt>0</asrwt>
<pdfrwt beam="2">  1        4 0.15765101E+00 0.13071584E+03</pdfrwt>
<pdfrwt beam="1">  1       -4 0.22658480E-02 0.13071584E+03</pdfrwt>
<totfact> 0.38828650E+02</totfact>
</mgrwt>
</event>
<event>
 7    1  0.6419647E-006  0.1347867E+03  0.7546771E-02  0.1232841E+00
          1   -1    0    0  501    0  0.00000000000E+00  0.00000000000E+00  0.11202063405E+04  0.11202063405E+04  0.00000000000E+00 0. -1.
         -1   -1    0    0    0  501 -0.00000000000E+00 -0.00000000000E+00 -0.17580100031E+02  0.17580100031E+02  0.00000000000E+00 0.  1.
         23    2    1    2    0    0  0.71423409465E+01 -0.50015117860E+02  0.89824147037E+03  0.90829796278E+03  0.12495969370E+03 0.  0.
          5    1    3    3  502    0 -0.31781646300E+02 -0.47883304463E+02  0.18057503330E+03  0.18955821411E+03  0.47000000000E+01 0.  1.
         -5    1    3    3    0  502  0.38923987246E+02 -0.21318133968E+01  0.71766643707E+03  0.71873974866E+03  0.47000000000E+01 0.  1.
        -11    1    1    2    0    0 -0.26652932926E+02 -0.18068194621E+02  0.47829601870E+02  0.57658557956E+02  0.00000000000E+00 0.  1.
         11    1    1    2    0    0  0.19510591980E+02  0.68083312481E+02  0.15655516822E+03  0.17182991979E+03  0.00000000000E+00 0. -1.
<mgrwt>
<rscale>  0 0.12643661E+03</rscale>
<asrwt>0</asrwt>
<pdfrwt beam="1">  1        1 0.17233938E+00 0.13478668E+03</pdfrwt>
<pdfrwt beam="2">  1       -1 0.27046317E-02 0.13478668E+03</pdfrwt>
<totfact> 0.55994048E+03</totfact>
</mgrwt>
</event>
<event>
 7    1  0.6419647E-006  0.1397412E+03  0.7546771E-02  0.1224997E+00
          2   -1    0    0  501    0  0.00000000000E+00  0.00000000000E+00  0.66169458406E+03  0.66169458406E+03  0.00000000000E+00 0.  1.
         -2   -1    0    0    0  501 -0.00000000000E+00 -0.00000000000E+00 -0.23593253651E+02  0.23593253651E+02  0.00000000000E+00 0. -1.
         23    2    1    2    0    0 -0.51305811599E+02 -0.35644984291E+02  0.35638262609E+03  0.38280045647E+03  0.12499904833E+03 0.  0.
          5    1    3    3  502    0 -0.39528718843E+02 -0.25324452939E+02  0.36234059001E+03  0.36539928940E+03  0.47000000000E+01 0. -1.
         -5    1    3    3    0  502 -0.11777092756E+02 -0.10320531352E+02 -0.59579639160E+01  0.17401167064E+02  0.47000000000E+01 0. -1.
        -11    1    1    2    0    0  0.65350128600E+02  0.61907225385E+01  0.24369699856E+03  0.25238302531E+03  0.00000000000E+00 0.  1.
         11    1    1    2    0    0 -0.14044317001E+02  0.29454261752E+02  0.38021705752E+02  0.50104355935E+02  0.00000000000E+00 0. -1.
<mgrwt>
<rscale>  0 0.13167105E+03</rscale>
<asrwt>0</asrwt>
<pdfrwt beam="1">  1        2 0.10179915E+00 0.13974124E+03</pdfrwt>
<pdfrwt beam="2">  1       -2 0.36297318E-02 0.13974124E+03</pdfrwt>
<totfact> 0.13627735E+04</totfact>
</mgrwt>
</event>
<event>
 6    1  0.6419647E-006  0.1983649E+03  0.7546771E-02  0.1176566E+00
         -2   -1    0    0    0  501 -0.00000000000E+00  0.00000000000E+00  0.69475520831E+02  0.69475520831E+02  0.00000000000E+00 0.  1.
          2   -1    0    0  501    0  0.00000000000E+00 -0.00000000000E+00 -0.39478403798E+03  0.39478403798E+03  0.00000000000E+00 0. -1.
          5    1    1    2  502    0  0.25873992018E+02 -0.45093959303E+02 -0.20128759159E+03  0.20794641896E+03  0.47000000000E+01 0. -1.
         -5    1    1    2    0  502 -0.36040055825E+02  0.10506327405E+03 -0.83143760402E+02  0.13882417683E+03  0.47000000000E+01 0.  1.
        -11    1    1    2    0    0 -0.34039624866E+02 -0.50530489391E+02 -0.76852006863E+01  0.61409190914E+02  0.00000000000E+00 0.  1.
         11    1    1    2    0    0  0.44205688672E+02 -0.94388253541E+01 -0.33191964469E+02  0.56079772114E+02  0.00000000000E+00 0. -1.
<mgrwt>
<rscale>  0 0.17123536E+03</rscale>
<asrwt>0</asrwt>
<pdfrwt beam="2">  1        2 0.60736005E-01 0.19836495E+03</pdfrwt>
<pdfrwt beam="1">  1       -2 0.10688542E-01 0.19836495E+03</pdfrwt>
<totfact> 0.47373934E+03</totfact>
</mgrwt>
</event>
<event>
 7    1  0.6419647E-006  0.1295488E+03  0.7546771E-02  0.1255934E+00
          1   -1    0    0  501    0  0.00000000000E+00  0.00000000000E+00  0.93425600706E+03  0.93425600706E+03  0.00000000000E+00 0. -1.
         -1   -1    0    0    0  501 -0.00000000000E+00 -0.00000000000E+00 -0.11477112505E+02  0.11477112505E+02  0.00000000000E+00 0.  1.
         23    2    1    2    0    0  0.30989961160E+02 -0.14044374599E+02  0.66984602396E+03  0.68225844908E+03  0.12500109351E+03 0.  0.
          5    1    3    3  502    0  0.99150841612E+01 -0.31144482826E+02  0.40257383385E+02  0.52067596655E+02  0.47000000000E+01 0.  1.
         -5    1    3    3    0  502  0.21074876999E+02  0.17100108227E+02  0.62958864057E+03  0.63019085243E+03  0.47000000000E+01 0.  1.
        -11    1    1    2    0    0 -0.44708487363E+02  0.17296940997E+02  0.23860641982E+03  0.24337431374E+03  0.00000000000E+00 0. -1.
         11    1    1    2    0    0  0.13718526203E+02 -0.32525663984E+01  0.14326450779E+02  0.20100356745E+02  0.00000000000E+00 0.  1.
<mgrwt>
<rscale>  0 0.11254171E+03</rscale>
<asrwt>0</asrwt>
<pdfrwt beam="1">  1        1 0.14373163E+00 0.12954882E+03</pdfrwt>
<pdfrwt beam="2">  1       -1 0.17657103E-02 0.12954882E+03</pdfrwt>
<totfact> 0.14103081E+04</totfact>
</mgrwt>
</event>
<event>
 7    1  0.6419647E-006  0.1574858E+03  0.7546771E-02  0.1199526E+00
         -2   -1    0    0    0  501 -0.00000000000E+00  0.00000000000E+00  0.23686267016E+02  0.23686267016E+02  0.00000000000E+00 0.  1.
          2   -1    0    0  501    0  0.00000000000E+00 -0.00000000000E+00 -0.92450379512E+03  0.92450379512E+03  0.00000000000E+00 0. -1.
         23    2    1    2    0    0 -0.58361971780E+02 -0.75965612912E+02 -0.58388399081E+03  0.60474976857E+03  0.12499949507E+03 0.  0.
          5    1    3    3  502    0 -0.65415560294E+02 -0.74169023184E+02 -0.22569505305E+03  0.24645605389E+03  0.47000000000E+01 0. -1.
         -5    1    3    3    0  502  0.70535885148E+01 -0.17965897276E+01 -0.35818893776E+03  0.35829371468E+03  0.47000000000E+01 0. -1.
        -11    1    1    2    0    0  0.74445057664E+02  0.33620182352E+02 -0.24665424973E+03  0.25982821668E+03  0.00000000000E+00 0. -1.
         11    1    1    2    0    0 -0.16083085884E+02  0.42345430560E+02 -0.70279287560E+02  0.83612076883E+02  0.00000000000E+00 0.  1.
<mgrwt>
<rscale>  0 0.15077325E+03</rscale>
<asrwt>0</asrwt>
<pdfrwt beam="2">  1        2 0.14223135E+00 0.15748577E+03</pdfrwt>
<pdfrwt beam="1">  1       -2 0.36440412E-02 0.15748577E+03</pdfrwt>
<totfact> 0.90096369E+03</totfact>
</mgrwt>
</event>
<event>
 7    1  0.6419647E-006  0.1251001E+03  0.7546771E-02  0.1252448E+00
          2   -1    0    0  501    0  0.00000000000E+00  0.00000000000E+00  0.24377769834E+03  0.24377769834E+03  0.00000000000E+00 0.  1.
         -2   -1    0    0    0  501 -0.00000000000E+00 -0.00000000000E+00 -0.46705873836E+02  0.46705873836E+02  0.00000000000E+00 0. -1.
         23    2    1    2    0    0 -0.33981066385E+01 -0.36426094542E+01  0.12553990965E+03  0.17722953363E+03  0.12500089176E+03 0.  0.
          5    1    3    3  502    0  0.31433202057E+02  0.50368010026E+02  0.72075634633E+02  0.93498501236E+02  0.47000000000E+01 0. -1.
         -5    1    3    3    0  502 -0.34831308695E+02 -0.54010619480E+02  0.53464275018E+02  0.83731032391E+02  0.47000000000E+01 0. -1.
        -11    1    1    2    0    0  0.21133166905E+02 -0.91603602265E+01  0.84664073577E+02  0.87741257670E+02  0.00000000000E+00 0.  1.
         11    1    1    2    0    0 -0.17735060267E+02  0.12802969681E+02 -0.13132158727E+02  0.25512780878E+02  0.00000000000E+00 0. -1.
<mgrwt>
<rscale>  0 0.11450454E+03</rscale>
<asrwt>0</asrwt>
<pdfrwt beam="1">  1        2 0.37504261E-01 0.12510011E+03</pdfrwt>
<pdfrwt beam="2">  1       -2 0.71855192E-02 0.12510011E+03</pdfrwt>
<totfact> 0.14287996E+04</totfact>
</mgrwt>
</event>
<event>
 7    1  0.6419647E-006  0.1357078E+03  0.7546771E-02  0.1232748E+00
          2   -1    0    0  501    0  0.00000000000E+00  0.00000000000E+00  0.25945475314E+03  0.25945475314E+03  0.00000000000E+00 0. -1.
         -2   -1    0    0    0  501 -0.00000000000E+00 -0.00000000000E+00 -0.57134131851E+02  0.57134131851E+02  0.00000000000E+00 0.  1.
         23    2    1    2    0    0 -0.97039181002E+01  0.51917621431E+02  0.14736304084E+03  0.20033088137E+03  0.12500796288E+03 0.  0.
          5    1    3    3  502    0  0.47617125232E+02  0.27025382134E+02  0.11992961178E+03  0.13192029289E+03  0.47000000000E+01 0.  1.
         -5    1    3    3    0  502 -0.57321043332E+02  0.24892239297E+02  0.27433429065E+02  0.68410588480E+02  0.47000000000E+01 0.  1.
        -11    1    1    2    0    0 -0.16515349924E+02  0.14005410529E+02 -0.62714107773E+01  0.22544154461E+02  0.00000000000E+00 0.  1.
         11    1    1    2    0    0  0.26219268024E+02 -0.65923031960E+02  0.61228991229E+02  0.93713849166E+02  0.00000000000E+00 0. -1.
<mgrwt>
<rscale>  0 0.12649675E+03</rscale>
<asrwt>0</asrwt>
<pdfrwt beam="1">  1        2 0.39916115E-01 0.13570776E+03</pdfrwt>
<pdfrwt beam="2">  1       -2 0.87898666E-02 0.13570776E+03</pdfrwt>
<totfact> 0.98650642E+03</totfact>
</mgrwt>
</event>
<event>
 7    1  0.6419647E-006  0.1273609E+03  0.7546771E-02  0.1247163E+00
          1   -1    0    0  501    0  0.00000000000E+00  0.00000000000E+00  0.92890762156E+02  0.92890762156E+02  0.00000000000E+00 0. -1.
         -1   -1    0    0    0  501 -0.00000000000E+00 -0.00000000000E+00 -0.13161447793E+03  0.13161447793E+03  0.00000000000E+00 0.  1.
         23    2    1    2    0    0 -0.77535014481E+01  0.23164751621E+02 -0.34389813659E+02  0.13192213894E+03  0.12499627577E+03 0.  0.
          5    1    3    3  502    0  0.53561833418E+02  0.30967245231E+02 -0.32176036380E+02  0.69894403162E+02  0.47000000000E+01 0.  1.
         -5    1    3    3    0  502 -0.61315334866E+02 -0.78024936102E+01 -0.22137772795E+01  0.62027735781E+02  0.47000000000E+01 0.  1.
        -11    1    1    2    0    0  0.42414710277E+02 -0.18130323341E+02 -0.24435487385E+02  0.52199706092E+02  0.00000000000E+00 0.  1.
         11    1    1    2    0    0 -0.34661208829E+02 -0.50344282796E+01  0.20101585269E+02  0.40383395052E+02  0.00000000000E+00 0. -1.
<mgrwt>
<rscale>  0 0.11756847E+03</rscale>
<asrwt>0</asrwt>
<pdfrwt beam="1">  1        1 0.14290887E-01 0.12736087E+03</pdfrwt>
<pdfrwt beam="2">  1       -1 0.20248381E-01 0.12736087E+03</pdfrwt>
<totfact> 0.73910046E+03</totfact>
</mgrwt>
</event>
<event>
 7    1  0.6419647E-006  0.1270558E+03  0.7546771E-02  0.1246471E+00
         -2   -1    0    0    0  501 -0.00000000000E+00  0.00000000000E+00  0.21301514878E+02  0.21301514878E+02  0.00000000000E+00 0.  1.
          2   -1    0    0  501    0  0.00000000000E+00 -0.00000000000E+00 -0.57932384916E+03  0.57932384916E+03  0.00000000000E+00 0. -1.
         23    2    1    2    0    0 -0.67033552296E+01 -0.21798255754E+02 -0.34280955229E+03  0.36559753250E+03  0.12499227057E+03 0.  0.
          5    1    3    3  502    0  0.35408343949E+02 -0.54028866136E+02 -0.25332422611E+03  0.26147298662E+03  0.47000000000E+01 0.  1.
         -5    1    3    3    0  502 -0.42111699178E+02  0.32230610382E+02 -0.89485326187E+02  0.10412454589E+03  0.47000000000E+01 0.  1.
        -11    1    1    2    0    0 -0.13511103802E+02 -0.32621083641E+02 -0.64693943527E+02  0.73702044429E+02  0.00000000000E+00 0.  1.
         11    1    1    2    0    0  0.20214459032E+02  0.54419339395E+02 -0.15051883846E+03  0.16132578711E+03  0.00000000000E+00 0. -1.
<mgrwt>
<rscale>  0 0.11797792E+03</rscale>
<asrwt>0</asrwt>
<pdfrwt beam="2">  1        2 0.89126735E-01 0.12705576E+03</pdfrwt>
<pdfrwt beam="1">  1       -2 0.32771565E-02 0.12705576E+03</pdfrwt>
<totfact> 0.18320037E+04</totfact>
</mgrwt>
</event>
<event>
 7    1  0.6419647E-006  0.3413599E+03  0.7546771E-02  0.1067417E+00
          2   -1    0    0  501    0  0.00000000000E+00  0.00000000000E+00  0.17127407966E+04  0.17127407966E+04  0.00000000000E+00 0. -1.
         -2   -1    0    0    0  501 -0.00000000000E+00 -0.00000000000E+00 -0.69332285819E+02  0.69332285819E+02  0.00000000000E+00 0.  1.
         23    2    1    2    0    0  0.11235481833E+01  0.31764501812E+03  0.10346802091E+04  0.10895364670E+04  0.12500783152E+03 0.  0.
          5    1    3    3  502    0  0.14568744281E+02  0.31220183206E+03  0.87547002737E+03  0.92959781146E+03  0.47000000000E+01 0.  1.
         -5    1    3    3    0  502 -0.13445196098E+02  0.54431860645E+01  0.15921018169E+03  0.15993865551E+03  0.47000000000E+01 0.  1.
        -11    1    1    2    0    0 -0.42065664516E+02 -0.21929195694E+03  0.42803136719E+03  0.48277254873E+03  0.00000000000E+00 0. -1.
         11    1    1    2    0    0  0.40942116332E+02 -0.98353061183E+02  0.18069693450E+03  0.20976406668E+03  0.00000000000E+00 0.  1.
<mgrwt>
<rscale>  0 0.33854467E+03</rscale>
<asrwt>0</asrwt>
<pdfrwt beam="1">  1        2 0.26349855E+00 0.34135989E+03</pdfrwt>
<pdfrwt beam="2">  1       -2 0.10666507E-01 0.34135989E+03</pdfrwt>
<totfact> 0.62538348E+02</totfact>
</mgrwt>
</event>
<event>
 6    1  0.6419647E-006  0.1480439E+03  0.7546771E-02  0.1219152E+00
          2   -1    0    0  501    0  0.00000000000E+00  0.00000000000E+00  0.52941896149E+03  0.52941896149E+03  0.00000000000E+00 0. -1.
         -2   -1    0    0    0  501 -0.00000000000E+00 -0.00000000000E+00 -0.30594380143E+02  0.30594380143E+02  0.00000000000E+00 0.  1.
          5    1    1    2  502    0  0.11325654579E+02  0.59396912791E+02  0.27651665926E+03  0.28308976765E+03  0.47000000000E+01 0. -1.
         -5    1    1    2    0  502  0.38134332196E+02 -0.40388513944E+02  0.47854825057E+02  0.73468589423E+02  0.47000000000E+01 0.  1.
        -11    1    1    2    0    0 -0.61938654454E+02 -0.42130134299E+02  0.10326918315E+03  0.12757691531E+03  0.00000000000E+00 0. -1.
         11    1    1    2    0    0  0.12478667679E+02  0.23121735453E+02  0.71183913890E+02  0.75878069256E+02  0.00000000000E+00 0.  1.
<mgrwt>
<rscale>  0 0.13575927E+03</rscale>
<asrwt>0</asrwt>
<pdfrwt beam="1">  1        2 0.81449064E-01 0.14804392E+03</pdfrwt>
<pdfrwt beam="2">  1       -2 0.47068281E-02 0.14804392E+03</pdfrwt>
<totfact> 0.11973514E+04</totfact>
</mgrwt>
</event>
<event>
 7    1  0.6419647E-006  0.1290191E+03  0.7546771E-02  0.1243600E+00
          4   -1    0    0  501    0  0.00000000000E+00  0.00000000000E+00  0.23893348222E+03  0.23893348222E+03  0.00000000000E+00 0. -1.
         -4   -1    0    0    0  501 -0.00000000000E+00 -0.00000000000E+00 -0.53814036139E+02  0.53814036139E+02  0.00000000000E+00 0.  1.
         23    2    1    2    0    0 -0.31873394188E+02 -0.21525171532E+01  0.12615335967E+03  0.18044553726E+03  0.12500150069E+03 0.  0.
          5    1    3    3  502    0 -0.75148423579E+02  0.22992551623E+02  0.75388366651E+02  0.10900201293E+03  0.47000000000E+01 0.  1.
         -5    1    3    3    0  502  0.43275029391E+02 -0.25145068777E+02  0.50764993015E+02  0.71443524328E+02  0.47000000000E+01 0.  1.
        -11    1    1    2    0    0  0.27757835832E+02  0.44304408411E+02  0.40336468299E+02  0.66033391020E+02  0.00000000000E+00 0. -1.
         11    1    1    2    0    0  0.41155583561E+01 -0.42151891258E+02  0.18629618121E+02  0.46268590086E+02  0.00000000000E+00 0.  1.
<mgrwt>
<rscale>  0 0.11969539E+03</rscale>
<asrwt>0</asrwt>
<pdfrwt beam="1">  1        4 0.36758997E-01 0.12901908E+03</pdfrwt>
<pdfrwt beam="2">  1       -4 0.82790826E-02 0.12901908E+03</pdfrwt>
<totfact> 0.12219189E+03</totfact>
</mgrwt>
</event>
<event>
 7    1  0.6419647E-006  0.1285461E+03  0.7546771E-02  0.1245624E+00
          2   -1    0    0  501    0  0.00000000000E+00  0.00000000000E+00  0.17638489258E+03  0.17638489258E+03  0.00000000000E+00 0.  1.
         -2   -1    0    0    0  501 -0.00000000000E+00 -0.00000000000E+00 -0.83258567192E+02  0.83258567192E+02  0.00000000000E+00 0. -1.
         23    2    1    2    0    0  0.26265361594E+02 -0.12105137543E+02  0.10517683637E+03  0.16609111807E+03  0.12525050506E+03 0.  0.
          5    1    3    3  502    0 -0.48047424378E+02  0.67859979898E+01  0.24038271345E+02  0.54355618360E+02  0.47000000000E+01 0.  1.
         -5    1    3    3    0  502  0.74312785971E+02 -0.18891135533E+02  0.81138565022E+02  0.11173549971E+03  0.47000000000E+01 0.  1.
        -11    1    1    2    0    0  0.29564293714E+02  0.11948040076E+01  0.11819042335E+02  0.31861650634E+02  0.00000000000E+00 0.  1.
         11    1    1    2    0    0 -0.55829655308E+02  0.10910333535E+02 -0.23869553313E+02  0.61690691072E+02  0.00000000000E+00 0. -1.
<mgrwt>
<rscale>  0 0.11848121E+03</rscale>
<asrwt>0</asrwt>
<pdfrwt beam="1">  1        2 0.27136137E-01 0.12854607E+03</pdfrwt>
<pdfrwt beam="2">  1       -2 0.12809010E-01 0.12854607E+03</pdfrwt>
<totfact> 0.82112257E+03</totfact>
</mgrwt>
</event>
<event>
 7    1  0.6419647E-006  0.1440286E+03  0.7546771E-02  0.1218602E+00
         -1   -1    0    0    0  501 -0.00000000000E+00  0.00000000000E+00  0.73001324586E+02  0.73001324586E+02  0.00000000000E+00 0.  1.
          1   -1    0    0  501    0  0.00000000000E+00 -0.00000000000E+00 -0.41617792660E+03  0.41617792660E+03  0.00000000000E+00 0. -1.
         23    2    1    2    0    0 -0.17387626051E+00 -0.71580812547E+02 -0.34530998936E+03  0.37414333615E+03  0.12498161575E+03 0.  0.
          5    1    3    3  502    0 -0.52882840818E+02 -0.43222292898E+02 -0.97308338822E+02  0.11897799906E+03  0.47000000000E+01 0.  1.
         -5    1    3    3    0  502  0.52708964558E+02 -0.28358519649E+02 -0.24800165054E+03  0.25516533709E+03  0.47000000000E+01 0.  1.
        -11    1    1    2    0    0  0.39271037287E+02  0.21188491788E+02 -0.18054440228E+02  0.48136569942E+02  0.00000000000E+00 0.  1.
         11    1    1    2    0    0 -0.39097161026E+02  0.50392320759E+02  0.20187827576E+02  0.66899345094E+02  0.00000000000E+00 0. -1.
<mgrwt>
<rscale>  0 0.13615272E+03</rscale>
<asrwt>0</asrwt>
<pdfrwt beam="2">  1        1 0.64027374E-01 0.14402863E+03</pdfrwt>
<pdfrwt beam="1">  1       -1 0.11230973E-01 0.14402863E+03</pdfrwt>
<totfact> 0.28535165E+03</totfact>
</mgrwt>
</event>
<event>
 7    1  0.6419647E-006  0.1397337E+03  0.7546771E-02  0.1225195E+00
         -1   -1    0    0    0  501 -0.00000000000E+00  0.00000000000E+00  0.37328768295E+02  0.37328768295E+02  0.00000000000E+00 0.  1.
          1   -1    0    0  501    0  0.00000000000E+00 -0.00000000000E+00 -0.46372170448E+03  0.46372170448E+03  0.00000000000E+00 0. -1.
         23    2    1    2    0    0 -0.21858428453E+02  0.58502971882E+02 -0.31548111481E+03  0.34504179727E+03  0.12500047780E+03 0.  0.
          5    1    3    3  502    0  0.32703167603E+02  0.70058502512E+02 -0.13027143945E+03  0.15155998443E+03  0.47000000000E+01 0.  1.
         -5    1    3    3    0  502 -0.54561596056E+02 -0.11555530630E+02 -0.18520967536E+03  0.19348181284E+03  0.47000000000E+01 0.  1.
        -11    1    1    2    0    0 -0.13125602499E+02 -0.40416477634E+02 -0.47278700802E+01  0.42756588508E+02  0.00000000000E+00 0.  1.
         11    1    1    2    0    0  0.34984030952E+02 -0.18086494248E+02 -0.10618395130E+03  0.11325208699E+03  0.00000000000E+00 0. -1.
<mgrwt>
<rscale>  0 0.13153517E+03</rscale>
<asrwt>0</asrwt>
<pdfrwt beam="2">  1        1 0.71341803E-01 0.13973370E+03</pdfrwt>
<pdfrwt beam="1">  1       -1 0.57428873E-02 0.13973370E+03</pdfrwt>
<totfact> 0.68388502E+03</totfact>
</mgrwt>
</event>
<event>
 7    1  0.6419647E-006  0.1688349E+03  0.7546771E-02  0.1185538E+00
         -1   -1    0    0    0  501 -0.00000000000E+00  0.00000000000E+00  0.64665463491E+02  0.64665463491E+02  0.00000000000E+00 0.  1.
          1   -1    0    0  501    0  0.00000000000E+00 -0.00000000000E+00 -0.39598761812E+03  0.39598761812E+03  0.00000000000E+00 0. -1.
         23    2    1    2    0    0 -0.75709658898E+02  0.84530784450E+02 -0.21825835069E+03  0.27593825099E+03  0.12501121847E+03 0.  0.
          5    1    3    3  502    0 -0.11068282011E+03  0.65341158537E+02 -0.16341146114E+03  0.20795564262E+03  0.47000000000E+01 0.  1.
         -5    1    3    3    0  502  0.34973161210E+02  0.19189625912E+02 -0.54846889545E+02  0.67982608367E+02  0.47000000000E+01 0.  1.
        -11    1    1    2    0    0 -0.13116206112E+02 -0.41241446708E+02 -0.15821347791E+02  0.46078268579E+02  0.00000000000E+00 0. -1.
         11    1    1    2    0    0  0.88825865010E+02 -0.43289337742E+02 -0.97242456151E+02  0.13863656204E+03  0.00000000000E+00 0.  1.
<mgrwt>
<rscale>  0 0.16283063E+03</rscale>
<asrwt>0</asrwt>
<pdfrwt beam="2">  1        1 0.60921172E-01 0.16883486E+03</pdfrwt>
<pdfrwt beam="1">  1       -1 0.99485329E-02 0.16883486E+03</pdfrwt>
<totfact> 0.36855295E+03</totfact>
</mgrwt>
</event>
<event>
 7    1  0.6419647E-006  0.1350533E+03  0.7546771E-02  0.1232647E+00
         -1   -1    0    0    0  501 -0.00000000000E+00  0.00000000000E+00  0.32668206137E+03  0.32668206137E+03  0.00000000000E+00 0.  1.
          1   -1    0    0  501    0  0.00000000000E+00 -0.00000000000E+00 -0.52549620272E+02  0.52549620272E+02  0.00000000000E+00 0. -1.
         23    2    1    2    0    0 -0.32958078914E+02 -0.39078883290E+02  0.74948144381E+02  0.15445586807E+03  0.12500398694E+03 0.  0.
          5    1    3    3  502    0  0.20528644787E+02 -0.30514385662E+01 -0.26602997296E+02  0.34066787333E+02  0.47000000000E+01 0.  1.
         -5    1    3    3    0  502 -0.53486723701E+02 -0.36027444723E+02  0.10155114168E+03  0.12038908074E+03  0.47000000000E+01 0.  1.
        -11    1    1    2    0    0 -0.14779966615E+02  0.51602763219E+02  0.87178242569E+02  0.10237840867E+03  0.00000000000E+00 0. -1.
         11    1    1    2    0    0  0.47738045529E+02 -0.12523879929E+02  0.11200605415E+03  0.12239740490E+03  0.00000000000E+00 0.  1.
<mgrwt>
<rscale>  0 0.12656292E+03</rscale>
<asrwt>0</asrwt>
<pdfrwt beam="2">  1        1 0.80845572E-02 0.13505329E+03</pdfrwt>
<pdfrwt beam="1">  1       -1 0.50258777E-01 0.13505329E+03</pdfrwt>
<totfact> 0.33534338E+03</totfact>
</mgrwt>
</event>
<event>
 7    1  0.6419647E-006  0.1875855E+03  0.7546771E-02  0.1167711E+00
         -1   -1    0    0    0  501 -0.00000000000E+00  0.00000000000E+00  0.43583096717E+02  0.43583096717E+02  0.00000000000E+00 0.  1.
          1   -1    0    0  501    0  0.00000000000E+00 -0.00000000000E+00 -0.69247606486E+03  0.69247606486E+03  0.00000000000E+00 0. -1.
         23    2    1    2    0    0  0.13982275323E+03  0.35394298947E+01 -0.37028497159E+03  0.41508948101E+03  0.12500154870E+03 0.  0.
          5    1    3    3  502    0  0.18490695211E+02 -0.89933955994E+00  0.57217466963E+01  0.19938480541E+02  0.47000000000E+01 0.  1.
         -5    1    3    3    0  502  0.12133205801E+03  0.44387694546E+01 -0.37600671828E+03  0.39515100047E+03  0.47000000000E+01 0.  1.
        -11    1    1    2    0    0 -0.16848480093E+02 -0.21610674058E+02 -0.19627669398E+02  0.33706645053E+02  0.00000000000E+00 0. -1.
         11    1    1    2    0    0 -0.12297427313E+03  0.18071244164E+02 -0.25898032716E+03  0.28726303551E+03  0.00000000000E+00 0.  1.
<mgrwt>
<rscale>  0 0.18009505E+03</rscale>
<asrwt>0</asrwt>
<pdfrwt beam="2">  1        1 0.10653477E+00 0.18758549E+03</pdfrwt>
<pdfrwt beam="1">  1       -1 0.67050922E-02 0.18758549E+03</pdfrwt>
<totfact> 0.31920371E+03</totfact>
</mgrwt>
</event>
<event>
 7    1  0.6419647E-006  0.1273756E+03  0.7546771E-02  0.1246019E+00
          1   -1    0    0  501    0  0.00000000000E+00  0.00000000000E+00  0.32612258268E+02  0.32612258268E+02  0.00000000000E+00 0. -1.
         -1   -1    0    0    0  501 -0.00000000000E+00 -0.00000000000E+00 -0.44362684928E+03  0.44362684928E+03  0.00000000000E+00 0.  1.
         23    2    1    2    0    0  0.24686210937E+02  0.49018911783E+01 -0.14041657438E+03  0.18958206974E+03  0.12486436344E+03 0.  0.
          5    1    3    3  502    0 -0.10343908695E+02 -0.41693140368E+02 -0.68238911413E+01  0.43748941600E+02  0.47000000000E+01 0. -1.
         -5    1    3    3    0  502  0.35030119633E+02  0.46595031546E+02 -0.13359268324E+03  0.14583312814E+03  0.47000000000E+01 0.  1.
        -11    1    1    2    0    0 -0.51509086043E+02  0.17218651850E+02 -0.11441361703E+03  0.12664968882E+03  0.00000000000E+00 0.  1.
         11    1    1    2    0    0  0.26822875106E+02 -0.22120543029E+02 -0.15618439960E+03  0.16000734900E+03  0.00000000000E+00 0. -1.
<mgrwt>
<rscale>  0 0.11824597E+03</rscale>
<asrwt>0</asrwt>
<pdfrwt beam="1">  1        1 0.50172706E-02 0.12737561E+03</pdfrwt>
<pdfrwt beam="2">  1       -1 0.68250283E-01 0.12737561E+03</pdfrwt>
<totfact> 0.35750507E+03</totfact>
</mgrwt>
</event>
<event>
 7    1  0.6419647E-006  0.1673686E+03  0.7546771E-02  0.1186574E+00
         -2   -1    0    0    0  501 -0.00000000000E+00  0.00000000000E+00  0.30772318809E+02  0.30772318809E+02  0.00000000000E+00 0.  1.
          2   -1    0    0  501    0  0.00000000000E+00 -0.00000000000E+00 -0.81097278545E+03  0.81097278545E+03  0.00000000000E+00 0. -1.
         23    2    1    2    0    0  0.10685008403E+03 -0.31802389457E+02 -0.46346621587E+03  0.49276077080E+03  0.12483553802E+03 0.  0.
          5    1    3    3  502    0  0.92472008446E+02 -0.73568566474E+02 -0.38306605879E+03  0.40090535257E+03  0.47000000000E+01 0.  1.
         -5    1    3    3    0  502  0.14378075583E+02  0.41766177016E+02 -0.80400157080E+02  0.91855418232E+02  0.47000000000E+01 0.  1.
        -11    1    1    2    0    0 -0.42862866554E+02 -0.11001206493E+02 -0.22461388540E+03  0.22893153865E+03  0.00000000000E+00 0. -1.
         11    1    1    2    0    0 -0.63987217475E+02  0.42803595950E+02 -0.92120365375E+02  0.12005279482E+03  0.00000000000E+00 0.  1.
<mgrwt>
<rscale>  0 0.16189489E+03</rscale>
<asrwt>0</asrwt>
<pdfrwt beam="2">  1        2 0.12476503E+00 0.16736859E+03</pdfrwt>
<pdfrwt beam="1">  1       -2 0.47342034E-02 0.16736859E+03</pdfrwt>
<totfact> 0.72399825E+03</totfact>
</mgrwt>
</event>
<event>
 7    1  0.6419647E-006  0.3331677E+03  0.7546771E-02  0.1071375E+00
          2   -1    0    0  501    0  0.00000000000E+00  0.00000000000E+00  0.10766267697E+04  0.10766267697E+04  0.00000000000E+00 0.  1.
         -2   -1    0    0    0  501 -0.00000000000E+00 -0.00000000000E+00 -0.10009506287E+03  0.10009506287E+03  0.00000000000E+00 0. -1.
         23    2    1    2    0    0 -0.26245227680E+02  0.30775580066E+03  0.56998476484E+03  0.66021464540E+03  0.12489315848E+03 0.  0.
          5    1    3    3  502    0  0.48204923035E+02  0.93812173185E+02  0.20578716001E+03  0.23128960994E+03  0.47000000000E+01 0.  1.
         -5    1    3    3    0  502 -0.74450150715E+02  0.21394362748E+03  0.36419760483E+03  0.42892503546E+03  0.47000000000E+01 0.  1.
        -11    1    1    2    0    0  0.84161492875E+01 -0.47183444251E+02  0.24801958212E+02  0.53965230578E+02  0.00000000000E+00 0. -1.
         11    1    1    2    0    0  0.17829078392E+02 -0.26057235641E+03  0.38174498381E+03  0.46254195661E+03  0.00000000000E+00 0.  1.
<mgrwt>
<rscale>  0 0.32946180E+03</rscale>
<asrwt>0</asrwt>
<pdfrwt beam="1">  1        2 0.16563488E+00 0.33316774E+03</pdfrwt>
<pdfrwt beam="2">  1       -2 0.15399241E-01 0.33316774E+03</pdfrwt>
<totfact> 0.77231156E+02</totfact>
</mgrwt>
</event>
<event>
 7    1  0.6419647E-006  0.1845776E+03  0.7546771E-02  0.1168526E+00
         -2   -1    0    0    0  501 -0.00000000000E+00  0.00000000000E+00  0.18230536694E+02  0.18230536694E+02  0.00000000000E+00 0.  1.
          2   -1    0    0  501    0  0.00000000000E+00 -0.00000000000E+00 -0.21293960159E+04  0.21293960159E+04  0.00000000000E+00 0. -1.
         23    2    1    2    0    0 -0.13576855951E+03  0.26407214189E+01 -0.16030463318E+04  0.16136376393E+04  0.12501525507E+03 0.  0.
          5    1    3    3  502    0 -0.41916828809E+02 -0.58619517372E+02 -0.66353453255E+03  0.66745294534E+03  0.47000000000E+01 0. -1.
         -5    1    3    3    0  502 -0.93851730699E+02  0.61260238791E+02 -0.93951179923E+03  0.94618469398E+03  0.47000000000E+01 0. -1.
        -11    1    1    2    0    0  0.11642109177E+03 -0.36888177707E+02 -0.42191980258E+03  0.43923903295E+03  0.00000000000E+00 0. -1.
         11    1    1    2    0    0  0.19347467743E+02  0.34247456288E+02 -0.86199344817E+02  0.94749880301E+02  0.00000000000E+00 0.  1.
<mgrwt>
<rscale>  0 0.17925546E+03</rscale>
<asrwt>0</asrwt>
<pdfrwt beam="2">  1        2 0.32759930E+00 0.18457760E+03</pdfrwt>
<pdfrwt beam="1">  1       -2 0.28046987E-02 0.18457760E+03</pdfrwt>
<totfact> 0.29803741E+03</totfact>
</mgrwt>
</event>
<event>
 7    1  0.6419647E-006  0.1256866E+03  0.7546771E-02  0.1251251E+00
         -1   -1    0    0    0  501 -0.00000000000E+00  0.00000000000E+00  0.21287424735E+02  0.21287424735E+02  0.00000000000E+00 0.  1.
          1   -1    0    0  501    0  0.00000000000E+00 -0.00000000000E+00 -0.65118479334E+03  0.65118479334E+03  0.00000000000E+00 0. -1.
         23    2    1    2    0    0 -0.12742993079E+02 -0.31338485262E+01 -0.49745550008E+03  0.51308781719E+03  0.12499971487E+03 0.  0.
          5    1    3    3  502    0 -0.30298130178E+02  0.55971427058E+01 -0.49089785551E+03  0.49188626657E+03  0.47000000000E+01 0. -1.
         -5    1    3    3    0  502  0.17555137100E+02 -0.87309912320E+01 -0.65576445679E+01  0.21201550622E+02  0.47000000000E+01 0. -1.
        -11    1    1    2    0    0  0.84644689749E+01  0.45263508259E+02 -0.62694438015E+02  0.77788334427E+02  0.00000000000E+00 0.  1.
         11    1    1    2    0    0  0.42785241039E+01 -0.42129659733E+02 -0.69747430515E+02  0.81596066456E+02  0.00000000000E+00 0. -1.
<mgrwt>
<rscale>  0 0.11518932E+03</rscale>
<asrwt>0</asrwt>
<pdfrwt beam="2">  1        1 0.10018227E+00 0.12568665E+03</pdfrwt>
<pdfrwt beam="1">  1       -1 0.32749886E-02 0.12568665E+03</pdfrwt>
<totfact> 0.98728797E+03</totfact>
</mgrwt>
</event>
<event>
 7    1  0.6419647E-006  0.1395693E+03  0.7546771E-02  0.1222233E+00
          2   -1    0    0  501    0  0.00000000000E+00  0.00000000000E+00  0.28829883548E+03  0.28829883548E+03  0.00000000000E+00 0. -1.
         -2   -1    0    0    0  501 -0.00000000000E+00 -0.00000000000E+00 -0.98020954578E+02  0.98020954578E+02  0.00000000000E+00 0.  1.
         23    2    1    2    0    0 -0.55079639068E+02  0.28615968366E+02  0.22445630050E+03  0.26431082627E+03  0.12500776683E+03 0.  0.
          5    1    3    3  502    0 -0.46523241241E+02 -0.10828996507E+02  0.14043041538E+02  0.50009760613E+02  0.47000000000E+01 0.  1.
         -5    1    3    3    0  502 -0.85563978267E+01  0.39444964873E+02  0.21041325896E+03  0.21430106566E+03  0.47000000000E+01 0.  1.
        -11    1    1    2    0    0  0.29646379643E+02 -0.38196674019E+01 -0.67176154427E+02  0.73526413000E+02  0.00000000000E+00 0.  1.
         11    1    1    2    0    0  0.25433259426E+02 -0.24796300964E+02  0.32997734829E+02  0.48482550783E+02  0.00000000000E+00 0. -1.
<mgrwt>
<rscale>  0 0.13358380E+03</rscale>
<asrwt>0</asrwt>
<pdfrwt beam="1">  1        2 0.44353667E-01 0.13956927E+03</pdfrwt>
<pdfrwt beam="2">  1       -2 0.15080147E-01 0.13956927E+03</pdfrwt>
<totfact> 0.37403610E+03</totfact>
</mgrwt>
</event>
<event>
 7    1  0.6419647E-006  0.1553343E+03  0.7546771E-02  0.1201072E+00
          3   -1    0    0  501    0  0.00000000000E+00  0.00000000000E+00  0.57646865095E+02  0.57646865095E+02  0.00000000000E+00 0. -1.
         -3   -1    0    0    0  501 -0.00000000000E+00 -0.00000000000E+00 -0.43176515186E+03  0.43176515186E+03  0.00000000000E+00 0.  1.
         23    2    1    2    0    0 -0.26945643571E+02  0.88195029535E+02 -0.10042331995E+03  0.18496917957E+03  0.12499729300E+03 0.  0.
          5    1    3    3  502    0 -0.35005848741E+02 -0.21143824071E+02 -0.48362685110E+02  0.63509920906E+02  0.47000000000E+01 0. -1.
         -5    1    3    3    0  502  0.80602051698E+01  0.10933885361E+03 -0.52060634843E+02  0.12145925867E+03  0.47000000000E+01 0. -1.
        -11    1    1    2    0    0 -0.99371331318E+01 -0.70215640350E+02 -0.24317728792E+03  0.25330648654E+03  0.00000000000E+00 0.  1.
         11    1    1    2    0    0  0.36882776703E+02 -0.17979389185E+02 -0.30517678901E+02  0.51136350850E+02  0.00000000000E+00 0. -1.
<mgrwt>
<rscale>  0 0.14951384E+03</rscale>
<asrwt>0</asrwt>
<pdfrwt beam="1">  1        3 0.88687486E-02 0.15533433E+03</pdfrwt>
<pdfrwt beam="2">  1       -3 0.66425407E-01 0.15533433E+03</pdfrwt>
<totfact> 0.47348641E+02</totfact>
</mgrwt>
</event>
<event>
 7    1  0.6419647E-006  0.1366147E+03  0.7546771E-02  0.1230076E+00
          2   -1    0    0  501    0  0.00000000000E+00  0.00000000000E+00  0.63135487473E+03  0.63135487473E+03  0.00000000000E+00 0. -1.
         -2   -1    0    0    0  501 -0.00000000000E+00 -0.00000000000E+00 -0.29600239034E+02  0.29600239034E+02  0.00000000000E+00 0.  1.
         23    2    1    2    0    0 -0.20359031475E+02 -0.51264334702E+02  0.48186384708E+03  0.50085560148E+03  0.12498417594E+03 0.  0.
          5    1    3    3  502    0 -0.17047208422E+02 -0.34930999938E+02  0.48195194457E+03  0.48353960432E+03  0.47000000000E+01 0.  1.
         -5    1    3    3    0  502 -0.33118230530E+01 -0.16333334764E+02 -0.88097490216E-01  0.17315997159E+02  0.47000000000E+01 0.  1.
        -11    1    1    2    0    0 -0.16814194896E+02  0.37591928319E+02  0.87340564894E+01  0.42096959124E+02  0.00000000000E+00 0.  1.
         11    1    1    2    0    0  0.37173226371E+02  0.13672406384E+02  0.11115673213E+03  0.11800255316E+03  0.00000000000E+00 0. -1.
<mgrwt>
<rscale>  0 0.12824956E+03</rscale>
<asrwt>0</asrwt>
<pdfrwt beam="1">  1        2 0.97131509E-01 0.13661466E+03</pdfrwt>
<pdfrwt beam="2">  1       -2 0.45538834E-02 0.13661466E+03</pdfrwt>
<totfact> 0.10253107E+04</totfact>
</mgrwt>
</event>
<event>
 7    1  0.6419647E-006  0.2142573E+03  0.7546771E-02  0.1141806E+00
          2   -1    0    0  501    0  0.00000000000E+00  0.00000000000E+00  0.11276749928E+04  0.11276749928E+04  0.00000000000E+00 0. -1.
         -2   -1    0    0    0  501 -0.00000000000E+00 -0.00000000000E+00 -0.37422354781E+02  0.37422354781E+02  0.00000000000E+00 0.  1.
         23    2    1    2    0    0 -0.17256325839E+03 -0.22439794903E+02  0.56527267670E+03  0.60451581773E+03  0.12499820927E+03 0.  0.
          5    1    3    3  502    0 -0.15404815737E+03  0.30391823177E+02  0.44074252912E+03  0.46790016529E+03  0.47000000000E+01 0.  1.
         -5    1    3    3    0  502 -0.18515101018E+02 -0.52831618080E+02  0.12453014758E+03  0.13661565244E+03  0.47000000000E+01 0.  1.
        -11    1    1    2    0    0  0.12404461839E+03  0.56369380860E+02  0.39241495208E+03  0.41539627955E+03  0.00000000000E+00 0. -1.
         11    1    1    2    0    0  0.48518639998E+02 -0.33929585957E+02  0.13256500927E+03  0.14518525033E+03  0.00000000000E+00 0.  1.
<mgrwt>
<rscale>  0 0.20969695E+03</rscale>
<asrwt>0</asrwt>
<pdfrwt beam="1">  1        2 0.17348843E+00 0.21425726E+03</pdfrwt>
<pdfrwt beam="2">  1       -2 0.57572862E-02 0.21425726E+03</pdfrwt>
<totfact> 0.34530550E+03</totfact>
</mgrwt>
</event>
<event>
 7    1  0.6419647E-006  0.1484711E+03  0.7546771E-02  0.1210470E+00
          1   -1    0    0  501    0  0.00000000000E+00  0.00000000000E+00  0.16576880775E+03  0.16576880775E+03  0.00000000000E+00 0. -1.
         -1   -1    0    0    0  501 -0.00000000000E+00 -0.00000000000E+00 -0.11318783969E+03  0.11318783969E+03  0.00000000000E+00 0.  1.
         23    2    1    2    0    0 -0.36322052836E+02  0.71416981028E+02  0.38778428524E+02  0.15345174755E+03  0.12499598236E+03 0.  0.
          5    1    3    3  502    0 -0.22470493374E+02 -0.22034285823E+02  0.48880042858E+02  0.58324792447E+02  0.47000000000E+01 0. -1.
         -5    1    3    3    0  502 -0.13851559462E+02  0.93451266851E+02 -0.10101614335E+02  0.95126955106E+02  0.47000000000E+01 0. -1.
        -11    1    1    2    0    0  0.39041406099E+02 -0.60821071217E+02  0.49873809085E+02  0.87811337120E+02  0.00000000000E+00 0. -1.
         11    1    1    2    0    0 -0.27193532628E+01 -0.10595909811E+02 -0.36071269546E+02  0.37693562760E+02  0.00000000000E+00 0.  1.
<mgrwt>
<rscale>  0 0.14214646E+03</rscale>
<asrwt>0</asrwt>
<pdfrwt beam="1">  1        1 0.25502893E-01 0.14847112E+03</pdfrwt>
<pdfrwt beam="2">  1       -1 0.17413514E-01 0.14847112E+03</pdfrwt>
<totfact> 0.45375296E+03</totfact>
</mgrwt>
</event>
<event>
 7    1  0.6419647E-006  0.1365094E+03  0.7546771E-02  0.1242175E+00
         -1   -1    0    0    0  501 -0.00000000000E+00  0.00000000000E+00  0.44223262351E+02  0.44223262351E+02  0.00000000000E+00 0.  1.
          1   -1    0    0  501    0  0.00000000000E+00 -0.00000000000E+00 -0.31422724587E+03  0.31422724587E+03  0.00000000000E+00 0. -1.
         23    2    1    2    0    0  0.54198693967E+02  0.71893659928E+01 -0.22710748989E+03  0.26497663915E+03  0.12508246047E+03 0.  0.
          5    1    3    3  502    0  0.52910632058E+02 -0.52609498945E+02 -0.14670108837E+03  0.16465294924E+03  0.47000000000E+01 0. -1.
         -5    1    3    3    0  502  0.12880619092E+01  0.59798864937E+02 -0.80406401523E+02  0.10032368991E+03  0.47000000000E+01 0. -1.
        -11    1    1    2    0    0 -0.23976609846E+02  0.12335246198E+02 -0.49992559727E+02  0.56800459034E+02  0.00000000000E+00 0. -1.
         11    1    1    2    0    0 -0.30222084121E+02 -0.19524612191E+02  0.70960661002E+01  0.36673410040E+02  0.00000000000E+00 0.  1.
<mgrwt>
<rscale>  0 0.12056087E+03</rscale>
<asrwt>0</asrwt>
<pdfrwt beam="2">  1        1 0.48342654E-01 0.13650937E+03</pdfrwt>
<pdfrwt beam="1">  1       -1 0.68035788E-02 0.13650937E+03</pdfrwt>
<totfact> 0.86533215E+03</totfact>
</mgrwt>
</event>
<event>
 7    1  0.6419647E-006  0.1769907E+03  0.7546771E-02  0.1176957E+00
         -2   -1    0    0    0  501 -0.00000000000E+00  0.00000000000E+00  0.67014518201E+02  0.67014518201E+02  0.00000000000E+00 0.  1.
          2   -1    0    0  501    0  0.00000000000E+00 -0.00000000000E+00 -0.40976056631E+03  0.40976056631E+03  0.00000000000E+00 0. -1.
         23    2    1    2    0    0  0.70812138268E+02  0.10337425196E+03 -0.16764114562E+03  0.24378119493E+03  0.12500048961E+03 0.  0.
          5    1    3    3  502    0  0.54652163253E+02 -0.93617046914E+01 -0.24503630079E+02  0.60803111352E+02  0.47000000000E+01 0. -1.
         -5    1    3    3    0  502  0.16159975015E+02  0.11273595665E+03 -0.14313751554E+03  0.18297808358E+03  0.47000000000E+01 0. -1.
        -11    1    1    2    0    0 -0.73285291716E+02 -0.28832047990E+02 -0.97956591946E+02  0.12568816523E+03  0.00000000000E+00 0. -1.
         11    1    1    2    0    0  0.24731534475E+01 -0.74542203966E+02 -0.77148310545E+02  0.10730572436E+03  0.00000000000E+00 0.  1.
<mgrwt>
<rscale>  0 0.17085710E+03</rscale>
<asrwt>0</asrwt>
<pdfrwt beam="2">  1        2 0.63040086E-01 0.17699073E+03</pdfrwt>
<pdfrwt beam="1">  1       -2 0.10309926E-01 0.17699073E+03</pdfrwt>
<totfact> 0.47932928E+03</totfact>
</mgrwt>
</event>
<event>
 7    1  0.6419647E-006  0.1334909E+03  0.7546771E-02  0.1234518E+00
          4   -1    0    0  501    0  0.00000000000E+00  0.00000000000E+00  0.38064187053E+02  0.38064187053E+02  0.00000000000E+00 0. -1.
         -4   -1    0    0    0  501 -0.00000000000E+00 -0.00000000000E+00 -0.39916156501E+03  0.39916156501E+03  0.00000000000E+00 0.  1.
         23    2    1    2    0    0 -0.47813473637E+01 -0.46616144729E+02 -0.14263077468E+03  0.19535445051E+03  0.12499558878E+03 0.  0.
          5    1    3    3  502    0 -0.54959060628E+01  0.20238303036E+02 -0.12391807881E+03  0.12576793768E+03  0.47000000000E+01 0. -1.
         -5    1    3    3    0  502  0.71455869913E+00 -0.66854447764E+02 -0.18712695865E+02  0.69586512821E+02  0.47000000000E+01 0. -1.
        -11    1    1    2    0    0 -0.18950761919E+02  0.44082469231E+01 -0.14417184721E+01  0.19510063311E+02  0.00000000000E+00 0. -1.
         11    1    1    2    0    0  0.23732109283E+02  0.42207897805E+02 -0.21702488481E+03  0.22236123825E+03  0.00000000000E+00 0.  1.
<mgrwt>
<rscale>  0 0.12535344E+03</rscale>
<asrwt>0</asrwt>
<pdfrwt beam="1">  1        4 0.58560284E-02 0.13349091E+03</pdfrwt>
<pdfrwt beam="2">  1       -4 0.61409476E-01 0.13349091E+03</pdfrwt>
<totfact> 0.76993727E+02</totfact>
</mgrwt>
</event>
<event>
 7    1  0.6419647E-006  0.1319007E+03  0.7546771E-02  0.1237513E+00
         -2   -1    0    0    0  501 -0.00000000000E+00  0.00000000000E+00  0.30244219589E+02  0.30244219589E+02  0.00000000000E+00 0.  1.
          2   -1    0    0  501    0  0.00000000000E+00 -0.00000000000E+00 -0.46472353914E+03  0.46472353914E+03  0.00000000000E+00 0. -1.
         23    2    1    2    0    0  0.14682725571E+02  0.39464403888E+02 -0.28978091409E+03  0.31838778297E+03  0.12499912227E+03 0.  0.
          5    1    3    3  502    0  0.18780948359E+02 -0.41451795749E+02 -0.14927036594E+03  0.15612401334E+03  0.47000000000E+01 0. -1.
         -5    1    3    3    0  502 -0.40982227873E+01  0.80916199637E+02 -0.14051054815E+03  0.16226376963E+03  0.47000000000E+01 0. -1.
        -11    1    1    2    0    0 -0.38755712566E+02  0.14084355386E+02 -0.73694409673E+02  0.84446671575E+02  0.00000000000E+00 0.  1.
         11    1    1    2    0    0  0.24072986994E+02 -0.53548759273E+02 -0.71003995787E+02  0.92133304186E+02  0.00000000000E+00 0. -1.
<mgrwt>
<rscale>  0 0.12344913E+03</rscale>
<asrwt>0</asrwt>
<pdfrwt beam="2">  1        2 0.71495925E-01 0.13190073E+03</pdfrwt>
<pdfrwt beam="1">  1       -2 0.46529571E-02 0.13190073E+03</pdfrwt>
<totfact> 0.13936622E+04</totfact>
</mgrwt>
</event>
<event>
 7    1  0.6419647E-006  0.1168554E+03  0.7546771E-02  0.1259805E+00
         -4   -1    0    0    0  501 -0.00000000000E+00  0.00000000000E+00  0.95266480411E+02  0.95266480411E+02  0.00000000000E+00 0.  1.
          4   -1    0    0  501    0  0.00000000000E+00 -0.00000000000E+00 -0.11776833189E+03  0.11776833189E+03  0.00000000000E+00 0. -1.
         23    2    1    2    0    0 -0.28445864845E+01  0.39133768695E+01 -0.26435848445E+02  0.11980829651E+03  0.11675516108E+03 0.  0.
          5    1    3    3  502    0  0.39198045217E+02  0.20778431258E+02 -0.51247513845E+02  0.67945769770E+02  0.47000000000E+01 0. -1.
         -5    1    3    3    0  502 -0.42042631701E+02 -0.16865054389E+02  0.24811665400E+02  0.51862526740E+02  0.47000000000E+01 0.  1.
        -11    1    1    2    0    0 -0.17587108974E+02  0.19901300851E+02  0.38353088500E+02  0.46651126193E+02  0.00000000000E+00 0. -1.
         11    1    1    2    0    0  0.20431695459E+02 -0.23814677720E+02 -0.34419091534E+02  0.46575389599E+02  0.00000000000E+00 0.  1.
<mgrwt>
<rscale>  0 0.11041411E+03</rscale>
<asrwt>0</asrwt>
<pdfrwt beam="2">  1        4 0.18118205E-01 0.11685535E+03</pdfrwt>
<pdfrwt beam="1">  1       -4 0.14656382E-01 0.11685535E+03</pdfrwt>
<totfact> 0.16819691E+03</totfact>
</mgrwt>
</event>
<event>
 7    1  0.6419647E-006  0.1516330E+03  0.7546771E-02  0.1207355E+00
          2   -1    0    0  501    0  0.00000000000E+00  0.00000000000E+00  0.70881900579E+03  0.70881900579E+03  0.00000000000E+00 0. -1.
         -2   -1    0    0    0  501 -0.00000000000E+00 -0.00000000000E+00 -0.27079176030E+02  0.27079176030E+02  0.00000000000E+00 0.  1.
         23    2    1    2    0    0 -0.26264613192E+01 -0.85796988104E+02  0.35681700480E+03  0.38769954401E+03  0.12499816017E+03 0.  0.
          5    1    3    3  502    0 -0.51334277036E+02 -0.78117337157E+02  0.28859524773E+03  0.30339221047E+03  0.47000000000E+01 0. -1.
         -5    1    3    3    0  502  0.48707815717E+02 -0.76796509466E+01  0.68221757069E+02  0.84307333537E+02  0.47000000000E+01 0. -1.
        -11    1    1    2    0    0 -0.29228281479E+02  0.59829937001E+02  0.27781416860E+03  0.28568273675E+03  0.00000000000E+00 0. -1.
         11    1    1    2    0    0  0.31854742798E+02  0.25967051103E+02  0.47108656366E+02  0.62515901067E+02  0.00000000000E+00 0.  1.
<mgrwt>
<rscale>  0 0.14453401E+03</rscale>
<asrwt>0</asrwt>
<pdfrwt beam="1">  1        2 0.10904906E+00 0.15163298E+03</pdfrwt>
<pdfrwt beam="2">  1       -2 0.41660276E-02 0.15163298E+03</pdfrwt>
<totfact> 0.10290744E+04</totfact>
</mgrwt>
</event>
<event>
 7    1  0.6419647E-006  0.1708596E+03  0.7546771E-02  0.1183193E+00
          4   -1    0    0  501    0  0.00000000000E+00  0.00000000000E+00  0.32540114757E+03  0.32540114757E+03  0.00000000000E+00 0. -1.
         -4   -1    0    0    0  501 -0.00000000000E+00 -0.00000000000E+00 -0.99556601340E+02  0.99556601340E+02  0.00000000000E+00 0.  1.
         23    2    1    2    0    0 -0.28925865431E+02  0.11281866561E+03  0.21699434821E+03  0.27618750873E+03  0.12501294263E+03 0.  0.
          5    1    3    3  502    0 -0.52814961513E+02  0.56157834596E+02  0.19660913452E+03  0.21123532925E+03  0.47000000000E+01 0.  1.
         -5    1    3    3    0  502  0.23889096082E+02  0.56660831014E+02  0.20385213687E+02  0.64952179485E+02  0.47000000000E+01 0.  1.
        -11    1    1    2    0    0  0.13893755639E+02 -0.60201905085E+02 -0.41484256770E+02  0.74419415353E+02  0.00000000000E+00 0.  1.
         11    1    1    2    0    0  0.15032109791E+02 -0.52616760525E+02  0.50334454799E+02  0.74350824829E+02  0.00000000000E+00 0. -1.
<mgrwt>
<rscale>  0 0.16497420E+03</rscale>
<asrwt>0</asrwt>
<pdfrwt beam="1">  1        4 0.50061715E-01 0.17085957E+03</pdfrwt>
<pdfrwt beam="2">  1       -4 0.15316400E-01 0.17085957E+03</pdfrwt>
<totfact> 0.24383256E+02</totfact>
</mgrwt>
</event>
<event>
 7    1  0.6419647E-006  0.1436283E+03  0.7546771E-02  0.1218420E+00
         -1   -1    0    0    0  501 -0.00000000000E+00  0.00000000000E+00  0.57457675645E+02  0.57457675645E+02  0.00000000000E+00 0.  1.
          1   -1    0    0  501    0  0.00000000000E+00 -0.00000000000E+00 -0.34317821145E+03  0.34317821145E+03  0.00000000000E+00 0. -1.
         23    2    1    2    0    0 -0.50180767564E+02  0.49887773648E+02 -0.23095589689E+03  0.27197371331E+03  0.12498869962E+03 0.  0.
          5    1    3    3  502    0 -0.49490454073E+02  0.83293053747E+02 -0.21231847809E+03  0.23342721346E+03  0.47000000000E+01 0. -1.
         -5    1    3    3    0  502 -0.69031349112E+00 -0.33405280099E+02 -0.18637418797E+02  0.38546499849E+02  0.47000000000E+01 0. -1.
        -11    1    1    2    0    0  0.65931159406E+02 -0.55233184725E+01 -0.46491531561E+02  0.80863386860E+02  0.00000000000E+00 0.  1.
         11    1    1    2    0    0 -0.15750391842E+02 -0.44364455176E+02 -0.82731073595E+01  0.47798786926E+02  0.00000000000E+00 0. -1.
<mgrwt>
<rscale>  0 0.13628294E+03</rscale>
<asrwt>0</asrwt>
<pdfrwt beam="2">  1        1 0.52796647E-01 0.14362825E+03</pdfrwt>
<pdfrwt beam="1">  1       -1 0.88396426E-02 0.14362825E+03</pdfrwt>
<totfact> 0.52425964E+03</totfact>
</mgrwt>
</event>
<event>
 7    1  0.6419647E-006  0.1745353E+03  0.7546771E-02  0.1179065E+00
         -2   -1    0    0    0  501 -0.00000000000E+00  0.00000000000E+00  0.24003756890E+02  0.24003756890E+02  0.00000000000E+00 0. -1.
          2   -1    0    0  501    0  0.00000000000E+00 -0.00000000000E+00 -0.22825451203E+04  0.22825451203E+04  0.00000000000E+00 0.  1.
         23    2    1    2    0    0  0.61562141274E+02 -0.10511411969E+03 -0.19893825414E+04  0.19970241491E+04  0.12499472213E+03 0.  0.
          5    1    3    3  502    0  0.79299419536E+02 -0.36926417743E+02 -0.66286615178E+03  0.66862963099E+03  0.47000000000E+01 0. -1.
         -5    1    3    3    0  502 -0.17737278262E+02 -0.68187701944E+02 -0.13265163896E+04  0.13283945181E+04  0.47000000000E+01 0. -1.
        -11    1    1    2    0    0  0.72311058472E+01  0.26179288072E+02 -0.82418215726E+01  0.28382593936E+02  0.00000000000E+00 0. -1.
         11    1    1    2    0    0 -0.68793247122E+02  0.78934831615E+02 -0.26091700037E+03  0.28114213411E+03  0.00000000000E+00 0.  1.
<mgrwt>
<rscale>  0 0.16883767E+03</rscale>
<asrwt>0</asrwt>
<pdfrwt beam="2">  1        2 0.35116086E+00 0.17453526E+03</pdfrwt>
<pdfrwt beam="1">  1       -2 0.36928849E-02 0.17453526E+03</pdfrwt>
<totfact> 0.16484807E+03</totfact>
</mgrwt>
</event>
<event>
 7    1  0.9335741E-006  0.1688796E+03  0.7546771E-02  0.1185791E+00
         -1   -1    0    0    0  501 -0.00000000000E+00  0.00000000000E+00  0.71033412729E+03  0.71033412729E+03  0.00000000000E+00 0.  1.
          1   -1    0    0  501    0  0.00000000000E+00 -0.00000000000E+00 -0.39402317351E+02  0.39402317351E+02  0.00000000000E+00 0. -1.
         23    2    1    2    0    0  0.10272719974E+02 -0.11308976356E+03  0.22867803240E+03  0.28427795666E+03  0.12500196295E+03 0.  0.
          5    1    3    3  502    0 -0.89221423897E+00 -0.12688572449E+03  0.23305787504E+03  0.26540317678E+03  0.47000000000E+01 0. -1.
         -5    1    3    3    0  502  0.11164934213E+02  0.13795960933E+02 -0.43798426378E+01  0.18874779881E+02  0.47000000000E+01 0. -1.
        -11    1    1    2    0    0  0.25671364440E+02  0.86696030880E+02  0.36709422953E+03  0.37806533044E+03  0.00000000000E+00 0.  1.
         11    1    1    2    0    0 -0.35944084414E+02  0.26393732681E+02  0.75159548009E+02  0.87393157547E+02  0.00000000000E+00 0. -1.
<mgrwt>
<rscale>  0 0.16260107E+03</rscale>
<asrwt>0</asrwt>
<pdfrwt beam="2">  1        1 0.60618955E-02 0.16887958E+03</pdfrwt>
<pdfrwt beam="1">  1       -1 0.10928216E+00 0.16887958E+03</pdfrwt>
<totfact> 0.10377349E+03</totfact>
</mgrwt>
</event>
<event>
 7    1  0.6419647E-006  0.1547714E+03  0.7546771E-02  0.1209138E+00
          3   -1    0    0  501    0  0.00000000000E+00  0.00000000000E+00  0.36954967568E+03  0.36954967568E+03  0.00000000000E+00 0. -1.
         -3   -1    0    0    0  501 -0.00000000000E+00 -0.00000000000E+00 -0.49149641824E+02  0.49149641824E+02  0.00000000000E+00 0.  1.
         23    2    1    2    0    0  0.82934860792E+02  0.38075294697E+02  0.20629632536E+03  0.25789989410E+03  0.12500504916E+03 0.  0.
          5    1    3    3  502    0  0.12169664750E+02  0.43239420620E+02  0.62547389995E+01  0.45595613776E+02  0.47000000000E+01 0.  1.
         -5    1    3    3    0  502  0.70765196042E+02 -0.51641259233E+01  0.20004158636E+03  0.21230428032E+03  0.47000000000E+01 0.  1.
        -11    1    1    2    0    0 -0.44391015924E+02 -0.26804307551E+02  0.10849644034E+03  0.12025186387E+03  0.00000000000E+00 0. -1.
         11    1    1    2    0    0 -0.38543844869E+02 -0.11270987146E+02  0.56072681578E+01  0.40547559541E+02  0.00000000000E+00 0.  1.
<mgrwt>
<rscale>  0 0.14316112E+03</rscale>
<asrwt>0</asrwt>
<pdfrwt beam="1">  1        3 0.56853794E-01 0.15477138E+03</pdfrwt>
<pdfrwt beam="2">  1       -3 0.75614836E-02 0.15477138E+03</pdfrwt>
<totfact> 0.84855815E+02</totfact>
</mgrwt>
</event>
<event>
 7    1  0.6419647E-006  0.1292252E+03  0.7546771E-02  0.1242073E+00
          2   -1    0    0  501    0  0.00000000000E+00  0.00000000000E+00  0.11039007767E+04  0.11039007767E+04  0.00000000000E+00 0. -1.
         -2   -1    0    0    0  501 -0.00000000000E+00 -0.00000000000E+00 -0.11703465028E+02  0.11703465028E+02  0.00000000000E+00 0.  1.
         23    2    1    2    0    0 -0.30205961278E+02 -0.12752666612E+02  0.62085851145E+03  0.63416436346E+03  0.12499647212E+03 0.  0.
          5    1    3    3  502    0  0.25999307857E+01 -0.49883309680E+02  0.51218453687E+03  0.51463598207E+03  0.47000000000E+01 0.  1.
         -5    1    3    3    0  502 -0.32805892064E+02  0.37130643068E+02  0.10867397458E+03  0.11952838140E+03  0.47000000000E+01 0.  1.
        -11    1    1    2    0    0  0.44396267219E+02 -0.28408530638E+02  0.21087447870E+03  0.21736172369E+03  0.00000000000E+00 0.  1.
         11    1    1    2    0    0 -0.14190305941E+02  0.41161197250E+02  0.26046432154E+03  0.26407815460E+03  0.00000000000E+00 0. -1.
<mgrwt>
<rscale>  0 0.12062306E+03</rscale>
<asrwt>0</asrwt>
<pdfrwt beam="1">  1        2 0.16983081E+00 0.12922519E+03</pdfrwt>
<pdfrwt beam="2">  1       -2 0.18005340E-02 0.12922519E+03</pdfrwt>
<totfact> 0.19545786E+04</totfact>
</mgrwt>
</event>
<event>
 7    1  0.6419647E-006  0.1290115E+03  0.7546771E-02  0.1243590E+00
          2   -1    0    0  501    0  0.00000000000E+00  0.00000000000E+00  0.51818400078E+03  0.51818400078E+03  0.00000000000E+00 0. -1.
         -2   -1    0    0    0  501 -0.00000000000E+00 -0.00000000000E+00 -0.25135703013E+02  0.25135703013E+02  0.00000000000E+00 0.  1.
         23    2    1    2    0    0  0.67320904781E+01 -0.31209278473E+02  0.32976019640E+03  0.35409849957E+03  0.12499848065E+03 0.  0.
          5    1    3    3  502    0  0.41657830411E+02  0.71634146346E+01  0.27591705891E+03  0.27917557690E+03  0.47000000000E+01 0.  1.
         -5    1    3    3    0  502 -0.34925739933E+02 -0.38372693107E+02  0.53843137490E+02  0.74922922667E+02  0.47000000000E+01 0.  1.
        -11    1    1    2    0    0  0.25476829223E+02 -0.90700740437E+01  0.12377329046E+02  0.29741105304E+02  0.00000000000E+00 0.  1.
         11    1    1    2    0    0 -0.32208919701E+02  0.40279352516E+02  0.15091077233E+03  0.15948009892E+03  0.00000000000E+00 0. -1.
<mgrwt>
<rscale>  0 0.11970144E+03</rscale>
<asrwt>0</asrwt>
<pdfrwt beam="1">  1        2 0.79720608E-01 0.12901147E+03</pdfrwt>
<pdfrwt beam="2">  1       -2 0.38670316E-02 0.12901147E+03</pdfrwt>
<totfact> 0.16265180E+04</totfact>
</mgrwt>
</event>
<event>
 7    1  0.6419647E-006  0.1276735E+03  0.7546771E-02  0.1245345E+00
          3   -1    0    0  501    0  0.00000000000E+00  0.00000000000E+00  0.26598643348E+03  0.26598643348E+03  0.00000000000E+00 0.  1.
         -3   -1    0    0    0  501 -0.00000000000E+00 -0.00000000000E+00 -0.51885283646E+02  0.51885283646E+02  0.00000000000E+00 0. -1.
         23    2    1    2    0    0 -0.22173942446E+02  0.13558865875E+02  0.17085856528E+03  0.21329131276E+03  0.12500003280E+03 0.  0.
          5    1    3    3  502    0  0.38580185247E+02 -0.78689853229E+01  0.11420677844E+02  0.41265887924E+02  0.47000000000E+01 0.  1.
         -5    1    3    3    0  502 -0.60754127694E+02  0.21427851198E+02  0.15943788744E+03  0.17202542483E+03  0.47000000000E+01 0.  1.
        -11    1    1    2    0    0 -0.15771699715E+02 -0.11779784129E+02  0.59936755713E+02  0.63086642892E+02  0.00000000000E+00 0.  1.
         11    1    1    2    0    0  0.37945642161E+02 -0.17790817458E+01 -0.16694171158E+02  0.41493761478E+02  0.00000000000E+00 0. -1.
<mgrwt>
<rscale>  0 0.11864774E+03</rscale>
<asrwt>0</asrwt>
<pdfrwt beam="1">  1        3 0.40920989E-01 0.12767355E+03</pdfrwt>
<pdfrwt beam="2">  1       -3 0.79823515E-02 0.12767355E+03</pdfrwt>
<totfact> 0.14478322E+03</totfact>
</mgrwt>
</event>
<event>
 7    1  0.6419647E-006  0.1414248E+03  0.7546771E-02  0.1224116E+00
          2   -1    0    0  501    0  0.00000000000E+00  0.00000000000E+00  0.42753360738E+03  0.42753360738E+03  0.00000000000E+00 0. -1.
         -2   -1    0    0    0  501 -0.00000000000E+00 -0.00000000000E+00 -0.36604111169E+02  0.36604111169E+02  0.00000000000E+00 0.  1.
         23    2    1    2    0    0 -0.58455823172E+02 -0.30959943999E+02  0.23641988850E+03  0.27549109523E+03  0.12500151391E+03 0.  0.
          5    1    3    3  502    0  0.29145001244E+02 -0.27432245006E+02  0.27265935622E+02  0.48656761185E+02  0.47000000000E+01 0.  1.
         -5    1    3    3    0  502 -0.87600824417E+02 -0.35276989925E+01  0.20915395288E+03  0.22683433405E+03  0.47000000000E+01 0.  1.
        -11    1    1    2    0    0 -0.65613676941E+01  0.36645589026E+02  0.87575993111E+02  0.95160418822E+02  0.00000000000E+00 0.  1.
         11    1    1    2    0    0  0.65017190867E+02 -0.56856450272E+01  0.66933614603E+02  0.93486204498E+02  0.00000000000E+00 0. -1.
<mgrwt>
<rscale>  0 0.13227687E+03</rscale>
<asrwt>0</asrwt>
<pdfrwt beam="1">  1        2 0.65774397E-01 0.14142482E+03</pdfrwt>
<pdfrwt beam="2">  1       -2 0.56314020E-02 0.14142482E+03</pdfrwt>
<totfact> 0.11507025E+04</totfact>
</mgrwt>
</event>
<event>
 7    1  0.6419647E-006  0.1569292E+03  0.7546771E-02  0.1200296E+00
         -3   -1    0    0    0  501 -0.00000000000E+00  0.00000000000E+00  0.11190401188E+03  0.11190401188E+03  0.00000000000E+00 0.  1.
          3   -1    0    0  501    0  0.00000000000E+00 -0.00000000000E+00 -0.23010574515E+03  0.23010574515E+03  0.00000000000E+00 0. -1.
         23    2    1    2    0    0  0.94523724621E+02 -0.81537638866E+01 -0.13806680025E+03  0.20901965270E+03  0.12500222198E+03 0.  0.
          5    1    3    3  502    0  0.12155275537E+03  0.43750788441E+01 -0.12936859113E+03  0.17763033532E+03  0.47000000000E+01 0. -1.
         -5    1    3    3    0  502 -0.27029030751E+02 -0.12528842731E+02 -0.86982091133E+01  0.31389317376E+02  0.47000000000E+01 0. -1.
        -11    1    1    2    0    0 -0.30182339132E+02 -0.37639972784E+02  0.24043422652E+02  0.53905726222E+02  0.00000000000E+00 0.  1.
         11    1    1    2    0    0 -0.64341385489E+02  0.45793736671E+02 -0.41783556799E+01  0.79084378111E+02  0.00000000000E+00 0. -1.
<mgrwt>
<rscale>  0 0.15014390E+03</rscale>
<asrwt>0</asrwt>
<pdfrwt beam="2">  1        3 0.35400884E-01 0.15692920E+03</pdfrwt>
<pdfrwt beam="1">  1       -3 0.17216002E-01 0.15692920E+03</pdfrwt>
<totfact> 0.54329164E+02</totfact>
</mgrwt>
</event>
<event>
 7    1  0.6419647E-006  0.1305636E+03  0.7546771E-02  0.1241439E+00
          2   -1    0    0  501    0  0.00000000000E+00  0.00000000000E+00  0.71528219561E+03  0.71528219561E+03  0.00000000000E+00 0. -1.
         -2   -1    0    0    0  501 -0.00000000000E+00 -0.00000000000E+00 -0.18102588684E+02  0.18102588684E+02  0.00000000000E+00 0.  1.
         23    2    1    2    0    0  0.28868906313E+02  0.24239475049E+02  0.42872293031E+03  0.44816314210E+03  0.12500354018E+03 0.  0.
          5    1    3    3  502    0 -0.87002130224E+01 -0.21274857370E+02  0.10384535677E+02  0.25656224273E+02  0.47000000000E+01 0. -1.
         -5    1    3    3    0  502  0.37569119335E+02  0.45514332419E+02  0.41833839464E+03  0.42250691783E+03  0.47000000000E+01 0. -1.
        -11    1    1    2    0    0 -0.56656640637E+02 -0.50853572085E+01  0.11759379644E+03  0.13062976976E+03  0.00000000000E+00 0.  1.
         11    1    1    2    0    0  0.27787734324E+02 -0.19154117841E+02  0.15086288017E+03  0.15459187244E+03  0.00000000000E+00 0. -1.
<mgrwt>
<rscale>  0 0.12101079E+03</rscale>
<asrwt>0</asrwt>
<pdfrwt beam="1">  1        2 0.11004339E+00 0.13056359E+03</pdfrwt>
<pdfrwt beam="2">  1       -2 0.27850142E-02 0.13056359E+03</pdfrwt>
<totfact> 0.18268701E+04</totfact>
</mgrwt>
</event>
<event>
 7    1  0.6419647E-006  0.1333780E+03  0.7546771E-02  0.1235534E+00
         -2   -1    0    0    0  501 -0.00000000000E+00  0.00000000000E+00  0.12434927532E+02  0.12434927532E+02  0.00000000000E+00 0.  1.
          2   -1    0    0  501    0  0.00000000000E+00 -0.00000000000E+00 -0.12017311947E+04  0.12017311947E+04  0.00000000000E+00 0. -1.
         23    2    1    2    0    0  0.30563431799E+02 -0.35078175337E+02 -0.83180048482E+03  0.84242610764E+03  0.12500039417E+03 0.  0.
          5    1    3    3  502    0 -0.43538771656E+02  0.54334238833E+01 -0.18892052711E+03  0.19400567594E+03  0.47000000000E+01 0.  1.
         -5    1    3    3    0  502  0.74102203455E+02 -0.40511599220E+02 -0.64287995770E+03  0.64842043170E+03  0.47000000000E+01 0.  1.
        -11    1    1    2    0    0 -0.62898563571E+02  0.25808176490E+02 -0.25208906183E+03  0.26109612477E+03  0.00000000000E+00 0.  1.
         11    1    1    2    0    0  0.32335131771E+02  0.92699988472E+01 -0.10540672054E+03  0.11064388984E+03  0.00000000000E+00 0. -1.
<mgrwt>
<rscale>  0 0.12470292E+03</rscale>
<asrwt>0</asrwt>
<pdfrwt beam="2">  1        2 0.18488173E+00 0.13337804E+03</pdfrwt>
<pdfrwt beam="1">  1       -2 0.19130657E-02 0.13337804E+03</pdfrwt>
<totfact> 0.15811186E+04</totfact>
</mgrwt>
</event>
<event>
 6    1  0.6419647E-006  0.1736480E+03  0.7546771E-02  0.1192758E+00
         -1   -1    0    0    0  501 -0.00000000000E+00  0.00000000000E+00  0.36096066682E+02  0.36096066682E+02  0.00000000000E+00 0.  1.
          1   -1    0    0  501    0  0.00000000000E+00 -0.00000000000E+00 -0.57643396577E+03  0.57643396577E+03  0.00000000000E+00 0. -1.
          5    1    1    2  502    0 -0.91597818983E+01 -0.33991834444E+01 -0.28775504325E+03  0.28795921754E+03  0.47000000000E+01 0. -1.
         -5    1    1    2    0  502 -0.63123903271E+02  0.65611262351E+00 -0.21756296719E+02  0.66936418301E+02  0.47000000000E+01 0.  1.
        -11    1    1    2    0    0 -0.14999887865E+02  0.20438906039E+02 -0.53161552971E+02  0.58897336361E+02  0.00000000000E+00 0.  1.
         11    1    1    2    0    0  0.87283573035E+02 -0.17695835219E+02 -0.17766500615E+03  0.19873706024E+03  0.00000000000E+00 0. -1.
<mgrwt>
<rscale>  0 0.15645479E+03</rscale>
<asrwt>0</asrwt>
<pdfrwt beam="2">  1        1 0.88682159E-01 0.17364804E+03</pdfrwt>
<pdfrwt beam="1">  1       -1 0.55532404E-02 0.17364804E+03</pdfrwt>
<totfact> 0.54575346E+03</totfact>
</mgrwt>
</event>
<event>
 7    1  0.6419647E-006  0.1324823E+03  0.7546771E-02  0.1232085E+00
         -1   -1    0    0    0  501 -0.00000000000E+00  0.00000000000E+00  0.19293584133E+02  0.19293584133E+02  0.00000000000E+00 0.  1.
          1   -1    0    0  501    0  0.00000000000E+00 -0.00000000000E+00 -0.11157144627E+04  0.11157144627E+04  0.00000000000E+00 0. -1.
         23    2    1    2    0    0 -0.42642678057E+02  0.10155008133E+02 -0.89475006906E+03  0.90450496721E+03  0.12502010811E+03 0.  0.
          5    1    3    3  502    0 -0.41385621561E+02 -0.53773679179E+02 -0.42766107221E+03  0.43303632749E+03  0.47000000000E+01 0. -1.
         -5    1    3    3    0  502 -0.12570564956E+01  0.63928687312E+02 -0.46708899686E+03  0.47146863972E+03  0.47000000000E+01 0. -1.
        -11    1    1    2    0    0 -0.12839096921E+02 -0.44491571114E+02 -0.87826709239E+02  0.99286822719E+02  0.00000000000E+00 0.  1.
         11    1    1    2    0    0  0.55481774978E+02  0.34336562981E+02 -0.11384410028E+03  0.13121625692E+03  0.00000000000E+00 0. -1.
<mgrwt>
<rscale>  0 0.12692889E+03</rscale>
<asrwt>0</asrwt>
<pdfrwt beam="2">  1        1 0.17164839E+00 0.13248226E+03</pdfrwt>
<pdfrwt beam="1">  1       -1 0.29682436E-02 0.13248226E+03</pdfrwt>
<totfact> 0.49237419E+03</totfact>
</mgrwt>
</event>
<event>
 7    1  0.6419647E-006  0.1403538E+03  0.7546771E-02  0.1223939E+00
          1   -1    0    0  501    0  0.00000000000E+00  0.00000000000E+00  0.26756516555E+03  0.26756516555E+03  0.00000000000E+00 0. -1.
         -1   -1    0    0    0  501 -0.00000000000E+00 -0.00000000000E+00 -0.61964885573E+02  0.61964885573E+02  0.00000000000E+00 0.  1.
         23    2    1    2    0    0 -0.27016182465E+02 -0.57817789989E+02  0.14941019381E+03  0.20499413689E+03  0.12500567663E+03 0.  0.
          5    1    3    3  502    0  0.42658643831E+02  0.88299015304E+01  0.45824248017E+02  0.63400936593E+02  0.47000000000E+01 0.  1.
         -5    1    3    3    0  502 -0.69674826296E+02 -0.66647691519E+02  0.10358594580E+03  0.14159320030E+03  0.47000000000E+01 0.  1.
        -11    1    1    2    0    0  0.27459116172E+02  0.26939618410E+02  0.77836720394E+02  0.86823390528E+02  0.00000000000E+00 0.  1.
         11    1    1    2    0    0 -0.44293370700E+00  0.30878171578E+02 -0.21646634234E+02  0.37712523702E+02  0.00000000000E+00 0. -1.
<mgrwt>
<rscale>  0 0.13239900E+03</rscale>
<asrwt>0</asrwt>
<pdfrwt beam="1">  1        1 0.41163871E-01 0.14035380E+03</pdfrwt>
<pdfrwt beam="2">  1       -1 0.95330594E-02 0.14035380E+03</pdfrwt>
<totfact> 0.63560141E+03</totfact>
</mgrwt>
</event>
<event>
 7    1  0.6419647E-006  0.1746680E+03  0.7546771E-02  0.1178817E+00
          2   -1    0    0  501    0  0.00000000000E+00  0.00000000000E+00  0.45460195643E+03  0.45460195643E+03  0.00000000000E+00 0. -1.
         -2   -1    0    0    0  501 -0.00000000000E+00 -0.00000000000E+00 -0.59406959722E+02  0.59406959722E+02  0.00000000000E+00 0.  1.
         23    2    1    2    0    0  0.62335138634E+02 -0.10488959124E+03  0.22663139961E+03  0.28613057743E+03  0.12498567994E+03 0.  0.
          5    1    3    3  502    0 -0.21323471551E+02 -0.80107340091E+02  0.14195578146E+03  0.16445488824E+03  0.47000000000E+01 0. -1.
         -5    1    3    3    0  502  0.83658610185E+02 -0.24782251146E+02  0.84675618150E+02  0.12167568919E+03  0.47000000000E+01 0. -1.
        -11    1    1    2    0    0 -0.62790178383E+02  0.18765657447E+02  0.56392330417E+02  0.86457222548E+02  0.00000000000E+00 0. -1.
         11    1    1    2    0    0  0.45503974854E+00  0.86123933789E+02  0.11217126668E+03  0.14142111618E+03  0.00000000000E+00 0.  1.
<mgrwt>
<rscale>  0 0.16907439E+03</rscale>
<asrwt>0</asrwt>
<pdfrwt beam="1">  1        2 0.69938760E-01 0.17466802E+03</pdfrwt>
<pdfrwt beam="2">  1       -2 0.91395326E-02 0.17466802E+03</pdfrwt>
<totfact> 0.51747473E+03</totfact>
</mgrwt>
</event>
<event>
 7    1  0.6419647E-006  0.1250391E+03  0.7546771E-02  0.1247129E+00
         -2   -1    0    0    0  501 -0.00000000000E+00  0.00000000000E+00  0.18680124426E+03  0.18680124426E+03  0.00000000000E+00 0.  1.
          2   -1    0    0  501    0  0.00000000000E+00 -0.00000000000E+00 -0.74284499742E+02  0.74284499742E+02  0.00000000000E+00 0. -1.
         23    2    1    2    0    0 -0.25449812933E+00  0.26890163842E+01  0.20316213676E+02  0.12667880725E+03  0.12500990397E+03 0.  0.
          5    1    3    3  502    0 -0.59900494214E+02  0.15212738707E+02  0.21314568175E+02  0.65543096071E+02  0.47000000000E+01 0. -1.
         -5    1    3    3    0  502  0.59645996085E+02 -0.12523722322E+02 -0.99835449884E+00  0.61135711180E+02  0.47000000000E+01 0. -1.
        -11    1    1    2    0    0  0.59954579846E+01  0.34532719370E+02  0.90110753868E+02  0.96687135578E+02  0.00000000000E+00 0.  1.
         11    1    1    2    0    0 -0.57409598553E+01 -0.37221735754E+02  0.20897769718E+01  0.37719801172E+02  0.00000000000E+00 0. -1.
<mgrwt>
<rscale>  0 0.11758878E+03</rscale>
<asrwt>0</asrwt>
<pdfrwt beam="2">  1        2 0.11428385E-01 0.12503908E+03</pdfrwt>
<pdfrwt beam="1">  1       -2 0.28738653E-01 0.12503908E+03</pdfrwt>
<totfact> 0.56627281E+03</totfact>
</mgrwt>
</event>
<event>
 7    1  0.6419647E-006  0.1561300E+03  0.7546771E-02  0.1201391E+00
          1   -1    0    0  501    0  0.00000000000E+00  0.00000000000E+00  0.61123116785E+03  0.61123116785E+03  0.00000000000E+00 0. -1.
         -1   -1    0    0    0  501 -0.00000000000E+00 -0.00000000000E+00 -0.35086145978E+02  0.35086145978E+02  0.00000000000E+00 0.  1.
         23    2    1    2    0    0 -0.72847323677E+02 -0.58693203168E+02  0.24610525297E+03  0.29145218183E+03  0.12499981634E+03 0.  0.
          5    1    3    3  502    0 -0.82810824682E+02 -0.65615564939E+02  0.25475026500E+03  0.27583114865E+03  0.47000000000E+01 0.  1.
         -5    1    3    3    0  502  0.99635010050E+01  0.69223617710E+01 -0.86450120236E+01  0.15621033181E+02  0.47000000000E+01 0.  1.
        -11    1    1    2    0    0 -0.88530305884E+01  0.40565919614E+02  0.66892399132E+02  0.78730953547E+02  0.00000000000E+00 0.  1.
         11    1    1    2    0    0  0.81700354265E+02  0.18127283554E+02  0.26314736977E+03  0.27613417846E+03  0.00000000000E+00 0. -1.
<mgrwt>
<rscale>  0 0.14925556E+03</rscale>
<asrwt>0</asrwt>
<pdfrwt beam="1">  1        1 0.94035557E-01 0.15613001E+03</pdfrwt>
<pdfrwt beam="2">  1       -1 0.53978690E-02 0.15613001E+03</pdfrwt>
<totfact> 0.52289739E+03</totfact>
</mgrwt>
</event>
<event>
 7    1  0.7060079E-006  0.2494344E+03  0.7546771E-02  0.1116469E+00
         -1   -1    0    0    0  501 -0.00000000000E+00  0.00000000000E+00  0.30764693312E+02  0.30764693312E+02  0.00000000000E+00 0.  1.
          1   -1    0    0  501    0  0.00000000000E+00 -0.00000000000E+00 -0.19296312601E+04  0.19296312601E+04  0.00000000000E+00 0. -1.
         23    2    1    2    0    0  0.83765984345E+02  0.19893530379E+03 -0.11287954610E+04  0.11560262699E+04  0.12500219502E+03 0.  0.
          5    1    3    3  502    0  0.21953845380E+02  0.19924029645E+02 -0.35726856145E+02  0.46663010343E+02  0.47000000000E+01 0.  1.
         -5    1    3    3    0  502  0.61812138965E+02  0.17901127415E+03 -0.10930686048E+04  0.11093632596E+04  0.47000000000E+01 0.  1.
        -11    1    1    2    0    0 -0.56055219556E+02 -0.15648292354E+03 -0.68888764090E+03  0.70865737475E+03  0.00000000000E+00 0. -1.
         11    1    1    2    0    0 -0.27710764789E+02 -0.42452380252E+02 -0.81183464946E+02  0.95712308795E+02  0.00000000000E+00 0.  1.
<mgrwt>
<rscale>  0 0.24505729E+03</rscale>
<asrwt>0</asrwt>
<pdfrwt beam="2">  1        1 0.29686633E+00 0.24943445E+03</pdfrwt>
<pdfrwt beam="1">  1       -1 0.47330300E-02 0.24943445E+03</pdfrwt>
<totfact> 0.71805762E+02</totfact>
</mgrwt>
</event>
<event>
 7    1  0.6419647E-006  0.1429013E+03  0.7546771E-02  0.1219315E+00
         -1   -1    0    0    0  501 -0.00000000000E+00  0.00000000000E+00  0.31502851647E+02  0.31502851647E+02  0.00000000000E+00 0.  1.
          1   -1    0    0  501    0  0.00000000000E+00 -0.00000000000E+00 -0.67020447706E+03  0.67020447706E+03  0.00000000000E+00 0. -1.
         23    2    1    2    0    0  0.52566859243E+02  0.45090157564E+02 -0.50434579327E+03  0.52419984139E+03  0.12499759008E+03 0.  0.
          5    1    3    3  502    0 -0.39807516816E+02  0.27515487084E+02 -0.18263482443E+03  0.18899552778E+03  0.47000000000E+01 0. -1.
         -5    1    3    3    0  502  0.92374376059E+02  0.17574670480E+02 -0.32171096884E+03  0.33520431361E+03  0.47000000000E+01 0. -1.
        -11    1    1    2    0    0 -0.12541367985E+02  0.22496758653E+02 -0.74277673525E+02  0.78616555796E+02  0.00000000000E+00 0. -1.
         11    1    1    2    0    0 -0.40025491258E+02 -0.67586916217E+02 -0.60078158620E+02  0.98890931522E+02  0.00000000000E+00 0.  1.
<mgrwt>
<rscale>  0 0.13564302E+03</rscale>
<asrwt>0</asrwt>
<pdfrwt beam="2">  1        1 0.10310837E+00 0.14290135E+03</pdfrwt>
<pdfrwt beam="1">  1       -1 0.48465931E-02 0.14290135E+03</pdfrwt>
<totfact> 0.53740254E+03</totfact>
</mgrwt>
</event>
<event>
 7    1  0.9507371E-006  0.1633506E+03  0.7546771E-02  0.1191581E+00
         -2   -1    0    0    0  501 -0.00000000000E+00  0.00000000000E+00  0.92190160594E+03  0.92190160594E+03  0.00000000000E+00 0.  1.
          2   -1    0    0  501    0  0.00000000000E+00 -0.00000000000E+00 -0.25945701992E+02  0.25945701992E+02  0.00000000000E+00 0. -1.
         23    2    1    2    0    0 -0.60188721722E+02  0.86231399766E+02  0.39599377562E+03  0.42836257361E+03  0.12499955046E+03 0.  0.
          5    1    3    3  502    0 -0.29406235710E+02 -0.14416861825E+01  0.27051975750E+03  0.27215773800E+03  0.47000000000E+01 0.  1.
         -5    1    3    3    0  502 -0.30782486012E+02  0.87673085949E+02  0.12547401812E+03  0.15620483561E+03  0.47000000000E+01 0.  1.
        -11    1    1    2    0    0  0.46054041484E+02  0.59479420404E+01  0.13361687332E+03  0.14145607653E+03  0.00000000000E+00 0. -1.
         11    1    1    2    0    0  0.14134680238E+02 -0.92179341807E+02  0.36634525501E+03  0.37802865779E+03  0.00000000000E+00 0.  1.
<mgrwt>
<rscale>  0 0.15747201E+03</rscale>
<asrwt>0</asrwt>
<pdfrwt beam="2">  1        2 0.39916472E-02 0.16335062E+03</pdfrwt>
<pdfrwt beam="1">  1       -2 0.14183099E+00 0.16335062E+03</pdfrwt>
<totfact> 0.76362621E+02</totfact>
</mgrwt>
</event>
<event>
 7    1  0.6419647E-006  0.2780371E+03  0.7546771E-02  0.1098643E+00
         -1   -1    0    0    0  501 -0.00000000000E+00  0.00000000000E+00  0.21709848317E+03  0.21709848317E+03  0.00000000000E+00 0.  1.
          1   -1    0    0  501    0  0.00000000000E+00 -0.00000000000E+00 -0.34394889530E+03  0.34394889530E+03  0.00000000000E+00 0. -1.
         23    2    1    2    0    0  0.24589744021E+03  0.34856305551E+02 -0.32289312427E+02  0.27990574277E+03  0.12499644794E+03 0.  0.
          5    1    3    3  502    0  0.15296768327E+02 -0.29897929801E+02  0.12588832372E+02  0.36172448467E+02  0.47000000000E+01 0. -1.
         -5    1    3    3    0  502  0.23060067188E+03  0.64754235352E+02 -0.44878144799E+02  0.24373329430E+03  0.47000000000E+01 0. -1.
        -11    1    1    2    0    0 -0.24140861388E+03 -0.51502113819E+02 -0.83162515172E+02  0.26047378085E+03  0.00000000000E+00 0.  1.
         11    1    1    2    0    0 -0.44888263330E+01  0.16645808268E+02 -0.11398584537E+02  0.20667854852E+02  0.00000000000E+00 0. -1.
<mgrwt>
<rscale>  0 0.27465714E+03</rscale>
<asrwt>0</asrwt>
<pdfrwt beam="2">  1        1 0.52915215E-01 0.27803709E+03</pdfrwt>
<pdfrwt beam="1">  1       -1 0.33399767E-01 0.27803709E+03</pdfrwt>
<totfact> 0.62698813E+02</totfact>
</mgrwt>
</event>
<event>
 7    1  0.6419647E-006  0.1252899E+03  0.7546771E-02  0.1250127E+00
          2   -1    0    0  501    0  0.00000000000E+00  0.00000000000E+00  0.33272074091E+04  0.33272074091E+04  0.00000000000E+00 0. -1.
         -2   -1    0    0    0  501 -0.00000000000E+00 -0.00000000000E+00 -0.60208706469E+01  0.60208706469E+01  0.00000000000E+00 0.  1.
         23    2    1    2    0    0 -0.63931466408E+01  0.56568806232E+01  0.28759316699E+04  0.28786595020E+04  0.12499874526E+03 0.  0.
          5    1    3    3  502    0  0.16308400193E+02 -0.36458881509E+02  0.23936185436E+04  0.23939563564E+04  0.47000000000E+01 0.  1.
         -5    1    3    3    0  502 -0.22701546834E+02  0.42115762132E+02  0.48231312628E+03  0.48470314568E+03  0.47000000000E+01 0.  1.
        -11    1    1    2    0    0  0.27519107525E+02  0.35334071806E+02  0.19246278725E+03  0.19760496549E+03  0.00000000000E+00 0.  1.
         11    1    1    2    0    0 -0.21125960884E+02 -0.40990952429E+02  0.25279208134E+03  0.25696381223E+03  0.00000000000E+00 0. -1.
<mgrwt>
<rscale>  0 0.11583725E+03</rscale>
<asrwt>0</asrwt>
<pdfrwt beam="1">  1        2 0.51187659E+00 0.12528990E+03</pdfrwt>
<pdfrwt beam="2">  1       -2 0.92629045E-03 0.12528990E+03</pdfrwt>
<totfact> 0.31915916E+03</totfact>
</mgrwt>
</event>
<event>
 7    1  0.6419647E-006  0.1321700E+03  0.7546771E-02  0.1235846E+00
          2   -1    0    0  501    0  0.00000000000E+00  0.00000000000E+00  0.43337798763E+03  0.43337798763E+03  0.00000000000E+00 0. -1.
         -2   -1    0    0    0  501 -0.00000000000E+00 -0.00000000000E+00 -0.32346128489E+02  0.32346128489E+02  0.00000000000E+00 0.  1.
         23    2    1    2    0    0 -0.41535450782E+02 -0.10922325675E+02  0.24004337317E+03  0.27402503787E+03  0.12499763802E+03 0.  0.
          5    1    3    3  502    0 -0.30961291904E+02  0.49087475488E+02  0.58782847772E+02  0.82738715474E+02  0.47000000000E+01 0.  1.
         -5    1    3    3    0  502 -0.10574158878E+02 -0.60009801163E+02  0.18126052539E+03  0.19128632240E+03  0.47000000000E+01 0.  1.
        -11    1    1    2    0    0  0.56666858856E+01  0.34323189734E+02  0.12192872571E+02  0.36862702343E+02  0.00000000000E+00 0.  1.
         11    1    1    2    0    0  0.35868764896E+02 -0.23400864060E+02  0.14879561340E+03  0.15483637590E+03  0.00000000000E+00 0. -1.
<mgrwt>
<rscale>  0 0.12450431E+03</rscale>
<asrwt>0</asrwt>
<pdfrwt beam="1">  1        2 0.66673532E-01 0.13216997E+03</pdfrwt>
<pdfrwt beam="2">  1       -2 0.49763278E-02 0.13216997E+03</pdfrwt>
<totfact> 0.13592311E+04</totfact>
</mgrwt>
</event>
<event>
 7    1  0.6419647E-006  0.2058616E+03  0.7546771E-02  0.1148652E+00
         -1   -1    0    0    0  501 -0.00000000000E+00  0.00000000000E+00  0.23228891838E+03  0.23228891838E+03  0.00000000000E+00 0.  1.
          1   -1    0    0  501    0  0.00000000000E+00 -0.00000000000E+00 -0.16724813634E+03  0.16724813634E+03  0.00000000000E+00 0. -1.
         23    2    1    2    0    0  0.14653616627E+03 -0.72669693481E+02  0.39600152744E+02  0.20963585223E+03  0.12500114426E+03 0.  0.
          5    1    3    3  502    0  0.83472945726E+01  0.16080424822E+02 -0.26578161031E+02  0.32507630380E+02  0.47000000000E+01 0. -1.
         -5    1    3    3    0  502  0.13818887170E+03 -0.88750118302E+02  0.66178313775E+02  0.17712822185E+03  0.47000000000E+01 0. -1.
        -11    1    1    2    0    0 -0.11083932606E+03  0.95129172206E+01 -0.46912165402E+01  0.11134567485E+03  0.00000000000E+00 0.  1.
         11    1    1    2    0    0 -0.35696840216E+02  0.63156776260E+02  0.30131845843E+02  0.78555527640E+02  0.00000000000E+00 0. -1.
<mgrwt>
<rscale>  0 0.20129378E+03</rscale>
<asrwt>0</asrwt>
<pdfrwt beam="2">  1        1 0.25730483E-01 0.20586165E+03</pdfrwt>
<pdfrwt beam="1">  1       -1 0.35736757E-01 0.20586165E+03</pdfrwt>
<totfact> 0.13812316E+03</totfact>
</mgrwt>
</event>
<event>
 7    1  0.6419647E-006  0.1255811E+03  0.7546771E-02  0.1247617E+00
         -2   -1    0    0    0  501 -0.00000000000E+00  0.00000000000E+00  0.37831531856E+03  0.37831531856E+03  0.00000000000E+00 0. -1.
          2   -1    0    0  501    0  0.00000000000E+00 -0.00000000000E+00 -0.32405813661E+02  0.32405813661E+02  0.00000000000E+00 0.  1.
         23    2    1    2    0    0  0.14073141661E+01 -0.11987387916E+02  0.18630595507E+03  0.22467872881E+03  0.12499977714E+03 0.  0.
          5    1    3    3  502    0  0.24202663760E+02  0.23650717461E+02  0.17807797282E+03  0.18132561808E+03  0.47000000000E+01 0.  1.
         -5    1    3    3    0  502 -0.22795349594E+02 -0.35638105377E+02  0.82279822464E+01  0.43353110728E+02  0.47000000000E+01 0.  1.
        -11    1    1    2    0    0  0.17835790218E+02 -0.23166839726E+02  0.95930888100E+01  0.30770850305E+02  0.00000000000E+00 0.  1.
         11    1    1    2    0    0 -0.19243104384E+02  0.35154227641E+02  0.15001046103E+03  0.15527155311E+03  0.00000000000E+00 0. -1.
<mgrwt>
<rscale>  0 0.11730123E+03</rscale>
<asrwt>0</asrwt>
<pdfrwt beam="2">  1        2 0.49855101E-02 0.12558114E+03</pdfrwt>
<pdfrwt beam="1">  1       -2 0.58202354E-01 0.12558114E+03</pdfrwt>
<totfact> 0.42016872E+03</totfact>
</mgrwt>
</event>
<event>
 7    1  0.6419647E-006  0.1134985E+03  0.7546771E-02  0.1299325E+00
         -2   -1    0    0    0  501 -0.00000000000E+00  0.00000000000E+00  0.69001495467E+02  0.69001495467E+02  0.00000000000E+00 0.  1.
          2   -1    0    0  501    0  0.00000000000E+00 -0.00000000000E+00 -0.63218465112E+03  0.63218465112E+03  0.00000000000E+00 0. -1.
         23    2    1    2    0    0  0.75812115672E+01 -0.17068307834E+02 -0.61803727159E+03  0.62837248259E+03  0.11195135505E+03 0.  0.
          5    1    3    3  502    0 -0.27834697476E+02 -0.34239133157E+02 -0.52962859008E+03  0.53148435730E+03  0.47000000000E+01 0. -1.
         -5    1    3    3    0  502  0.35415909043E+02  0.17170825323E+02 -0.88408681513E+02  0.96888125291E+02  0.47000000000E+01 0.  1.
        -11    1    1    2    0    0 -0.13633382845E+02 -0.39172885783E+01  0.47802345733E+02  0.49862596554E+02  0.00000000000E+00 0.  1.
         11    1    1    2    0    0  0.60521712774E+01  0.20985596412E+02  0.70517702030E+01  0.22951067447E+02  0.00000000000E+00 0. -1.
<mgrwt>
<rscale>  0 0.91472313E+02</rscale>
<asrwt>0</asrwt>
<pdfrwt beam="2">  1        2 0.97259177E-01 0.11349849E+03</pdfrwt>
<pdfrwt beam="1">  1       -2 0.10615615E-01 0.11349849E+03</pdfrwt>
<totfact> 0.27805085E+03</totfact>
</mgrwt>
</event>
<event>
 7    1  0.6419647E-006  0.1360177E+03  0.7546771E-02  0.1230614E+00
          1   -1    0    0  501    0  0.00000000000E+00  0.00000000000E+00  0.49834229417E+03  0.49834229417E+03  0.00000000000E+00 0. -1.
         -1   -1    0    0    0  501 -0.00000000000E+00 -0.00000000000E+00 -0.34037582600E+02  0.34037582600E+02  0.00000000000E+00 0.  1.
         23    2    1    2    0    0 -0.53077737487E+02 -0.76181669388E+01  0.35374128938E+03  0.37899037533E+03  0.12500208834E+03 0.  0.
          5    1    3    3  502    0 -0.40606507771E+02  0.55238386403E+02  0.14269590232E+03  0.15838048600E+03  0.47000000000E+01 0.  1.
         -5    1    3    3    0  502 -0.12471229716E+02 -0.62856553342E+02  0.21104538706E+03  0.22060988933E+03  0.47000000000E+01 0.  1.
        -11    1    1    2    0    0 -0.20309593237E+02  0.15858517755E+02  0.79519970170E+01  0.26966765090E+02  0.00000000000E+00 0.  1.
         11    1    1    2    0    0  0.73387330724E+02 -0.82403508163E+01  0.10261142517E+03  0.12642273636E+03  0.00000000000E+00 0. -1.
<mgrwt>
<rscale>  0 0.12789419E+03</rscale>
<asrwt>0</asrwt>
<pdfrwt beam="1">  1        1 0.76668040E-01 0.13601766E+03</pdfrwt>
<pdfrwt beam="2">  1       -1 0.52365515E-02 0.13601766E+03</pdfrwt>
<totfact> 0.71334318E+03</totfact>
</mgrwt>
</event>
<event>
 6    1  0.6419647E-006  0.2731967E+03  0.7546771E-02  0.1101782E+00
          1   -1    0    0  501    0  0.00000000000E+00  0.00000000000E+00  0.39152462288E+03  0.39152462288E+03  0.00000000000E+00 0. -1.
         -1   -1    0    0    0  501 -0.00000000000E+00 -0.00000000000E+00 -0.18603173102E+03  0.18603173102E+03  0.00000000000E+00 0.  1.
          5    1    1    2  502    0  0.58317987161E+02  0.10080312806E+03  0.43910870714E+02  0.12454923854E+03  0.47000000000E+01 0. -1.
         -5    1    1    2    0  502 -0.63488466656E+02  0.13924515180E+03  0.11516988694E+03  0.19158859715E+03  0.47000000000E+01 0.  1.
        -11    1    1    2    0    0 -0.11246249781E+01 -0.45000648316E+02  0.48617376793E+02  0.66256867240E+02  0.00000000000E+00 0. -1.
         11    1    1    2    0    0  0.62951044733E+01 -0.19504763155E+03 -0.22052425831E+01  0.19516165097E+03  0.00000000000E+00 0.  1.
<mgrwt>
<rscale>  0 0.26912374E+03</rscale>
<asrwt>0</asrwt>
<pdfrwt beam="1">  1        1 0.60234557E-01 0.27319671E+03</pdfrwt>
<pdfrwt beam="2">  1       -1 0.28620266E-01 0.27319671E+03</pdfrwt>
<totfact> 0.69235498E+02</totfact>
</mgrwt>
</event>
<event>
 7    1  0.6419647E-006  0.1742229E+03  0.7546771E-02  0.1179496E+00
         -2   -1    0    0    0  501 -0.00000000000E+00  0.00000000000E+00  0.10703795709E+04  0.10703795709E+04  0.00000000000E+00 0. -1.
          2   -1    0    0  501    0  0.00000000000E+00 -0.00000000000E+00 -0.24929171691E+02  0.24929171691E+02  0.00000000000E+00 0.  1.
         23    2    1    2    0    0 -0.79559765142E+02  0.91645317895E+02  0.53443307025E+03  0.56211414964E+03  0.12499996047E+03 0.  0.
          5    1    3    3  502    0 -0.66551658154E+02  0.12107132423E+03  0.38176677726E+03  0.40602383055E+03  0.47000000000E+01 0.  1.
         -5    1    3    3    0  502 -0.13008106988E+02 -0.29426006335E+02  0.15266629299E+03  0.15609031908E+03  0.47000000000E+01 0.  1.
        -11    1    1    2    0    0  0.97094905085E+02 -0.69319066455E+02  0.35211402102E+03  0.37177525115E+03  0.00000000000E+00 0.  1.
         11    1    1    2    0    0 -0.17535139943E+02 -0.22326251440E+02  0.15890330789E+03  0.16141934176E+03  0.00000000000E+00 0. -1.
<mgrwt>
<rscale>  0 0.16842865E+03</rscale>
<asrwt>0</asrwt>
<pdfrwt beam="2">  1        2 0.38352580E-02 0.17422288E+03</pdfrwt>
<pdfrwt beam="1">  1       -2 0.16467374E+00 0.17422288E+03</pdfrwt>
<totfact> 0.54883461E+02</totfact>
</mgrwt>
</event>
<event>
 7    1  0.6419647E-006  0.1355965E+03  0.7546771E-02  0.1231107E+00
         -1   -1    0    0    0  501 -0.00000000000E+00  0.00000000000E+00  0.43601812956E+02  0.43601812956E+02  0.00000000000E+00 0.  1.
          1   -1    0    0  501    0  0.00000000000E+00 -0.00000000000E+00 -0.35338426910E+03  0.35338426910E+03  0.00000000000E+00 0. -1.
         23    2    1    2    0    0  0.18672709970E+02  0.49123367712E+02 -0.21732032580E+03  0.25615335076E+03  0.12499855897E+03 0.  0.
          5    1    3    3  502    0 -0.25336037482E+01 -0.24778210102E+02  0.25211292632E+00  0.25348222911E+02  0.47000000000E+01 0. -1.
         -5    1    3    3    0  502  0.21206313718E+02  0.73901577814E+02 -0.21757243873E+03  0.23080512785E+03  0.47000000000E+01 0. -1.
        -11    1    1    2    0    0 -0.14538095234E+01 -0.51383458038E+02 -0.49813594698E+01  0.51644818368E+02  0.00000000000E+00 0.  1.
         11    1    1    2    0    0 -0.17218900446E+02  0.22600903262E+01 -0.87480770872E+02  0.89187912933E+02  0.00000000000E+00 0. -1.
<mgrwt>
<rscale>  0 0.12756961E+03</rscale>
<asrwt>0</asrwt>
<pdfrwt beam="2">  1        1 0.54366811E-01 0.13559652E+03</pdfrwt>
<pdfrwt beam="1">  1       -1 0.67079712E-02 0.13559652E+03</pdfrwt>
<totfact> 0.76339187E+03</totfact>
</mgrwt>
</event>
<event>
 7    1  0.6419647E-006  0.1713527E+03  0.7546771E-02  0.1182915E+00
          2   -1    0    0  501    0  0.00000000000E+00  0.00000000000E+00  0.41265884660E+03  0.41265884660E+03  0.00000000000E+00 0. -1.
         -2   -1    0    0    0  501 -0.00000000000E+00 -0.00000000000E+00 -0.74103223732E+02  0.74103223732E+02  0.00000000000E+00 0.  1.
         23    2    1    2    0    0 -0.10583593822E+03  0.50341459781E+02  0.27831919680E+03  0.32683837202E+03  0.12500495080E+03 0.  0.
          5    1    3    3  502    0 -0.42276805031E+02 -0.34803654248E+02  0.15243406117E+03  0.16203967291E+03  0.47000000000E+01 0.  1.
         -5    1    3    3    0  502 -0.63559133193E+02  0.85145114029E+02  0.12588513563E+03  0.16479869911E+03  0.47000000000E+01 0.  1.
        -11    1    1    2    0    0  0.99735196994E+01  0.35456928951E+01 -0.20788164321E+02  0.23327897658E+02  0.00000000000E+00 0.  1.
         11    1    1    2    0    0  0.95862418524E+02 -0.53887152676E+02  0.81024590391E+02  0.13659580066E+03  0.00000000000E+00 0. -1.
<mgrwt>
<rscale>  0 0.16523061E+03</rscale>
<asrwt>0</asrwt>
<pdfrwt beam="1">  1        2 0.63485975E-01 0.17135270E+03</pdfrwt>
<pdfrwt beam="2">  1       -2 0.11400496E-01 0.17135270E+03</pdfrwt>
<totfact> 0.40474793E+03</totfact>
</mgrwt>
</event>
<event>
 7    1  0.6419647E-006  0.1502432E+03  0.7546771E-02  0.1205701E+00
         -1   -1    0    0    0  501 -0.00000000000E+00  0.00000000000E+00  0.70873035713E+02  0.70873035713E+02  0.00000000000E+00 0.  1.
          1   -1    0    0  501    0  0.00000000000E+00 -0.00000000000E+00 -0.28994357098E+03  0.28994357098E+03  0.00000000000E+00 0. -1.
         23    2    1    2    0    0  0.72173437695E+02  0.41631216763E+02 -0.14244920077E+03  0.20703813587E+03  0.12502340415E+03 0.  0.
          5    1    3    3  502    0  0.87847669899E+02 -0.16282329924E+02 -0.76027543649E+02  0.11740785650E+03  0.47000000000E+01 0.  1.
         -5    1    3    3    0  502 -0.15674232205E+02  0.57913546687E+02 -0.66421657116E+02  0.89630279366E+02  0.47000000000E+01 0.  1.
        -11    1    1    2    0    0 -0.46102443674E+02 -0.62743321007E+01 -0.95293322826E+02  0.10604536733E+03  0.00000000000E+00 0. -1.
         11    1    1    2    0    0 -0.26070994021E+02 -0.35356884662E+02  0.18671988322E+02  0.47733103504E+02  0.00000000000E+00 0.  1.
<mgrwt>
<rscale>  0 0.14582378E+03</rscale>
<asrwt>0</asrwt>
<pdfrwt beam="2">  1        1 0.44606704E-01 0.15024319E+03</pdfrwt>
<pdfrwt beam="1">  1       -1 0.10903544E-01 0.15024319E+03</pdfrwt>
<totfact> 0.47036215E+03</totfact>
</mgrwt>
</event>
<event>
 7    1  0.6419647E-006  0.1326108E+03  0.7546771E-02  0.1243163E+00
          2   -1    0    0  501    0  0.00000000000E+00  0.00000000000E+00  0.37212106982E+03  0.37212106982E+03  0.00000000000E+00 0. -1.
         -2   -1    0    0    0  501 -0.00000000000E+00 -0.00000000000E+00 -0.32995914976E+02  0.32995914976E+02  0.00000000000E+00 0.  1.
         23    2    1    2    0    0  0.27072651464E+02 -0.35039422318E+02  0.21163553917E+03  0.24975031091E+03  0.12499970714E+03 0.  0.
          5    1    3    3  502    0  0.94179736125E+00  0.46525863021E+02  0.78326087525E+02  0.91228333861E+02  0.47000000000E+01 0. -1.
         -5    1    3    3    0  502  0.26130854103E+02 -0.81565285339E+02  0.13330945164E+03  0.15852197704E+03  0.47000000000E+01 0. -1.
        -11    1    1    2    0    0 -0.16343979907E+02  0.91360981812E+01 -0.54511739801E+01  0.19501519606E+02  0.00000000000E+00 0.  1.
         11    1    1    2    0    0 -0.10728671557E+02  0.25903324137E+02  0.13294078966E+03  0.13586515429E+03  0.00000000000E+00 0. -1.
<mgrwt>
<rscale>  0 0.11995979E+03</rscale>
<asrwt>0</asrwt>
<pdfrwt beam="1">  1        2 0.57249392E-01 0.13261077E+03</pdfrwt>
<pdfrwt beam="2">  1       -2 0.50762949E-02 0.13261077E+03</pdfrwt>
<totfact> 0.15529867E+04</totfact>
</mgrwt>
</event>
<event>
 7    1  0.6419647E-006  0.2213301E+03  0.7546771E-02  0.1136103E+00
         -1   -1    0    0    0  501 -0.00000000000E+00  0.00000000000E+00  0.17965466188E+02  0.17965466188E+02  0.00000000000E+00 0.  1.
          1   -1    0    0  501    0  0.00000000000E+00 -0.00000000000E+00 -0.27577173807E+04  0.27577173807E+04  0.00000000000E+00 0. -1.
         23    2    1    2    0    0 -0.12266217005E+03 -0.13533307948E+03 -0.18212179998E+04  0.18346176762E+04  0.12500385833E+03 0.  0.
          5    1    3    3  502    0 -0.13203318316E+03 -0.61128904041E+02 -0.12747048177E+04  0.12829902442E+04  0.47000000000E+01 0.  1.
         -5    1    3    3    0  502  0.93710131123E+01 -0.74204175435E+02 -0.54651318209E+03  0.55162743200E+03  0.47000000000E+01 0.  1.
        -11    1    1    2    0    0  0.10151544945E+03  0.61279195631E+02 -0.68423360459E+03  0.69443225151E+03  0.00000000000E+00 0. -1.
         11    1    1    2    0    0  0.21146720603E+02  0.74053883845E+02 -0.23430031005E+03  0.24663291912E+03  0.00000000000E+00 0.  1.
<mgrwt>
<rscale>  0 0.21704808E+03</rscale>
<asrwt>0</asrwt>
<pdfrwt beam="2">  1        1 0.42426426E+00 0.22133010E+03</pdfrwt>
<pdfrwt beam="1">  1       -1 0.27639176E-02 0.22133010E+03</pdfrwt>
<totfact> 0.45720037E+02</totfact>
</mgrwt>
</event>
<event>
 7    1  0.6419647E-006  0.1338182E+03  0.7546771E-02  0.1234274E+00
         -2   -1    0    0    0  501 -0.00000000000E+00  0.00000000000E+00  0.80900705869E+02  0.80900705869E+02  0.00000000000E+00 0.  1.
          2   -1    0    0  501    0  0.00000000000E+00 -0.00000000000E+00 -0.17427392886E+03  0.17427392886E+03  0.00000000000E+00 0. -1.
         23    2    1    2    0    0  0.15511945170E+02 -0.45174942636E+02 -0.48866176160E+02  0.14246131008E+03  0.12500370319E+03 0.  0.
          5    1    3    3  502    0  0.30110337564E+02 -0.92607485438E+01 -0.84059390463E+02  0.89891406802E+02  0.47000000000E+01 0. -1.
         -5    1    3    3    0  502 -0.14598392394E+02 -0.35914194092E+02  0.35193214303E+02  0.52569903279E+02  0.47000000000E+01 0. -1.
        -11    1    1    2    0    0  0.30184638268E+02  0.49156428649E+02 -0.24830329272E+02  0.62801370341E+02  0.00000000000E+00 0.  1.
         11    1    1    2    0    0 -0.45696583438E+02 -0.39814860126E+01 -0.19676717557E+02  0.49911954306E+02  0.00000000000E+00 0. -1.
<mgrwt>
<rscale>  0 0.12550994E+03</rscale>
<asrwt>0</asrwt>
<pdfrwt beam="2">  1        2 0.26811374E-01 0.13381824E+03</pdfrwt>
<pdfrwt beam="1">  1       -2 0.12446262E-01 0.13381824E+03</pdfrwt>
<totfact> 0.87389669E+03</totfact>
</mgrwt>
</event>
<event>
 7    1  0.6419647E-006  0.1415247E+03  0.7546771E-02  0.1221479E+00
         -2   -1    0    0    0  501 -0.00000000000E+00  0.00000000000E+00  0.67232062234E+02  0.67232062234E+02  0.00000000000E+00 0.  1.
          2   -1    0    0  501    0  0.00000000000E+00 -0.00000000000E+00 -0.38939878869E+03  0.38939878869E+03  0.00000000000E+00 0. -1.
         23    2    1    2    0    0  0.62927187324E+02  0.21086691632E+02 -0.31134026168E+03  0.34199709232E+03  0.12499909257E+03 0.  0.
          5    1    3    3  502    0  0.12712535967E+02 -0.48804267953E+02 -0.16011408968E+03  0.16793473987E+03  0.47000000000E+01 0.  1.
         -5    1    3    3    0  502  0.50214651357E+02  0.69890959585E+02 -0.15122617200E+03  0.17406235245E+03  0.47000000000E+01 0.  1.
        -11    1    1    2    0    0 -0.27048133283E+02  0.11358815101E+02  0.36588759584E+02  0.46897350911E+02  0.00000000000E+00 0.  1.
         11    1    1    2    0    0 -0.35879054041E+02 -0.32445506733E+02 -0.47415224360E+02  0.67736407692E+02  0.00000000000E+00 0. -1.
<mgrwt>
<rscale>  0 0.13411150E+03</rscale>
<asrwt>0</asrwt>
<pdfrwt beam="2">  1        2 0.59907506E-01 0.14152474E+03</pdfrwt>
<pdfrwt beam="1">  1       -2 0.10343394E-01 0.14152474E+03</pdfrwt>
<totfact> 0.49805629E+03</totfact>
</mgrwt>
</event>
<event>
 7    1  0.6419647E-006  0.1459872E+03  0.7546771E-02  0.1215419E+00
          2   -1    0    0  501    0  0.00000000000E+00  0.00000000000E+00  0.30929630048E+03  0.30929630048E+03  0.00000000000E+00 0. -1.
         -2   -1    0    0    0  501 -0.00000000000E+00 -0.00000000000E+00 -0.98823831468E+02  0.98823831468E+02  0.00000000000E+00 0.  1.
         23    2    1    2    0    0 -0.74684851792E+02 -0.79390666169E+01  0.24487601981E+03  0.28509040709E+03  0.12518553939E+03 0.  0.
          5    1    3    3  502    0 -0.50583364344E+02  0.28925105321E+01  0.25219100588E+03  0.25727307828E+03  0.47000000000E+01 0. -1.
         -5    1    3    3    0  502 -0.24101487448E+02 -0.10831577149E+02 -0.73149860685E+01  0.27817328806E+02  0.47000000000E+01 0. -1.
        -11    1    1    2    0    0 -0.16239640540E+02  0.12374947108E+02 -0.23837156441E+02  0.31385908749E+02  0.00000000000E+00 0.  1.
         11    1    1    2    0    0  0.90924492332E+02 -0.44358804915E+01 -0.10566394354E+02  0.91643816110E+02  0.00000000000E+00 0. -1.
<mgrwt>
<rscale>  0 0.13845814E+03</rscale>
<asrwt>0</asrwt>
<pdfrwt beam="1">  1        2 0.47584046E-01 0.14598724E+03</pdfrwt>
<pdfrwt beam="2">  1       -2 0.15203667E-01 0.14598724E+03</pdfrwt>
<totfact> 0.34328438E+03</totfact>
</mgrwt>
</event>
<event>
 7    1  0.6419648E-006  0.1879126E+03  0.7546771E-02  0.1164354E+00
          2   -1    0    0  501    0  0.00000000000E+00  0.00000000000E+00  0.82519948687E+03  0.82519948687E+03  0.00000000000E+00 0. -1.
         -2   -1    0    0    0  501 -0.00000000000E+00 -0.00000000000E+00 -0.43671644717E+02  0.43671644717E+02  0.00000000000E+00 0.  1.
         23    2    1    2    0    0 -0.12923263050E+03 -0.54636952885E+02  0.54755730186E+03  0.57890426229E+03  0.12499950665E+03 0.  0.
          5    1    3    3  502    0 -0.10170590886E+03 -0.20551194488E+02  0.17316152958E+03  0.20192436411E+03  0.47000000000E+01 0.  1.
         -5    1    3    3    0  502 -0.27526721637E+02 -0.34085758397E+02  0.37439577228E+03  0.37697989818E+03  0.47000000000E+01 0.  1.
        -11    1    1    2    0    0  0.89191447422E+02  0.38007897477E+02  0.67987547195E+02  0.11841461539E+03  0.00000000000E+00 0.  1.
         11    1    1    2    0    0  0.40041183076E+02  0.16629055408E+02  0.16598299310E+03  0.17155225392E+03  0.00000000000E+00 0. -1.
<mgrwt>
<rscale>  0 0.18361020E+03</rscale>
<asrwt>0</asrwt>
<pdfrwt beam="1">  1        2 0.12695376E+00 0.18791260E+03</pdfrwt>
<pdfrwt beam="2">  1       -2 0.67187152E-02 0.18791260E+03</pdfrwt>
<totfact> 0.41769247E+03</totfact>
</mgrwt>
</event>
<event>
 6    1  0.6419647E-006  0.2266926E+03  0.7546771E-02  0.1168357E+00
         -1   -1    0    0    0  501 -0.00000000000E+00  0.00000000000E+00  0.33649237921E+02  0.33649237921E+02  0.00000000000E+00 0.  1.
          1   -1    0    0  501    0  0.00000000000E+00 -0.00000000000E+00 -0.11000992177E+04  0.11000992177E+04  0.00000000000E+00 0. -1.
          5    1    1    2  502    0  0.50729140816E+02 -0.99339270484E+02 -0.54447196096E+03  0.55579991243E+03  0.47000000000E+01 0. -1.
         -5    1    1    2    0  502 -0.41929203913E+02  0.10571138128E+03 -0.44801866017E+03  0.46225075893E+03  0.47000000000E+01 0.  1.
        -11    1    1    2    0    0  0.26205683722E+02  0.28316727556E+02 -0.41622396127E+02  0.56753843730E+02  0.00000000000E+00 0.  1.
         11    1    1    2    0    0 -0.35005620625E+02 -0.34688838348E+02 -0.32336962551E+02  0.58943940556E+02  0.00000000000E+00 0. -1.
<mgrwt>
<rscale>  0 0.17942839E+03</rscale>
<asrwt>0</asrwt>
<pdfrwt beam="2">  1        1 0.16924601E+00 0.22669260E+03</pdfrwt>
<pdfrwt beam="1">  1       -1 0.51768067E-02 0.22669260E+03</pdfrwt>
<totfact> 0.22488869E+03</totfact>
</mgrwt>
</event>
<event>
 7    1  0.6419647E-006  0.1552238E+03  0.7546771E-02  0.1201850E+00
          2   -1    0    0  501    0  0.00000000000E+00  0.00000000000E+00  0.84515036617E+02  0.84515036617E+02  0.00000000000E+00 0. -1.
         -2   -1    0    0    0  501 -0.00000000000E+00 -0.00000000000E+00 -0.33374987759E+03  0.33374987759E+03  0.00000000000E+00 0.  1.
         23    2    1    2    0    0 -0.30853602201E+02  0.86697066674E+02 -0.23375135329E+02  0.15697397350E+03  0.12500442098E+03 0.  0.
          5    1    3    3  502    0 -0.96189086621E+01  0.77630553062E+02  0.40985279218E+02  0.88435904955E+02  0.47000000000E+01 0.  1.
         -5    1    3    3    0  502 -0.21234693538E+02  0.90665136122E+01 -0.64360414547E+02  0.68538068542E+02  0.47000000000E+01 0.  1.
        -11    1    1    2    0    0  0.35199013234E+02 -0.16955543532E+00 -0.26947480077E+02  0.44330192467E+02  0.00000000000E+00 0. -1.
         11    1    1    2    0    0 -0.43454110334E+01 -0.86527511239E+02 -0.19891222556E+03  0.21696074824E+03  0.00000000000E+00 0.  1.
<mgrwt>
<rscale>  0 0.14888466E+03</rscale>
<asrwt>0</asrwt>
<pdfrwt beam="1">  1        2 0.13002313E-01 0.15522381E+03</pdfrwt>
<pdfrwt beam="2">  1       -2 0.51346135E-01 0.15522381E+03</pdfrwt>
<totfact> 0.16475830E+03</totfact>
</mgrwt>
</event>
<event>
 7    1  0.6419647E-006  0.2051642E+03  0.7546771E-02  0.1149269E+00
          1   -1    0    0  501    0  0.00000000000E+00  0.00000000000E+00  0.31800427640E+03  0.31800427640E+03  0.00000000000E+00 0. -1.
         -1   -1    0    0    0  501 -0.00000000000E+00 -0.00000000000E+00 -0.12948239050E+03  0.12948239050E+03  0.00000000000E+00 0.  1.
         23    2    1    2    0    0  0.12707865324E+03  0.10157309089E+03  0.15506181354E+03  0.25717022784E+03  0.12500513255E+03 0.  0.
          5    1    3    3  502    0  0.12267009698E+03  0.35687476296E+02  0.13939476878E+03  0.18914158776E+03  0.47000000000E+01 0.  1.
         -5    1    3    3    0  502  0.44085562570E+01  0.65885614594E+02  0.15667044757E+02  0.68028640072E+02  0.47000000000E+01 0.  1.
        -11    1    1    2    0    0 -0.12942793473E+03 -0.66625258948E+02  0.57999115232E+01  0.14568512070E+03  0.00000000000E+00 0.  1.
         11    1    1    2    0    0  0.23492814967E+01 -0.34947831942E+02  0.27660160846E+02  0.44631318365E+02  0.00000000000E+00 0. -1.
<mgrwt>
<rscale>  0 0.20055838E+03</rscale>
<asrwt>0</asrwt>
<pdfrwt beam="1">  1        1 0.48923735E-01 0.20516423E+03</pdfrwt>
<pdfrwt beam="2">  1       -1 0.19920368E-01 0.20516423E+03</pdfrwt>
<totfact> 0.16398963E+03</totfact>
</mgrwt>
</event>
<event>
 7    1  0.6419647E-006  0.1342552E+03  0.7546771E-02  0.1232825E+00
          1   -1    0    0  501    0  0.00000000000E+00  0.00000000000E+00  0.18690805127E+03  0.18690805127E+03  0.00000000000E+00 0. -1.
         -1   -1    0    0    0  501 -0.00000000000E+00 -0.00000000000E+00 -0.12291687846E+03  0.12291687846E+03  0.00000000000E+00 0.  1.
         23    2    1    2    0    0 -0.45147197254E+02 -0.19017320715E+02  0.12866728540E+03  0.18595624264E+03  0.12499810373E+03 0.  0.
          5    1    3    3  502    0 -0.27028031832E+02  0.15762352822E+02  0.14105671033E+03  0.14456158480E+03  0.47000000000E+01 0. -1.
         -5    1    3    3    0  502 -0.18119165422E+02 -0.34779673536E+02 -0.12389424932E+02  0.41394657832E+02  0.47000000000E+01 0. -1.
        -11    1    1    2    0    0 -0.71730099438E+01 -0.31821096436E+02 -0.17890162317E+02  0.37203389063E+02  0.00000000000E+00 0. -1.
         11    1    1    2    0    0  0.52320207198E+02  0.50838417150E+02 -0.46785950271E+02  0.86665298029E+02  0.00000000000E+00 0.  1.
<mgrwt>
<rscale>  0 0.12644700E+03</rscale>
<asrwt>0</asrwt>
<pdfrwt beam="1">  1        1 0.28755085E-01 0.13425518E+03</pdfrwt>
<pdfrwt beam="2">  1       -1 0.18910289E-01 0.13425518E+03</pdfrwt>
<totfact> 0.34058362E+03</totfact>
</mgrwt>
</event>
<event>
 7    1  0.6419647E-006  0.1301196E+03  0.7546771E-02  0.1234550E+00
         -2   -1    0    0    0  501 -0.00000000000E+00  0.00000000000E+00  0.43014999104E+02  0.43014999104E+02  0.00000000000E+00 0.  1.
          2   -1    0    0  501    0  0.00000000000E+00 -0.00000000000E+00 -0.34093651488E+03  0.34093651488E+03  0.00000000000E+00 0. -1.
         23    2    1    2    0    0 -0.57287152144E+02 -0.19925197470E+02 -0.15525329504E+03  0.20257024753E+03  0.11511858350E+03 0.  0.
          5    1    3    3  502    0  0.27816732036E+02 -0.33504438879E+02 -0.53541808523E+02  0.69174657684E+02  0.47000000000E+01 0. -1.
         -5    1    3    3    0  502 -0.85103884179E+02  0.13579241410E+02 -0.10171148652E+03  0.13339558984E+03  0.47000000000E+01 0.  1.
        -11    1    1    2    0    0  0.72152453826E+02  0.41744875260E+02 -0.12243406893E+03  0.14811722533E+03  0.00000000000E+00 0.  1.
         11    1    1    2    0    0 -0.14865301683E+02 -0.21819677790E+02 -0.20234151798E+02  0.33264041125E+02  0.00000000000E+00 0. -1.
<mgrwt>
<rscale>  0 0.12533308E+03</rscale>
<asrwt>0</asrwt>
<pdfrwt beam="2">  1        2 0.52451770E-01 0.13011964E+03</pdfrwt>
<pdfrwt beam="1">  1       -2 0.66176924E-02 0.13011964E+03</pdfrwt>
<totfact> 0.11395095E+04</totfact>
</mgrwt>
</event>
<event>
 7    1  0.6419647E-006  0.1354920E+03  0.7546771E-02  0.1228962E+00
         -2   -1    0    0    0  501 -0.00000000000E+00  0.00000000000E+00  0.34030650504E+02  0.34030650504E+02  0.00000000000E+00 0. -1.
          2   -1    0    0  501    0  0.00000000000E+00 -0.00000000000E+00 -0.45191493367E+03  0.45191493367E+03  0.00000000000E+00 0.  1.
         23    2    1    2    0    0  0.47129252472E+02 -0.22618938964E+02 -0.25332208135E+03  0.28728063379E+03  0.12500121124E+03 0.  0.
          5    1    3    3  502    0 -0.16247921510E+02 -0.70532753863E+01 -0.20530738668E+03  0.20612364414E+03  0.47000000000E+01 0.  1.
         -5    1    3    3    0  502  0.63377173982E+02 -0.15565663578E+02 -0.48014694669E+02  0.81156989648E+02  0.47000000000E+01 0.  1.
        -11    1    1    2    0    0  0.14032997575E+02 -0.28215659571E+02 -0.40804588593E+02  0.51556405191E+02  0.00000000000E+00 0.  1.
         11    1    1    2    0    0 -0.61162250047E+02  0.50834598535E+02 -0.12375761322E+03  0.14710854519E+03  0.00000000000E+00 0. -1.
<mgrwt>
<rscale>  0 0.12899006E+03</rscale>
<asrwt>0</asrwt>
<pdfrwt beam="2">  1        2 0.69525370E-01 0.13549201E+03</pdfrwt>
<pdfrwt beam="1">  1       -2 0.52354850E-02 0.13549201E+03</pdfrwt>
<totfact> 0.12060305E+04</totfact>
</mgrwt>
</event>
<event>
 7    1  0.6419647E-006  0.1444849E+03  0.7546771E-02  0.1220631E+00
          1   -1    0    0  501    0  0.00000000000E+00  0.00000000000E+00  0.37663006971E+02  0.37663006971E+02  0.00000000000E+00 0. -1.
         -1   -1    0    0    0  501 -0.00000000000E+00 -0.00000000000E+00 -0.43264773899E+03  0.43264773899E+03  0.00000000000E+00 0.  1.
         23    2    1    2    0    0 -0.51827693600E+02  0.50640892589E+02 -0.19824347412E+03  0.24530868517E+03  0.12500106465E+03 0.  0.
          5    1    3    3  502    0  0.38670154052E+02  0.22934725535E+02 -0.94779032564E+02  0.10500732100E+03  0.47000000000E+01 0.  1.
         -5    1    3    3    0  502 -0.90497847652E+02  0.27706167053E+02 -0.10346444156E+03  0.14030136417E+03  0.47000000000E+01 0.  1.
        -11    1    1    2    0    0 -0.17523971210E+01 -0.29960683665E+02 -0.13384911471E+02  0.32861365104E+02  0.00000000000E+00 0. -1.
         11    1    1    2    0    0  0.53580090721E+02 -0.20680208923E+02 -0.18335634643E+03  0.19214069568E+03  0.00000000000E+00 0.  1.
<mgrwt>
<rscale>  0 0.13470876E+03</rscale>
<asrwt>0</asrwt>
<pdfrwt beam="1">  1        1 0.57943084E-02 0.14448486E+03</pdfrwt>
<pdfrwt beam="2">  1       -1 0.66561195E-01 0.14448486E+03</pdfrwt>
<totfact> 0.31081588E+03</totfact>
</mgrwt>
</event>
<event>
 7    1  0.6419647E-006  0.1479660E+03  0.7546771E-02  0.1212572E+00
          1   -1    0    0  501    0  0.00000000000E+00  0.00000000000E+00  0.59706045382E+03  0.59706045382E+03  0.00000000000E+00 0. -1.
         -1   -1    0    0    0  501 -0.00000000000E+00 -0.00000000000E+00 -0.41936736005E+02  0.41936736005E+02  0.00000000000E+00 0.  1.
         23    2    1    2    0    0 -0.73374891561E+02 -0.29737049352E+02  0.46652165925E+03  0.48942455644E+03  0.12500308430E+03 0.  0.
          5    1    3    3  502    0 -0.32770944031E+02  0.39595689310E+02  0.30076098130E+03  0.30515735491E+03  0.47000000000E+01 0. -1.
         -5    1    3    3    0  502 -0.40603947529E+02 -0.69332738663E+02  0.16576067795E+03  0.18426720153E+03  0.47000000000E+01 0. -1.
        -11    1    1    2    0    0  0.75718888404E+02 -0.59494988778E+01  0.31564045008E+02  0.82249836081E+02  0.00000000000E+00 0.  1.
         11    1    1    2    0    0 -0.23439968436E+01  0.35686548230E+02  0.57038013554E+02  0.67322797298E+02  0.00000000000E+00 0. -1.
<mgrwt>
<rscale>  0 0.14056379E+03</rscale>
<asrwt>0</asrwt>
<pdfrwt beam="1">  1        1 0.91855448E-01 0.14796600E+03</pdfrwt>
<pdfrwt beam="2">  1       -1 0.64518060E-02 0.14796600E+03</pdfrwt>
<totfact> 0.41273106E+03</totfact>
</mgrwt>
</event>
<event>
 7    1  0.6419647E-006  0.1916377E+03  0.7546771E-02  0.1161760E+00
          1   -1    0    0  501    0  0.00000000000E+00  0.00000000000E+00  0.58309305484E+03  0.58309305484E+03  0.00000000000E+00 0. -1.
         -1   -1    0    0    0  501 -0.00000000000E+00 -0.00000000000E+00 -0.68936285419E+02  0.68936285419E+02  0.00000000000E+00 0.  1.
         23    2    1    2    0    0 -0.51728467227E+01 -0.14516972044E+03  0.40687920114E+03  0.44975071398E+03  0.12499605728E+03 0.  0.
          5    1    3    3  502    0  0.71487243620E+01 -0.80257275994E+02  0.35914996462E+03  0.36810748661E+03  0.47000000000E+01 0.  1.
         -5    1    3    3    0  502 -0.12321571085E+02 -0.64912444445E+02  0.47729236518E+02  0.81643227376E+02  0.47000000000E+01 0.  1.
        -11    1    1    2    0    0 -0.39288547757E+02  0.64396046008E+02  0.27300508836E+02  0.80223179375E+02  0.00000000000E+00 0.  1.
         11    1    1    2    0    0  0.44461394479E+02  0.80773674431E+02  0.79977059449E+02  0.12205544690E+03  0.00000000000E+00 0. -1.
<mgrwt>
<rscale>  0 0.18638856E+03</rscale>
<asrwt>0</asrwt>
<pdfrwt beam="1">  1        1 0.89706621E-01 0.19163773E+03</pdfrwt>
<pdfrwt beam="2">  1       -1 0.10605583E-01 0.19163773E+03</pdfrwt>
<totfact> 0.20194299E+03</totfact>
</mgrwt>
</event>
<event>
 7    1  0.6419647E-006  0.1858608E+03  0.7546771E-02  0.1167480E+00
         -2   -1    0    0    0  501 -0.00000000000E+00  0.00000000000E+00  0.12844452538E+02  0.12844452538E+02  0.00000000000E+00 0.  1.
          2   -1    0    0  501    0  0.00000000000E+00 -0.00000000000E+00 -0.31137199030E+04  0.31137199030E+04  0.00000000000E+00 0. -1.
         23    2    1    2    0    0  0.20630994078E+02  0.13598929186E+03 -0.23737408170E+04  0.23810060241E+04  0.12500197950E+03 0.  0.
          5    1    3    3  502    0  0.95976202192E+01  0.15440207575E+03 -0.17356562678E+04  0.17425432234E+04  0.47000000000E+01 0.  1.
         -5    1    3    3    0  502  0.11033373858E+02 -0.18412783890E+02 -0.63808454917E+03  0.63846280067E+03  0.47000000000E+01 0.  1.
        -11    1    1    2    0    0 -0.48603633173E+02 -0.54462457577E+02 -0.43089930757E+03  0.43703854030E+03  0.00000000000E+00 0. -1.
         11    1    1    2    0    0  0.27972639095E+02 -0.81526834285E+02 -0.29623532592E+03  0.30851979121E+03  0.00000000000E+00 0.  1.
<mgrwt>
<rscale>  0 0.18033370E+03</rscale>
<asrwt>0</asrwt>
<pdfrwt beam="2">  1        2 0.47903434E+00 0.18586076E+03</pdfrwt>
<pdfrwt beam="1">  1       -2 0.19760675E-02 0.18586076E+03</pdfrwt>
<totfact> 0.14240757E+03</totfact>
</mgrwt>
</event>
<event>
 7    1  0.6419647E-006  0.2177762E+03  0.7546771E-02  0.1139082E+00
         -1   -1    0    0    0  501 -0.00000000000E+00  0.00000000000E+00  0.43012113932E+02  0.43012113932E+02  0.00000000000E+00 0.  1.
          1   -1    0    0  501    0  0.00000000000E+00 -0.00000000000E+00 -0.10271700190E+04  0.10271700190E+04  0.00000000000E+00 0. -1.
         23    2    1    2    0    0 -0.17618236665E+03 -0.27599905873E+02 -0.57325900873E+03  0.61323107381E+03  0.12499791066E+03 0.  0.
          5    1    3    3  502    0 -0.65426125425E+02 -0.62979004437E+02 -0.16145184389E+03  0.18529900373E+03  0.47000000000E+01 0. -1.
         -5    1    3    3    0  502 -0.11075624123E+03  0.35379098565E+02 -0.41180716484E+03  0.42793207007E+03  0.47000000000E+01 0. -1.
        -11    1    1    2    0    0  0.11879627222E+02 -0.16967912044E+02 -0.10357174514E+03  0.10562263949E+03  0.00000000000E+00 0. -1.
         11    1    1    2    0    0  0.16430273943E+03  0.44567817916E+02 -0.30732715119E+03  0.35132841962E+03  0.00000000000E+00 0.  1.
<mgrwt>
<rscale>  0 0.21316682E+03</rscale>
<asrwt>0</asrwt>
<pdfrwt beam="2">  1        1 0.15802614E+00 0.21777617E+03</pdfrwt>
<pdfrwt beam="1">  1       -1 0.66172490E-02 0.21777617E+03</pdfrwt>
<totfact> 0.17549222E+03</totfact>
</mgrwt>
</event>
<event>
 7    1  0.6419647E-006  0.1269239E+03  0.7546771E-02  0.1251140E+00
          2   -1    0    0  501    0  0.00000000000E+00  0.00000000000E+00  0.63998711378E+03  0.63998711378E+03  0.00000000000E+00 0. -1.
         -2   -1    0    0    0  501 -0.00000000000E+00 -0.00000000000E+00 -0.18644145944E+02  0.18644145944E+02  0.00000000000E+00 0.  1.
         23    2    1    2    0    0  0.22077562771E+02  0.10995472580E+01  0.43756367793E+03  0.45560032120E+03  0.12498420963E+03 0.  0.
          5    1    3    3  502    0 -0.48115138468E+02 -0.19814067798E+02  0.21457265579E+03  0.22084197619E+03  0.47000000000E+01 0.  1.
         -5    1    3    3    0  502  0.70192701239E+02  0.20913615056E+02  0.22299102213E+03  0.23475834501E+03  0.47000000000E+01 0.  1.
        -11    1    1    2    0    0  0.21973450298E+02  0.23899326379E+02  0.46552998465E+02  0.56755545857E+02  0.00000000000E+00 0.  1.
         11    1    1    2    0    0 -0.44051013069E+02 -0.24998873637E+02  0.13722629145E+03  0.14627539267E+03  0.00000000000E+00 0. -1.
<mgrwt>
<rscale>  0 0.11525329E+03</rscale>
<asrwt>0</asrwt>
<pdfrwt beam="1">  1        2 0.98459539E-01 0.12692392E+03</pdfrwt>
<pdfrwt beam="2">  1       -2 0.28683306E-02 0.12692392E+03</pdfrwt>
<totfact> 0.19888115E+04</totfact>
</mgrwt>
</event>
<event>
 7    1  0.6419647E-006  0.1591439E+03  0.7546771E-02  0.1196456E+00
         -1   -1    0    0    0  501 -0.00000000000E+00  0.00000000000E+00  0.95163767511E+02  0.95163767511E+02  0.00000000000E+00 0. -1.
          1   -1    0    0  501    0  0.00000000000E+00 -0.00000000000E+00 -0.23308882010E+03  0.23308882010E+03  0.00000000000E+00 0.  1.
         23    2    1    2    0    0 -0.90966182960E+02  0.39229024965E+02 -0.91201289908E+02  0.18342426638E+03  0.12455128813E+03 0.  0.
          5    1    3    3  502    0  0.17824642692E+02  0.46034382259E+02 -0.34995221865E+02  0.60692979746E+02  0.47000000000E+01 0.  1.
         -5    1    3    3    0  502 -0.10879082565E+03 -0.68053572946E+01 -0.56206068043E+02  0.12273128663E+03  0.47000000000E+01 0.  1.
        -11    1    1    2    0    0  0.25656436421E+01 -0.45955845298E+02 -0.33999744664E+01  0.46152812165E+02  0.00000000000E+00 0.  1.
         11    1    1    2    0    0  0.88400539318E+02  0.67268203333E+01 -0.43323788211E+02  0.98675509061E+02  0.00000000000E+00 0. -1.
<mgrwt>
<rscale>  0 0.15331673E+03</rscale>
<asrwt>0</asrwt>
<pdfrwt beam="2">  1        1 0.35859818E-01 0.15914392E+03</pdfrwt>
<pdfrwt beam="1">  1       -1 0.14640580E-01 0.15914392E+03</pdfrwt>
<totfact> 0.39136424E+03</totfact>
</mgrwt>
</event>
<event>
 6    1  0.6419647E-006  0.2801775E+03  0.7546771E-02  0.1095592E+00
          2   -1    0    0  501    0  0.00000000000E+00  0.00000000000E+00  0.93635962799E+03  0.93635962799E+03  0.00000000000E+00 0. -1.
         -2   -1    0    0    0  501 -0.00000000000E+00 -0.00000000000E+00 -0.20958670620E+02  0.20958670620E+02  0.00000000000E+00 0.  1.
          5    1    1    2  502    0  0.16465386521E+02  0.14826507696E+02  0.77412709828E+03  0.77445838402E+03  0.47000000000E+01 0. -1.
         -5    1    1    2    0  502  0.40712737660E+01 -0.20550548857E+01 -0.54821432485E+01  0.85406331883E+01  0.47000000000E+01 0.  1.
        -11    1    1    2    0    0 -0.23263340737E+02  0.14684028711E+02  0.14398548251E+03  0.14658998224E+03  0.00000000000E+00 0.  1.
         11    1    1    2    0    0  0.27266804498E+01 -0.27455481522E+02  0.27705198330E+01  0.27729299162E+02  0.00000000000E+00 0. -1.
<mgrwt>
<rscale>  0 0.28017747E+03</rscale>
<asrwt>0</asrwt>
<pdfrwt beam="1">  1        2 0.14405529E+00 0.28017747E+03</pdfrwt>
<pdfrwt beam="2">  1       -2 0.32244116E-02 0.28017747E+03</pdfrwt>
<totfact> 0.10922637E+04</totfact>
</mgrwt>
</event>
<event>
 7    1  0.6419647E-006  0.1369875E+03  0.7546771E-02  0.1228530E+00
         -2   -1    0    0    0  501 -0.00000000000E+00  0.00000000000E+00  0.32318134581E+02  0.32318134581E+02  0.00000000000E+00 0.  1.
          2   -1    0    0  501    0  0.00000000000E+00 -0.00000000000E+00 -0.49737027647E+03  0.49737027647E+03  0.00000000000E+00 0. -1.
         23    2    1    2    0    0 -0.34430227724E+02  0.44233476948E+02 -0.32295672158E+03  0.35080850344E+03  0.12499408390E+03 0.  0.
          5    1    3    3  502    0  0.56327858939E+01  0.37221471930E+02 -0.16066769268E+02  0.41199482087E+02  0.47000000000E+01 0. -1.
         -5    1    3    3    0  502 -0.40063013618E+02  0.70120050178E+01 -0.30688995231E+03  0.30960902136E+03  0.47000000000E+01 0. -1.
        -11    1    1    2    0    0  0.53967444529E+02 -0.55112429580E+02 -0.13488755509E+03  0.15538506196E+03  0.00000000000E+00 0. -1.
         11    1    1    2    0    0 -0.19537216805E+02  0.10878952633E+02 -0.72078652196E+01  0.23494845645E+02  0.00000000000E+00 0.  1.
<mgrwt>
<rscale>  0 0.12927890E+03</rscale>
<asrwt>0</asrwt>
<pdfrwt beam="2">  1        2 0.76518497E-01 0.13698745E+03</pdfrwt>
<pdfrwt beam="1">  1       -2 0.49720212E-02 0.13698745E+03</pdfrwt>
<totfact> 0.11750600E+04</totfact>
</mgrwt>
</event>
<event>
 7    1  0.6419647E-006  0.1293935E+03  0.7546771E-02  0.1245543E+00
          3   -1    0    0  501    0  0.00000000000E+00  0.00000000000E+00  0.30859061565E+02  0.30859061565E+02  0.00000000000E+00 0. -1.
         -3   -1    0    0    0  501 -0.00000000000E+00 -0.00000000000E+00 -0.40137442697E+03  0.40137442697E+03  0.00000000000E+00 0.  1.
         23    2    1    2    0    0  0.10794768376E+02  0.31625066511E+02 -0.18777063681E+03  0.22803614702E+03  0.12500400172E+03 0.  0.
          5    1    3    3  502    0 -0.42076072920E+01 -0.11992302927E+02  0.14894091852E+02  0.20135621687E+02  0.47000000000E+01 0.  1.
         -5    1    3    3    0  502  0.15002375668E+02  0.43617369437E+02 -0.20266472866E+03  0.20790052534E+03  0.47000000000E+01 0.  1.
        -11    1    1    2    0    0 -0.17301123806E+02 -0.54230043999E+02 -0.16554216117E+03  0.17505551600E+03  0.00000000000E+00 0.  1.
         11    1    1    2    0    0  0.65063554304E+01  0.22604977489E+02 -0.17202567437E+02  0.29141825521E+02  0.00000000000E+00 0. -1.
<mgrwt>
<rscale>  0 0.11852912E+03</rscale>
<asrwt>0</asrwt>
<pdfrwt beam="1">  1        3 0.47475482E-02 0.12939348E+03</pdfrwt>
<pdfrwt beam="2">  1       -3 0.61749909E-01 0.12939348E+03</pdfrwt>
<totfact> 0.14642710E+03</totfact>
</mgrwt>
</event>
<event>
 7    1  0.6419647E-006  0.1592376E+03  0.7546771E-02  0.1196692E+00
          2   -1    0    0  501    0  0.00000000000E+00  0.00000000000E+00  0.83526898521E+03  0.83526898521E+03  0.00000000000E+00 0. -1.
         -2   -1    0    0    0  501 -0.00000000000E+00 -0.00000000000E+00 -0.30055816719E+02  0.30055816719E+02  0.00000000000E+00 0.  1.
         23    2    1    2    0    0  0.54690330573E+01 -0.98498029539E+02  0.58624127581E+03  0.60748288707E+03  0.12499940986E+03 0.  0.
          5    1    3    3  502    0 -0.32138730742E+02 -0.65431236800E+02  0.51568920843E+03  0.52083739733E+03  0.47000000000E+01 0. -1.
         -5    1    3    3    0  502  0.37607763800E+02 -0.33066792739E+02  0.70552067384E+02  0.86645489740E+02  0.47000000000E+01 0. -1.
        -11    1    1    2    0    0 -0.86102381729E+01  0.77575631062E+02  0.22303539382E+03  0.23629833185E+03  0.00000000000E+00 0. -1.
         11    1    1    2    0    0  0.31412051156E+01  0.20922398477E+02 -0.40635011454E+01  0.21543583016E+02  0.00000000000E+00 0.  1.
<mgrwt>
<rscale>  0 0.15311923E+03</rscale>
<asrwt>0</asrwt>
<pdfrwt beam="1">  1        2 0.12850290E+00 0.15923764E+03</pdfrwt>
<pdfrwt beam="2">  1       -2 0.46239724E-02 0.15923764E+03</pdfrwt>
<totfact> 0.72086657E+03</totfact>
</mgrwt>
</event>
<event>
 7    1  0.6419647E-006  0.2022117E+03  0.7546771E-02  0.1152040E+00
         -1   -1    0    0    0  501 -0.00000000000E+00  0.00000000000E+00  0.12896111380E+03  0.12896111380E+03  0.00000000000E+00 0.  1.
          1   -1    0    0  501    0  0.00000000000E+00 -0.00000000000E+00 -0.28810090260E+03  0.28810090260E+03  0.00000000000E+00 0. -1.
         23    2    1    2    0    0 -0.15887810719E+03  0.48563689835E+01 -0.80650951183E+02  0.21770196613E+03  0.12499493136E+03 0.  0.
          5    1    3    3  502    0 -0.56058917657E+02 -0.57030932219E+01 -0.97658366760E+02  0.11284668413E+03  0.47000000000E+01 0.  1.
         -5    1    3    3    0  502 -0.10281918953E+03  0.10559462205E+02  0.17007415577E+02  0.10485528199E+03  0.47000000000E+01 0.  1.
        -11    1    1    2    0    0  0.95347249181E+02  0.26642233256E+02 -0.81727226832E+02  0.12837541090E+03  0.00000000000E+00 0. -1.
         11    1    1    2    0    0  0.63530858005E+02 -0.31498602239E+02  0.32383892104E+01  0.70984639371E+02  0.00000000000E+00 0.  1.
<mgrwt>
<rscale>  0 0.19729730E+03</rscale>
<asrwt>0</asrwt>
<pdfrwt beam="2">  1        1 0.44323216E-01 0.20221170E+03</pdfrwt>
<pdfrwt beam="1">  1       -1 0.19840171E-01 0.20221170E+03</pdfrwt>
<totfact> 0.18676442E+03</totfact>
</mgrwt>
</event>
<event>
 7    1  0.6419647E-006  0.1635374E+03  0.7546771E-02  0.1192511E+00
         -1   -1    0    0    0  501 -0.00000000000E+00  0.00000000000E+00  0.22826406802E+03  0.22826406802E+03  0.00000000000E+00 0.  1.
          1   -1    0    0  501    0  0.00000000000E+00 -0.00000000000E+00 -0.99525079905E+02  0.99525079905E+02  0.00000000000E+00 0. -1.
         23    2    1    2    0    0  0.18636171443E+02  0.10379157730E+03  0.75360441385E+02  0.18006577626E+03  0.12499795698E+03 0.  0.
          5    1    3    3  502    0  0.11376970074E+02 -0.28284341416E+02  0.18832953427E+02  0.36141521166E+02  0.47000000000E+01 0.  1.
         -5    1    3    3    0  502  0.72592013690E+01  0.13207591871E+03  0.56527487958E+02  0.14392425509E+03  0.47000000000E+01 0.  1.
        -11    1    1    2    0    0  0.25434457131E+02 -0.55439183136E+02 -0.34112189888E+01  0.61090515233E+02  0.00000000000E+00 0. -1.
         11    1    1    2    0    0 -0.44070628574E+02 -0.48352394160E+02  0.56789765718E+02  0.86632856436E+02  0.00000000000E+00 0.  1.
<mgrwt>
<rscale>  0 0.15666776E+03</rscale>
<asrwt>0</asrwt>
<pdfrwt beam="2">  1        1 0.15311551E-01 0.16353742E+03</pdfrwt>
<pdfrwt beam="1">  1       -1 0.35117549E-01 0.16353742E+03</pdfrwt>
<totfact> 0.27502892E+03</totfact>
</mgrwt>
</event>
<event>
 7    1  0.6419647E-006  0.1382851E+03  0.7546771E-02  0.1227236E+00
          3   -1    0    0  501    0  0.00000000000E+00  0.00000000000E+00  0.97016292599E+02  0.97016292599E+02  0.00000000000E+00 0. -1.
         -3   -1    0    0    0  501 -0.00000000000E+00 -0.00000000000E+00 -0.26413576941E+03  0.26413576941E+03  0.00000000000E+00 0.  1.
         23    2    1    2    0    0 -0.59056980857E+02  0.25791143247E+01  0.24986245327E+02  0.14052428477E+03  0.12501353261E+03 0.  0.
          5    1    3    3  502    0 -0.88899485967E+02  0.32561681110E+02  0.96464898906E+01  0.95281301677E+02  0.47000000000E+01 0. -1.
         -5    1    3    3    0  502  0.29842505110E+02 -0.29982566786E+02  0.15339755436E+02  0.45242983093E+02  0.47000000000E+01 0. -1.
        -11    1    1    2    0    0  0.29464227740E+02 -0.31946405122E+02 -0.16563809869E+03  0.17124454226E+03  0.00000000000E+00 0.  1.
         11    1    1    2    0    0  0.29592753117E+02  0.29367290797E+02 -0.26467623444E+02  0.49383234975E+02  0.00000000000E+00 0. -1.
<mgrwt>
<rscale>  0 0.13014809E+03</rscale>
<asrwt>0</asrwt>
<pdfrwt beam="1">  1        3 0.14925584E-01 0.13828508E+03</pdfrwt>
<pdfrwt beam="2">  1       -3 0.40636271E-01 0.13828508E+03</pdfrwt>
<totfact> 0.52418191E+02</totfact>
</mgrwt>
</event>
<event>
 7    1  0.6419647E-006  0.1957827E+03  0.7546771E-02  0.1157740E+00
          2   -1    0    0  501    0  0.00000000000E+00  0.00000000000E+00  0.46477641923E+03  0.46477641923E+03  0.00000000000E+00 0.  1.
         -2   -1    0    0    0  501 -0.00000000000E+00 -0.00000000000E+00 -0.77212319669E+02  0.77212319669E+02  0.00000000000E+00 0. -1.
         23    2    1    2    0    0  0.41028333639E+02  0.14498648555E+03  0.25327821086E+03  0.32012608266E+03  0.12500580606E+03 0.  0.
          5    1    3    3  502    0  0.44015803104E+02  0.86560476719E+02  0.24140387567E+03  0.26024609169E+03  0.47000000000E+01 0. -1.
         -5    1    3    3    0  502 -0.29874694654E+01  0.58426008835E+02  0.11874335188E+02  0.59879990968E+02  0.47000000000E+01 0. -1.
        -11    1    1    2    0    0 -0.69945758737E+02 -0.10295324307E+03  0.10624294343E+03  0.16364395024E+03  0.00000000000E+00 0.  1.
         11    1    1    2    0    0  0.28917425098E+02 -0.42033242487E+02  0.28042945279E+02  0.58218705999E+02  0.00000000000E+00 0. -1.
<mgrwt>
<rscale>  0 0.19080213E+03</rscale>
<asrwt>0</asrwt>
<pdfrwt beam="1">  1        2 0.71504063E-01 0.19578268E+03</pdfrwt>
<pdfrwt beam="2">  1       -2 0.11878819E-01 0.19578268E+03</pdfrwt>
<totfact> 0.33465325E+03</totfact>
</mgrwt>
</event>
<event>
 7    1  0.6775914E-006  0.1679012E+03  0.7546771E-02  0.1186886E+00
         -1   -1    0    0    0  501 -0.00000000000E+00  0.00000000000E+00  0.23072307458E+02  0.23072307458E+02  0.00000000000E+00 0.  1.
          1   -1    0    0  501    0  0.00000000000E+00 -0.00000000000E+00 -0.10918005771E+04  0.10918005771E+04  0.00000000000E+00 0. -1.
         23    2    1    2    0    0 -0.49099147853E+02 -0.10077122500E+03 -0.67576121922E+03  0.69630744184E+03  0.12500104825E+03 0.  0.
          5    1    3    3  502    0 -0.14352718816E+02  0.25802214941E+02 -0.21922396275E+03  0.22125322749E+03  0.47000000000E+01 0. -1.
         -5    1    3    3    0  502 -0.34746429037E+02 -0.12657343994E+03 -0.45653725647E+03  0.47505421435E+03  0.47000000000E+01 0. -1.
        -11    1    1    2    0    0  0.63879580194E+02  0.28276302810E+02 -0.20406781275E+03  0.21569381601E+03  0.00000000000E+00 0.  1.
         11    1    1    2    0    0 -0.14780432340E+02  0.72494922192E+02 -0.18889923764E+03  0.20287162666E+03  0.00000000000E+00 0. -1.
<mgrwt>
<rscale>  0 0.16161448E+03</rscale>
<asrwt>0</asrwt>
<pdfrwt beam="2">  1        1 0.16796929E+00 0.16790125E+03</pdfrwt>
<pdfrwt beam="1">  1       -1 0.35495863E-02 0.16790125E+03</pdfrwt>
<totfact> 0.39708887E+03</totfact>
</mgrwt>
</event>
<event>
 7    1  0.6419647E-006  0.1656837E+03  0.7546771E-02  0.1189209E+00
          1   -1    0    0  501    0  0.00000000000E+00  0.00000000000E+00  0.18599668181E+03  0.18599668181E+03  0.00000000000E+00 0. -1.
         -1   -1    0    0    0  501 -0.00000000000E+00 -0.00000000000E+00 -0.13393036091E+03  0.13393036091E+03  0.00000000000E+00 0.  1.
         23    2    1    2    0    0  0.35436433864E+02  0.10281929489E+03  0.62491216080E+02  0.17707690923E+03  0.12499412565E+03 0.  0.
          5    1    3    3  502    0  0.43919668648E+02  0.12460664126E+03  0.72996070133E+02  0.15101744467E+03  0.47000000000E+01 0.  1.
         -5    1    3    3    0  502 -0.84832347835E+01 -0.21787346368E+02 -0.10504854053E+02  0.26059464554E+02  0.47000000000E+01 0.  1.
        -11    1    1    2    0    0  0.23204443039E+02 -0.34142327172E+02 -0.29261185034E+02  0.50600016117E+02  0.00000000000E+00 0.  1.
         11    1    1    2    0    0 -0.58640876903E+02 -0.68676967722E+02  0.18836289854E+02  0.92250117371E+02  0.00000000000E+00 0. -1.
<mgrwt>
<rscale>  0 0.15954752E+03</rscale>
<asrwt>0</asrwt>
<pdfrwt beam="1">  1        1 0.28614874E-01 0.16568367E+03</pdfrwt>
<pdfrwt beam="2">  1       -1 0.20604671E-01 0.16568367E+03</pdfrwt>
<totfact> 0.30149092E+03</totfact>
</mgrwt>
</event>
<event>
 7    1  0.6419647E-006  0.1646003E+03  0.7546771E-02  0.1190785E+00
         -1   -1    0    0    0  501 -0.00000000000E+00  0.00000000000E+00  0.54097789503E+03  0.54097789503E+03  0.00000000000E+00 0.  1.
          1   -1    0    0  501    0  0.00000000000E+00 -0.00000000000E+00 -0.42969800990E+02  0.42969800990E+02  0.00000000000E+00 0. -1.
         23    2    1    2    0    0 -0.50908615453E+02  0.94213105295E+02  0.27041080744E+03  0.31656794084E+03  0.12500184018E+03 0.  0.
          5    1    3    3  502    0 -0.63589894929E+02  0.93523672451E+02  0.11784017048E+03  0.16339751474E+03  0.47000000000E+01 0.  1.
         -5    1    3    3    0  502  0.12681279476E+02  0.68943284369E+00  0.15257063697E+03  0.15317042610E+03  0.47000000000E+01 0.  1.
        -11    1    1    2    0    0 -0.13471624411E+02 -0.30457663488E+02  0.15488999471E+02  0.36729593437E+02  0.00000000000E+00 0. -1.
         11    1    1    2    0    0  0.64380239864E+02 -0.63755441807E+02  0.21210828713E+03  0.23065016175E+03  0.00000000000E+00 0.  1.
<mgrwt>
<rscale>  0 0.15816397E+03</rscale>
<asrwt>0</asrwt>
<pdfrwt beam="2">  1        1 0.66107390E-02 0.16460029E+03</pdfrwt>
<pdfrwt beam="1">  1       -1 0.83227364E-01 0.16460029E+03</pdfrwt>
<totfact> 0.16666766E+03</totfact>
</mgrwt>
</event>
<event>
 7    1  0.6419647E-006  0.1301093E+03  0.7546771E-02  0.1240870E+00
          1   -1    0    0  501    0  0.00000000000E+00  0.00000000000E+00  0.24852942249E+03  0.24852942249E+03  0.00000000000E+00 0. -1.
         -1   -1    0    0    0  501 -0.00000000000E+00 -0.00000000000E+00 -0.60123538151E+02  0.60123538151E+02  0.00000000000E+00 0.  1.
         23    2    1    2    0    0 -0.34570017603E+02 -0.10222127345E+02  0.15985351045E+03  0.20611058728E+03  0.12501540458E+03 0.  0.
          5    1    3    3  502    0 -0.53180279299E+02 -0.55532987748E+02  0.72149832845E+02  0.10554498195E+03  0.47000000000E+01 0.  1.
         -5    1    3    3    0  502  0.18610261696E+02  0.45310860403E+02  0.87703677602E+02  0.10056560533E+03  0.47000000000E+01 0.  1.
        -11    1    1    2    0    0 -0.45660749286E+01 -0.21810766591E+02  0.44286944746E+02  0.49577132374E+02  0.00000000000E+00 0. -1.
         11    1    1    2    0    0  0.39136092532E+02  0.32032893936E+02 -0.15734570857E+02  0.52965240985E+02  0.00000000000E+00 0.  1.
<mgrwt>
<rscale>  0 0.12136013E+03</rscale>
<asrwt>0</asrwt>
<pdfrwt beam="1">  1        1 0.38235295E-01 0.13010930E+03</pdfrwt>
<pdfrwt beam="2">  1       -1 0.92497752E-02 0.13010930E+03</pdfrwt>
<totfact> 0.72533915E+03</totfact>
</mgrwt>
</event>
<event>
 7    1  0.6419647E-006  0.1574256E+03  0.7546771E-02  0.1199054E+00
          2   -1    0    0  501    0  0.00000000000E+00  0.00000000000E+00  0.37021790832E+03  0.37021790832E+03  0.00000000000E+00 0. -1.
         -2   -1    0    0    0  501 -0.00000000000E+00 -0.00000000000E+00 -0.20430525581E+03  0.20430525581E+03  0.00000000000E+00 0.  1.
         23    2    1    2    0    0  0.51004182226E+02 -0.80967181808E+02  0.32830423894E+03  0.36409682778E+03  0.12500286219E+03 0.  0.
          5    1    3    3  502    0  0.41102569090E+02  0.29774441881E+01  0.23282837445E+03  0.23649403440E+03  0.47000000000E+01 0.  1.
         -5    1    3    3    0  502  0.99016131358E+01 -0.83944625996E+02  0.95475864493E+02  0.12760279337E+03  0.47000000000E+01 0.  1.
        -11    1    1    2    0    0 -0.77520865010E+02  0.57502096805E+02 -0.13344224488E+03  0.16469003724E+03  0.00000000000E+00 0. -1.
         11    1    1    2    0    0  0.26516682784E+02  0.23465085002E+02 -0.28949341553E+02  0.45736299111E+02  0.00000000000E+00 0.  1.
<mgrwt>
<rscale>  0 0.15116043E+03</rscale>
<asrwt>0</asrwt>
<pdfrwt beam="1">  1        2 0.56956601E-01 0.15742562E+03</pdfrwt>
<pdfrwt beam="2">  1       -2 0.31431578E-01 0.15742562E+03</pdfrwt>
<totfact> 0.81409933E+02</totfact>
</mgrwt>
</event>
<event>
 7    1  0.6419647E-006  0.1294835E+03  0.7546771E-02  0.1241470E+00
         -1   -1    0    0    0  501 -0.00000000000E+00  0.00000000000E+00  0.15543578969E+03  0.15543578969E+03  0.00000000000E+00 0.  1.
          1   -1    0    0  501    0  0.00000000000E+00 -0.00000000000E+00 -0.94962852807E+02  0.94962852807E+02  0.00000000000E+00 0. -1.
         23    2    1    2    0    0  0.36834433955E+02 -0.69680430947E+01 -0.88341453458E+01  0.12978446304E+03  0.12393803119E+03 0.  0.
          5    1    3    3  502    0  0.64109926651E+02 -0.43604054622E+02  0.13310562566E+02  0.78807723927E+02  0.47000000000E+01 0. -1.
         -5    1    3    3    0  502 -0.27275492697E+02  0.36636011527E+02 -0.22144707912E+02  0.50976739116E+02  0.47000000000E+01 0.  1.
        -11    1    1    2    0    0 -0.39815248544E+02  0.36436567385E+02  0.10805728900E+02  0.55042176888E+02  0.00000000000E+00 0. -1.
         11    1    1    2    0    0  0.29808145898E+01 -0.29468524290E+02  0.58501353333E+02  0.65572002572E+02  0.00000000000E+00 0.  1.
<mgrwt>
<rscale>  0 0.12099142E+03</rscale>
<asrwt>0</asrwt>
<pdfrwt beam="2">  1        1 0.14609670E-01 0.12948345E+03</pdfrwt>
<pdfrwt beam="1">  1       -1 0.23913198E-01 0.12948345E+03</pdfrwt>
<totfact> 0.54940214E+03</totfact>
</mgrwt>
</event>
<event>
 7    1  0.6419647E-006  0.1358023E+03  0.7546771E-02  0.1231631E+00
         -1   -1    0    0    0  501 -0.00000000000E+00  0.00000000000E+00  0.32020479112E+02  0.32020479112E+02  0.00000000000E+00 0.  1.
          1   -1    0    0  501    0  0.00000000000E+00 -0.00000000000E+00 -0.47001374307E+03  0.47001374307E+03  0.00000000000E+00 0. -1.
         23    2    1    2    0    0 -0.52938175863E+02 -0.30372070511E+01 -0.29600190937E+03  0.32566760667E+03  0.12502233638E+03 0.  0.
          5    1    3    3  502    0 -0.22929691787E+02 -0.38056839957E+02 -0.25954700341E+02  0.51670400644E+02  0.47000000000E+01 0.  1.
         -5    1    3    3    0  502 -0.30008484076E+02  0.35019632906E+02 -0.27004720903E+03  0.27399720603E+03  0.47000000000E+01 0.  1.
        -11    1    1    2    0    0 -0.16385424677E+02  0.19527164419E+02 -0.12108686507E+02  0.28220782786E+02  0.00000000000E+00 0.  1.
         11    1    1    2    0    0  0.69323600540E+02 -0.16489957368E+02 -0.12988266808E+03  0.14814583272E+03  0.00000000000E+00 0. -1.
<mgrwt>
<rscale>  0 0.12722590E+03</rscale>
<asrwt>0</asrwt>
<pdfrwt beam="2">  1        1 0.72309803E-01 0.13580228E+03</pdfrwt>
<pdfrwt beam="1">  1       -1 0.49262278E-02 0.13580228E+03</pdfrwt>
<totfact> 0.84231067E+03</totfact>
</mgrwt>
</event>
<event>
 7    1  0.6419647E-006  0.1444523E+03  0.7546771E-02  0.1217682E+00
         -2   -1    0    0    0  501 -0.00000000000E+00  0.00000000000E+00  0.14054312816E+02  0.14054312816E+02  0.00000000000E+00 0.  1.
          2   -1    0    0  501    0  0.00000000000E+00 -0.00000000000E+00 -0.12341860195E+04  0.12341860195E+04  0.00000000000E+00 0. -1.
         23    2    1    2    0    0 -0.72378189099E+02 -0.18923388607E+01 -0.76363495850E+03  0.77717747432E+03  0.12499717419E+03 0.  0.
          5    1    3    3  502    0  0.26565431049E+00  0.22912063194E+02 -0.54336011599E+03  0.54386334576E+03  0.47000000000E+01 0. -1.
         -5    1    3    3    0  502 -0.72643843409E+02 -0.24804402055E+02 -0.22027484251E+03  0.23331412857E+03  0.47000000000E+01 0. -1.
        -11    1    1    2    0    0  0.86322610226E+02  0.20968724936E+02 -0.40141082397E+03  0.41112276762E+03  0.00000000000E+00 0. -1.
         11    1    1    2    0    0 -0.13944421127E+02 -0.19076386075E+02 -0.55085924243E+02  0.59940090390E+02  0.00000000000E+00 0.  1.
<mgrwt>
<rscale>  0 0.13681355E+03</rscale>
<asrwt>0</asrwt>
<pdfrwt beam="2">  1        2 0.18987479E+00 0.14445233E+03</pdfrwt>
<pdfrwt beam="1">  1       -2 0.21622018E-02 0.14445233E+03</pdfrwt>
<totfact> 0.12758755E+04</totfact>
</mgrwt>
</event>
<event>
 7    1  0.6419647E-006  0.1661885E+03  0.7546771E-02  0.1189724E+00
         -2   -1    0    0    0  501 -0.00000000000E+00  0.00000000000E+00  0.11916981766E+03  0.11916981766E+03  0.00000000000E+00 0.  1.
          2   -1    0    0  501    0  0.00000000000E+00 -0.00000000000E+00 -0.24383101174E+03  0.24383101174E+03  0.00000000000E+00 0. -1.
         23    2    1    2    0    0 -0.10635540616E+03 -0.26121863222E+02 -0.14672774991E+03  0.22169270414E+03  0.12499919327E+03 0.  0.
          5    1    3    3  502    0 -0.73145637152E+02 -0.75765430823E+01 -0.38759797629E+01  0.73788897936E+02  0.47000000000E+01 0.  1.
         -5    1    3    3    0  502 -0.33209769009E+02 -0.18545320140E+02 -0.14285177014E+03  0.14790380620E+03  0.47000000000E+01 0.  1.
        -11    1    1    2    0    0  0.65054115564E+02  0.33358811515E+02  0.52063728572E+02  0.89752326378E+02  0.00000000000E+00 0.  1.
         11    1    1    2    0    0  0.41301290597E+02 -0.72369482932E+01 -0.29997172745E+02  0.51555798881E+02  0.00000000000E+00 0. -1.
<mgrwt>
<rscale>  0 0.15909345E+03</rscale>
<asrwt>0</asrwt>
<pdfrwt beam="2">  1        2 0.37512463E-01 0.16618851E+03</pdfrwt>
<pdfrwt beam="1">  1       -2 0.18333818E-01 0.16618851E+03</pdfrwt>
<totfact> 0.32619231E+03</totfact>
</mgrwt>
</event>
<event>
 7    1  0.6419647E-006  0.1326137E+03  0.7546771E-02  0.1237114E+00
          2   -1    0    0  501    0  0.00000000000E+00  0.00000000000E+00  0.13816945086E+04  0.13816945086E+04  0.00000000000E+00 0.  1.
         -2   -1    0    0    0  501 -0.00000000000E+00 -0.00000000000E+00 -0.12238522144E+02  0.12238522144E+02  0.00000000000E+00 0. -1.
         23    2    1    2    0    0 -0.38117830624E+02 -0.22647463055E+02  0.10679165535E+04  0.10761190203E+04  0.12498201432E+03 0.  0.
          5    1    3    3  502    0  0.32924815342E+02 -0.72201958268E+01  0.71254316226E+03  0.71335546733E+03  0.47000000000E+01 0.  1.
         -5    1    3    3    0  502 -0.71042645966E+02 -0.15427267228E+02  0.35537339129E+03  0.36276355296E+03  0.47000000000E+01 0.  1.
        -11    1    1    2    0    0  0.30693348014E+02  0.55464401069E+02  0.23288283614E+03  0.24135616165E+03  0.00000000000E+00 0.  1.
         11    1    1    2    0    0  0.74244826095E+01 -0.32816938014E+02  0.68656596725E+02  0.76457848756E+02  0.00000000000E+00 0. -1.
<mgrwt>
<rscale>  0 0.12370071E+03</rscale>
<asrwt>0</asrwt>
<pdfrwt beam="1">  1        2 0.21256826E+00 0.13261365E+03</pdfrwt>
<pdfrwt beam="2">  1       -2 0.18828507E-02 0.13261365E+03</pdfrwt>
<totfact> 0.12930938E+04</totfact>
</mgrwt>
</event>
<event>
 7    1  0.6419647E-006  0.3781510E+03  0.7546771E-02  0.1052695E+00
         -1   -1    0    0    0  501 -0.00000000000E+00  0.00000000000E+00  0.12158709456E+03  0.12158709456E+03  0.00000000000E+00 0.  1.
          1   -1    0    0  501    0  0.00000000000E+00 -0.00000000000E+00 -0.11888400740E+04  0.11888400740E+04  0.00000000000E+00 0. -1.
         23    2    1    2    0    0  0.34588063499E+03 -0.84785017930E+02 -0.67292590776E+03  0.77189862497E+03  0.12718607224E+03 0.  0.
          5    1    3    3  502    0  0.34759146547E+03 -0.59884311423E+02 -0.62635401446E+03  0.71885144436E+03  0.47000000000E+01 0. -1.
         -5    1    3    3    0  502 -0.17108304854E+01 -0.24900706507E+02 -0.46571893301E+02  0.53047180615E+02  0.47000000000E+01 0.  1.
        -11    1    1    2    0    0 -0.29358236378E+03  0.86456942136E+02 -0.37179927560E+03  0.48156007777E+03  0.00000000000E+00 0.  1.
         11    1    1    2    0    0 -0.52298271205E+02 -0.16719242061E+01 -0.22527796083E+02  0.56968465821E+02  0.00000000000E+00 0. -1.
<mgrwt>
<rscale>  0 0.37527272E+03</rscale>
<asrwt>0</asrwt>
<pdfrwt beam="2">  1        1 0.18289847E+00 0.37815104E+03</pdfrwt>
<pdfrwt beam="1">  1       -1 0.18705707E-01 0.37815104E+03</pdfrwt>
<totfact> 0.26034323E+02</totfact>
</mgrwt>
</event>
<event>
 7    1  0.6419647E-006  0.1302071E+03  0.7546771E-02  0.1239502E+00
          2   -1    0    0  501    0  0.00000000000E+00  0.00000000000E+00  0.22406684074E+03  0.22406684074E+03  0.00000000000E+00 0. -1.
         -2   -1    0    0    0  501 -0.00000000000E+00 -0.00000000000E+00 -0.69732567085E+02  0.69732567085E+02  0.00000000000E+00 0.  1.
         23    2    1    2    0    0 -0.20385763465E+02 -0.30243732260E+02  0.14094367814E+03  0.19188278522E+03  0.12499448053E+03 0.  0.
          5    1    3    3  502    0 -0.19613104803E+02 -0.60872096288E+02  0.14692948563E+03  0.16031359809E+03  0.47000000000E+01 0.  1.
         -5    1    3    3    0  502 -0.77265866261E+00  0.30628364028E+02 -0.59858074918E+01  0.31569187126E+02  0.47000000000E+01 0.  1.
        -11    1    1    2    0    0  0.31391016290E+02  0.51802367714E+02 -0.17145053822E+02  0.62951045067E+02  0.00000000000E+00 0.  1.
         11    1    1    2    0    0 -0.11005252824E+02 -0.21558635454E+02  0.30535649343E+02  0.38965577541E+02  0.00000000000E+00 0. -1.
<mgrwt>
<rscale>  0 0.12220582E+03</rscale>
<asrwt>0</asrwt>
<pdfrwt beam="1">  1        2 0.34471821E-01 0.13020708E+03</pdfrwt>
<pdfrwt beam="2">  1       -2 0.10728087E-01 0.13020708E+03</pdfrwt>
<totfact> 0.84163004E+03</totfact>
</mgrwt>
</event>
<event>
 6    1  0.6419647E-006  0.6711623E+03  0.7546771E-02  0.1031820E+00
         -1   -1    0    0    0  501 -0.00000000000E+00  0.00000000000E+00  0.23350434403E+03  0.23350434403E+03  0.00000000000E+00 0.  1.
          1   -1    0    0  501    0  0.00000000000E+00 -0.00000000000E+00 -0.14197889699E+04  0.14197889699E+04  0.00000000000E+00 0. -1.
          5    1    1    2  502    0  0.23273935903E+03  0.13920623693E+03 -0.11744076198E+04  0.12053220868E+04  0.47000000000E+01 0. -1.
         -5    1    1    2    0  502 -0.16312459114E+03 -0.16486541631E+03 -0.14113179629E+03  0.27153362895E+03  0.47000000000E+01 0.  1.
        -11    1    1    2    0    0 -0.90679957755E+02  0.59615566375E+01  0.10392406796E+03  0.13805291303E+03  0.00000000000E+00 0.  1.
         11    1    1    2    0    0  0.21065189859E+02  0.19697622735E+02  0.25330722205E+02  0.38384685131E+02  0.00000000000E+00 0. -1.
<mgrwt>
<rscale>  0 0.43652008E+03</rscale>
<asrwt>0</asrwt>
<pdfrwt beam="2">  1        1 0.21842907E+00 0.67116231E+03</pdfrwt>
<pdfrwt beam="1">  1       -1 0.35923745E-01 0.67116231E+03</pdfrwt>
<totfact> 0.57039218E+01</totfact>
</mgrwt>
</event>
<event>
 7    1  0.6419647E-006  0.1505055E+03  0.7546771E-02  0.1208308E+00
          2   -1    0    0  501    0  0.00000000000E+00  0.00000000000E+00  0.54905671027E+03  0.54905671027E+03  0.00000000000E+00 0. -1.
         -2   -1    0    0    0  501 -0.00000000000E+00 -0.00000000000E+00 -0.36016760003E+02  0.36016760003E+02  0.00000000000E+00 0.  1.
         23    2    1    2    0    0 -0.73713571357E+02 -0.39927640148E+02  0.33540972590E+03  0.36762970602E+03  0.12499603782E+03 0.  0.
          5    1    3    3  502    0  0.52861378140E+01 -0.62454856702E+02  0.19507562021E+03  0.20495155520E+03  0.47000000000E+01 0. -1.
         -5    1    3    3    0  502 -0.78999709171E+02  0.22527216554E+02  0.14033410569E+03  0.16267815082E+03  0.47000000000E+01 0. -1.
        -11    1    1    2    0    0  0.50714094502E+02 -0.16714457340E+02  0.12803208309E+03  0.13872096729E+03  0.00000000000E+00 0. -1.
         11    1    1    2    0    0  0.22999476854E+02  0.56642097488E+02  0.49598141278E+02  0.78722796962E+02  0.00000000000E+00 0.  1.
<mgrwt>
<rscale>  0 0.14379805E+03</rscale>
<asrwt>0</asrwt>
<pdfrwt beam="1">  1        2 0.84470257E-01 0.15050554E+03</pdfrwt>
<pdfrwt beam="2">  1       -2 0.55410404E-02 0.15050554E+03</pdfrwt>
<totfact> 0.90005669E+03</totfact>
</mgrwt>
</event>
<event>
 7    1  0.6419647E-006  0.1312282E+03  0.7546771E-02  0.1238614E+00
         -4   -1    0    0    0  501 -0.00000000000E+00  0.00000000000E+00  0.22447763085E+03  0.22447763085E+03  0.00000000000E+00 0.  1.
          4   -1    0    0  501    0  0.00000000000E+00 -0.00000000000E+00 -0.59947681301E+02  0.59947681301E+02  0.00000000000E+00 0. -1.
         23    2    1    2    0    0  0.27349929068E+02 -0.29246756867E+02  0.10018211834E+03  0.16509783883E+03  0.12496978892E+03 0.  0.
          5    1    3    3  502    0  0.65956140530E+02  0.12753606988E+02  0.79609536566E+02  0.10427192948E+03  0.47000000000E+01 0.  1.
         -5    1    3    3    0  502 -0.38606211462E+02 -0.42000363855E+02  0.20572581771E+02  0.60825909349E+02  0.47000000000E+01 0.  1.
        -11    1    1    2    0    0 -0.56531446309E+02  0.32798225585E+01  0.55471805401E+02  0.79269684321E+02  0.00000000000E+00 0.  1.
         11    1    1    2    0    0  0.29181517241E+02  0.25966934309E+02  0.88760258153E+01  0.40057789007E+02  0.00000000000E+00 0. -1.
<mgrwt>
<rscale>  0 0.12275861E+03</rscale>
<asrwt>0</asrwt>
<pdfrwt beam="2">  1        4 0.92227203E-02 0.13122820E+03</pdfrwt>
<pdfrwt beam="1">  1       -4 0.34535020E-01 0.13122820E+03</pdfrwt>
<totfact> 0.11560480E+03</totfact>
</mgrwt>
</event>
<event>
 7    1  0.6419647E-006  0.1347962E+03  0.7546771E-02  0.1232624E+00
          2   -1    0    0  501    0  0.00000000000E+00  0.00000000000E+00  0.13703388961E+04  0.13703388961E+04  0.00000000000E+00 0.  1.
         -2   -1    0    0    0  501 -0.00000000000E+00 -0.00000000000E+00 -0.10482442093E+02  0.10482442093E+02  0.00000000000E+00 0. -1.
         23    2    1    2    0    0  0.32221786301E+02 -0.38814306876E+02  0.74531058074E+03  0.75740205041E+03  0.12500084110E+03 0.  0.
          5    1    3    3  502    0 -0.35568122693E+02 -0.54157780395E+02  0.34071150288E+03  0.34684949866E+03  0.47000000000E+01 0. -1.
         -5    1    3    3    0  502  0.67789908993E+02  0.15343473519E+02  0.40459907786E+03  0.41055255175E+03  0.47000000000E+01 0. -1.
        -11    1    1    2    0    0 -0.63832475550E+02  0.15948345079E+02  0.38685682522E+03  0.39241194919E+03  0.00000000000E+00 0.  1.
         11    1    1    2    0    0  0.31610689250E+02  0.22865961797E+02  0.22768904806E+03  0.23100733860E+03  0.00000000000E+00 0. -1.
<mgrwt>
<rscale>  0 0.12657794E+03</rscale>
<asrwt>0</asrwt>
<pdfrwt beam="1">  1        2 0.21082123E+00 0.13479616E+03</pdfrwt>
<pdfrwt beam="2">  1       -2 0.16126845E-02 0.13479616E+03</pdfrwt>
<totfact> 0.16418338E+04</totfact>
</mgrwt>
</event>
<event>
 7    1  0.6419647E-006  0.1259455E+03  0.7546771E-02  0.1249851E+00
          1   -1    0    0  501    0  0.00000000000E+00  0.00000000000E+00  0.14251150233E+03  0.14251150233E+03  0.00000000000E+00 0. -1.
         -1   -1    0    0    0  501 -0.00000000000E+00 -0.00000000000E+00 -0.96440372410E+02  0.96440372410E+02  0.00000000000E+00 0.  1.
         23    2    1    2    0    0  0.58872408568E+01 -0.14216215885E+02  0.71504271066E+02  0.14482789974E+03  0.12500199743E+03 0.  0.
          5    1    3    3  502    0  0.38133641495E+01  0.54995084326E+02  0.41773469402E+02  0.69326140756E+02  0.47000000000E+01 0. -1.
         -5    1    3    3    0  502  0.20738767072E+01 -0.69211300211E+02  0.29730801664E+02  0.75501758980E+02  0.47000000000E+01 0. -1.
        -11    1    1    2    0    0  0.84465304338E+01 -0.33143669852E+02  0.70646026491E+01  0.34924995895E+02  0.00000000000E+00 0. -1.
         11    1    1    2    0    0 -0.14333771291E+02  0.47359885738E+02 -0.32497743792E+02  0.59198979113E+02  0.00000000000E+00 0.  1.
<mgrwt>
<rscale>  0 0.11599684E+03</rscale>
<asrwt>0</asrwt>
<pdfrwt beam="1">  1        1 0.21924847E-01 0.12594546E+03</pdfrwt>
<pdfrwt beam="2">  1       -1 0.14836980E-01 0.12594546E+03</pdfrwt>
<totfact> 0.69896748E+03</totfact>
</mgrwt>
</event>
<event>
 7    1  0.6419647E-006  0.1250948E+03  0.7546771E-02  0.1250184E+00
         -1   -1    0    0    0  501 -0.00000000000E+00  0.00000000000E+00  0.12261373578E+03  0.12261373578E+03  0.00000000000E+00 0. -1.
          1   -1    0    0  501    0  0.00000000000E+00 -0.00000000000E+00 -0.11993666805E+03  0.11993666805E+03  0.00000000000E+00 0.  1.
         23    2    1    2    0    0 -0.47331421194E+01  0.14357807836E+00 -0.52187924540E+02  0.13554441624E+03  0.12500514412E+03 0.  0.
          5    1    3    3  502    0  0.34683778596E+02  0.49385292618E+02 -0.35329056565E+02  0.70086402836E+02  0.47000000000E+01 0.  1.
         -5    1    3    3    0  502 -0.39416920716E+02 -0.49241714540E+02 -0.16858867975E+02  0.65458013405E+02  0.47000000000E+01 0.  1.
        -11    1    1    2    0    0 -0.11183609422E+02  0.30997034616E+02 -0.90286088128E+01  0.34167309695E+02  0.00000000000E+00 0.  1.
         11    1    1    2    0    0  0.15916751541E+02 -0.31140612694E+02  0.63893601084E+02  0.72838677899E+02  0.00000000000E+00 0. -1.
<mgrwt>
<rscale>  0 0.11580385E+03</rscale>
<asrwt>0</asrwt>
<pdfrwt beam="2">  1        1 0.18451795E-01 0.12509480E+03</pdfrwt>
<pdfrwt beam="1">  1       -1 0.18863652E-01 0.12509480E+03</pdfrwt>
<totfact> 0.59524110E+03</totfact>
</mgrwt>
</event>
<event>
 7    1  0.6419647E-006  0.1304209E+03  0.7546771E-02  0.1237035E+00
          2   -1    0    0  501    0  0.00000000000E+00  0.00000000000E+00  0.11496921426E+04  0.11496921426E+04  0.00000000000E+00 0. -1.
         -2   -1    0    0    0  501 -0.00000000000E+00 -0.00000000000E+00 -0.12481232116E+02  0.12481232116E+02  0.00000000000E+00 0.  1.
         23    2    1    2    0    0 -0.51853809457E+00 -0.38534281977E+02  0.72400022801E+03  0.73565341071E+03  0.12459715394E+03 0.  0.
          5    1    3    3  502    0 -0.29232886118E+02 -0.18846442261E+02  0.67189456066E+03  0.67281062764E+03  0.47000000000E+01 0. -1.
         -5    1    3    3    0  502  0.28714348024E+02 -0.19687839716E+02  0.52105667348E+02  0.62842783077E+02  0.47000000000E+01 0. -1.
        -11    1    1    2    0    0  0.46103659896E+02  0.28544343058E+02  0.28423652139E+03  0.28936262210E+03  0.00000000000E+00 0. -1.
         11    1    1    2    0    0 -0.45585121801E+02  0.99899389189E+01  0.12897416104E+03  0.13715734186E+03  0.00000000000E+00 0.  1.
<mgrwt>
<rscale>  0 0.12375057E+03</rscale>
<asrwt>0</asrwt>
<pdfrwt beam="1">  1        2 0.17687563E+00 0.13042090E+03</pdfrwt>
<pdfrwt beam="2">  1       -2 0.19201905E-02 0.13042090E+03</pdfrwt>
<totfact> 0.16787315E+04</totfact>
</mgrwt>
</event>
<event>
 7    1  0.6419647E-006  0.1808641E+03  0.7546771E-02  0.1172469E+00
         -1   -1    0    0    0  501 -0.00000000000E+00  0.00000000000E+00  0.18486127450E+02  0.18486127450E+02  0.00000000000E+00 0.  1.
          1   -1    0    0  501    0  0.00000000000E+00 -0.00000000000E+00 -0.16180053395E+04  0.16180053395E+04  0.00000000000E+00 0. -1.
         23    2    1    2    0    0  0.10898062665E+03  0.72152327396E+02 -0.99421591777E+03  0.10105330771E+04  0.12501629257E+03 0.  0.
          5    1    3    3  502    0  0.55223482532E+01  0.72480427417E+02 -0.30489640775E+03  0.31347698185E+03  0.47000000000E+01 0. -1.
         -5    1    3    3    0  502  0.10345827840E+03 -0.32810002137E+00 -0.68931951002E+03  0.69705609524E+03  0.47000000000E+01 0. -1.
        -11    1    1    2    0    0 -0.69449924313E+02 -0.91243544880E+02 -0.46605772232E+03  0.47995674493E+03  0.00000000000E+00 0.  1.
         11    1    1    2    0    0 -0.39530702340E+02  0.19091217484E+02 -0.13924557196E+03  0.14600164493E+03  0.00000000000E+00 0. -1.
<mgrwt>
<rscale>  0 0.17526145E+03</rscale>
<asrwt>0</asrwt>
<pdfrwt beam="2">  1        1 0.24892389E+00 0.18086406E+03</pdfrwt>
<pdfrwt beam="1">  1       -1 0.28440197E-02 0.18086406E+03</pdfrwt>
<totfact> 0.24389039E+03</totfact>
</mgrwt>
</event>
<event>
 7    1  0.6419647E-006  0.2948902E+03  0.7546771E-02  0.1087823E+00
          2   -1    0    0  501    0  0.00000000000E+00  0.00000000000E+00  0.38715697455E+03  0.38715697455E+03  0.00000000000E+00 0. -1.
         -2   -1    0    0    0  501 -0.00000000000E+00 -0.00000000000E+00 -0.56153069466E+02  0.56153069466E+02  0.00000000000E+00 0.  1.
         23    2    1    2    0    0  0.51327411829E+02  0.59699281345E+01  0.19210618582E+03  0.23494352243E+03  0.12499411528E+03 0.  0.
          5    1    3    3  502    0 -0.79455218347E+01  0.12318092543E+02 -0.13711923460E+02  0.20614887002E+02  0.47000000000E+01 0. -1.
         -5    1    3    3    0  502  0.59272933664E+02 -0.63481644085E+01  0.20581810928E+03  0.21432863543E+03  0.47000000000E+01 0. -1.
        -11    1    1    2    0    0 -0.13710374592E+02  0.69095892807E+02  0.52206004403E+02  0.87679436984E+02  0.00000000000E+00 0. -1.
         11    1    1    2    0    0 -0.37617037237E+02 -0.75065820941E+02  0.86691714858E+02  0.12068708460E+03  0.00000000000E+00 0.  1.
<mgrwt>
<rscale>  0 0.29489017E+03</rscale>
<asrwt>0</asrwt>
<pdfrwt beam="1">  1        2 0.59562610E-01 0.29489017E+03</pdfrwt>
<pdfrwt beam="2">  1       -2 0.86389340E-02 0.29489017E+03</pdfrwt>
<totfact> 0.69094353E+03</totfact>
</mgrwt>
</event>
<event>
 7    1  0.6419647E-006  0.1471554E+03  0.7546771E-02  0.1213778E+00
          2   -1    0    0  501    0  0.00000000000E+00  0.00000000000E+00  0.38771510370E+03  0.38771510370E+03  0.00000000000E+00 0. -1.
         -2   -1    0    0    0  501 -0.00000000000E+00 -0.00000000000E+00 -0.45887001958E+02  0.45887001958E+02  0.00000000000E+00 0.  1.
         23    2    1    2    0    0 -0.39527410866E+01  0.77554271339E+02  0.19700202488E+03  0.24589532891E+03  0.12499770322E+03 0.  0.
          5    1    3    3  502    0  0.52142697194E+01  0.54326594777E+02  0.21022950836E+03  0.21724894406E+03  0.47000000000E+01 0. -1.
         -5    1    3    3    0  502 -0.91670108059E+01  0.23227676562E+02 -0.13227483489E+02  0.28646384851E+02  0.47000000000E+01 0. -1.
        -11    1    1    2    0    0  0.11434355333E+02 -0.61208712717E+01 -0.10429256527E+02  0.16642684240E+02  0.00000000000E+00 0.  1.
         11    1    1    2    0    0 -0.74816142466E+01 -0.71433400067E+02  0.15525533339E+03  0.17106409250E+03  0.00000000000E+00 0. -1.
<mgrwt>
<rscale>  0 0.13966714E+03</rscale>
<asrwt>0</asrwt>
<pdfrwt beam="1">  1        2 0.59648475E-01 0.14715541E+03</pdfrwt>
<pdfrwt beam="2">  1       -2 0.70595390E-02 0.14715541E+03</pdfrwt>
<totfact> 0.90827409E+03</totfact>
</mgrwt>
</event>
<event>
 7    1  0.6419647E-006  0.1742688E+03  0.7546771E-02  0.1180053E+00
         -1   -1    0    0    0  501 -0.00000000000E+00  0.00000000000E+00  0.59516458701E+02  0.59516458701E+02  0.00000000000E+00 0.  1.
          1   -1    0    0  501    0  0.00000000000E+00 -0.00000000000E+00 -0.46607644919E+03  0.46607644919E+03  0.00000000000E+00 0. -1.
         23    2    1    2    0    0  0.45832541319E+02 -0.11244113768E+03 -0.27700596766E+03  0.32726431172E+03  0.12500396922E+03 0.  0.
          5    1    3    3  502    0  0.68623310060E+02 -0.47658353403E+02 -0.22770596685E+03  0.24259549598E+03  0.47000000000E+01 0.  1.
         -5    1    3    3    0  502 -0.22790768740E+02 -0.64782784280E+02 -0.49300000810E+02  0.84668815740E+02  0.47000000000E+01 0.  1.
        -11    1    1    2    0    0 -0.44520809561E+02  0.51870716877E+02 -0.16897304913E+02  0.70414435073E+02  0.00000000000E+00 0.  1.
         11    1    1    2    0    0 -0.13117317583E+01  0.60570420806E+02 -0.11265671791E+03  0.12791416109E+03  0.00000000000E+00 0. -1.
<mgrwt>
<rscale>  0 0.16790285E+03</rscale>
<asrwt>0</asrwt>
<pdfrwt beam="2">  1        1 0.71704071E-01 0.17426883E+03</pdfrwt>
<pdfrwt beam="1">  1       -1 0.91563781E-02 0.17426883E+03</pdfrwt>
<totfact> 0.33998428E+03</totfact>
</mgrwt>
</event>
<event>
 7    1  0.6419647E-006  0.2159282E+03  0.7546771E-02  0.1140487E+00
         -2   -1    0    0    0  501 -0.00000000000E+00  0.00000000000E+00  0.12278662615E+03  0.12278662615E+03  0.00000000000E+00 0.  1.
          2   -1    0    0  501    0  0.00000000000E+00 -0.00000000000E+00 -0.34962889907E+03  0.34962889907E+03  0.00000000000E+00 0. -1.
         23    2    1    2    0    0  0.47098399068E+02  0.16963803611E+03 -0.11082793927E+03  0.24270932093E+03  0.12501863802E+03 0.  0.
          5    1    3    3  502    0  0.49528841922E+02  0.15208429265E+02 -0.61399299331E+02  0.80475875026E+02  0.47000000000E+01 0.  1.
         -5    1    3    3    0  502 -0.24304428542E+01  0.15442960685E+03 -0.49428639940E+02  0.16223344591E+03  0.47000000000E+01 0.  1.
        -11    1    1    2    0    0 -0.14632992114E+02 -0.34243090093E+02  0.13440135488E+02  0.39589783016E+02  0.00000000000E+00 0.  1.
         11    1    1    2    0    0 -0.32465406954E+02 -0.13539494602E+03 -0.12945446913E+03  0.19011642127E+03  0.00000000000E+00 0. -1.
<mgrwt>
<rscale>  0 0.21136780E+03</rscale>
<asrwt>0</asrwt>
<pdfrwt beam="2">  1        2 0.53789061E-01 0.21592819E+03</pdfrwt>
<pdfrwt beam="1">  1       -2 0.18890250E-01 0.21592819E+03</pdfrwt>
<totfact> 0.21272023E+03</totfact>
</mgrwt>
</event>
<event>
 7    1  0.6419647E-006  0.1285899E+03  0.7546771E-02  0.1236765E+00
          2   -1    0    0  501    0  0.00000000000E+00  0.00000000000E+00  0.10695961498E+04  0.10695961498E+04  0.00000000000E+00 0. -1.
         -2   -1    0    0    0  501 -0.00000000000E+00 -0.00000000000E+00 -0.17230973688E+02  0.17230973688E+02  0.00000000000E+00 0.  1.
         23    2    1    2    0    0  0.72798829054E+01  0.65276078035E+02  0.81187562138E+03  0.82199598245E+03  0.11055047497E+03 0.  0.
          5    1    3    3  502    0 -0.19892795990E+02  0.87789851769E+02  0.65224992872E+03  0.65844881420E+03  0.47000000000E+01 0. -1.
         -5    1    3    3    0  502  0.27172678896E+02 -0.22513773734E+02  0.15962569266E+03  0.16354716825E+03  0.47000000000E+01 0.  1.
        -11    1    1    2    0    0 -0.24070163018E+02  0.15003929899E+02  0.51074467857E+02  0.58421673436E+02  0.00000000000E+00 0. -1.
         11    1    1    2    0    0  0.16790280113E+02 -0.80280007935E+02  0.18941508690E+03  0.20640946762E+03  0.00000000000E+00 0.  1.
<mgrwt>
<rscale>  0 0.12392095E+03</rscale>
<asrwt>0</asrwt>
<pdfrwt beam="1">  1        2 0.16455320E+00 0.12858993E+03</pdfrwt>
<pdfrwt beam="2">  1       -2 0.26509199E-02 0.12858993E+03</pdfrwt>
<totfact> 0.11652441E+04</totfact>
</mgrwt>
</event>
<event>
 7    1  0.6419647E-006  0.1483875E+03  0.7546771E-02  0.1212633E+00
          1   -1    0    0  501    0  0.00000000000E+00  0.00000000000E+00  0.12475720822E+03  0.12475720822E+03  0.00000000000E+00 0. -1.
         -1   -1    0    0    0  501 -0.00000000000E+00 -0.00000000000E+00 -0.17082378751E+03  0.17082378751E+03  0.00000000000E+00 0.  1.
         23    2    1    2    0    0 -0.35501680064E+01 -0.80087855493E+02  0.33547172930E+02  0.15213235163E+03  0.12486861619E+03 0.  0.
          5    1    3    3  502    0  0.10432655827E+02 -0.74849848406E+01  0.68758029748E+02  0.70104364775E+02  0.47000000000E+01 0. -1.
         -5    1    3    3    0  502 -0.13982823833E+02 -0.72602870653E+02 -0.35210856818E+02  0.82027986853E+02  0.47000000000E+01 0. -1.
        -11    1    1    2    0    0 -0.34839715697E+02  0.43208633947E+02 -0.70030064444E+02  0.89358837075E+02  0.00000000000E+00 0.  1.
         11    1    1    2    0    0  0.38389883703E+02  0.36879221546E+02 -0.95836877813E+01  0.54089807026E+02  0.00000000000E+00 0. -1.
<mgrwt>
<rscale>  0 0.14051849E+03</rscale>
<asrwt>0</asrwt>
<pdfrwt beam="1">  1        1 0.19193417E-01 0.14838746E+03</pdfrwt>
<pdfrwt beam="2">  1       -1 0.26280583E-01 0.14838746E+03</pdfrwt>
<totfact> 0.33382351E+03</totfact>
</mgrwt>
</event>
<event>
 7    1  0.6419647E-006  0.1490137E+03  0.7546771E-02  0.1208148E+00
         -2   -1    0    0    0  501 -0.00000000000E+00  0.00000000000E+00  0.18085378598E+03  0.18085378598E+03  0.00000000000E+00 0.  1.
          2   -1    0    0  501    0  0.00000000000E+00 -0.00000000000E+00 -0.11183542406E+03  0.11183542406E+03  0.00000000000E+00 0. -1.
         23    2    1    2    0    0 -0.34916669898E+02 -0.81732292774E+02  0.75838755459E+01  0.14920654620E+03  0.11960659154E+03 0.  0.
          5    1    3    3  502    0  0.30445356612E+02 -0.59907732570E+02 -0.26246672716E+02  0.72296846332E+02  0.47000000000E+01 0. -1.
         -5    1    3    3    0  502 -0.65362026510E+02 -0.21824560204E+02  0.33830548262E+02  0.76909699865E+02  0.47000000000E+01 0.  1.
        -11    1    1    2    0    0  0.28952417428E+00  0.48975486889E+02  0.78776457142E+02  0.92759971648E+02  0.00000000000E+00 0.  1.
         11    1    1    2    0    0  0.34627145724E+02  0.32756805885E+02 -0.17341970768E+02  0.50722692189E+02  0.00000000000E+00 0. -1.
<mgrwt>
<rscale>  0 0.14392145E+03</rscale>
<asrwt>0</asrwt>
<pdfrwt beam="2">  1        2 0.17205450E-01 0.14901368E+03</pdfrwt>
<pdfrwt beam="1">  1       -2 0.27823659E-01 0.14901368E+03</pdfrwt>
<totfact> 0.37436933E+03</totfact>
</mgrwt>
</event>
<event>
 7    1  0.6419647E-006  0.1189168E+03  0.7546771E-02  0.1254189E+00
          3   -1    0    0  501    0  0.00000000000E+00  0.00000000000E+00  0.87955469799E+02  0.87955469799E+02  0.00000000000E+00 0. -1.
         -3   -1    0    0    0  501 -0.00000000000E+00 -0.00000000000E+00 -0.13476470379E+03  0.13476470379E+03  0.00000000000E+00 0.  1.
         23    2    1    2    0    0  0.39226120791E+02  0.61539508999E+01 -0.22615130343E+02  0.12104811997E+03  0.11209212088E+03 0.  0.
          5    1    3    3  502    0 -0.54398852441E+01 -0.42809760802E+02  0.13454536287E+02  0.45446479711E+02  0.47000000000E+01 0. -1.
         -5    1    3    3    0  502  0.44666006035E+02  0.48963711702E+02 -0.36069666630E+02  0.75601640257E+02  0.47000000000E+01 0.  1.
        -11    1    1    2    0    0 -0.53180196751E+02 -0.35737483573E+02 -0.25441581008E+02  0.68938922988E+02  0.00000000000E+00 0. -1.
         11    1    1    2    0    0  0.13954075960E+02  0.29583532673E+02  0.12474773594E+01  0.32733130634E+02  0.00000000000E+00 0.  1.
<mgrwt>
<rscale>  0 0.11351893E+03</rscale>
<asrwt>0</asrwt>
<pdfrwt beam="1">  1        3 0.13531611E-01 0.11891679E+03</pdfrwt>
<pdfrwt beam="2">  1       -3 0.20733031E-01 0.11891679E+03</pdfrwt>
<totfact> 0.20862497E+03</totfact>
</mgrwt>
</event>
<event>
 7    1  0.6419647E-006  0.1740968E+03  0.7546771E-02  0.1179753E+00
         -1   -1    0    0    0  501 -0.00000000000E+00  0.00000000000E+00  0.23732200627E+02  0.23732200627E+02  0.00000000000E+00 0.  1.
          1   -1    0    0  501    0  0.00000000000E+00 -0.00000000000E+00 -0.11218811529E+04  0.11218811529E+04  0.00000000000E+00 0. -1.
         23    2    1    2    0    0  0.66513958389E+02  0.10131192228E+03 -0.62190178137E+03  0.64581073954E+03  0.12498589269E+03 0.  0.
          5    1    3    3  502    0 -0.36764541603E+02  0.17972153436E+02 -0.13758956113E+03  0.14362314281E+03  0.47000000000E+01 0. -1.
         -5    1    3    3    0  502  0.10327849999E+03  0.83339768845E+02 -0.48431222024E+03  0.50218759673E+03  0.47000000000E+01 0. -1.
        -11    1    1    2    0    0  0.15845090976E+02  0.37959365733E+01 -0.31826302583E+02  0.35754574233E+02  0.00000000000E+00 0.  1.
         11    1    1    2    0    0 -0.82359049365E+02 -0.10510785885E+03 -0.44442086832E+03  0.46404803976E+03  0.00000000000E+00 0. -1.
<mgrwt>
<rscale>  0 0.16818546E+03</rscale>
<asrwt>0</asrwt>
<pdfrwt beam="2">  1        1 0.17259709E+00 0.17409677E+03</pdfrwt>
<pdfrwt beam="1">  1       -1 0.36511081E-02 0.17409677E+03</pdfrwt>
<totfact> 0.36302393E+03</totfact>
</mgrwt>
</event>
<event>
 7    1  0.6419647E-006  0.1442366E+03  0.7546771E-02  0.1218349E+00
         -1   -1    0    0    0  501 -0.00000000000E+00  0.00000000000E+00  0.66977050398E+02  0.66977050398E+02  0.00000000000E+00 0.  1.
          1   -1    0    0  501    0  0.00000000000E+00 -0.00000000000E+00 -0.28171519757E+03  0.28171519757E+03  0.00000000000E+00 0. -1.
         23    2    1    2    0    0  0.62539399928E+02  0.35574593149E+02 -0.17526362802E+03  0.22698353629E+03  0.12500983249E+03 0.  0.
          5    1    3    3  502    0  0.93777882803E+02 -0.35342194161E+01 -0.11378965959E+03  0.14757018208E+03  0.47000000000E+01 0. -1.
         -5    1    3    3    0  502 -0.31238482875E+02  0.39108812565E+02 -0.61473968424E+02  0.79413354206E+02  0.47000000000E+01 0. -1.
        -11    1    1    2    0    0 -0.48052206651E+02 -0.41711375983E+02  0.14690938006E+02  0.65304495327E+02  0.00000000000E+00 0.  1.
         11    1    1    2    0    0 -0.14487193277E+02  0.61367828349E+01 -0.54165457158E+02  0.56404216347E+02  0.00000000000E+00 0. -1.
<mgrwt>
<rscale>  0 0.13633365E+03</rscale>
<asrwt>0</asrwt>
<pdfrwt beam="2">  1        1 0.43340800E-01 0.14423656E+03</pdfrwt>
<pdfrwt beam="1">  1       -1 0.10304161E-01 0.14423656E+03</pdfrwt>
<totfact> 0.53041300E+03</totfact>
</mgrwt>
</event>
<event>
 7    1  0.6419647E-006  0.1268665E+03  0.7546771E-02  0.1247106E+00
          3   -1    0    0  501    0  0.00000000000E+00  0.00000000000E+00  0.29039850710E+02  0.29039850710E+02  0.00000000000E+00 0. -1.
         -3   -1    0    0    0  501 -0.00000000000E+00 -0.00000000000E+00 -0.42105471989E+03  0.42105471989E+03  0.00000000000E+00 0.  1.
         23    2    1    2    0    0 -0.88140322022E+01  0.29714196239E+02 -0.20878480050E+03  0.24430758275E+03  0.12302228027E+03 0.  0.
          5    1    3    3  502    0  0.44257551120E+02 -0.17479055148E+02 -0.12800890953E+03  0.13664779222E+03  0.47000000000E+01 0. -1.
         -5    1    3    3    0  502 -0.53071583322E+02  0.47193251388E+02 -0.80775890974E+02  0.10765979052E+03  0.47000000000E+01 0.  1.
        -11    1    1    2    0    0  0.25048585127E+02  0.25346762427E+02 -0.82103422330E+02  0.89503418598E+02  0.00000000000E+00 0.  1.
         11    1    1    2    0    0 -0.16234552925E+02 -0.55060958666E+02 -0.10112664634E+03  0.11628356925E+03  0.00000000000E+00 0. -1.
<mgrwt>
<rscale>  0 0.11760241E+03</rscale>
<asrwt>0</asrwt>
<pdfrwt beam="1">  1        3 0.44676692E-02 0.12686647E+03</pdfrwt>
<pdfrwt beam="2">  1       -3 0.64777651E-01 0.12686647E+03</pdfrwt>
<totfact> 0.14537909E+03</totfact>
</mgrwt>
</event>
<event>
 7    1  0.6419647E-006  0.1743710E+03  0.7546771E-02  0.1180280E+00
         -3   -1    0    0    0  501 -0.00000000000E+00  0.00000000000E+00  0.31914319735E+02  0.31914319735E+02  0.00000000000E+00 0.  1.
          3   -1    0    0  501    0  0.00000000000E+00 -0.00000000000E+00 -0.10092177848E+04  0.10092177848E+04  0.00000000000E+00 0. -1.
         23    2    1    2    0    0  0.11411831764E+03  0.41940518237E+02 -0.74455360610E+03  0.76469949147E+03  0.12499296944E+03 0.  0.
          5    1    3    3  502    0  0.10760200348E+03 -0.20962835271E+02 -0.51417440796E+03  0.52575188389E+03  0.47000000000E+01 0. -1.
         -5    1    3    3    0  502  0.65163141643E+01  0.62903353507E+02 -0.23037919814E+03  0.23894760758E+03  0.47000000000E+01 0. -1.
        -11    1    1    2    0    0 -0.69744913836E+02 -0.29805649063E+02 -0.21348640181E+03  0.22655942594E+03  0.00000000000E+00 0. -1.
         11    1    1    2    0    0 -0.44373403808E+02 -0.12134869173E+02 -0.19263457199E+02  0.49873187171E+02  0.00000000000E+00 0.  1.
<mgrwt>
<rscale>  0 0.16768862E+03</rscale>
<asrwt>0</asrwt>
<pdfrwt beam="2">  1        3 0.15526430E+00 0.17437098E+03</pdfrwt>
<pdfrwt beam="1">  1       -3 0.49098945E-02 0.17437098E+03</pdfrwt>
<totfact> 0.17829629E+02</totfact>
</mgrwt>
</event>
<event>
 7    1  0.6419647E-006  0.1304553E+03  0.7546771E-02  0.1240782E+00
          2   -1    0    0  501    0  0.00000000000E+00  0.00000000000E+00  0.90985298763E+02  0.90985298763E+02  0.00000000000E+00 0. -1.
         -2   -1    0    0    0  501 -0.00000000000E+00 -0.00000000000E+00 -0.14831672636E+03  0.14831672636E+03  0.00000000000E+00 0.  1.
         23    2    1    2    0    0  0.13448739236E+02  0.34841932191E+02 -0.10731677229E+02  0.13089600949E+03  0.12499507022E+03 0.  0.
          5    1    3    3  502    0 -0.17294096645E+02  0.70050713443E+02  0.19676125495E+02  0.74936160478E+02  0.47000000000E+01 0.  1.
         -5    1    3    3    0  502  0.30742835881E+02 -0.35208781253E+02 -0.30407802724E+02  0.55959849015E+02  0.47000000000E+01 0.  1.
        -11    1    1    2    0    0  0.32875796773E+02 -0.40989921518E+01 -0.40724870749E+02  0.52498903300E+02  0.00000000000E+00 0.  1.
         11    1    1    2    0    0 -0.46324536010E+02 -0.30742940039E+02 -0.58748796196E+01  0.55907112332E+02  0.00000000000E+00 0. -1.
<mgrwt>
<rscale>  0 0.12141405E+03</rscale>
<asrwt>0</asrwt>
<pdfrwt beam="1">  1        2 0.13997738E-01 0.13045534E+03</pdfrwt>
<pdfrwt beam="2">  1       -2 0.22817958E-01 0.13045534E+03</pdfrwt>
<totfact> 0.66803781E+03</totfact>
</mgrwt>
</event>
<event>
 7    1  0.6419647E-006  0.1419884E+03  0.7546771E-02  0.1221724E+00
         -2   -1    0    0    0  501 -0.00000000000E+00  0.00000000000E+00  0.52327824050E+02  0.52327824050E+02  0.00000000000E+00 0.  1.
          2   -1    0    0  501    0  0.00000000000E+00 -0.00000000000E+00 -0.35187277576E+03  0.35187277576E+03  0.00000000000E+00 0. -1.
         23    2    1    2    0    0 -0.67383859901E+02 -0.12008660290E-01 -0.23498959034E+03  0.27455566890E+03  0.12498049063E+03 0.  0.
          5    1    3    3  502    0 -0.23390847125E+02  0.50775489510E+02 -0.17699209278E+03  0.18567060341E+03  0.47000000000E+01 0.  1.
         -5    1    3    3    0  502 -0.43993012776E+02 -0.50787498170E+02 -0.57997497555E+02  0.88885065484E+02  0.47000000000E+01 0.  1.
        -11    1    1    2    0    0  0.10304081769E+02 -0.40897971167E+02 -0.25609779398E+02  0.49342465965E+02  0.00000000000E+00 0.  1.
         11    1    1    2    0    0  0.57079778132E+02  0.40909979828E+02 -0.38945581971E+02  0.80302464944E+02  0.00000000000E+00 0. -1.
<mgrwt>
<rscale>  0 0.13393986E+03</rscale>
<asrwt>0</asrwt>
<pdfrwt beam="2">  1        2 0.54134272E-01 0.14198841E+03</pdfrwt>
<pdfrwt beam="1">  1       -2 0.80504346E-02 0.14198841E+03</pdfrwt>
<totfact> 0.82080489E+03</totfact>
</mgrwt>
</event>
<event>
 7    1  0.6419647E-006  0.1496571E+03  0.7546771E-02  0.1209957E+00
          1   -1    0    0  501    0  0.00000000000E+00  0.00000000000E+00  0.20818438370E+03  0.20818438370E+03  0.00000000000E+00 0. -1.
         -1   -1    0    0    0  501 -0.00000000000E+00 -0.00000000000E+00 -0.11564355461E+03  0.11564355461E+03  0.00000000000E+00 0.  1.
         23    2    1    2    0    0  0.82013884485E+02  0.66912679474E+01  0.12664374063E+03  0.19605075204E+03  0.12500483999E+03 0.  0.
          5    1    3    3  502    0  0.11206127977E+03  0.15545897357E+02  0.11727633074E+03  0.16301911882E+03  0.47000000000E+01 0.  1.
         -5    1    3    3    0  502 -0.30047395285E+02 -0.88546294092E+01  0.93674098889E+01  0.33031633223E+02  0.47000000000E+01 0.  1.
        -11    1    1    2    0    0 -0.74770390281E+02  0.50284092910E+01 -0.61609187221E+02  0.97013339871E+02  0.00000000000E+00 0.  1.
         11    1    1    2    0    0 -0.72434942034E+01 -0.11719677238E+02  0.27506275692E+02  0.30763846399E+02  0.00000000000E+00 0. -1.
<mgrwt>
<rscale>  0 0.14253608E+03</rscale>
<asrwt>0</asrwt>
<pdfrwt beam="1">  1        1 0.32028367E-01 0.14965714E+03</pdfrwt>
<pdfrwt beam="2">  1       -1 0.17791316E-01 0.14965714E+03</pdfrwt>
<totfact> 0.32996532E+03</totfact>
</mgrwt>
</event>
<event>
 7    1  0.6419647E-006  0.1507001E+03  0.7546771E-02  0.1209192E+00
         -2   -1    0    0    0  501 -0.00000000000E+00  0.00000000000E+00  0.11515429117E+02  0.11515429117E+02  0.00000000000E+00 0.  1.
          2   -1    0    0  501    0  0.00000000000E+00 -0.00000000000E+00 -0.17872296793E+04  0.17872296793E+04  0.00000000000E+00 0. -1.
         23    2    1    2    0    0  0.84176840230E+02 -0.45391544112E+00 -0.12432997164E+04  0.12523995817E+04  0.12499832398E+03 0.  0.
          5    1    3    3  502    0  0.10852342431E+03 -0.14102707971E+02 -0.11413366757E+04  0.11465808813E+04  0.47000000000E+01 0.  1.
         -5    1    3    3    0  502 -0.24346584083E+02  0.13648792530E+02 -0.10196304068E+03  0.10581870042E+03  0.47000000000E+01 0.  1.
        -11    1    1    2    0    0  0.56585334858E+01 -0.19960605619E+02 -0.36836377855E+02  0.42277222134E+02  0.00000000000E+00 0.  1.
         11    1    1    2    0    0 -0.89835373716E+02  0.20414521060E+02 -0.49557815594E+03  0.50406830458E+03  0.00000000000E+00 0. -1.
<mgrwt>
<rscale>  0 0.14311942E+03</rscale>
<asrwt>0</asrwt>
<pdfrwt beam="2">  1        2 0.27495819E+00 0.15070012E+03</pdfrwt>
<pdfrwt beam="1">  1       -2 0.17716059E-02 0.15070012E+03</pdfrwt>
<totfact> 0.87492855E+03</totfact>
</mgrwt>
</event>
<event>
 7    1  0.6419647E-006  0.1450129E+03  0.7546771E-02  0.1216560E+00
         -3   -1    0    0    0  501 -0.00000000000E+00  0.00000000000E+00  0.12121021420E+03  0.12121021420E+03  0.00000000000E+00 0.  1.
          3   -1    0    0  501    0  0.00000000000E+00 -0.00000000000E+00 -0.16780237444E+03  0.16780237444E+03  0.00000000000E+00 0. -1.
         23    2    1    2    0    0  0.56618045219E+02  0.46744907323E+02 -0.81436812440E+02  0.16631503227E+03  0.12505217364E+03 0.  0.
          5    1    3    3  502    0  0.63326897449E+02  0.84683123837E+02 -0.64639373789E+02  0.12402365116E+03  0.47000000000E+01 0.  1.
         -5    1    3    3    0  502 -0.67088522308E+01 -0.37938216515E+02 -0.16797438651E+02  0.42291381106E+02  0.47000000000E+01 0.  1.
        -11    1    1    2    0    0  0.18804944344E+02 -0.15653933388E+02  0.33019911638E+02  0.41097276392E+02  0.00000000000E+00 0.  1.
         11    1    1    2    0    0 -0.75422989562E+02 -0.31090973935E+02  0.18247405537E+01  0.81600279980E+02  0.00000000000E+00 0. -1.
<mgrwt>
<rscale>  0 0.13762555E+03</rscale>
<asrwt>0</asrwt>
<pdfrwt beam="2">  1        3 0.25815750E-01 0.14501288E+03</pdfrwt>
<pdfrwt beam="1">  1       -3 0.18647725E-01 0.14501288E+03</pdfrwt>
<totfact> 0.83950265E+02</totfact>
</mgrwt>
</event>
<event>
 7    1  0.6419647E-006  0.1535959E+03  0.7546771E-02  0.1203812E+00
         -1   -1    0    0    0  501 -0.00000000000E+00  0.00000000000E+00  0.23933948369E+02  0.23933948369E+02  0.00000000000E+00 0. -1.
          1   -1    0    0  501    0  0.00000000000E+00 -0.00000000000E+00 -0.96998714885E+03  0.96998714885E+03  0.00000000000E+00 0.  1.
         23    2    1    2    0    0 -0.57727920822E+02 -0.68099850117E+02 -0.68859018078E+03  0.70551267025E+03  0.12498635282E+03 0.  0.
          5    1    3    3  502    0  0.12726910081E+02 -0.75927901875E+02 -0.26463552859E+03  0.27564664612E+03  0.47000000000E+01 0.  1.
         -5    1    3    3    0  502 -0.70454830903E+02  0.78280517580E+01 -0.42395465219E+03  0.42986602413E+03  0.47000000000E+01 0.  1.
        -11    1    1    2    0    0  0.82355097798E+02  0.37280989140E+02 -0.17345834911E+03  0.19560172075E+03  0.00000000000E+00 0.  1.
         11    1    1    2    0    0 -0.24627176975E+02  0.30818860977E+02 -0.84004670596E+02  0.92806706221E+02  0.00000000000E+00 0. -1.
<mgrwt>
<rscale>  0 0.14731449E+03</rscale>
<asrwt>0</asrwt>
<pdfrwt beam="2">  1        1 0.14922881E+00 0.15359587E+03</pdfrwt>
<pdfrwt beam="1">  1       -1 0.36821455E-02 0.15359587E+03</pdfrwt>
<totfact> 0.46015837E+03</totfact>
</mgrwt>
</event>
<event>
 7    1  0.6419647E-006  0.1912116E+03  0.7546771E-02  0.1167062E+00
          2   -1    0    0  501    0  0.00000000000E+00  0.00000000000E+00  0.73967631314E+03  0.73967631314E+03  0.00000000000E+00 0. -1.
         -2   -1    0    0    0  501 -0.00000000000E+00 -0.00000000000E+00 -0.45652162940E+02  0.45652162940E+02  0.00000000000E+00 0.  1.
         23    2    1    2    0    0 -0.48090579746E+01 -0.14462431467E+03  0.51861258600E+03  0.55273943903E+03  0.12499021429E+03 0.  0.
          5    1    3    3  502    0 -0.54737427134E+02 -0.53501168949E+02  0.13482966183E+03  0.15511185873E+03  0.47000000000E+01 0. -1.
         -5    1    3    3    0  502  0.49928369160E+02 -0.91123145723E+02  0.38378292417E+03  0.39762758030E+03  0.47000000000E+01 0. -1.
        -11    1    1    2    0    0  0.11796981295E+02  0.19818300970E+02  0.97057722389E+01  0.25022706404E+02  0.00000000000E+00 0.  1.
         11    1    1    2    0    0 -0.69879233201E+01  0.12480601370E+03  0.16570579196E+03  0.20756633065E+03  0.00000000000E+00 0. -1.
<mgrwt>
<rscale>  0 0.18076793E+03</rscale>
<asrwt>0</asrwt>
<pdfrwt beam="1">  1        2 0.11379635E+00 0.19121159E+03</pdfrwt>
<pdfrwt beam="2">  1       -2 0.70234103E-02 0.19121159E+03</pdfrwt>
<totfact> 0.44754386E+03</totfact>
</mgrwt>
</event>
<event>
 6    1  0.6419647E-006  0.1355533E+03  0.7546771E-02  0.1235320E+00
         -2   -1    0    0    0  501 -0.00000000000E+00  0.00000000000E+00  0.10208093344E+02  0.10208093344E+02  0.00000000000E+00 0.  1.
          2   -1    0    0  501    0  0.00000000000E+00 -0.00000000000E+00 -0.13812333280E+04  0.13812333280E+04  0.00000000000E+00 0. -1.
          5    1    1    2  502    0 -0.14351103296E+02 -0.42126564994E+02 -0.53922401662E+03  0.54107784259E+03  0.47000000000E+01 0. -1.
         -5    1    1    2    0  502  0.55285360076E+01  0.78767933568E+02 -0.38582703614E+03  0.39385218532E+03  0.47000000000E+01 0.  1.
        -11    1    1    2    0    0 -0.23918624022E+02 -0.52558998364E+02 -0.32811627441E+03  0.33315887864E+03  0.00000000000E+00 0. -1.
         11    1    1    2    0    0  0.32741191311E+02  0.15917629790E+02 -0.11785790745E+03  0.12335251475E+03  0.00000000000E+00 0.  1.
<mgrwt>
<rscale>  0 0.12483990E+03</rscale>
<asrwt>0</asrwt>
<pdfrwt beam="2">  1        2 0.21249743E+00 0.13555334E+03</pdfrwt>
<pdfrwt beam="1">  1       -2 0.15704759E-02 0.13555334E+03</pdfrwt>
<totfact> 0.16839060E+04</totfact>
</mgrwt>
</event>
<event>
 7    1  0.6419647E-006  0.1275121E+03  0.7546771E-02  0.1245545E+00
         -1   -1    0    0    0  501 -0.00000000000E+00  0.00000000000E+00  0.11766843866E+03  0.11766843866E+03  0.00000000000E+00 0.  1.
          1   -1    0    0  501    0  0.00000000000E+00 -0.00000000000E+00 -0.13563000521E+03  0.13563000521E+03  0.00000000000E+00 0. -1.
         23    2    1    2    0    0  0.20793529483E+02 -0.14328197503E+02 -0.69312406213E+02  0.14513281832E+03  0.12498662803E+03 0.  0.
          5    1    3    3  502    0 -0.19314602218E+02 -0.31692745648E+02  0.22276831839E+02  0.43541144017E+02  0.47000000000E+01 0.  1.
         -5    1    3    3    0  502  0.40108131701E+02  0.17364548145E+02 -0.91589238052E+02  0.10159167430E+03  0.47000000000E+01 0.  1.
        -11    1    1    2    0    0  0.16146339619E+02  0.38226357156E+02  0.12864839602E+01  0.41516426935E+02  0.00000000000E+00 0. -1.
         11    1    1    2    0    0 -0.36939869102E+02 -0.23898159653E+02  0.50064355704E+02  0.66649198616E+02  0.00000000000E+00 0.  1.
<mgrwt>
<rscale>  0 0.11852823E+03</rscale>
<asrwt>0</asrwt>
<pdfrwt beam="2">  1        1 0.20866154E-01 0.12751206E+03</pdfrwt>
<pdfrwt beam="1">  1       -1 0.18102837E-01 0.12751206E+03</pdfrwt>
<totfact> 0.54436935E+03</totfact>
</mgrwt>
</event>
<event>
 6    1  0.6419647E-006  0.1815716E+03  0.7546771E-02  0.1190286E+00
          1   -1    0    0  501    0  0.00000000000E+00  0.00000000000E+00  0.49697281731E+03  0.49697281731E+03  0.00000000000E+00 0. -1.
         -1   -1    0    0    0  501 -0.00000000000E+00 -0.00000000000E+00 -0.53981722474E+02  0.53981722474E+02  0.00000000000E+00 0.  1.
          5    1    1    2  502    0 -0.50889623213E+02  0.42107063355E+02  0.21664944789E+03  0.22654322282E+03  0.47000000000E+01 0. -1.
         -5    1    1    2    0  502  0.10351591896E+03 -0.28330368656E+02  0.17862642478E+03  0.20844098660E+03  0.47000000000E+01 0.  1.
        -11    1    1    2    0    0  0.21263058620E+01 -0.43300405166E+02  0.16655775359E+02  0.46442018873E+02  0.00000000000E+00 0.  1.
         11    1    1    2    0    0 -0.54752601605E+02  0.29523710467E+02  0.31059446805E+02  0.69528311486E+02  0.00000000000E+00 0. -1.
<mgrwt>
<rscale>  0 0.15860035E+03</rscale>
<asrwt>0</asrwt>
<pdfrwt beam="1">  1        1 0.76457353E-01 0.18157160E+03</pdfrwt>
<pdfrwt beam="2">  1       -1 0.83048807E-02 0.18157160E+03</pdfrwt>
<totfact> 0.36338385E+03</totfact>
</mgrwt>
</event>
<event>
 7    1  0.6419647E-006  0.1359963E+03  0.7546771E-02  0.1229722E+00
         -1   -1    0    0    0  501 -0.00000000000E+00  0.00000000000E+00  0.15194321570E+02  0.15194321570E+02  0.00000000000E+00 0.  1.
          1   -1    0    0  501    0  0.00000000000E+00 -0.00000000000E+00 -0.10115117508E+04  0.10115117508E+04  0.00000000000E+00 0. -1.
         23    2    1    2    0    0  0.12547009184E+02  0.52102688030E+02 -0.63954033842E+03  0.65384006800E+03  0.12499148976E+03 0.  0.
          5    1    3    3  502    0 -0.28538878039E+02  0.27787445154E+02 -0.59124750493E+02  0.71445334269E+02  0.47000000000E+01 0.  1.
         -5    1    3    3    0  502  0.41085887223E+02  0.24315242876E+02 -0.58041558793E+03  0.58239473373E+03  0.47000000000E+01 0.  1.
        -11    1    1    2    0    0 -0.52837289932E+02 -0.30116067518E+02 -0.23450107452E+03  0.24225918080E+03  0.00000000000E+00 0.  1.
         11    1    1    2    0    0  0.40290280749E+02 -0.21986620513E+02 -0.12227601627E+03  0.13060682355E+03  0.00000000000E+00 0. -1.
<mgrwt>
<rscale>  0 0.12848426E+03</rscale>
<asrwt>0</asrwt>
<pdfrwt beam="2">  1        1 0.15561721E+00 0.13599629E+03</pdfrwt>
<pdfrwt beam="1">  1       -1 0.23375877E-02 0.13599629E+03</pdfrwt>
<totfact> 0.82732817E+03</totfact>
</mgrwt>
</event>
<event>
 7    1  0.6419647E-006  0.1255467E+03  0.7546771E-02  0.1243318E+00
         -1   -1    0    0    0  501 -0.00000000000E+00  0.00000000000E+00  0.58520341734E+02  0.58520341734E+02  0.00000000000E+00 0.  1.
          1   -1    0    0  501    0  0.00000000000E+00 -0.00000000000E+00 -0.23751510506E+03  0.23751510506E+03  0.00000000000E+00 0. -1.
         23    2    1    2    0    0 -0.26144490511E+02 -0.42354200414E+02 -0.13019246422E+03  0.18086476266E+03  0.11525871749E+03 0.  0.
          5    1    3    3  502    0 -0.68736590697E+02 -0.25541324739E+02 -0.51609325680E+02  0.89792486697E+02  0.47000000000E+01 0.  1.
         -5    1    3    3    0  502  0.42592100187E+02 -0.16812875675E+02 -0.78583138542E+02  0.91072275967E+02  0.47000000000E+01 0.  1.
        -11    1    1    2    0    0 -0.10131952277E+02  0.38982378495E+02 -0.64061522208E+02  0.75671400924E+02  0.00000000000E+00 0. -1.
         11    1    1    2    0    0  0.36276442787E+02  0.33718219189E+01  0.15259223102E+02  0.39499283209E+02  0.00000000000E+00 0.  1.
<mgrwt>
<rscale>  0 0.11986594E+03</rscale>
<asrwt>0</asrwt>
<pdfrwt beam="2">  1        1 0.36540786E-01 0.12554674E+03</pdfrwt>
<pdfrwt beam="1">  1       -1 0.90031294E-02 0.12554674E+03</pdfrwt>
<totfact> 0.79712124E+03</totfact>
</mgrwt>
</event>
<event>
 7    1  0.6419647E-006  0.1849409E+03  0.7546771E-02  0.1167858E+00
         -3   -1    0    0    0  501 -0.00000000000E+00  0.00000000000E+00  0.32265439435E+02  0.32265439435E+02  0.00000000000E+00 0.  1.
          3   -1    0    0  501    0  0.00000000000E+00 -0.00000000000E+00 -0.96694590468E+03  0.96694590468E+03  0.00000000000E+00 0. -1.
         23    2    1    2    0    0 -0.13589709457E+03 -0.10397842596E+02 -0.55267860660E+03  0.58280079402E+03  0.12500795125E+03 0.  0.
          5    1    3    3  502    0 -0.84976908410E+02  0.15350961641E+02 -0.12921428277E+03  0.15548359354E+03  0.47000000000E+01 0. -1.
         -5    1    3    3    0  502 -0.50920186162E+02 -0.25748804237E+02 -0.42346432382E+03  0.42731720048E+03  0.47000000000E+01 0. -1.
        -11    1    1    2    0    0  0.76881180614E+02  0.49819727022E+02 -0.17415703147E+03  0.19678260275E+03  0.00000000000E+00 0.  1.
         11    1    1    2    0    0  0.59015913957E+02 -0.39421884426E+02 -0.20784482718E+03  0.21962794735E+03  0.00000000000E+00 0. -1.
<mgrwt>
<rscale>  0 0.17994368E+03</rscale>
<asrwt>0</asrwt>
<pdfrwt beam="2">  1        3 0.14876093E+00 0.18494086E+03</pdfrwt>
<pdfrwt beam="1">  1       -3 0.49639131E-02 0.18494086E+03</pdfrwt>
<totfact> 0.19629285E+02</totfact>
</mgrwt>
</event>
<event>
 7    1  0.6419647E-006  0.1276147E+03  0.7546771E-02  0.1243661E+00
          4   -1    0    0  501    0  0.00000000000E+00  0.00000000000E+00  0.45057993911E+02  0.45057993911E+02  0.00000000000E+00 0. -1.
         -4   -1    0    0    0  501 -0.00000000000E+00 -0.00000000000E+00 -0.28901746756E+03  0.28901746756E+03  0.00000000000E+00 0.  1.
         23    2    1    2    0    0  0.22077878010E+02 -0.13158734494E+02 -0.11558677355E+03  0.17217960799E+03  0.12499972079E+03 0.  0.
          5    1    3    3  502    0 -0.28161380586E+02  0.41752130502E+02 -0.30614149766E+02  0.59123767842E+02  0.47000000000E+01 0.  1.
         -5    1    3    3    0  502  0.50239258596E+02 -0.54910864995E+02 -0.84972623781E+02  0.11305584015E+03  0.47000000000E+01 0.  1.
        -11    1    1    2    0    0  0.36416377437E+02 -0.61579580733E+01 -0.51850175661E+02  0.63659356809E+02  0.00000000000E+00 0.  1.
         11    1    1    2    0    0 -0.58494255447E+02  0.19316692567E+02 -0.76522524436E+02  0.98236496670E+02  0.00000000000E+00 0. -1.
<mgrwt>
<rscale>  0 0.11965853E+03</rscale>
<asrwt>0</asrwt>
<pdfrwt beam="1">  1        4 0.69319990E-02 0.12761471E+03</pdfrwt>
<pdfrwt beam="2">  1       -4 0.44464226E-01 0.12761471E+03</pdfrwt>
<totfact> 0.11230921E+03</totfact>
</mgrwt>
</event>
<event>
 6    1  0.6419647E-006  0.1408429E+03  0.7546771E-02  0.1225743E+00
          1   -1    0    0  501    0  0.00000000000E+00  0.00000000000E+00  0.21455036490E+03  0.21455036490E+03  0.00000000000E+00 0. -1.
         -1   -1    0    0    0  501 -0.00000000000E+00 -0.00000000000E+00 -0.78191298252E+02  0.78191298252E+02  0.00000000000E+00 0.  1.
          5    1    1    2  502    0  0.34910684667E+02 -0.48537001288E+02  0.10898691827E+03  0.12439788886E+03  0.47000000000E+01 0. -1.
         -5    1    1    2    0  502 -0.59923714082E+02  0.94623396140E+00  0.12056646146E+02  0.61312311850E+02  0.47000000000E+01 0.  1.
        -11    1    1    2    0    0  0.71854135021E+01 -0.16290780054E+02  0.33781239434E+02  0.38186277898E+02  0.00000000000E+00 0. -1.
         11    1    1    2    0    0  0.17827615913E+02  0.63881547380E+02 -0.18465737203E+02  0.68845184547E+02  0.00000000000E+00 0.  1.
<mgrwt>
<rscale>  0 0.13116141E+03</rscale>
<asrwt>0</asrwt>
<pdfrwt beam="1">  1        1 0.33007748E-01 0.14084294E+03</pdfrwt>
<pdfrwt beam="2">  1       -1 0.12029431E-01 0.14084294E+03</pdfrwt>
<totfact> 0.58499191E+03</totfact>
</mgrwt>
</event>
<event>
 7    1  0.6419647E-006  0.1637144E+03  0.7546771E-02  0.1191510E+00
         -2   -1    0    0    0  501 -0.00000000000E+00  0.00000000000E+00  0.39281101692E+02  0.39281101692E+02  0.00000000000E+00 0. -1.
          2   -1    0    0  501    0  0.00000000000E+00 -0.00000000000E+00 -0.59151186227E+03  0.59151186227E+03  0.00000000000E+00 0.  1.
         23    2    1    2    0    0 -0.33508916649E+02 -0.10027384051E+03 -0.31987928579E+03  0.35933988964E+03  0.12499883287E+03 0.  0.
          5    1    3    3  502    0 -0.48485635740E+02 -0.34461768161E+02 -0.41068745122E+02  0.72437574254E+02  0.47000000000E+01 0.  1.
         -5    1    3    3    0  502  0.14976719091E+02 -0.65812072349E+02 -0.27881054067E+03  0.28690231538E+03  0.47000000000E+01 0.  1.
        -11    1    1    2    0    0  0.58796940655E+02  0.63931896406E+02 -0.10300077267E+03  0.13473502432E+03  0.00000000000E+00 0. -1.
         11    1    1    2    0    0 -0.25288024006E+02  0.36341944104E+02 -0.12935070212E+03  0.13671805001E+03  0.00000000000E+00 0.  1.
<mgrwt>
<rscale>  0 0.15753324E+03</rscale>
<asrwt>0</asrwt>
<pdfrwt beam="2">  1        2 0.91001821E-01 0.16371438E+03</pdfrwt>
<pdfrwt beam="1">  1       -2 0.60432467E-02 0.16371438E+03</pdfrwt>
<totfact> 0.72879506E+03</totfact>
</mgrwt>
</event>
<event>
 6    1  0.6419647E-006  0.1686984E+03  0.7546771E-02  0.1187450E+00
          1   -1    0    0  501    0  0.00000000000E+00  0.00000000000E+00  0.10745881959E+03  0.10745881959E+03  0.00000000000E+00 0. -1.
         -1   -1    0    0    0  501 -0.00000000000E+00 -0.00000000000E+00 -0.22924470330E+03  0.22924470330E+03  0.00000000000E+00 0.  1.
          5    1    1    2  502    0 -0.76577950190E+02 -0.16875934092E+01  0.30093394410E+02  0.82430169319E+02  0.47000000000E+01 0. -1.
         -5    1    1    2    0  502 -0.13138930789E+02  0.58877096592E+02 -0.66961214536E+02  0.90249865692E+02  0.47000000000E+01 0.  1.
        -11    1    1    2    0    0 -0.32998117939E+01 -0.45816867782E+02 -0.35687845565E+02  0.58169549185E+02  0.00000000000E+00 0. -1.
         11    1    1    2    0    0  0.93016692773E+02 -0.11372635400E+02 -0.49230218017E+02  0.10585393869E+03  0.00000000000E+00 0.  1.
<mgrwt>
<rscale>  0 0.16110953E+03</rscale>
<asrwt>0</asrwt>
<pdfrwt beam="1">  1        1 0.16532126E-01 0.16869842E+03</pdfrwt>
<pdfrwt beam="2">  1       -1 0.35268416E-01 0.16869842E+03</pdfrwt>
<totfact> 0.24747222E+03</totfact>
</mgrwt>
</event>
<event>
 7    1  0.6900090E-006  0.2746644E+03  0.7546771E-02  0.1100514E+00
          2   -1    0    0  501    0  0.00000000000E+00  0.00000000000E+00  0.62873412663E+03  0.62873412663E+03  0.00000000000E+00 0. -1.
         -2   -1    0    0    0  501 -0.00000000000E+00 -0.00000000000E+00 -0.12041833680E+03  0.12041833680E+03  0.00000000000E+00 0.  1.
         23    2    1    2    0    0 -0.89090624889E+02  0.22776610662E+03  0.34405980748E+03  0.44024730086E+03  0.12500398400E+03 0.  0.
          5    1    3    3  502    0 -0.11527767516E+03  0.16740738522E+03  0.29394379447E+03  0.35740623851E+03  0.47000000000E+01 0.  1.
         -5    1    3    3    0  502  0.26187050269E+02  0.60358721399E+02  0.50116013014E+02  0.82841062349E+02  0.47000000000E+01 0.  1.
        -11    1    1    2    0    0  0.10059339464E+03 -0.18921119888E+03  0.16195298180E+03  0.26860505792E+03  0.00000000000E+00 0. -1.
         11    1    1    2    0    0 -0.11502769754E+02 -0.38554907746E+02  0.23030005374E+01  0.40300104650E+02  0.00000000000E+00 0.  1.
<mgrwt>
<rscale>  0 0.27134225E+03</rscale>
<asrwt>0</asrwt>
<pdfrwt beam="1">  1        2 0.96728326E-01 0.27466440E+03</pdfrwt>
<pdfrwt beam="2">  1       -2 0.18525898E-01 0.27466440E+03</pdfrwt>
<totfact> 0.11460962E+03</totfact>
</mgrwt>
</event>
<event>
 7    1  0.6419647E-006  0.1362911E+03  0.7546771E-02  0.1230474E+00
          2   -1    0    0  501    0  0.00000000000E+00  0.00000000000E+00  0.10289010381E+04  0.10289010381E+04  0.00000000000E+00 0. -1.
         -2   -1    0    0    0  501 -0.00000000000E+00 -0.00000000000E+00 -0.14644878109E+02  0.14644878109E+02  0.00000000000E+00 0.  1.
         23    2    1    2    0    0  0.47938680181E+02 -0.25534865335E+02  0.65254459136E+03  0.66662561301E+03  0.12500047121E+03 0.  0.
          5    1    3    3  502    0 -0.58153840476E+01 -0.67312334226E+02  0.34797223451E+03  0.35450181244E+03  0.47000000000E+01 0. -1.
         -5    1    3    3    0  502  0.53754064229E+02  0.41777468891E+02  0.30457235685E+03  0.31212380057E+03  0.47000000000E+01 0. -1.
        -11    1    1    2    0    0 -0.15360288083E+01 -0.18320281209E+02  0.13259970309E+02  0.22667573772E+02  0.00000000000E+00 0.  1.
         11    1    1    2    0    0 -0.46402651373E+02  0.43855146544E+02  0.34845159830E+03  0.35425272940E+03  0.00000000000E+00 0. -1.
<mgrwt>
<rscale>  0 0.12798697E+03</rscale>
<asrwt>0</asrwt>
<pdfrwt beam="1">  1        2 0.15829241E+00 0.13629110E+03</pdfrwt>
<pdfrwt beam="2">  1       -2 0.22530590E-02 0.13629110E+03</pdfrwt>
<totfact> 0.15659660E+04</totfact>
</mgrwt>
</event>
<event>
 7    1  0.6419647E-006  0.2160929E+03  0.7546771E-02  0.1140236E+00
         -1   -1    0    0    0  501 -0.00000000000E+00  0.00000000000E+00  0.11066856708E+03  0.11066856708E+03  0.00000000000E+00 0.  1.
          1   -1    0    0  501    0  0.00000000000E+00 -0.00000000000E+00 -0.39658160570E+03  0.39658160570E+03  0.00000000000E+00 0. -1.
         23    2    1    2    0    0  0.17624427617E+03 -0.88389874635E+00 -0.18321537588E+03  0.28330904372E+03  0.12503325212E+03 0.  0.
          5    1    3    3  502    0  0.15983381779E+03  0.44130078284E+02 -0.15744467237E+03  0.22870336241E+03  0.47000000000E+01 0.  1.
         -5    1    3    3    0  502  0.16410458378E+02 -0.45013977030E+02 -0.25770703512E+02  0.54605681314E+02  0.47000000000E+01 0.  1.
        -11    1    1    2    0    0 -0.92502176014E+02  0.22733858056E+02 -0.79038813814E+01  0.95582175171E+02  0.00000000000E+00 0.  1.
         11    1    1    2    0    0 -0.83742100153E+02 -0.21849959309E+02 -0.94793781357E+02  0.12835895389E+03  0.00000000000E+00 0. -1.
<mgrwt>
<rscale>  0 0.21168795E+03</rscale>
<asrwt>0</asrwt>
<pdfrwt beam="2">  1        1 0.61012555E-01 0.21609290E+03</pdfrwt>
<pdfrwt beam="1">  1       -1 0.17025933E-01 0.21609290E+03</pdfrwt>
<totfact> 0.15981959E+03</totfact>
</mgrwt>
</event>
<event>
 7    1  0.6419647E-006  0.1748526E+03  0.7546771E-02  0.1174581E+00
          1   -1    0    0  501    0  0.00000000000E+00  0.00000000000E+00  0.21923062840E+03  0.21923062840E+03  0.00000000000E+00 0. -1.
         -1   -1    0    0    0  501 -0.00000000000E+00 -0.00000000000E+00 -0.13841936911E+03  0.13841936911E+03  0.00000000000E+00 0.  1.
         23    2    1    2    0    0 -0.98488308209E+02  0.72446993570E+02  0.72302543898E+02  0.18921175790E+03  0.12499967098E+03 0.  0.
          5    1    3    3  502    0 -0.12492225436E+03  0.49153670722E+02  0.74492463453E+02  0.15359970733E+03  0.47000000000E+01 0.  1.
         -5    1    3    3    0  502  0.26433946153E+02  0.23293322849E+02 -0.21899195553E+01  0.35612050576E+02  0.47000000000E+01 0.  1.
        -11    1    1    2    0    0  0.86624798005E+02 -0.91939396203E+02 -0.24139865777E+02  0.12860575929E+03  0.00000000000E+00 0.  1.
         11    1    1    2    0    0  0.11863510204E+02  0.19492402633E+02  0.32648581174E+02  0.39832480307E+02  0.00000000000E+00 0. -1.
<mgrwt>
<rscale>  0 0.17317115E+03</rscale>
<asrwt>0</asrwt>
<pdfrwt beam="1">  1        1 0.33727789E-01 0.17485260E+03</pdfrwt>
<pdfrwt beam="2">  1       -1 0.21295287E-01 0.17485260E+03</pdfrwt>
<totfact> 0.23316522E+03</totfact>
</mgrwt>
</event>
<event>
 7    1  0.6419647E-006  0.1314940E+03  0.7546771E-02  0.1238298E+00
          2   -1    0    0  501    0  0.00000000000E+00  0.00000000000E+00  0.96320116887E+02  0.96320116887E+02  0.00000000000E+00 0.  1.
         -2   -1    0    0    0  501 -0.00000000000E+00 -0.00000000000E+00 -0.14281708795E+03  0.14281708795E+03  0.00000000000E+00 0. -1.
         23    2    1    2    0    0 -0.65446283789E+01 -0.40308073893E+02 -0.88497738960E+01  0.13179146712E+03  0.12499239707E+03 0.  0.
          5    1    3    3  502    0 -0.46740958463E+02  0.25811928091E+02 -0.84852105854E+01  0.54268422019E+02  0.47000000000E+01 0. -1.
         -5    1    3    3    0  502  0.40196330084E+02 -0.66120001983E+02 -0.36456331060E+00  0.77523045096E+02  0.47000000000E+01 0. -1.
        -11    1    1    2    0    0  0.23274265789E+02  0.44641836323E+02 -0.60491627316E+02  0.78700838456E+02  0.00000000000E+00 0. -1.
         11    1    1    2    0    0 -0.16729637410E+02 -0.43337624308E+01  0.22844430154E+02  0.28644899262E+02  0.00000000000E+00 0.  1.
<mgrwt>
<rscale>  0 0.12295630E+03</rscale>
<asrwt>0</asrwt>
<pdfrwt beam="1">  1        2 0.14818480E-01 0.13149400E+03</pdfrwt>
<pdfrwt beam="2">  1       -2 0.21971859E-01 0.13149400E+03</pdfrwt>
<totfact> 0.66705701E+03</totfact>
</mgrwt>
</event>
<event>
 7    1  0.6419647E-006  0.1258845E+03  0.7546771E-02  0.1250819E+00
         -2   -1    0    0    0  501 -0.00000000000E+00  0.00000000000E+00  0.14364743167E+03  0.14364743167E+03  0.00000000000E+00 0.  1.
          2   -1    0    0  501    0  0.00000000000E+00 -0.00000000000E+00 -0.99335907105E+02  0.99335907105E+02  0.00000000000E+00 0. -1.
         23    2    1    2    0    0  0.12825626016E+02  0.76202299629E+01 -0.27211183516E+02  0.12879192604E+03  0.12499738845E+03 0.  0.
          5    1    3    3  502    0  0.54068805599E+01  0.32700947182E+02  0.42550245731E+02  0.54140555186E+02  0.47000000000E+01 0. -1.
         -5    1    3    3    0  502  0.74187454558E+01 -0.25080717219E+02 -0.69761429247E+02  0.74651370858E+02  0.47000000000E+01 0. -1.
        -11    1    1    2    0    0 -0.32481138529E+02 -0.65314371353E+01  0.84398689048E+02  0.90668752855E+02  0.00000000000E+00 0.  1.
         11    1    1    2    0    0  0.19655512514E+02 -0.10887928275E+01 -0.12875980965E+02  0.23522659879E+02  0.00000000000E+00 0. -1.
<mgrwt>
<rscale>  0 0.11543793E+03</rscale>
<asrwt>0</asrwt>
<pdfrwt beam="2">  1        2 0.15282447E-01 0.12588452E+03</pdfrwt>
<pdfrwt beam="1">  1       -2 0.22099605E-01 0.12588452E+03</pdfrwt>
<totfact> 0.63501321E+03</totfact>
</mgrwt>
</event>
<event>
 7    1  0.6419647E-006  0.1607608E+03  0.7546771E-02  0.1194671E+00
          1   -1    0    0  501    0  0.00000000000E+00  0.00000000000E+00  0.76722800678E+03  0.76722800678E+03  0.00000000000E+00 0. -1.
         -1   -1    0    0    0  501 -0.00000000000E+00 -0.00000000000E+00 -0.29149070523E+02  0.29149070523E+02  0.00000000000E+00 0.  1.
         23    2    1    2    0    0  0.45629731489E+01  0.10098398672E+03  0.40371660533E+03  0.43454705358E+03  0.12500183223E+03 0.  0.
          5    1    3    3  502    0 -0.35210418224E+02  0.65218316103E+01  0.29843948386E+02  0.46851457761E+02  0.47000000000E+01 0.  1.
         -5    1    3    3    0  502  0.39773391373E+02  0.94462155108E+02  0.37387265694E+03  0.38769559582E+03  0.47000000000E+01 0.  1.
        -11    1    1    2    0    0  0.28373634296E+02 -0.66311096413E+02  0.28128971594E+03  0.29038961573E+03  0.00000000000E+00 0. -1.
         11    1    1    2    0    0 -0.32936607445E+02 -0.34672890306E+02  0.53072614984E+02  0.71440407987E+02  0.00000000000E+00 0.  1.
<mgrwt>
<rscale>  0 0.15482073E+03</rscale>
<asrwt>0</asrwt>
<pdfrwt beam="1">  1        1 0.11803506E+00 0.16076083E+03</pdfrwt>
<pdfrwt beam="2">  1       -1 0.44844730E-02 0.16076083E+03</pdfrwt>
<totfact> 0.49828464E+03</totfact>
</mgrwt>
</event>
<event>
 7    1  0.6419647E-006  0.1286484E+03  0.7546771E-02  0.1249750E+00
         -1   -1    0    0    0  501 -0.00000000000E+00  0.00000000000E+00  0.22539993986E+03  0.22539993986E+03  0.00000000000E+00 0.  1.
          1   -1    0    0  501    0  0.00000000000E+00 -0.00000000000E+00 -0.50722906115E+02  0.50722906115E+02  0.00000000000E+00 0. -1.
         23    2    1    2    0    0  0.22921599737E+02  0.20002951266E+02  0.10538857776E+03  0.16630444201E+03  0.12499958926E+03 0.  0.
          5    1    3    3  502    0 -0.10527282482E+02  0.66987858682E+02  0.39513968746E+02  0.78623410084E+02  0.47000000000E+01 0. -1.
         -5    1    3    3    0  502  0.33448882219E+02 -0.46984907416E+02  0.65874609018E+02  0.87681031927E+02  0.47000000000E+01 0. -1.
        -11    1    1    2    0    0 -0.62473835235E+01 -0.46781666175E+02  0.61139419263E+02  0.77237184560E+02  0.00000000000E+00 0. -1.
         11    1    1    2    0    0 -0.16674216214E+02  0.26778714909E+02  0.81490367218E+01  0.32581219407E+02  0.00000000000E+00 0.  1.
<mgrwt>
<rscale>  0 0.11605514E+03</rscale>
<asrwt>0</asrwt>
<pdfrwt beam="2">  1        1 0.78035241E-02 0.12864842E+03</pdfrwt>
<pdfrwt beam="1">  1       -1 0.34676913E-01 0.12864842E+03</pdfrwt>
<totfact> 0.67495721E+03</totfact>
</mgrwt>
</event>
<event>
 7    1  0.6419647E-006  0.1497747E+03  0.7546771E-02  0.1210745E+00
         -2   -1    0    0    0  501 -0.00000000000E+00  0.00000000000E+00  0.28434148912E+03  0.28434148912E+03  0.00000000000E+00 0. -1.
          2   -1    0    0  501    0  0.00000000000E+00 -0.00000000000E+00 -0.64500048311E+02  0.64500048311E+02  0.00000000000E+00 0.  1.
         23    2    1    2    0    0  0.26285007858E+02 -0.78216981060E+02  0.11387079137E+03  0.18814623751E+03  0.12499460707E+03 0.  0.
          5    1    3    3  502    0 -0.45186267175E+02 -0.35164916777E+01  0.43503757966E+02  0.62998661986E+02  0.47000000000E+01 0.  1.
         -5    1    3    3    0  502  0.71471275033E+02 -0.74700489382E+02  0.70367033404E+02  0.12514757552E+03  0.47000000000E+01 0.  1.
        -11    1    1    2    0    0 -0.25040242006E+02  0.20557691157E+02 -0.76380319954E+01  0.33286212133E+02  0.00000000000E+00 0.  1.
         11    1    1    2    0    0 -0.12447658524E+01  0.57659289903E+02  0.11360868143E+03  0.12740908779E+03  0.00000000000E+00 0. -1.
<mgrwt>
<rscale>  0 0.14193764E+03</rscale>
<asrwt>0</asrwt>
<pdfrwt beam="2">  1        2 0.99230845E-02 0.14977466E+03</pdfrwt>
<pdfrwt beam="1">  1       -2 0.43744844E-01 0.14977466E+03</pdfrwt>
<totfact> 0.31255829E+03</totfact>
</mgrwt>
</event>
<event>
 7    1  0.6419647E-006  0.1364443E+03  0.7546771E-02  0.1230618E+00
          2   -1    0    0  501    0  0.00000000000E+00  0.00000000000E+00  0.45878389958E+03  0.45878389958E+03  0.00000000000E+00 0. -1.
         -2   -1    0    0    0  501 -0.00000000000E+00 -0.00000000000E+00 -0.39940993056E+02  0.39940993056E+02  0.00000000000E+00 0.  1.
         23    2    1    2    0    0  0.19687208313E+02  0.51026110557E+02  0.34241260623E+03  0.36859659005E+03  0.12500321263E+03 0.  0.
          5    1    3    3  502    0  0.10850104434E+02  0.40306594933E+02  0.34970422209E+03  0.35221794291E+03  0.47000000000E+01 0. -1.
         -5    1    3    3    0  502  0.88371038793E+01  0.10719515623E+02 -0.72916158665E+01  0.16378647140E+02  0.47000000000E+01 0. -1.
        -11    1    1    2    0    0 -0.46778940846E+02 -0.45979040456E+02  0.78731737465E+02  0.10247452343E+03  0.00000000000E+00 0. -1.
         11    1    1    2    0    0  0.27091732533E+02 -0.50470701004E+01 -0.23014371697E+01  0.27653779150E+02  0.00000000000E+00 0.  1.
<mgrwt>
<rscale>  0 0.12789153E+03</rscale>
<asrwt>0</asrwt>
<pdfrwt beam="1">  1        2 0.70582135E-01 0.13644432E+03</pdfrwt>
<pdfrwt beam="2">  1       -2 0.61447685E-02 0.13644432E+03</pdfrwt>
<totfact> 0.93186594E+03</totfact>
</mgrwt>
</event>
<event>
 7    1  0.6419647E-006  0.1685486E+03  0.7546771E-02  0.1186011E+00
         -2   -1    0    0    0  501 -0.00000000000E+00  0.00000000000E+00  0.55477933018E+03  0.55477933018E+03  0.00000000000E+00 0.  1.
          2   -1    0    0  501    0  0.00000000000E+00 -0.00000000000E+00 -0.45378373602E+02  0.45378373602E+02  0.00000000000E+00 0. -1.
         23    2    1    2    0    0 -0.11218582617E+03 -0.14076421724E+02  0.22879899592E+03  0.28417882646E+03  0.12499927853E+03 0.  0.
          5    1    3    3  502    0 -0.33373447708E+00  0.40755746841E+02  0.81245000513E+02  0.91016385270E+02  0.47000000000E+01 0.  1.
         -5    1    3    3    0  502 -0.11185209169E+03 -0.54832168565E+02  0.14755399541E+03  0.19316244119E+03  0.47000000000E+01 0.  1.
        -11    1    1    2    0    0  0.21207622200E+02  0.43033067853E+02  0.71406482750E+02  0.86026123630E+02  0.00000000000E+00 0. -1.
         11    1    1    2    0    0  0.90978203972E+02 -0.28956646129E+02  0.20919547791E+03  0.22995275369E+03  0.00000000000E+00 0.  1.
<mgrwt>
<rscale>  0 0.16240242E+03</rscale>
<asrwt>0</asrwt>
<pdfrwt beam="2">  1        2 0.69812886E-02 0.16854858E+03</pdfrwt>
<pdfrwt beam="1">  1       -2 0.85350662E-01 0.16854858E+03</pdfrwt>
<totfact> 0.12245699E+03</totfact>
</mgrwt>
</event>
<event>
 7    1  0.6419647E-006  0.1308941E+03  0.7546771E-02  0.1239165E+00
         -1   -1    0    0    0  501 -0.00000000000E+00  0.00000000000E+00  0.32939537135E+02  0.32939537135E+02  0.00000000000E+00 0.  1.
          1   -1    0    0  501    0  0.00000000000E+00 -0.00000000000E+00 -0.40652379529E+03  0.40652379529E+03  0.00000000000E+00 0. -1.
         23    2    1    2    0    0  0.28914014226E+01  0.38741705206E+02 -0.22451355522E+03  0.25988384348E+03  0.12499598275E+03 0.  0.
          5    1    3    3  502    0 -0.48686571964E+02  0.43477389129E+02 -0.65537658563E+02  0.92617170897E+02  0.47000000000E+01 0.  1.
         -5    1    3    3    0  502  0.51577973387E+02 -0.47356839232E+01 -0.15897589666E+03  0.16726667259E+03  0.47000000000E+01 0.  1.
        -11    1    1    2    0    0 -0.30743508405E+02 -0.52559781819E+01 -0.83721787304E+01  0.32293683476E+02  0.00000000000E+00 0.  1.
         11    1    1    2    0    0  0.27852106983E+02 -0.33485727024E+02 -0.14069852420E+03  0.14728580546E+03  0.00000000000E+00 0. -1.
<mgrwt>
<rscale>  0 0.12241510E+03</rscale>
<asrwt>0</asrwt>
<pdfrwt beam="2">  1        1 0.62542127E-01 0.13089414E+03</pdfrwt>
<pdfrwt beam="1">  1       -1 0.50676207E-02 0.13089414E+03</pdfrwt>
<totfact> 0.96944459E+03</totfact>
</mgrwt>
</event>
<event>
 7    1  0.6419647E-006  0.1331300E+03  0.7546771E-02  0.1238199E+00
         -2   -1    0    0    0  501 -0.00000000000E+00  0.00000000000E+00  0.18591840035E+03  0.18591840035E+03  0.00000000000E+00 0.  1.
          2   -1    0    0  501    0  0.00000000000E+00 -0.00000000000E+00 -0.12217254138E+03  0.12217254138E+03  0.00000000000E+00 0. -1.
         23    2    1    2    0    0  0.82467103586E+01 -0.45074095910E+02 -0.63950089947E+02  0.14769295706E+03  0.12499565275E+03 0.  0.
          5    1    3    3  502    0 -0.48062182346E+02 -0.49413845506E+02 -0.58911250486E+02  0.90798276048E+02  0.47000000000E+01 0. -1.
         -5    1    3    3    0  502  0.56308892704E+02  0.43397495955E+01 -0.50388394608E+01  0.56894681010E+02  0.47000000000E+01 0. -1.
        -11    1    1    2    0    0  0.25949702510E+02  0.41063499214E+02  0.11293083769E+03  0.12293482879E+03  0.00000000000E+00 0.  1.
         11    1    1    2    0    0 -0.34196412868E+02  0.40105966958E+01  0.14765111232E+02  0.37463155882E+02  0.00000000000E+00 0. -1.
<mgrwt>
<rscale>  0 0.12301853E+03</rscale>
<asrwt>0</asrwt>
<pdfrwt beam="2">  1        2 0.18795776E-01 0.13312999E+03</pdfrwt>
<pdfrwt beam="1">  1       -2 0.28602831E-01 0.13312999E+03</pdfrwt>
<totfact> 0.32002592E+03</totfact>
</mgrwt>
</event>
<event>
 7    1  0.6419647E-006  0.1313531E+03  0.7546771E-02  0.1232781E+00
          1   -1    0    0  501    0  0.00000000000E+00  0.00000000000E+00  0.58874753581E+03  0.58874753581E+03  0.00000000000E+00 0. -1.
         -1   -1    0    0    0  501 -0.00000000000E+00 -0.00000000000E+00 -0.78236323314E+02  0.78236323314E+02  0.00000000000E+00 0.  1.
         23    2    1    2    0    0  0.61309362948E+02  0.81614633404E+01  0.53547768053E+03  0.55135287815E+03  0.11588012096E+03 0.  0.
          5    1    3    3  502    0  0.63504477136E+02  0.39438958200E+02  0.49129427421E+03  0.49697123047E+03  0.47000000000E+01 0. -1.
         -5    1    3    3    0  502 -0.21951141878E+01 -0.31277494859E+02  0.44183406317E+02  0.54381647683E+02  0.47000000000E+01 0.  1.
        -11    1    1    2    0    0  0.16728569543E+01 -0.37200513889E+02  0.91408814756E+01  0.38343609612E+02  0.00000000000E+00 0. -1.
         11    1    1    2    0    0 -0.62982219903E+02  0.29039050548E+02 -0.34107349511E+02  0.77287371357E+02  0.00000000000E+00 0.  1.
<mgrwt>
<rscale>  0 0.12647574E+03</rscale>
<asrwt>0</asrwt>
<pdfrwt beam="1">  1        1 0.90576541E-01 0.13135315E+03</pdfrwt>
<pdfrwt beam="2">  1       -1 0.12036358E-01 0.13135315E+03</pdfrwt>
<totfact> 0.16265194E+03</totfact>
</mgrwt>
</event>
<event>
 7    1  0.6419647E-006  0.1523691E+03  0.7546771E-02  0.1205443E+00
          2   -1    0    0  501    0  0.00000000000E+00  0.00000000000E+00  0.35299479510E+03  0.35299479510E+03  0.00000000000E+00 0. -1.
         -2   -1    0    0    0  501 -0.00000000000E+00 -0.00000000000E+00 -0.56641130550E+02  0.56641130550E+02  0.00000000000E+00 0.  1.
         23    2    1    2    0    0 -0.85434863377E+02  0.17006735203E+02  0.13700047143E+03  0.20490356091E+03  0.12501198015E+03 0.  0.
          5    1    3    3  502    0 -0.92282001476E+02 -0.32079981796E+02  0.65270923266E+02  0.11759029064E+03  0.47000000000E+01 0. -1.
         -5    1    3    3    0  502  0.68471380997E+01  0.49086717000E+02  0.71729548164E+02  0.87313270273E+02  0.47000000000E+01 0. -1.
        -11    1    1    2    0    0  0.51842642403E+02 -0.51884965352E+01  0.16086269807E+03  0.16908988053E+03  0.00000000000E+00 0. -1.
         11    1    1    2    0    0  0.33592220973E+02 -0.11818238668E+02 -0.15095049517E+01  0.35642484205E+02  0.00000000000E+00 0.  1.
<mgrwt>
<rscale>  0 0.14602599E+03</rscale>
<asrwt>0</asrwt>
<pdfrwt beam="1">  1        2 0.54306890E-01 0.15236909E+03</pdfrwt>
<pdfrwt beam="2">  1       -2 0.87140203E-02 0.15236909E+03</pdfrwt>
<totfact> 0.72669369E+03</totfact>
</mgrwt>
</event>
<event>
 7    1  0.6419647E-006  0.1157376E+03  0.7546771E-02  0.1257796E+00
          1   -1    0    0  501    0  0.00000000000E+00  0.00000000000E+00  0.13349612151E+03  0.13349612151E+03  0.00000000000E+00 0. -1.
         -1   -1    0    0    0  501 -0.00000000000E+00 -0.00000000000E+00 -0.16528980087E+03  0.16528980087E+03  0.00000000000E+00 0.  1.
         23    2    1    2    0    0 -0.34492869265E+02 -0.16137545350E+00  0.86181909129E+02  0.14430007801E+03  0.11047808370E+03 0.  0.
          5    1    3    3  502    0 -0.61304556982E+02 -0.14639178308E+02  0.93267348716E+02  0.11266517911E+03  0.47000000000E+01 0. -1.
         -5    1    3    3    0  502  0.26811687717E+02  0.14477802854E+02 -0.70854395871E+01  0.31634898891E+02  0.47000000000E+01 0.  1.
        -11    1    1    2    0    0  0.92361437069E+01  0.31908789870E+02 -0.10760083149E+03  0.11261179404E+03  0.00000000000E+00 0.  1.
         11    1    1    2    0    0  0.25256725559E+02 -0.31747414417E+02 -0.10374757011E+02  0.41874050331E+02  0.00000000000E+00 0. -1.
<mgrwt>
<rscale>  0 0.11151180E+03</rscale>
<asrwt>0</asrwt>
<pdfrwt beam="1">  1        1 0.20537865E-01 0.11573760E+03</pdfrwt>
<pdfrwt beam="2">  1       -1 0.25429200E-01 0.11573760E+03</pdfrwt>
<totfact> 0.31920811E+03</totfact>
</mgrwt>
</event>
<event>
 7    1  0.6419647E-006  0.1477580E+03  0.7546771E-02  0.1212566E+00
         -1   -1    0    0    0  501 -0.00000000000E+00  0.00000000000E+00  0.18089358220E+02  0.18089358220E+02  0.00000000000E+00 0.  1.
          1   -1    0    0  501    0  0.00000000000E+00 -0.00000000000E+00 -0.10192366150E+04  0.10192366150E+04  0.00000000000E+00 0. -1.
         23    2    1    2    0    0  0.50391054748E+02 -0.60565284565E+02 -0.62298291449E+03  0.64026566946E+03  0.12500001459E+03 0.  0.
          5    1    3    3  502    0  0.13596209349E+02 -0.69616356136E+02 -0.57287269478E+03  0.57726641023E+03  0.47000000000E+01 0.  1.
         -5    1    3    3    0  502  0.36794845399E+02  0.90510715706E+01 -0.50110219711E+02  0.62999259234E+02  0.47000000000E+01 0.  1.
        -11    1    1    2    0    0 -0.70343530955E+02  0.22413187940E+02 -0.28535299098E+03  0.29474886396E+03  0.00000000000E+00 0. -1.
         11    1    1    2    0    0  0.19952476208E+02  0.38152096625E+02 -0.92811351316E+02  0.10231143981E+03  0.00000000000E+00 0.  1.
<mgrwt>
<rscale>  0 0.14056841E+03</rscale>
<asrwt>0</asrwt>
<pdfrwt beam="2">  1        1 0.15680565E+00 0.14775796E+03</pdfrwt>
<pdfrwt beam="1">  1       -1 0.27829779E-02 0.14775796E+03</pdfrwt>
<totfact> 0.63651917E+03</totfact>
</mgrwt>
</event>
<event>
 7    1  0.6419647E-006  0.1815481E+03  0.7546771E-02  0.1171488E+00
         -4   -1    0    0    0  501 -0.00000000000E+00  0.00000000000E+00  0.14527538290E+03  0.14527538290E+03  0.00000000000E+00 0.  1.
          4   -1    0    0  501    0  0.00000000000E+00 -0.00000000000E+00 -0.25292290523E+03  0.25292290523E+03  0.00000000000E+00 0. -1.
         23    2    1    2    0    0  0.10467788675E+03 -0.79870555050E+02 -0.14539518115E+03  0.23259295755E+03  0.12499183838E+03 0.  0.
          5    1    3    3  502    0  0.64898854824E+02 -0.10947091891E+03 -0.80005049831E+02  0.15039495152E+03  0.47000000000E+01 0.  1.
         -5    1    3    3    0  502  0.39779031929E+02  0.29600363860E+02 -0.65390131315E+02  0.82198006029E+02  0.47000000000E+01 0.  1.
        -11    1    1    2    0    0 -0.72288225669E+01  0.10530437254E+02  0.44024382545E+02  0.45839854308E+02  0.00000000000E+00 0.  1.
         11    1    1    2    0    0 -0.97449064186E+02  0.69340117796E+02 -0.62767237299E+01  0.11976547628E+03  0.00000000000E+00 0. -1.
<mgrwt>
<rscale>  0 0.17624468E+03</rscale>
<asrwt>0</asrwt>
<pdfrwt beam="2">  1        4 0.38911216E-01 0.18154813E+03</pdfrwt>
<pdfrwt beam="1">  1       -4 0.22350059E-01 0.18154813E+03</pdfrwt>
<totfact> 0.20733317E+02</totfact>
</mgrwt>
</event>
<event>
 7    1  0.6419647E-006  0.1311102E+03  0.7546771E-02  0.1238532E+00
         -2   -1    0    0    0  501 -0.00000000000E+00  0.00000000000E+00  0.74268450756E+02  0.74268450756E+02  0.00000000000E+00 0.  1.
          2   -1    0    0  501    0  0.00000000000E+00 -0.00000000000E+00 -0.19435264996E+03  0.19435264996E+03  0.00000000000E+00 0. -1.
         23    2    1    2    0    0  0.69530910651E+01 -0.38910866310E+02 -0.10192575249E+03  0.16606851259E+03  0.12500996305E+03 0.  0.
          5    1    3    3  502    0  0.46522652023E+02 -0.39905891938E+02 -0.10942412135E+03  0.12550922554E+03  0.47000000000E+01 0.  1.
         -5    1    3    3    0  502 -0.39569560958E+02  0.99502562769E+00  0.74983688605E+01  0.40559287050E+02  0.47000000000E+01 0.  1.
        -11    1    1    2    0    0 -0.18496731842E+02 -0.14505453427E+02 -0.37773036239E+02  0.44489768876E+02  0.00000000000E+00 0.  1.
         11    1    1    2    0    0  0.11543640777E+02  0.53416319737E+02  0.19614589526E+02  0.58062819247E+02  0.00000000000E+00 0. -1.
<mgrwt>
<rscale>  0 0.12281031E+03</rscale>
<asrwt>0</asrwt>
<pdfrwt beam="2">  1        2 0.29900407E-01 0.13111023E+03</pdfrwt>
<pdfrwt beam="1">  1       -2 0.11425916E-01 0.13111023E+03</pdfrwt>
<totfact> 0.88818962E+03</totfact>
</mgrwt>
</event>
<event>
 7    1  0.6419647E-006  0.1589117E+03  0.7546771E-02  0.1198795E+00
         -3   -1    0    0    0  501 -0.00000000000E+00  0.00000000000E+00  0.15191656569E+03  0.15191656569E+03  0.00000000000E+00 0.  1.
          3   -1    0    0  501    0  0.00000000000E+00 -0.00000000000E+00 -0.14947682508E+03  0.14947682508E+03  0.00000000000E+00 0. -1.
         23    2    1    2    0    0  0.90845744164E+02 -0.37082104251E+02 -0.39957245977E+02  0.16385821182E+03  0.12499960155E+03 0.  0.
          5    1    3    3  502    0  0.96886762836E+02 -0.73473120762E+02 -0.32130193142E+02  0.12585620207E+03  0.47000000000E+01 0. -1.
         -5    1    3    3    0  502 -0.60410186715E+01  0.36391016511E+02 -0.78270528355E+01  0.38002009754E+02  0.47000000000E+01 0. -1.
        -11    1    1    2    0    0  0.53612840038E+01 -0.16772289383E+02  0.16823942620E+02  0.24353605536E+02  0.00000000000E+00 0. -1.
         11    1    1    2    0    0 -0.96207028168E+02  0.53854393634E+02  0.25573043970E+02  0.11318157341E+03  0.00000000000E+00 0.  1.
<mgrwt>
<rscale>  0 0.15137351E+03</rscale>
<asrwt>0</asrwt>
<pdfrwt beam="2">  1        3 0.22996435E-01 0.15891171E+03</pdfrwt>
<pdfrwt beam="1">  1       -3 0.23371779E-01 0.15891171E+03</pdfrwt>
<totfact> 0.70238636E+02</totfact>
</mgrwt>
</event>
<event>
 7    1  0.6419647E-006  0.2327235E+03  0.7546771E-02  0.1127500E+00
         -2   -1    0    0    0  501 -0.00000000000E+00  0.00000000000E+00  0.22753436094E+02  0.22753436094E+02  0.00000000000E+00 0.  1.
          2   -1    0    0  501    0  0.00000000000E+00 -0.00000000000E+00 -0.25479341903E+04  0.25479341903E+04  0.00000000000E+00 0. -1.
         23    2    1    2    0    0 -0.17877135180E+02 -0.19548845549E+03 -0.17571112642E+04  0.17724559921E+04  0.12499968482E+03 0.  0.
          5    1    3    3  502    0 -0.18537353275E+02 -0.11965071911E+03 -0.56114001302E+03  0.57407328127E+03  0.47000000000E+01 0.  1.
         -5    1    3    3    0  502  0.66021809468E+00 -0.75837736382E+02 -0.11959712511E+04  0.11983827109E+04  0.47000000000E+01 0.  1.
        -11    1    1    2    0    0  0.19897987957E+02  0.10524973339E+03 -0.24442959137E+03  0.26686937149E+03  0.00000000000E+00 0.  1.
         11    1    1    2    0    0 -0.20208527765E+01  0.90238722092E+02 -0.52363989865E+03  0.53136226274E+03  0.00000000000E+00 0. -1.
<mgrwt>
<rscale>  0 0.22878230E+03</rscale>
<asrwt>0</asrwt>
<pdfrwt beam="2">  1        2 0.39198982E+00 0.23272355E+03</pdfrwt>
<pdfrwt beam="1">  1       -2 0.35005291E-02 0.23272355E+03</pdfrwt>
<totfact> 0.12750225E+03</totfact>
</mgrwt>
</event>
<event>
 7    1  0.6419647E-006  0.1609219E+03  0.7546771E-02  0.1195175E+00
          4   -1    0    0  501    0  0.00000000000E+00  0.00000000000E+00  0.13351578057E+03  0.13351578057E+03  0.00000000000E+00 0. -1.
         -4   -1    0    0    0  501 -0.00000000000E+00 -0.00000000000E+00 -0.19574284676E+03  0.19574284676E+03  0.00000000000E+00 0.  1.
         23    2    1    2    0    0  0.82170174224E+02  0.59321462174E+02  0.31262522192E+02  0.16393049339E+03  0.12499955185E+03 0.  0.
          5    1    3    3  502    0  0.17103039355E+02 -0.21448067467E+02 -0.31953201298E+02  0.42374882023E+02  0.47000000000E+01 0.  1.
         -5    1    3    3    0  502  0.65067134869E+02  0.80769529641E+02  0.63215723490E+02  0.12155561137E+03  0.47000000000E+01 0.  1.
        -11    1    1    2    0    0 -0.61450521850E+02 -0.58057583221E+02 -0.11005059010E+03  0.13877313136E+03  0.00000000000E+00 0.  1.
         11    1    1    2    0    0 -0.20719652374E+02 -0.12638789529E+01  0.16561001718E+02  0.26555002588E+02  0.00000000000E+00 0. -1.
<mgrwt>
<rscale>  0 0.15439397E+03</rscale>
<asrwt>0</asrwt>
<pdfrwt beam="1">  1        4 0.20540889E-01 0.16092191E+03</pdfrwt>
<pdfrwt beam="2">  1       -4 0.30114284E-01 0.16092191E+03</pdfrwt>
<totfact> 0.38907547E+02</totfact>
</mgrwt>
</event>
<event>
 7    1  0.6419647E-006  0.1298190E+03  0.7546771E-02  0.1241390E+00
         -2   -1    0    0    0  501 -0.00000000000E+00  0.00000000000E+00  0.35936106693E+02  0.35936106693E+02  0.00000000000E+00 0.  1.
          2   -1    0    0  501    0  0.00000000000E+00 -0.00000000000E+00 -0.38188100808E+03  0.38188100808E+03  0.00000000000E+00 0. -1.
         23    2    1    2    0    0 -0.11357781559E+01  0.35014573824E+02 -0.24366468523E+03  0.27608955196E+03  0.12500260598E+03 0.  0.
          5    1    3    3  502    0  0.45636347753E+02  0.60663441936E+02 -0.13517116519E+03  0.15510017190E+03  0.47000000000E+01 0.  1.
         -5    1    3    3    0  502 -0.46772125909E+02 -0.25648868112E+02 -0.10849352004E+03  0.12098938007E+03  0.47000000000E+01 0.  1.
        -11    1    1    2    0    0  0.24969825593E+02 -0.58052288751E+02 -0.53775790051E+02  0.82978286406E+02  0.00000000000E+00 0.  1.
         11    1    1    2    0    0 -0.23834047437E+02  0.23037714926E+02 -0.48504426101E+02  0.58749276401E+02  0.00000000000E+00 0. -1.
<mgrwt>
<rscale>  0 0.12104066E+03</rscale>
<asrwt>0</asrwt>
<pdfrwt beam="2">  1        2 0.58750922E-01 0.12981896E+03</pdfrwt>
<pdfrwt beam="1">  1       -2 0.55286320E-02 0.12981896E+03</pdfrwt>
<totfact> 0.13263653E+04</totfact>
</mgrwt>
</event>
<event>
 7    1  0.6419647E-006  0.1325765E+03  0.7546771E-02  0.1235454E+00
         -2   -1    0    0    0  501 -0.00000000000E+00  0.00000000000E+00  0.78980620510E+01  0.78980620510E+01  0.00000000000E+00 0.  1.
          2   -1    0    0  501    0  0.00000000000E+00 -0.00000000000E+00 -0.19579745383E+04  0.19579745383E+04  0.00000000000E+00 0. -1.
         23    2    1    2    0    0 -0.33038912998E+02  0.38992667097E+02 -0.13836356181E+04  0.13899726840E+04  0.12232963960E+03 0.  0.
          5    1    3    3  502    0 -0.18527625212E+02  0.21655230161E+02 -0.13424052406E+04  0.13427159573E+04  0.47000000000E+01 0. -1.
         -5    1    3    3    0  502 -0.14511287786E+02  0.17337436937E+02 -0.41230377464E+02  0.47256726702E+02  0.47000000000E+01 0.  1.
        -11    1    1    2    0    0 -0.19687889364E+02  0.17735041780E+02 -0.14650346984E+03  0.14888052717E+03  0.00000000000E+00 0.  1.
         11    1    1    2    0    0  0.52726802362E+02 -0.56727708877E+02 -0.41993738836E+03  0.42701938924E+03  0.00000000000E+00 0. -1.
<mgrwt>
<rscale>  0 0.12475428E+03</rscale>
<asrwt>0</asrwt>
<pdfrwt beam="2">  1        2 0.30122690E+00 0.13257654E+03</pdfrwt>
<pdfrwt beam="1">  1       -2 0.12150863E-02 0.13257654E+03</pdfrwt>
<totfact> 0.12273586E+04</totfact>
</mgrwt>
</event>
<event>
 7    1  0.6419647E-006  0.1353727E+03  0.7546771E-02  0.1232210E+00
         -3   -1    0    0    0  501 -0.00000000000E+00  0.00000000000E+00  0.38577515034E+03  0.38577515034E+03  0.00000000000E+00 0. -1.
          3   -1    0    0  501    0  0.00000000000E+00 -0.00000000000E+00 -0.51845456879E+02  0.51845456879E+02  0.00000000000E+00 0.  1.
         23    2    1    2    0    0  0.51970927378E+02  0.61032307384E+00  0.67060847551E+02  0.15107258682E+03  0.12499767769E+03 0.  0.
          5    1    3    3  502    0  0.88852674301E+02  0.10148026943E+02  0.68365785130E+02  0.11266654676E+03  0.47000000000E+01 0.  1.
         -5    1    3    3    0  502 -0.36881746923E+02 -0.95377038694E+01 -0.13049375795E+01  0.38406040063E+02  0.47000000000E+01 0.  1.
        -11    1    1    2    0    0  0.15695919393E+02  0.18566402167E+02  0.13425075079E+03  0.13643436980E+03  0.00000000000E+00 0. -1.
         11    1    1    2    0    0 -0.67666846771E+02 -0.19176725241E+02  0.13261809511E+03  0.15011365059E+03  0.00000000000E+00 0.  1.
<mgrwt>
<rscale>  0 0.12684716E+03</rscale>
<asrwt>0</asrwt>
<pdfrwt beam="2">  1        3 0.79762244E-02 0.13537270E+03</pdfrwt>
<pdfrwt beam="1">  1       -3 0.59350021E-01 0.13537270E+03</pdfrwt>
<totfact> 0.69787836E+02</totfact>
</mgrwt>
</event>
<event>
 6    1  0.6419647E-006  0.1479294E+03  0.7546771E-02  0.1221507E+00
          1   -1    0    0  501    0  0.00000000000E+00  0.00000000000E+00  0.10431126837E+04  0.10431126837E+04  0.00000000000E+00 0. -1.
         -1   -1    0    0    0  501 -0.00000000000E+00 -0.00000000000E+00 -0.15526728510E+02  0.15526728510E+02  0.00000000000E+00 0.  1.
          5    1    1    2  502    0 -0.69622199178E+02 -0.11586640422E+02  0.67676483757E+03  0.68045149439E+03  0.47000000000E+01 0. -1.
         -5    1    1    2    0  502  0.33041448228E+02  0.11695101809E+02  0.50162279910E+02  0.61374726338E+02  0.47000000000E+01 0.  1.
        -11    1    1    2    0    0  0.44486334737E+02 -0.38502810364E+02  0.20901395219E+03  0.21713666801E+03  0.00000000000E+00 0.  1.
         11    1    1    2    0    0 -0.79055837863E+01  0.38394348977E+02  0.91644885531E+02  0.99676523477E+02  0.00000000000E+00 0. -1.
<mgrwt>
<rscale>  0 0.13409242E+03</rscale>
<asrwt>0</asrwt>
<pdfrwt beam="1">  1        1 0.16047882E+00 0.14792940E+03</pdfrwt>
<pdfrwt beam="2">  1       -1 0.23887283E-02 0.14792940E+03</pdfrwt>
<totfact> 0.76379066E+03</totfact>
</mgrwt>
</event>
<event>
 7    1  0.6419647E-006  0.2103420E+03  0.7546771E-02  0.1145119E+00
         -2   -1    0    0    0  501 -0.00000000000E+00  0.00000000000E+00  0.40885756586E+02  0.40885756586E+02  0.00000000000E+00 0.  1.
          2   -1    0    0  501    0  0.00000000000E+00 -0.00000000000E+00 -0.13204067472E+04  0.13204067472E+04  0.00000000000E+00 0. -1.
         23    2    1    2    0    0 -0.24691721179E+02  0.16735777608E+03 -0.10022578124E+04  0.10240920273E+04  0.12500180618E+03 0.  0.
          5    1    3    3  502    0  0.43863455326E+02  0.10740525626E+03 -0.64572450947E+03  0.65608088214E+03  0.47000000000E+01 0. -1.
         -5    1    3    3    0  502 -0.68555176506E+02  0.59952519819E+02 -0.35653330296E+03  0.36801114518E+03  0.47000000000E+01 0. -1.
        -11    1    1    2    0    0  0.71125310898E+01 -0.14028288948E+03 -0.14831251050E+03  0.20427059982E+03  0.00000000000E+00 0.  1.
         11    1    1    2    0    0  0.17579190089E+02 -0.27074886600E+02 -0.12895066766E+03  0.13292987662E+03  0.00000000000E+00 0. -1.
<mgrwt>
<rscale>  0 0.20557423E+03</rscale>
<asrwt>0</asrwt>
<pdfrwt beam="2">  1        2 0.20313950E+00 0.21034200E+03</pdfrwt>
<pdfrwt beam="1">  1       -2 0.62901164E-02 0.21034200E+03</pdfrwt>
<totfact> 0.23499138E+03</totfact>
</mgrwt>
</event>
<event>
 7    1  0.6419647E-006  0.3501709E+03  0.7546771E-02  0.1063514E+00
          1   -1    0    0  501    0  0.00000000000E+00  0.00000000000E+00  0.26693632617E+04  0.26693632617E+04  0.00000000000E+00 0. -1.
         -1   -1    0    0    0  501 -0.00000000000E+00 -0.00000000000E+00 -0.44956419257E+02  0.44956419257E+02  0.00000000000E+00 0.  1.
         23    2    1    2    0    0 -0.32709620308E+03  0.12208448765E+01  0.14277239709E+04  0.14700392546E+04  0.12500502579E+03 0.  0.
          5    1    3    3  502    0 -0.30710631438E+03 -0.29443242814E+02  0.13360476178E+04  0.13712135209E+04  0.47000000000E+01 0. -1.
         -5    1    3    3    0  502 -0.19989888698E+02  0.30664087691E+02  0.91676353075E+02  0.98825733679E+02  0.47000000000E+01 0. -1.
        -11    1    1    2    0    0  0.16121235844E+03  0.43700448066E+02  0.52315394807E+03  0.54917138223E+03  0.00000000000E+00 0.  1.
         11    1    1    2    0    0  0.16588384463E+03 -0.44921292942E+02  0.67352892355E+03  0.69510904420E+03  0.00000000000E+00 0. -1.
<mgrwt>
<rscale>  0 0.34781899E+03</rscale>
<asrwt>0</asrwt>
<pdfrwt beam="1">  1        1 0.41067115E+00 0.35017092E+03</pdfrwt>
<pdfrwt beam="2">  1       -1 0.69163743E-02 0.35017092E+03</pdfrwt>
<totfact> 0.12891017E+02</totfact>
</mgrwt>
</event>
<event>
 7    1  0.6419647E-006  0.3203817E+03  0.7546771E-02  0.1076751E+00
         -2   -1    0    0    0  501 -0.00000000000E+00  0.00000000000E+00  0.17899120851E+03  0.17899120851E+03  0.00000000000E+00 0.  1.
          2   -1    0    0  501    0  0.00000000000E+00 -0.00000000000E+00 -0.65774790075E+03  0.65774790075E+03  0.00000000000E+00 0. -1.
         23    2    1    2    0    0 -0.95743472875E+02 -0.27902050057E+03 -0.40893990067E+03  0.51949618275E+03  0.12500075679E+03 0.  0.
          5    1    3    3  502    0 -0.71770001412E+02 -0.27254785860E+03 -0.31724220090E+03  0.42437951454E+03  0.47000000000E+01 0.  1.
         -5    1    3    3    0  502 -0.23973471462E+02 -0.64726419649E+01 -0.91697699775E+02  0.95116668214E+02  0.47000000000E+01 0.  1.
        -11    1    1    2    0    0  0.98488042851E+02  0.18881796027E+03 -0.19329041131E+02  0.21383575131E+03  0.00000000000E+00 0.  1.
         11    1    1    2    0    0 -0.27445699763E+01  0.90202540293E+02 -0.50487750435E+02  0.10340717520E+03  0.00000000000E+00 0. -1.
<mgrwt>
<rscale>  0 0.31761699E+03</rscale>
<asrwt>0</asrwt>
<pdfrwt beam="2">  1        2 0.10119198E+00 0.32038171E+03</pdfrwt>
<pdfrwt beam="1">  1       -2 0.27537109E-01 0.32038171E+03</pdfrwt>
<totfact> 0.54226820E+02</totfact>
</mgrwt>
</event>
<event>
 7    1  0.6419647E-006  0.2551066E+03  0.7546771E-02  0.1112410E+00
         -2   -1    0    0    0  501 -0.00000000000E+00  0.00000000000E+00  0.13086566210E+03  0.13086566210E+03  0.00000000000E+00 0.  1.
          2   -1    0    0  501    0  0.00000000000E+00 -0.00000000000E+00 -0.48338747358E+03  0.48338747358E+03  0.00000000000E+00 0. -1.
         23    2    1    2    0    0  0.15137286551E+03  0.16291109154E+03 -0.12934851458E+03  0.28602523709E+03  0.12500251946E+03 0.  0.
          5    1    3    3  502    0  0.17279603050E+03  0.14245106806E+03 -0.12233121988E+03  0.25522106556E+03  0.47000000000E+01 0.  1.
         -5    1    3    3    0  502 -0.21423164992E+02  0.20460023480E+02 -0.70172947005E+01  0.30804171536E+02  0.47000000000E+01 0.  1.
        -11    1    1    2    0    0 -0.25465535278E+02 -0.69675882761E+02 -0.31299484724E+02  0.80516332937E+02  0.00000000000E+00 0.  1.
         11    1    1    2    0    0 -0.12590733023E+03 -0.93235208780E+02 -0.19187381217E+03  0.24771156565E+03  0.00000000000E+00 0. -1.
<mgrwt>
<rscale>  0 0.25142107E+03</rscale>
<asrwt>0</asrwt>
<pdfrwt beam="2">  1        2 0.74367304E-01 0.25510664E+03</pdfrwt>
<pdfrwt beam="1">  1       -2 0.20133179E-01 0.25510664E+03</pdfrwt>
<totfact> 0.13431505E+03</totfact>
</mgrwt>
</event>
<event>
 7    1  0.1162005E-005  0.1330785E+03  0.7546771E-02  0.1236088E+00
          3   -1    0    0  501    0  0.00000000000E+00  0.00000000000E+00  0.97399006779E+02  0.97399006779E+02  0.00000000000E+00 0. -1.
         -3   -1    0    0    0  501 -0.00000000000E+00 -0.00000000000E+00 -0.14124262846E+03  0.14124262846E+03  0.00000000000E+00 0.  1.
         23    2    1    2    0    0  0.24588215790E+02 -0.38475788311E+02 -0.22469170287E+02  0.13496199388E+03  0.12499963815E+03 0.  0.
          5    1    3    3  502    0 -0.15208107093E+01 -0.89973826023E+00 -0.69205543825E+02  0.69387460613E+02  0.47000000000E+01 0. -1.
         -5    1    3    3    0  502  0.26109026499E+02 -0.37576050050E+02  0.46736373539E+02  0.65574533271E+02  0.47000000000E+01 0. -1.
        -11    1    1    2    0    0 -0.19584700395E+02 -0.25588441665E+02 -0.22684361538E+02  0.39406967592E+02  0.00000000000E+00 0.  1.
         11    1    1    2    0    0 -0.50035153945E+01  0.64064229976E+02  0.13099101389E+01  0.64272673768E+02  0.00000000000E+00 0. -1.
<mgrwt>
<rscale>  0 0.12435019E+03</rscale>
<asrwt>0</asrwt>
<pdfrwt beam="1">  1        3 0.14984462E-01 0.13307846E+03</pdfrwt>
<pdfrwt beam="2">  1       -3 0.21729635E-01 0.13307846E+03</pdfrwt>
<totfact> 0.16471617E+03</totfact>
</mgrwt>
</event>
<event>
 7    1  0.6419647E-006  0.1337769E+03  0.7546771E-02  0.1235159E+00
         -2   -1    0    0    0  501 -0.00000000000E+00  0.00000000000E+00  0.35980980013E+02  0.35980980013E+02  0.00000000000E+00 0.  1.
          2   -1    0    0  501    0  0.00000000000E+00 -0.00000000000E+00 -0.38580820700E+03  0.38580820700E+03  0.00000000000E+00 0. -1.
         23    2    1    2    0    0  0.16479236248E+02 -0.44715526069E+02 -0.20399188700E+03  0.24394456254E+03  0.12500086454E+03 0.  0.
          5    1    3    3  502    0 -0.51801998128E+02 -0.35318422198E+02 -0.77295861156E+02  0.99637232541E+02  0.47000000000E+01 0.  1.
         -5    1    3    3    0  502  0.68281234375E+02 -0.93971038713E+01 -0.12669602584E+03  0.14430733000E+03  0.47000000000E+01 0.  1.
        -11    1    1    2    0    0 -0.22279446761E+01 -0.25279584008E+02 -0.17041651932E+02  0.30568595088E+02  0.00000000000E+00 0.  1.
         11    1    1    2    0    0 -0.14251291572E+02  0.69995110077E+02 -0.12879368806E+03  0.14727602938E+03  0.00000000000E+00 0. -1.
<mgrwt>
<rscale>  0 0.12494239E+03</rscale>
<asrwt>0</asrwt>
<pdfrwt beam="2">  1        2 0.59355110E-01 0.13377690E+03</pdfrwt>
<pdfrwt beam="1">  1       -2 0.55355353E-02 0.13377690E+03</pdfrwt>
<totfact> 0.13127030E+04</totfact>
</mgrwt>
</event>
<event>
 7    1  0.6419647E-006  0.1368909E+03  0.7546771E-02  0.1229641E+00
          3   -1    0    0  501    0  0.00000000000E+00  0.00000000000E+00  0.69544462254E+02  0.69544462254E+02  0.00000000000E+00 0. -1.
         -3   -1    0    0    0  501 -0.00000000000E+00 -0.00000000000E+00 -0.24438795536E+03  0.24438795536E+03  0.00000000000E+00 0.  1.
         23    2    1    2    0    0 -0.53859647209E+02  0.14598472316E+02 -0.40916122669E+02  0.14287494560E+03  0.12500057598E+03 0.  0.
          5    1    3    3  502    0 -0.73157596531E+02 -0.16958403992E+02 -0.64203547054E+02  0.98913127796E+02  0.47000000000E+01 0. -1.
         -5    1    3    3    0  502  0.19297949321E+02  0.31556876308E+02  0.23287424386E+02  0.43961817806E+02  0.47000000000E+01 0. -1.
        -11    1    1    2    0    0  0.67404808265E+02 -0.37981298913E+02 -0.11266539571E+03  0.13667288917E+03  0.00000000000E+00 0. -1.
         11    1    1    2    0    0 -0.13545161056E+02  0.23382826596E+02 -0.21261974727E+02  0.34384582838E+02  0.00000000000E+00 0.  1.
<mgrwt>
<rscale>  0 0.12853799E+03</rscale>
<asrwt>0</asrwt>
<pdfrwt beam="1">  1        3 0.10699148E-01 0.13689091E+03</pdfrwt>
<pdfrwt beam="2">  1       -3 0.37598147E-01 0.13689091E+03</pdfrwt>
<totfact> 0.10647396E+03</totfact>
</mgrwt>
</event>
<event>
 7    1  0.6419647E-006  0.1564063E+03  0.7546771E-02  0.1200890E+00
          2   -1    0    0  501    0  0.00000000000E+00  0.00000000000E+00  0.30987105950E+03  0.30987105950E+03  0.00000000000E+00 0. -1.
         -2   -1    0    0    0  501 -0.00000000000E+00 -0.00000000000E+00 -0.66824236548E+02  0.66824236548E+02  0.00000000000E+00 0.  1.
         23    2    1    2    0    0 -0.92013363238E+02  0.19276526673E+02  0.14030258436E+03  0.21011367567E+03  0.12499959212E+03 0.  0.
          5    1    3    3  502    0 -0.32377704437E+02 -0.25066791332E+02 -0.99690789229E+01  0.42404390184E+02  0.47000000000E+01 0.  1.
         -5    1    3    3    0  502 -0.59635658801E+02  0.44343318005E+02  0.15027166329E+03  0.16770928549E+03  0.47000000000E+01 0.  1.
        -11    1    1    2    0    0  0.59253673487E+02 -0.10382854602E+02  0.19098883693E+01  0.60186785634E+02  0.00000000000E+00 0.  1.
         11    1    1    2    0    0  0.32759689751E+02 -0.88936720705E+01  0.10083435022E+03  0.10639483474E+03  0.00000000000E+00 0. -1.
<mgrwt>
<rscale>  0 0.14966143E+03</rscale>
<asrwt>0</asrwt>
<pdfrwt beam="1">  1        2 0.47672470E-01 0.15640633E+03</pdfrwt>
<pdfrwt beam="2">  1       -2 0.10280652E-01 0.15640633E+03</pdfrwt>
<totfact> 0.64516318E+03</totfact>
</mgrwt>
</event>
<event>
 7    1  0.6419647E-006  0.1275750E+03  0.7546771E-02  0.1245505E+00
         -4   -1    0    0    0  501 -0.00000000000E+00  0.00000000000E+00  0.44955506772E+02  0.44955506772E+02  0.00000000000E+00 0.  1.
          4   -1    0    0  501    0  0.00000000000E+00 -0.00000000000E+00 -0.29213387048E+03  0.29213387048E+03  0.00000000000E+00 0. -1.
         23    2    1    2    0    0 -0.11978315704E+02  0.22518145996E+02 -0.18000963502E+03  0.22063282965E+03  0.12499931950E+03 0.  0.
          5    1    3    3  502    0  0.49121345588E+02  0.40117285601E+02 -0.83383102620E+02  0.10486722557E+03  0.47000000000E+01 0. -1.
         -5    1    3    3    0  502 -0.61099661292E+02 -0.17599139604E+02 -0.96626532399E+02  0.11576560408E+03  0.47000000000E+01 0. -1.
        -11    1    1    2    0    0 -0.13391214193E+02 -0.53044516546E+02 -0.45969054375E+02  0.71457674978E+02  0.00000000000E+00 0. -1.
         11    1    1    2    0    0  0.25369529897E+02  0.30526370549E+02 -0.21199674311E+02  0.44998872619E+02  0.00000000000E+00 0.  1.
<mgrwt>
<rscale>  0 0.11855180E+03</rscale>
<asrwt>0</asrwt>
<pdfrwt beam="2">  1        4 0.44943672E-01 0.12757499E+03</pdfrwt>
<pdfrwt beam="1">  1       -4 0.69162319E-02 0.12757499E+03</pdfrwt>
<totfact> 0.11033069E+03</totfact>
</mgrwt>
</event>
<event>
 7    1  0.6419647E-006  0.1419899E+03  0.7546771E-02  0.1221371E+00
          1   -1    0    0  501    0  0.00000000000E+00  0.00000000000E+00  0.18452671106E+03  0.18452671106E+03  0.00000000000E+00 0. -1.
         -1   -1    0    0    0  501 -0.00000000000E+00 -0.00000000000E+00 -0.11624351309E+03  0.11624351309E+03  0.00000000000E+00 0.  1.
         23    2    1    2    0    0 -0.53833647932E+02  0.40426804994E+02  0.11047564680E+03  0.17990554847E+03  0.12501499759E+03 0.  0.
          5    1    3    3  502    0 -0.28059865847E+02  0.71589928932E+02  0.11555266372E+03  0.13887757950E+03  0.47000000000E+01 0. -1.
         -5    1    3    3    0  502 -0.25773782085E+02 -0.31163123939E+02 -0.50770169185E+01  0.41027968965E+02  0.47000000000E+01 0. -1.
        -11    1    1    2    0    0  0.45745805429E+02  0.12500233774E+02  0.72650620463E+01  0.47976199154E+02  0.00000000000E+00 0. -1.
         11    1    1    2    0    0  0.80878425034E+01 -0.52927038768E+02 -0.49457510878E+02  0.72888476533E+02  0.00000000000E+00 0.  1.
<mgrwt>
<rscale>  0 0.13418788E+03</rscale>
<asrwt>0</asrwt>
<pdfrwt beam="1">  1        1 0.28388725E-01 0.14198992E+03</pdfrwt>
<pdfrwt beam="2">  1       -1 0.17883617E-01 0.14198992E+03</pdfrwt>
<totfact> 0.37935166E+03</totfact>
</mgrwt>
</event>
<event>
 6    1  0.6419647E-006  0.1309084E+03  0.7546771E-02  0.1241757E+00
         -2   -1    0    0    0  501 -0.00000000000E+00  0.00000000000E+00  0.12157766256E+02  0.12157766256E+02  0.00000000000E+00 0.  1.
          2   -1    0    0  501    0  0.00000000000E+00 -0.00000000000E+00 -0.15338158913E+04  0.15338158913E+04  0.00000000000E+00 0. -1.
          5    1    1    2  502    0  0.35988654780E+02 -0.58217457688E+02 -0.71311451389E+03  0.71640690642E+03  0.47000000000E+01 0. -1.
         -5    1    1    2    0  502 -0.86390305430E+01  0.61211292882E+02 -0.56124973502E+03  0.56466344869E+03  0.47000000000E+01 0.  1.
        -11    1    1    2    0    0  0.30347416711E+02 -0.17883760082E+02 -0.99379737607E+02  0.10543778650E+03  0.00000000000E+00 0. -1.
         11    1    1    2    0    0 -0.57697040948E+02  0.14889924888E+02 -0.14791413850E+03  0.15946551591E+03  0.00000000000E+00 0.  1.
<mgrwt>
<rscale>  0 0.12081573E+03</rscale>
<asrwt>0</asrwt>
<pdfrwt beam="2">  1        2 0.23597144E+00 0.13090843E+03</pdfrwt>
<pdfrwt beam="1">  1       -2 0.18704274E-02 0.13090843E+03</pdfrwt>
<totfact> 0.10862213E+04</totfact>
</mgrwt>
</event>
<event>
 7    1  0.6419647E-006  0.2556361E+03  0.7546771E-02  0.1111624E+00
          1   -1    0    0  501    0  0.00000000000E+00  0.00000000000E+00  0.11884810780E+04  0.11884810780E+04  0.00000000000E+00 0. -1.
         -1   -1    0    0    0  501 -0.00000000000E+00 -0.00000000000E+00 -0.52531280980E+02  0.52531280980E+02  0.00000000000E+00 0.  1.
         23    2    1    2    0    0 -0.19426938347E+03  0.11578276060E+03  0.56986328854E+03  0.62457506075E+03  0.11917884830E+03 0.  0.
          5    1    3    3  502    0 -0.17341479840E+03  0.13165363660E+03  0.54941853339E+03  0.59100608048E+03  0.47000000000E+01 0. -1.
         -5    1    3    3    0  502 -0.20854585072E+02 -0.15870875995E+02  0.20444755152E+02  0.33568980273E+02  0.47000000000E+01 0.  1.
        -11    1    1    2    0    0  0.19470933955E+03 -0.85971644470E+02  0.47275455712E+03  0.51845898761E+03  0.00000000000E+00 0.  1.
         11    1    1    2    0    0 -0.43995607740E+00 -0.29811116131E+02  0.93331951378E+02  0.97978310632E+02  0.00000000000E+00 0. -1.
<mgrwt>
<rscale>  0 0.25267875E+03</rscale>
<asrwt>0</asrwt>
<pdfrwt beam="1">  1        1 0.18284322E+00 0.25563615E+03</pdfrwt>
<pdfrwt beam="2">  1       -1 0.80817364E-02 0.25563615E+03</pdfrwt>
<totfact> 0.99076047E+02</totfact>
</mgrwt>
</event>
<event>
 7    1  0.6419647E-006  0.1363404E+03  0.7546771E-02  0.1230740E+00
         -1   -1    0    0    0  501 -0.00000000000E+00  0.00000000000E+00  0.95590002807E+02  0.95590002807E+02  0.00000000000E+00 0.  1.
          1   -1    0    0  501    0  0.00000000000E+00 -0.00000000000E+00 -0.17110189864E+03  0.17110189864E+03  0.00000000000E+00 0. -1.
         23    2    1    2    0    0 -0.22264729321E+01 -0.54410507874E+02 -0.85491732762E+02  0.16092716135E+03  0.12499301716E+03 0.  0.
          5    1    3    3  502    0 -0.61282334887E+02 -0.10317176156E+02 -0.43110683450E+02  0.75779876752E+02  0.47000000000E+01 0.  1.
         -5    1    3    3    0  502  0.59055861955E+02 -0.44093331718E+02 -0.42381049313E+02  0.85147284596E+02  0.47000000000E+01 0.  1.
        -11    1    1    2    0    0  0.30768930817E+02  0.59138198531E+02 -0.14082227115E+02  0.68134886436E+02  0.00000000000E+00 0. -1.
         11    1    1    2    0    0 -0.28542457885E+02 -0.47276906569E+01  0.24062064040E+02  0.37629853666E+02  0.00000000000E+00 0.  1.
<mgrwt>
<rscale>  0 0.12781100E+03</rscale>
<asrwt>0</asrwt>
<pdfrwt beam="2">  1        1 0.26323369E-01 0.13634044E+03</pdfrwt>
<pdfrwt beam="1">  1       -1 0.14706154E-01 0.13634044E+03</pdfrwt>
<totfact> 0.56632338E+03</totfact>
</mgrwt>
</event>
<event>
 6    1  0.6419647E-006  0.2698524E+03  0.7546771E-02  0.1113463E+00
         -1   -1    0    0    0  501 -0.00000000000E+00  0.00000000000E+00  0.21640528380E+03  0.21640528380E+03  0.00000000000E+00 0.  1.
          1   -1    0    0  501    0  0.00000000000E+00 -0.00000000000E+00 -0.25285923969E+03  0.25285923969E+03  0.00000000000E+00 0. -1.
          5    1    1    2  502    0  0.29031488736E+02  0.16027473790E+03 -0.64274706586E+02  0.17516890949E+03  0.47000000000E+01 0. -1.
         -5    1    1    2    0  502 -0.84309604257E+02  0.68721438920E+01  0.43962338901E+02  0.95446911806E+02  0.47000000000E+01 0.  1.
        -11    1    1    2    0    0  0.56464106198E+02 -0.74552547132E+02 -0.41977161266E+02  0.10251029041E+03  0.00000000000E+00 0. -1.
         11    1    1    2    0    0 -0.11859906775E+01 -0.92594334657E+02  0.25835573052E+02  0.96138411779E+02  0.00000000000E+00 0.  1.
<mgrwt>
<rscale>  0 0.24975060E+03</rscale>
<asrwt>0</asrwt>
<pdfrwt beam="2">  1        1 0.38901421E-01 0.26985242E+03</pdfrwt>
<pdfrwt beam="1">  1       -1 0.33293121E-01 0.26985242E+03</pdfrwt>
<totfact> 0.93036621E+02</totfact>
</mgrwt>
</event>
<event>
 6    1  0.6419647E-006  0.1922559E+03  0.7546771E-02  0.1170929E+00
          2   -1    0    0  501    0  0.00000000000E+00  0.00000000000E+00  0.31805004237E+02  0.31805004237E+02  0.00000000000E+00 0. -1.
         -2   -1    0    0    0  501 -0.00000000000E+00 -0.00000000000E+00 -0.85491372656E+03  0.85491372656E+03  0.00000000000E+00 0.  1.
          5    1    1    2  502    0  0.42977816047E+02 -0.80796923427E+02 -0.94687894258E+02  0.13176920288E+03  0.47000000000E+01 0. -1.
         -5    1    1    2    0  502 -0.13309468515E+02 -0.51840125053E+01 -0.38106463632E+03  0.38136119754E+03  0.47000000000E+01 0.  1.
        -11    1    1    2    0    0 -0.49018484460E+02  0.84530336565E+02 -0.33838393529E+03  0.35220999032E+03  0.00000000000E+00 0.  1.
         11    1    1    2    0    0  0.19350136928E+02  0.14505993674E+01 -0.89722564485E+01  0.21378340053E+02  0.00000000000E+00 0. -1.
<mgrwt>
<rscale>  0 0.17680793E+03</rscale>
<asrwt>0</asrwt>
<pdfrwt beam="1">  1        2 0.48930774E-02 0.19225592E+03</pdfrwt>
<pdfrwt beam="2">  1       -2 0.13152519E+00 0.19225592E+03</pdfrwt>
<totfact> 0.70827535E+02</totfact>
</mgrwt>
</event>
<event>
 7    1  0.1115312E-005  0.1404931E+03  0.7546771E-02  0.1224053E+00
          1   -1    0    0  501    0  0.00000000000E+00  0.00000000000E+00  0.50152012244E+02  0.50152012244E+02  0.00000000000E+00 0. -1.
         -1   -1    0    0    0  501 -0.00000000000E+00 -0.00000000000E+00 -0.33295550378E+03  0.33295550378E+03  0.00000000000E+00 0.  1.
         23    2    1    2    0    0  0.31303385955E+02  0.55978434005E+02 -0.11209656121E+03  0.17973298101E+03  0.12499927353E+03 0.  0.
          5    1    3    3  502    0 -0.34049399912E+01  0.17281175406E+02 -0.12471077707E+03  0.12603610815E+03  0.47000000000E+01 0. -1.
         -5    1    3    3    0  502  0.34708325947E+02  0.38697258599E+02  0.12614215863E+02  0.53696872860E+02  0.47000000000E+01 0. -1.
        -11    1    1    2    0    0 -0.15153870309E+02 -0.62400080537E+02 -0.17419042284E+03  0.18564943643E+03  0.00000000000E+00 0.  1.
         11    1    1    2    0    0 -0.16149515646E+02  0.64216465320E+01  0.34834925146E+01  0.17725098586E+02  0.00000000000E+00 0. -1.
<mgrwt>
<rscale>  0 0.13232035E+03</rscale>
<asrwt>0</asrwt>
<pdfrwt beam="1">  1        1 0.77156941E-02 0.14049308E+03</pdfrwt>
<pdfrwt beam="2">  1       -1 0.51223924E-01 0.14049308E+03</pdfrwt>
<totfact> 0.34557629E+03</totfact>
</mgrwt>
</event>
<event>
 7    1  0.6419647E-006  0.2251473E+03  0.7546771E-02  0.1133393E+00
          2   -1    0    0  501    0  0.00000000000E+00  0.00000000000E+00  0.29993661025E+03  0.29993661025E+03  0.00000000000E+00 0. -1.
         -2   -1    0    0    0  501 -0.00000000000E+00 -0.00000000000E+00 -0.16511573663E+03  0.16511573663E+03  0.00000000000E+00 0.  1.
         23    2    1    2    0    0 -0.80202315222E+02  0.16921230101E+03  0.12403001574E+03  0.25705012416E+03  0.12500442930E+03 0.  0.
          5    1    3    3  502    0  0.99919001284E+01  0.64713272343E+02  0.95703153215E+02  0.11605528519E+03  0.47000000000E+01 0.  1.
         -5    1    3    3    0  502 -0.90194215350E+02  0.10449902867E+03  0.28326862526E+02  0.14099483897E+03  0.47000000000E+01 0.  1.
        -11    1    1    2    0    0  0.53626676335E+02 -0.25318639270E+02 -0.10210387744E+02  0.60175625689E+02  0.00000000000E+00 0.  1.
         11    1    1    2    0    0  0.26575638887E+02 -0.14389366175E+03  0.21001245626E+02  0.14782659703E+03  0.00000000000E+00 0. -1.
<mgrwt>
<rscale>  0 0.22065857E+03</rscale>
<asrwt>0</asrwt>
<pdfrwt beam="1">  1        2 0.46144094E-01 0.22514733E+03</pdfrwt>
<pdfrwt beam="2">  1       -2 0.25402421E-01 0.22514733E+03</pdfrwt>
<totfact> 0.15037910E+03</totfact>
</mgrwt>
</event>
<event>
 6    1  0.6419647E-006  0.1867099E+03  0.7546771E-02  0.1178646E+00
         -1   -1    0    0    0  501 -0.00000000000E+00  0.00000000000E+00  0.49626196633E+02  0.49626196633E+02  0.00000000000E+00 0.  1.
          1   -1    0    0  501    0  0.00000000000E+00 -0.00000000000E+00 -0.49621922247E+03  0.49621922247E+03  0.00000000000E+00 0. -1.
          5    1    1    2  502    0  0.88535100141E+02  0.61486352238E+02 -0.29150406629E+03  0.31083073550E+03  0.47000000000E+01 0. -1.
         -5    1    1    2    0  502 -0.36840385479E+01 -0.32417235119E+02  0.26977093626E+01  0.33072902936E+02  0.47000000000E+01 0.  1.
        -11    1    1    2    0    0  0.63452990642E+01 -0.34093774654E+02 -0.41940682454E+02  0.54421219529E+02  0.00000000000E+00 0.  1.
         11    1    1    2    0    0 -0.91196360657E+02  0.50246575355E+01 -0.11584598646E+03  0.14752056114E+03  0.00000000000E+00 0. -1.
<mgrwt>
<rscale>  0 0.16923689E+03</rscale>
<asrwt>0</asrwt>
<pdfrwt beam="2">  1        1 0.76341417E-01 0.18670994E+03</pdfrwt>
<pdfrwt beam="1">  1       -1 0.76347997E-02 0.18670994E+03</pdfrwt>
<totfact> 0.41423231E+03</totfact>
</mgrwt>
</event>
<event>
 7    1  0.6419647E-006  0.1810187E+03  0.7546771E-02  0.1172753E+00
         -3   -1    0    0    0  501 -0.00000000000E+00  0.00000000000E+00  0.13221273344E+03  0.13221273344E+03  0.00000000000E+00 0.  1.
          3   -1    0    0  501    0  0.00000000000E+00 -0.00000000000E+00 -0.22897519374E+03  0.22897519374E+03  0.00000000000E+00 0. -1.
         23    2    1    2    0    0 -0.26767855041E+02 -0.12816299884E+03 -0.92042436147E+02  0.20307534964E+03  0.12500206096E+03 0.  0.
          5    1    3    3  502    0 -0.22626429457E+02 -0.11017660713E+02 -0.81341864769E+02  0.85275630291E+02  0.47000000000E+01 0.  1.
         -5    1    3    3    0  502 -0.41414255840E+01 -0.11714533813E+03 -0.10700571378E+02  0.11779971935E+03  0.47000000000E+01 0.  1.
        -11    1    1    2    0    0  0.38234373951E+02  0.12356447716E+03 -0.27465437381E+02  0.13222858094E+03  0.00000000000E+00 0. -1.
         11    1    1    2    0    0 -0.11466518910E+02  0.45985216803E+01  0.22745413223E+02  0.25883996605E+02  0.00000000000E+00 0.  1.
<mgrwt>
<rscale>  0 0.17497898E+03</rscale>
<asrwt>0</asrwt>
<pdfrwt beam="2">  1        3 0.35226953E-01 0.18101875E+03</pdfrwt>
<pdfrwt beam="1">  1       -3 0.20340421E-01 0.18101875E+03</pdfrwt>
<totfact> 0.41673151E+02</totfact>
</mgrwt>
</event>
<event>
 7    1  0.6419647E-006  0.1295685E+03  0.7546771E-02  0.1240775E+00
         -2   -1    0    0    0  501 -0.00000000000E+00  0.00000000000E+00  0.52795761487E+02  0.52795761487E+02  0.00000000000E+00 0. -1.
          2   -1    0    0  501    0  0.00000000000E+00 -0.00000000000E+00 -0.24954714700E+03  0.24954714700E+03  0.00000000000E+00 0.  1.
         23    2    1    2    0    0 -0.30006628306E+02  0.16102688126E+02 -0.10717297529E+03  0.16814885135E+03  0.12501318039E+03 0.  0.
          5    1    3    3  502    0  0.58434184640E+01 -0.51299001114E+02 -0.32113871694E+02  0.60984619453E+02  0.47000000000E+01 0.  1.
         -5    1    3    3    0  502 -0.35850046770E+02  0.67401689240E+02 -0.75059103595E+02  0.10716423190E+03  0.47000000000E+01 0.  1.
        -11    1    1    2    0    0  0.39799270588E+02 -0.19437792573E+02 -0.10594565638E+03  0.11483158026E+03  0.00000000000E+00 0.  1.
         11    1    1    2    0    0 -0.97926422820E+01  0.33351044470E+01  0.16367246148E+02  0.19362476882E+02  0.00000000000E+00 0. -1.
<mgrwt>
<rscale>  0 0.12141888E+03</rscale>
<asrwt>0</asrwt>
<pdfrwt beam="2">  1        2 0.38391868E-01 0.12956847E+03</pdfrwt>
<pdfrwt beam="1">  1       -2 0.81224249E-02 0.12956847E+03</pdfrwt>
<totfact> 0.11578520E+04</totfact>
</mgrwt>
</event>
<event>
 7    1  0.6419647E-006  0.1360152E+03  0.7546771E-02  0.1231343E+00
         -2   -1    0    0    0  501 -0.00000000000E+00  0.00000000000E+00  0.29130591522E+02  0.29130591522E+02  0.00000000000E+00 0.  1.
          2   -1    0    0  501    0  0.00000000000E+00 -0.00000000000E+00 -0.56017091630E+03  0.56017091630E+03  0.00000000000E+00 0. -1.
         23    2    1    2    0    0  0.31121175609E+02  0.43661564159E+02 -0.39400642198E+03  0.41682273403E+03  0.12500108514E+03 0.  0.
          5    1    3    3  502    0 -0.46745382875E+02  0.29570815249E+02 -0.13534832723E+03  0.14629020343E+03  0.47000000000E+01 0.  1.
         -5    1    3    3    0  502  0.77866558484E+02  0.14090748910E+02 -0.25865809475E+03  0.27053253061E+03  0.47000000000E+01 0.  1.
        -11    1    1    2    0    0 -0.15236807772E+01  0.27525069345E+02 -0.33188607255E+02  0.43144347220E+02  0.00000000000E+00 0.  1.
         11    1    1    2    0    0 -0.29597494832E+02 -0.71186633503E+02 -0.10384529554E+03  0.12933442657E+03  0.00000000000E+00 0. -1.
<mgrwt>
<rscale>  0 0.12741470E+03</rscale>
<asrwt>0</asrwt>
<pdfrwt beam="2">  1        2 0.86180135E-01 0.13601519E+03</pdfrwt>
<pdfrwt beam="1">  1       -2 0.44816298E-02 0.13601519E+03</pdfrwt>
<totfact> 0.12026116E+04</totfact>
</mgrwt>
</event>
<event>
 7    1  0.6419647E-006  0.1533161E+03  0.7546771E-02  0.1199433E+00
         -1   -1    0    0    0  501 -0.00000000000E+00  0.00000000000E+00  0.27528106649E+03  0.27528106649E+03  0.00000000000E+00 0.  1.
          1   -1    0    0  501    0  0.00000000000E+00 -0.00000000000E+00 -0.81273148803E+02  0.81273148803E+02  0.00000000000E+00 0. -1.
         23    2    1    2    0    0  0.40729324975E+00  0.88771781180E+02  0.78774120132E+02  0.17236932720E+03  0.12500091174E+03 0.  0.
          5    1    3    3  502    0  0.12266116028E+02 -0.30581265006E+02  0.17228404355E+02  0.37477717225E+02  0.47000000000E+01 0. -1.
         -5    1    3    3    0  502 -0.11858822779E+02  0.11935304619E+03  0.61545715777E+02  0.13489160998E+03  0.47000000000E+01 0. -1.
        -11    1    1    2    0    0  0.44121102016E+02 -0.22421396208E+02  0.85758681376E+02  0.99014857887E+02  0.00000000000E+00 0.  1.
         11    1    1    2    0    0 -0.44528395266E+02 -0.66350384972E+02  0.29475116177E+02  0.85170030201E+02  0.00000000000E+00 0. -1.
<mgrwt>
<rscale>  0 0.15084930E+03</rscale>
<asrwt>0</asrwt>
<pdfrwt beam="2">  1        1 0.12503561E-01 0.15331609E+03</pdfrwt>
<pdfrwt beam="1">  1       -1 0.42350933E-01 0.15331609E+03</pdfrwt>
<totfact> 0.25750393E+03</totfact>
</mgrwt>
</event>
<event>
 6    1  0.6419647E-006  0.1678699E+03  0.7546771E-02  0.1207258E+00
          2   -1    0    0  501    0  0.00000000000E+00  0.00000000000E+00  0.41972067205E+02  0.41972067205E+02  0.00000000000E+00 0. -1.
         -2   -1    0    0    0  501 -0.00000000000E+00 -0.00000000000E+00 -0.41819521340E+03  0.41819521340E+03  0.00000000000E+00 0.  1.
          5    1    1    2  502    0  0.26544855381E+02  0.79264479203E+02 -0.77390957757E+02  0.11401288240E+03  0.47000000000E+01 0. -1.
         -5    1    1    2    0  502 -0.86686015757E+01 -0.80732139151E+02 -0.12214073308E+03  0.14674219442E+03  0.47000000000E+01 0.  1.
        -11    1    1    2    0    0 -0.39748805043E+02 -0.25947721666E+02 -0.14341359137E+03  0.15106525065E+03  0.00000000000E+00 0.  1.
         11    1    1    2    0    0  0.21872551237E+02  0.27415381614E+02 -0.33277863981E+02  0.48346953138E+02  0.00000000000E+00 0. -1.
<mgrwt>
<rscale>  0 0.14460921E+03</rscale>
<asrwt>0</asrwt>
<pdfrwt beam="1">  1        2 0.64572411E-02 0.16786993E+03</pdfrwt>
<pdfrwt beam="2">  1       -2 0.64337725E-01 0.16786993E+03</pdfrwt>
<totfact> 0.24913502E+03</totfact>
</mgrwt>
</event>
<event>
 6    1  0.6419647E-006  0.2769327E+03  0.7546771E-02  0.1118292E+00
         -2   -1    0    0    0  501 -0.00000000000E+00  0.00000000000E+00  0.61455343780E+03  0.61455343780E+03  0.00000000000E+00 0.  1.
          2   -1    0    0  501    0  0.00000000000E+00 -0.00000000000E+00 -0.78948693569E+02  0.78948693569E+02  0.00000000000E+00 0. -1.
          5    1    1    2  502    0  0.22185898266E+02  0.15843780721E+03  0.14779107466E+03  0.21785096874E+03  0.47000000000E+01 0. -1.
         -5    1    1    2    0  502 -0.93405710260E+02 -0.43289789245E+02  0.21625912109E+03  0.23955944986E+03  0.47000000000E+01 0.  1.
        -11    1    1    2    0    0  0.98341295113E+01  0.11152511399E+02  0.63514567134E+00  0.14882608097E+02  0.00000000000E+00 0. -1.
         11    1    1    2    0    0  0.61385682483E+02 -0.12630052936E+03  0.17091940282E+03  0.22120910467E+03  0.00000000000E+00 0.  1.
<mgrwt>
<rscale>  0 0.24226596E+03</rscale>
<asrwt>0</asrwt>
<pdfrwt beam="2">  1        2 0.12145953E-01 0.27693275E+03</pdfrwt>
<pdfrwt beam="1">  1       -2 0.94546679E-01 0.27693275E+03</pdfrwt>
<totfact> 0.49215685E+02</totfact>
</mgrwt>
</event>
<event>
 7    1  0.6419647E-006  0.1412582E+03  0.7546771E-02  0.1222984E+00
         -3   -1    0    0    0  501 -0.00000000000E+00  0.00000000000E+00  0.16941307348E+02  0.16941307348E+02  0.00000000000E+00 0.  1.
          3   -1    0    0  501    0  0.00000000000E+00 -0.00000000000E+00 -0.94917641450E+03  0.94917641450E+03  0.00000000000E+00 0. -1.
         23    2    1    2    0    0  0.44211118285E+01 -0.65681702147E+02 -0.56663784430E+03  0.58397972547E+03  0.12498096231E+03 0.  0.
          5    1    3    3  502    0  0.19915179594E+02  0.11931643910E+02 -0.38578388150E+03  0.38651037726E+03  0.47000000000E+01 0.  1.
         -5    1    3    3    0  502 -0.15494067765E+02 -0.77613346058E+02 -0.18085396280E+03  0.19746934821E+03  0.47000000000E+01 0.  1.
        -11    1    1    2    0    0 -0.19855380924E+02  0.63174534880E+02 -0.35918378258E+03  0.36523724848E+03  0.00000000000E+00 0. -1.
         11    1    1    2    0    0  0.15434269095E+02  0.25071672677E+01 -0.64134802696E+01  0.16900747894E+02  0.00000000000E+00 0.  1.
<mgrwt>
<rscale>  0 0.13306016E+03</rscale>
<asrwt>0</asrwt>
<pdfrwt beam="2">  1        3 0.14602709E+00 0.14125818E+03</pdfrwt>
<pdfrwt beam="1">  1       -3 0.26063559E-02 0.14125818E+03</pdfrwt>
<totfact> 0.54479581E+02</totfact>
</mgrwt>
</event>
<event>
 7    1  0.6419647E-006  0.1604736E+03  0.7546771E-02  0.1195781E+00
          1   -1    0    0  501    0  0.00000000000E+00  0.00000000000E+00  0.95811807615E+03  0.95811807615E+03  0.00000000000E+00 0. -1.
         -1   -1    0    0    0  501 -0.00000000000E+00 -0.00000000000E+00 -0.25873385434E+02  0.25873385434E+02  0.00000000000E+00 0.  1.
         23    2    1    2    0    0  0.94189283226E+01 -0.10019194701E+03  0.66726261639E+03  0.68628796823E+03  0.12499853456E+03 0.  0.
          5    1    3    3  502    0 -0.27903895653E+02 -0.51292344383E+01  0.38514896596E+03  0.38622111856E+03  0.47000000000E+01 0. -1.
         -5    1    3    3    0  502  0.37322823975E+02 -0.95062712572E+02  0.28211365043E+03  0.30006684967E+03  0.47000000000E+01 0. -1.
        -11    1    1    2    0    0 -0.45739533691E+02  0.47447747012E+02  0.91381254622E+02  0.11266733038E+03  0.00000000000E+00 0.  1.
         11    1    1    2    0    0  0.36320605368E+02  0.52744199998E+02  0.17360081970E+03  0.18503616298E+03  0.00000000000E+00 0. -1.
<mgrwt>
<rscale>  0 0.15388275E+03</rscale>
<asrwt>0</asrwt>
<pdfrwt beam="1">  1        1 0.14740275E+00 0.16047360E+03</pdfrwt>
<pdfrwt beam="2">  1       -1 0.39805216E-02 0.16047360E+03</pdfrwt>
<totfact> 0.41941530E+03</totfact>
</mgrwt>
</event>
<event>
 7    1  0.6419647E-006  0.1700801E+03  0.7546771E-02  0.1184570E+00
          1   -1    0    0  501    0  0.00000000000E+00  0.00000000000E+00  0.17632119645E+04  0.17632119645E+04  0.00000000000E+00 0. -1.
         -1   -1    0    0    0  501 -0.00000000000E+00 -0.00000000000E+00 -0.21380526487E+02  0.21380526487E+02  0.00000000000E+00 0.  1.
         23    2    1    2    0    0  0.51054919158E+01  0.11522466271E+03  0.14322330604E+04  0.14422963512E+04  0.12499774553E+03 0.  0.
          5    1    3    3  502    0 -0.31249832685E+02  0.11759169604E+03  0.12762834077E+04  0.12820786972E+04  0.47000000000E+01 0. -1.
         -5    1    3    3    0  502  0.36355324600E+02 -0.23670333357E+01  0.15594965275E+03  0.16021765404E+03  0.47000000000E+01 0. -1.
        -11    1    1    2    0    0 -0.16454577950E+02 -0.42020966467E+02  0.32884520132E+02  0.55838216506E+02  0.00000000000E+00 0.  1.
         11    1    1    2    0    0  0.11349086034E+02 -0.73203696240E+02  0.27671385741E+03  0.28645792323E+03  0.00000000000E+00 0. -1.
<mgrwt>
<rscale>  0 0.16371066E+03</rscale>
<asrwt>0</asrwt>
<pdfrwt beam="1">  1        1 0.27126327E+00 0.17008006E+03</pdfrwt>
<pdfrwt beam="2">  1       -1 0.32893131E-02 0.17008006E+03</pdfrwt>
<totfact> 0.15885032E+03</totfact>
</mgrwt>
</event>
<event>
 7    1  0.6419647E-006  0.1264606E+03  0.7546771E-02  0.1246847E+00
         -2   -1    0    0    0  501 -0.00000000000E+00  0.00000000000E+00  0.24521481342E+03  0.24521481342E+03  0.00000000000E+00 0.  1.
          2   -1    0    0  501    0  0.00000000000E+00 -0.00000000000E+00 -0.61695639006E+02  0.61695639006E+02  0.00000000000E+00 0. -1.
         23    2    1    2    0    0 -0.19028896239E+02  0.25294932968E+01  0.36134017946E+02  0.13152167413E+03  0.12499514504E+03 0.  0.
          5    1    3    3  502    0 -0.72336217127E+02 -0.17999881954E+01  0.24922660311E+02  0.76674619417E+02  0.47000000000E+01 0.  1.
         -5    1    3    3    0  502  0.53307320888E+02  0.43294814922E+01  0.11211357635E+02  0.54847054709E+02  0.47000000000E+01 0.  1.
        -11    1    1    2    0    0  0.66674395867E+01  0.34823403278E+02  0.12540363153E+03  0.13031958781E+03  0.00000000000E+00 0.  1.
         11    1    1    2    0    0  0.12361456652E+02 -0.37352896575E+02  0.21981524945E+02  0.45069190497E+02  0.00000000000E+00 0. -1.
<mgrwt>
<rscale>  0 0.11775531E+03</rscale>
<asrwt>0</asrwt>
<pdfrwt beam="2">  1        2 0.94916369E-02 0.12646060E+03</pdfrwt>
<pdfrwt beam="1">  1       -2 0.37725355E-01 0.12646060E+03</pdfrwt>
<totfact> 0.43258628E+03</totfact>
</mgrwt>
</event>
<event>
 6    1  0.6419647E-006  0.1687234E+03  0.7546771E-02  0.1202229E+00
          1   -1    0    0  501    0  0.00000000000E+00  0.00000000000E+00  0.11339380164E+04  0.11339380164E+04  0.00000000000E+00 0. -1.
         -1   -1    0    0    0  501 -0.00000000000E+00 -0.00000000000E+00 -0.23431554737E+02  0.23431554737E+02  0.00000000000E+00 0.  1.
          5    1    1    2  502    0  0.79020549693E+02  0.19521019991E+02  0.89797459976E+03  0.90166833664E+03  0.47000000000E+01 0. -1.
         -5    1    1    2    0  502 -0.39708318742E+02 -0.52988950765E+01  0.69070962677E+02  0.79985728424E+02  0.47000000000E+01 0.  1.
        -11    1    1    2    0    0 -0.16388931737E+02  0.38351525125E+02  0.79712419952E+02  0.89963917531E+02  0.00000000000E+00 0.  1.
         11    1    1    2    0    0 -0.22923299214E+02 -0.52573650039E+02  0.63748479239E+02  0.85751588502E+02  0.00000000000E+00 0. -1.
<mgrwt>
<rscale>  0 0.14857964E+03</rscale>
<asrwt>0</asrwt>
<pdfrwt beam="1">  1        1 0.17445196E+00 0.16872339E+03</pdfrwt>
<pdfrwt beam="2">  1       -1 0.36048555E-02 0.16872339E+03</pdfrwt>
<totfact> 0.36246241E+03</totfact>
</mgrwt>
</event>
<event>
 6    1  0.6419647E-006  0.2274501E+03  0.7546771E-02  0.1162948E+00
         -2   -1    0    0    0  501 -0.00000000000E+00  0.00000000000E+00  0.17460001907E+03  0.17460001907E+03  0.00000000000E+00 0.  1.
          2   -1    0    0  501    0  0.00000000000E+00 -0.00000000000E+00 -0.18149439935E+03  0.18149439935E+03  0.00000000000E+00 0. -1.
          5    1    1    2  502    0 -0.33365388599E+02  0.89912971721E+01 -0.13305246529E+03  0.13754686874E+03  0.47000000000E+01 0. -1.
         -5    1    1    2    0  502  0.73830237453E+02 -0.25488223069E+02  0.62988576865E+02  0.10045000893E+03  0.47000000000E+01 0.  1.
        -11    1    1    2    0    0 -0.34776563666E+02  0.45933749281E+02  0.12088798347E+02  0.58868138657E+02  0.00000000000E+00 0.  1.
         11    1    1    2    0    0 -0.56882851888E+01 -0.29436823384E+02  0.51080709800E+02  0.59229402099E+02  0.00000000000E+00 0. -1.
<mgrwt>
<rscale>  0 0.18510953E+03</rscale>
<asrwt>0</asrwt>
<pdfrwt beam="2">  1        2 0.27922215E-01 0.22745014E+03</pdfrwt>
<pdfrwt beam="1">  1       -2 0.26861541E-01 0.22745014E+03</pdfrwt>
<totfact> 0.23521796E+03</totfact>
</mgrwt>
</event>
<event>
 7    1  0.6419647E-006  0.1660780E+03  0.7546771E-02  0.1189199E+00
         -2   -1    0    0    0  501 -0.00000000000E+00  0.00000000000E+00  0.28450181672E+03  0.28450181672E+03  0.00000000000E+00 0. -1.
          2   -1    0    0  501    0  0.00000000000E+00 -0.00000000000E+00 -0.10716559320E+03  0.10716559320E+03  0.00000000000E+00 0.  1.
         23    2    1    2    0    0  0.55709446847E+02 -0.94087468293E+02  0.16413734431E+01  0.16608613961E+03  0.12500366997E+03 0.  0.
          5    1    3    3  502    0  0.18887764211E+02  0.12356366340E+02 -0.39787040705E+02  0.45983975840E+02  0.47000000000E+01 0.  1.
         -5    1    3    3    0  502  0.36821682635E+02 -0.10644383463E+03  0.41428414148E+02  0.12010216377E+03  0.47000000000E+01 0.  1.
        -11    1    1    2    0    0 -0.76339816452E+02  0.57590987822E+02  0.95824368796E+02  0.13537650871E+03  0.00000000000E+00 0.  1.
         11    1    1    2    0    0  0.20630369605E+02  0.36496480471E+02  0.79870481275E+02  0.90204761604E+02  0.00000000000E+00 0. -1.
<mgrwt>
<rscale>  0 0.15955571E+03</rscale>
<asrwt>0</asrwt>
<pdfrwt beam="2">  1        2 0.16487015E-01 0.16607803E+03</pdfrwt>
<pdfrwt beam="1">  1       -2 0.43769510E-01 0.16607803E+03</pdfrwt>
<totfact> 0.17079952E+03</totfact>
</mgrwt>
</event>
<event>
 7    1  0.6419647E-006  0.1473115E+03  0.7546771E-02  0.1204782E+00
         -2   -1    0    0    0  501 -0.00000000000E+00  0.00000000000E+00  0.40646073499E+02  0.40646073499E+02  0.00000000000E+00 0.  1.
          2   -1    0    0  501    0  0.00000000000E+00 -0.00000000000E+00 -0.54931709925E+03  0.54931709925E+03  0.00000000000E+00 0. -1.
         23    2    1    2    0    0  0.72044136102E+02 -0.14371006588E+01 -0.31643976645E+03  0.34777827300E+03  0.12499271408E+03 0.  0.
          5    1    3    3  502    0 -0.25328535037E+02  0.10475889243E+01 -0.16933196097E+03  0.17128349347E+03  0.47000000000E+01 0.  1.
         -5    1    3    3    0  502  0.97372671139E+02 -0.24846895830E+01 -0.14710780549E+03  0.17649477953E+03  0.47000000000E+01 0.  1.
        -11    1    1    2    0    0  0.28471691315E+02  0.30007817109E+02 -0.40024148594E+02  0.57559002464E+02  0.00000000000E+00 0. -1.
         11    1    1    2    0    0 -0.10051582742E+03 -0.28570716450E+02 -0.15220711070E+03  0.18462589729E+03  0.00000000000E+00 0.  1.
<mgrwt>
<rscale>  0 0.14654670E+03</rscale>
<asrwt>0</asrwt>
<pdfrwt beam="2">  1        2 0.84510319E-01 0.14731147E+03</pdfrwt>
<pdfrwt beam="1">  1       -2 0.62532423E-02 0.14731147E+03</pdfrwt>
<totfact> 0.74775134E+03</totfact>
</mgrwt>
</event>
<event>
 7    1  0.6419647E-006  0.1326679E+03  0.7546771E-02  0.1237049E+00
          3   -1    0    0  501    0  0.00000000000E+00  0.00000000000E+00  0.71731472315E+03  0.71731472315E+03  0.00000000000E+00 0. -1.
         -3   -1    0    0    0  501 -0.00000000000E+00 -0.00000000000E+00 -0.23220830446E+02  0.23220830446E+02  0.00000000000E+00 0.  1.
         23    2    1    2    0    0  0.15355660352E+02  0.41743207673E+02  0.54407367540E+03  0.56001512231E+03  0.12498992460E+03 0.  0.
          5    1    3    3  502    0 -0.56227689964E+01  0.40499229203E+02  0.46991633703E+02  0.62466845089E+02  0.47000000000E+01 0. -1.
         -5    1    3    3    0  502  0.20978429349E+02  0.12439784701E+01  0.49708204170E+03  0.49754827722E+03  0.47000000000E+01 0. -1.
        -11    1    1    2    0    0 -0.12979817386E+02  0.25360965826E+02  0.22129768597E+02  0.36074657381E+02  0.00000000000E+00 0.  1.
         11    1    1    2    0    0 -0.23758429665E+01 -0.67104173499E+02  0.12789044871E+03  0.14444577391E+03  0.00000000000E+00 0. -1.
<mgrwt>
<rscale>  0 0.12374150E+03</rscale>
<asrwt>0</asrwt>
<pdfrwt beam="1">  1        3 0.11035609E+00 0.13266790E+03</pdfrwt>
<pdfrwt beam="2">  1       -3 0.35724360E-02 0.13266790E+03</pdfrwt>
<totfact> 0.64669542E+02</totfact>
</mgrwt>
</event>
<event>
 7    1  0.6419647E-006  0.1385256E+03  0.7546771E-02  0.1227076E+00
          1   -1    0    0  501    0  0.00000000000E+00  0.00000000000E+00  0.10740768983E+04  0.10740768983E+04  0.00000000000E+00 0. -1.
         -1   -1    0    0    0  501 -0.00000000000E+00 -0.00000000000E+00 -0.17091397020E+02  0.17091397020E+02  0.00000000000E+00 0.  1.
         23    2    1    2    0    0 -0.58712479076E+02  0.10651858566E+02  0.80597813669E+03  0.81779587922E+03  0.12501490299E+03 0.  0.
          5    1    3    3  502    0  0.24584007276E+02 -0.22796225009E+02  0.42550315632E+03  0.42684782689E+03  0.47000000000E+01 0.  1.
         -5    1    3    3    0  502 -0.83296486353E+02  0.33448083575E+02  0.38047498037E+03  0.39094805233E+03  0.47000000000E+01 0.  1.
        -11    1    1    2    0    0  0.39860355995E+01 -0.13229556683E+02 -0.24749322017E+01  0.14036913451E+02  0.00000000000E+00 0.  1.
         11    1    1    2    0    0  0.54726443477E+02  0.25776981173E+01  0.25348229676E+03  0.25933550261E+03  0.00000000000E+00 0. -1.
<mgrwt>
<rscale>  0 0.13025654E+03</rscale>
<asrwt>0</asrwt>
<pdfrwt beam="1">  1        1 0.16524255E+00 0.13852561E+03</pdfrwt>
<pdfrwt beam="2">  1       -1 0.26294465E-02 0.13852561E+03</pdfrwt>
<totfact> 0.62944616E+03</totfact>
</mgrwt>
</event>
<event>
 7    1  0.6419647E-006  0.1591543E+03  0.7546771E-02  0.1195936E+00
         -1   -1    0    0    0  501 -0.00000000000E+00  0.00000000000E+00  0.70191745694E+02  0.70191745694E+02  0.00000000000E+00 0.  1.
          1   -1    0    0  501    0  0.00000000000E+00 -0.00000000000E+00 -0.31837721742E+03  0.31837721742E+03  0.00000000000E+00 0. -1.
         23    2    1    2    0    0 -0.49797074762E+02 -0.84995850586E+02 -0.14995674683E+03  0.21867121924E+03  0.12500413167E+03 0.  0.
          5    1    3    3  502    0 -0.90307605474E+02 -0.67024904723E+02 -0.12233143922E+03  0.16623739796E+03  0.47000000000E+01 0.  1.
         -5    1    3    3    0  502  0.40510530711E+02 -0.17970945863E+02 -0.27625307608E+02  0.52433821281E+02  0.47000000000E+01 0.  1.
        -11    1    1    2    0    0  0.65099870925E+02  0.76795683952E+02 -0.38647820975E+02  0.10783888137E+03  0.00000000000E+00 0.  1.
         11    1    1    2    0    0 -0.15302796163E+02  0.82001666337E+01 -0.59580903921E+02  0.62058862504E+02  0.00000000000E+00 0. -1.
<mgrwt>
<rscale>  0 0.15375264E+03</rscale>
<asrwt>0</asrwt>
<pdfrwt beam="2">  1        1 0.48981110E-01 0.15915425E+03</pdfrwt>
<pdfrwt beam="1">  1       -1 0.10798730E-01 0.15915425E+03</pdfrwt>
<totfact> 0.42626128E+03</totfact>
</mgrwt>
</event>
<event>
 7    1  0.6419647E-006  0.1932254E+03  0.7546771E-02  0.1159948E+00
          2   -1    0    0  501    0  0.00000000000E+00  0.00000000000E+00  0.29883886097E+03  0.29883886097E+03  0.00000000000E+00 0. -1.
         -2   -1    0    0    0  501 -0.00000000000E+00 -0.00000000000E+00 -0.13475470816E+03  0.13475470816E+03  0.00000000000E+00 0.  1.
         23    2    1    2    0    0 -0.52229727390E+02 -0.13777817571E+03  0.17233283078E+03  0.25891051434E+03  0.12500111899E+03 0.  0.
          5    1    3    3  502    0 -0.39935655831E+01 -0.12636389955E+03  0.68762682961E+02  0.14399368127E+03  0.47000000000E+01 0.  1.
         -5    1    3    3    0  502 -0.48236161806E+02 -0.11414276153E+02  0.10357014782E+03  0.11491683308E+03  0.47000000000E+01 0.  1.
        -11    1    1    2    0    0  0.64328108842E+02  0.80520576167E+02 -0.36971818852E+02  0.10949239317E+03  0.00000000000E+00 0. -1.
         11    1    1    2    0    0 -0.12098381453E+02  0.57257599540E+02  0.28723140884E+02  0.65190661610E+02  0.00000000000E+00 0.  1.
<mgrwt>
<rscale>  0 0.18836042E+03</rscale>
<asrwt>0</asrwt>
<pdfrwt beam="1">  1        2 0.45975209E-01 0.19322539E+03</pdfrwt>
<pdfrwt beam="2">  1       -2 0.20731494E-01 0.19322539E+03</pdfrwt>
<totfact> 0.21417675E+03</totfact>
</mgrwt>
</event>
<event>
 7    1  0.6419647E-006  0.1332964E+03  0.7546771E-02  0.1235043E+00
          2   -1    0    0  501    0  0.00000000000E+00  0.00000000000E+00  0.12656857417E+04  0.12656857417E+04  0.00000000000E+00 0. -1.
         -2   -1    0    0    0  501 -0.00000000000E+00 -0.00000000000E+00 -0.15801323436E+02  0.15801323436E+02  0.00000000000E+00 0.  1.
         23    2    1    2    0    0  0.22902035301E+01 -0.46362992943E+02  0.10303042470E+04  0.10388911305E+04  0.12495266113E+03 0.  0.
          5    1    3    3  502    0 -0.36640309141E+02 -0.17259263553E+02  0.11035266774E+03  0.11764436115E+03  0.47000000000E+01 0.  1.
         -5    1    3    3    0  502  0.38930512671E+02 -0.29103729390E+02  0.91995157927E+03  0.92124676937E+03  0.47000000000E+01 0.  1.
        -11    1    1    2    0    0  0.16035496204E+02  0.15486014012E+02  0.23473090994E+01  0.22415700490E+02  0.00000000000E+00 0.  1.
         11    1    1    2    0    0 -0.18325699734E+02  0.30876978931E+02  0.21723286212E+03  0.22018023409E+03  0.00000000000E+00 0. -1.
<mgrwt>
<rscale>  0 0.12501669E+03</rscale>
<asrwt>0</asrwt>
<pdfrwt beam="1">  1        2 0.19472080E+00 0.13329644E+03</pdfrwt>
<pdfrwt beam="2">  1       -2 0.24309738E-02 0.13329644E+03</pdfrwt>
<totfact> 0.10294571E+04</totfact>
</mgrwt>
</event>
<event>
 7    1  0.6419647E-006  0.1700876E+03  0.7546771E-02  0.1183443E+00
          1   -1    0    0  501    0  0.00000000000E+00  0.00000000000E+00  0.20350095040E+04  0.20350095040E+04  0.00000000000E+00 0. -1.
         -1   -1    0    0    0  501 -0.00000000000E+00 -0.00000000000E+00 -0.14182230522E+02  0.14182230522E+02  0.00000000000E+00 0.  1.
         23    2    1    2    0    0  0.49816689399E+02 -0.10403462432E+03  0.14130612872E+04  0.14232610437E+04  0.12499956627E+03 0.  0.
          5    1    3    3  502    0 -0.36911853269E+02 -0.49817954515E+02  0.37021907242E+03  0.37540453526E+03  0.47000000000E+01 0.  1.
         -5    1    3    3    0  502  0.86728542667E+02 -0.54216669803E+02  0.10428422148E+04  0.10478565084E+04  0.47000000000E+01 0.  1.
        -11    1    1    2    0    0 -0.35462014928E+02  0.10823331801E+03  0.59631470597E+03  0.60709409006E+03  0.00000000000E+00 0. -1.
         11    1    1    2    0    0 -0.14354674471E+02 -0.41986936926E+01  0.11451280364E+02  0.18836600804E+02  0.00000000000E+00 0.  1.
<mgrwt>
<rscale>  0 0.16474381E+03</rscale>
<asrwt>0</asrwt>
<pdfrwt beam="1">  1        1 0.31307815E+00 0.17008762E+03</pdfrwt>
<pdfrwt beam="2">  1       -1 0.21818832E-02 0.17008762E+03</pdfrwt>
<totfact> 0.19376260E+03</totfact>
</mgrwt>
</event>
<event>
 6    1  0.6419647E-006  0.1452660E+03  0.7546771E-02  0.1223606E+00
         -4   -1    0    0    0  501 -0.00000000000E+00  0.00000000000E+00  0.84511507030E+01  0.84511507030E+01  0.00000000000E+00 0.  1.
          4   -1    0    0  501    0  0.00000000000E+00 -0.00000000000E+00 -0.25982464076E+04  0.25982464076E+04  0.00000000000E+00 0. -1.
          5    1    1    2  502    0  0.75337857511E+01 -0.26934869482E+02 -0.16987178124E+04  0.16989545436E+04  0.47000000000E+01 0. -1.
         -5    1    1    2    0  502  0.13279009300E+02  0.64806735757E+02 -0.47441517275E+03  0.47902827810E+03  0.47000000000E+01 0.  1.
        -11    1    1    2    0    0 -0.47792644075E+02  0.35512607553E+01 -0.14874214864E+03  0.15627211864E+03  0.00000000000E+00 0.  1.
         11    1    1    2    0    0  0.26979849024E+02 -0.41423127030E+02 -0.26792012308E+03  0.27244261791E+03  0.00000000000E+00 0. -1.
<mgrwt>
<rscale>  0 0.13262906E+03</rscale>
<asrwt>0</asrwt>
<pdfrwt beam="2">  1        4 0.39973083E+00 0.14526596E+03</pdfrwt>
<pdfrwt beam="1">  1       -4 0.13001750E-02 0.14526596E+03</pdfrwt>
<totfact> 0.30806656E+01</totfact>
</mgrwt>
</event>
<event>
 7    1  0.6419647E-006  0.1599054E+03  0.7546771E-02  0.1197699E+00
          1   -1    0    0  501    0  0.00000000000E+00  0.00000000000E+00  0.95121645863E+03  0.95121645863E+03  0.00000000000E+00 0. -1.
         -1   -1    0    0    0  501 -0.00000000000E+00 -0.00000000000E+00 -0.25757251194E+02  0.25757251194E+02  0.00000000000E+00 0.  1.
         23    2    1    2    0    0 -0.98359856390E+02 -0.16367128908E+02  0.67948546386E+03  0.69804744035E+03  0.12500875616E+03 0.  0.
          5    1    3    3  502    0 -0.96982516132E+02  0.25275932678E+01  0.66875808992E+03  0.67577471838E+03  0.47000000000E+01 0.  1.
         -5    1    3    3    0  502 -0.13773402578E+01 -0.18894722176E+02  0.10727373943E+02  0.22272721971E+02  0.47000000000E+01 0.  1.
        -11    1    1    2    0    0  0.46077603349E+02  0.49072877740E+02  0.15537939362E+03  0.16933413365E+03  0.00000000000E+00 0.  1.
         11    1    1    2    0    0  0.52282253041E+02 -0.32705748832E+02  0.90594349953E+02  0.10959213582E+03  0.00000000000E+00 0. -1.
<mgrwt>
<rscale>  0 0.15228004E+03</rscale>
<asrwt>0</asrwt>
<pdfrwt beam="1">  1        1 0.14634097E+00 0.15990539E+03</pdfrwt>
<pdfrwt beam="2">  1       -1 0.39626548E-02 0.15990539E+03</pdfrwt>
<totfact> 0.42723123E+03</totfact>
</mgrwt>
</event>
<event>
 6    1  0.6419647E-006  0.3113352E+03  0.7546771E-02  0.1116186E+00
          1   -1    0    0  501    0  0.00000000000E+00  0.00000000000E+00  0.20811817247E+04  0.20811817247E+04  0.00000000000E+00 0. -1.
         -1   -1    0    0    0  501 -0.00000000000E+00 -0.00000000000E+00 -0.22812671504E+02  0.22812671504E+02  0.00000000000E+00 0.  1.
          5    1    1    2  502    0 -0.92411981168E+02 -0.67060203953E+02  0.44919898546E+03  0.46350713452E+03  0.47000000000E+01 0. -1.
         -5    1    1    2    0  502  0.16898763426E+03  0.88001647176E+02  0.11560251638E+04  0.11716302231E+04  0.47000000000E+01 0.  1.
        -11    1    1    2    0    0 -0.38871259341E+02 -0.56208915048E+02  0.23920313165E+03  0.24877410461E+03  0.00000000000E+00 0.  1.
         11    1    1    2    0    0 -0.37704393752E+02  0.35267471825E+02  0.21394177233E+03  0.22008293397E+03  0.00000000000E+00 0. -1.
<mgrwt>
<rscale>  0 0.24549466E+03</rscale>
<asrwt>0</asrwt>
<pdfrwt beam="1">  1        1 0.32018165E+00 0.31133520E+03</pdfrwt>
<pdfrwt beam="2">  1       -1 0.35096434E-02 0.31133520E+03</pdfrwt>
<totfact> 0.88879255E+02</totfact>
</mgrwt>
</event>
<event>
 7    1  0.6419647E-006  0.1626522E+03  0.7546771E-02  0.1192939E+00
         -4   -1    0    0    0  501 -0.00000000000E+00  0.00000000000E+00  0.27797656723E+03  0.27797656723E+03  0.00000000000E+00 0.  1.
          4   -1    0    0  501    0  0.00000000000E+00 -0.00000000000E+00 -0.10498002750E+03  0.10498002750E+03  0.00000000000E+00 0. -1.
         23    2    1    2    0    0  0.22641855876E+02  0.10156767903E+03  0.18411421561E+01  0.16266263787E+03  0.12500838729E+03 0.  0.
          5    1    3    3  502    0  0.62032777722E+02  0.58562143217E+02 -0.36289829890E+02  0.92825814747E+02  0.47000000000E+01 0.  1.
         -5    1    3    3    0  502 -0.39390921845E+02  0.43005535811E+02  0.38130972046E+02  0.69836823119E+02  0.47000000000E+01 0.  1.
        -11    1    1    2    0    0 -0.53062058448E+02 -0.31304902416E+02  0.85835352851E+02  0.10565645632E+03  0.00000000000E+00 0.  1.
         11    1    1    2    0    0  0.30420202572E+02 -0.70262776612E+02  0.85320044717E+02  0.11463750055E+03  0.00000000000E+00 0. -1.
<mgrwt>
<rscale>  0 0.15629938E+03</rscale>
<asrwt>0</asrwt>
<pdfrwt beam="2">  1        4 0.16150774E-01 0.16265222E+03</pdfrwt>
<pdfrwt beam="1">  1       -4 0.42765625E-01 0.16265222E+03</pdfrwt>
<totfact> 0.30286414E+02</totfact>
</mgrwt>
</event>
<event>
 7    1  0.9235062E-006  0.2307926E+03  0.7546771E-02  0.1129184E+00
          1   -1    0    0  501    0  0.00000000000E+00  0.00000000000E+00  0.82978520747E+03  0.82978520747E+03  0.00000000000E+00 0. -1.
         -1   -1    0    0    0  501 -0.00000000000E+00 -0.00000000000E+00 -0.60213957952E+02  0.60213957952E+02  0.00000000000E+00 0.  1.
         23    2    1    2    0    0  0.10926367714E+02 -0.19370412275E+03  0.44593322656E+03  0.50211716940E+03  0.12499814630E+03 0.  0.
          5    1    3    3  502    0  0.18602877617E+02  0.76829228504E+01  0.96647475017E+02  0.98832781942E+02  0.47000000000E+01 0. -1.
         -5    1    3    3    0  502 -0.76765099030E+01 -0.20138704560E+03  0.34928575154E+03  0.40328438746E+03  0.47000000000E+01 0. -1.
        -11    1    1    2    0    0  0.25704377357E+02  0.13467411853E+03  0.25869966640E+03  0.29278550273E+03  0.00000000000E+00 0. -1.
         11    1    1    2    0    0 -0.36630745072E+02  0.59030004220E+02  0.64938356563E+02  0.95096493289E+02  0.00000000000E+00 0.  1.
<mgrwt>
<rscale>  0 0.22642209E+03</rscale>
<asrwt>0</asrwt>
<pdfrwt beam="1">  1        1 0.12765925E+00 0.23079257E+03</pdfrwt>
<pdfrwt beam="2">  1       -1 0.92636864E-02 0.23079257E+03</pdfrwt>
<totfact> 0.14929745E+03</totfact>
</mgrwt>
</event>
<event>
 7    1  0.6419647E-006  0.1430760E+03  0.7546771E-02  0.1219872E+00
          1   -1    0    0  501    0  0.00000000000E+00  0.00000000000E+00  0.50109860983E+03  0.50109860983E+03  0.00000000000E+00 0. -1.
         -1   -1    0    0    0  501 -0.00000000000E+00 -0.00000000000E+00 -0.33243239814E+02  0.33243239814E+02  0.00000000000E+00 0.  1.
         23    2    1    2    0    0 -0.48984414460E+01 -0.69438457033E+02  0.28112098951E+03  0.31543580182E+03  0.12500016113E+03 0.  0.
          5    1    3    3  502    0  0.23456599444E+02 -0.15330501294E+02  0.23993450862E+03  0.24161104021E+03  0.47000000000E+01 0. -1.
         -5    1    3    3    0  502 -0.28355040890E+02 -0.54107955739E+02  0.41186480894E+02  0.73824761609E+02  0.47000000000E+01 0. -1.
        -11    1    1    2    0    0 -0.39025991713E+02  0.24470785130E+02  0.47644245458E+02  0.66270819214E+02  0.00000000000E+00 0.  1.
         11    1    1    2    0    0  0.43924433159E+02  0.44967671903E+02  0.13909013505E+03  0.15263522861E+03  0.00000000000E+00 0. -1.
<mgrwt>
<rscale>  0 0.13524676E+03</rscale>
<asrwt>0</asrwt>
<pdfrwt beam="1">  1        1 0.77092088E-01 0.14307597E+03</pdfrwt>
<pdfrwt beam="2">  1       -1 0.51143449E-02 0.14307597E+03</pdfrwt>
<totfact> 0.73569543E+03</totfact>
</mgrwt>
</event>
<event>
 7    1  0.6419647E-006  0.1614833E+03  0.7546771E-02  0.1194505E+00
          2   -1    0    0  501    0  0.00000000000E+00  0.00000000000E+00  0.79685561329E+02  0.79685561329E+02  0.00000000000E+00 0.  1.
         -2   -1    0    0    0  501 -0.00000000000E+00 -0.00000000000E+00 -0.29774806664E+03  0.29774806664E+03  0.00000000000E+00 0. -1.
         23    2    1    2    0    0 -0.72561948860E+02  0.72022902537E+02 -0.16415877533E+03  0.23027148112E+03  0.12499726632E+03 0.  0.
          5    1    3    3  502    0 -0.10638258316E+03  0.51198054433E+02 -0.14135197839E+03  0.18423074275E+03  0.47000000000E+01 0.  1.
         -5    1    3    3    0  502  0.33820634305E+02  0.20824848104E+02 -0.22806796939E+02  0.46040738374E+02  0.47000000000E+01 0.  1.
        -11    1    1    2    0    0  0.29466999421E+02 -0.15879652019E+02 -0.67267303080E+02  0.75135593874E+02  0.00000000000E+00 0. -1.
         11    1    1    2    0    0  0.43094949439E+02 -0.56143250519E+02  0.13363573107E+02  0.72026552966E+02  0.00000000000E+00 0.  1.
<mgrwt>
<rscale>  0 0.15496156E+03</rscale>
<asrwt>0</asrwt>
<pdfrwt beam="1">  1        2 0.12259317E-01 0.16148329E+03</pdfrwt>
<pdfrwt beam="2">  1       -2 0.45807394E-01 0.16148329E+03</pdfrwt>
<totfact> 0.22183222E+03</totfact>
</mgrwt>
</event>
<event>
 7    1  0.6419647E-006  0.1369794E+03  0.7546771E-02  0.1229499E+00
         -2   -1    0    0    0  501 -0.00000000000E+00  0.00000000000E+00  0.14755763231E+02  0.14755763231E+02  0.00000000000E+00 0. -1.
          2   -1    0    0  501    0  0.00000000000E+00 -0.00000000000E+00 -0.14086676435E+04  0.14086676435E+04  0.00000000000E+00 0.  1.
         23    2    1    2    0    0  0.38146039371E+02  0.41025630097E+02 -0.11381873877E+04  0.11464004038E+04  0.12500053467E+03 0.  0.
          5    1    3    3  502    0 -0.43252687782E+01 -0.98169119309E+01 -0.87112656983E+03  0.87120529748E+03  0.47000000000E+01 0.  1.
         -5    1    3    3    0  502  0.42471308150E+02  0.50842542028E+02 -0.26706081790E+03  0.27519510634E+03  0.47000000000E+01 0.  1.
        -11    1    1    2    0    0  0.26658453277E+02  0.47634489218E+01 -0.70173064859E+02  0.75217169639E+02  0.00000000000E+00 0. -1.
         11    1    1    2    0    0 -0.64804492648E+02 -0.45789079018E+02 -0.18555142767E+03  0.20180583326E+03  0.00000000000E+00 0.  1.
<mgrwt>
<rscale>  0 0.12863237E+03</rscale>
<asrwt>0</asrwt>
<pdfrwt beam="2">  1        2 0.21671821E+00 0.13697940E+03</pdfrwt>
<pdfrwt beam="1">  1       -2 0.22701162E-02 0.13697940E+03</pdfrwt>
<totfact> 0.95503206E+03</totfact>
</mgrwt>
</event>
<event>
 7    1  0.6419647E-006  0.1314504E+03  0.7546771E-02  0.1235237E+00
          1   -1    0    0  501    0  0.00000000000E+00  0.00000000000E+00  0.15822996819E+04  0.15822996819E+04  0.00000000000E+00 0. -1.
         -1   -1    0    0    0  501 -0.00000000000E+00 -0.00000000000E+00 -0.31211144508E+02  0.31211144508E+02  0.00000000000E+00 0.  1.
         23    2    1    2    0    0 -0.38099557875E+02  0.41906046040E+02  0.14780005391E+04  0.14838344962E+04  0.11862346145E+03 0.  0.
          5    1    3    3  502    0 -0.28249544970E+02  0.12414668225E+01  0.76379598756E+02  0.81581316102E+02  0.47000000000E+01 0.  1.
         -5    1    3    3    0  502 -0.98500129051E+01  0.40664579217E+02  0.14016209403E+04  0.14022531801E+04  0.47000000000E+01 0. -1.
        -11    1    1    2    0    0  0.21936191215E+02 -0.34336893044E+01  0.83719313231E+02  0.86613567731E+02  0.00000000000E+00 0. -1.
         11    1    1    2    0    0  0.16163366660E+02 -0.38472356735E+02 -0.10631314920E+02  0.43062762469E+02  0.00000000000E+00 0.  1.
<mgrwt>
<rscale>  0 0.12489250E+03</rscale>
<asrwt>0</asrwt>
<pdfrwt beam="1">  1        1 0.24343066E+00 0.13145044E+03</pdfrwt>
<pdfrwt beam="2">  1       -1 0.48017158E-02 0.13145044E+03</pdfrwt>
<totfact> 0.11914714E+03</totfact>
</mgrwt>
</event>
<event>
 7    1  0.6419647E-006  0.1636752E+03  0.7546771E-02  0.1191780E+00
         -2   -1    0    0    0  501 -0.00000000000E+00  0.00000000000E+00  0.42016316051E+02  0.42016316051E+02  0.00000000000E+00 0.  1.
          2   -1    0    0  501    0  0.00000000000E+00 -0.00000000000E+00 -0.82301082072E+03  0.82301082072E+03  0.00000000000E+00 0. -1.
         23    2    1    2    0    0 -0.22153547380E+02  0.10331374504E+03 -0.66088467768E+03  0.68085104295E+03  0.12500030368E+03 0.  0.
          5    1    3    3  502    0 -0.53337241581E+02  0.55706354605E+02 -0.17096409570E+03  0.18761362238E+03  0.47000000000E+01 0.  1.
         -5    1    3    3    0  502  0.31183694201E+02  0.47607390438E+02 -0.48992058198E+03  0.49323742057E+03  0.47000000000E+01 0.  1.
        -11    1    1    2    0    0  0.54535841835E+02 -0.58615448521E+02 -0.47935426192E+02  0.93315239561E+02  0.00000000000E+00 0.  1.
         11    1    1    2    0    0 -0.32382294455E+02 -0.44698296521E+02 -0.72174400794E+02  0.90860854256E+02  0.00000000000E+00 0. -1.
<mgrwt>
<rscale>  0 0.15729907E+03</rscale>
<asrwt>0</asrwt>
<pdfrwt beam="2">  1        2 0.12661705E+00 0.16367524E+03</pdfrwt>
<pdfrwt beam="1">  1       -2 0.64640488E-02 0.16367524E+03</pdfrwt>
<totfact> 0.44264582E+03</totfact>
</mgrwt>
</event>
<event>
 7    1  0.6419647E-006  0.1618314E+03  0.7546771E-02  0.1194178E+00
          1   -1    0    0  501    0  0.00000000000E+00  0.00000000000E+00  0.21265856750E+03  0.21265856750E+03  0.00000000000E+00 0. -1.
         -1   -1    0    0    0  501 -0.00000000000E+00 -0.00000000000E+00 -0.10921924234E+03  0.10921924234E+03  0.00000000000E+00 0.  1.
         23    2    1    2    0    0  0.99429098201E+02 -0.25933761245E+02  0.87356131580E+02  0.18390348681E+03  0.12502277070E+03 0.  0.
          5    1    3    3  502    0  0.24269232879E+02  0.48755893919E+02  0.19740010782E+02  0.58119625619E+02  0.47000000000E+01 0.  1.
         -5    1    3    3    0  502  0.75159865321E+02 -0.74689655164E+02  0.67616120797E+02  0.12578386119E+03  0.47000000000E+01 0.  1.
        -11    1    1    2    0    0 -0.66061567408E+02  0.14914875311E+02 -0.34795656790E+02  0.76140146608E+02  0.00000000000E+00 0.  1.
         11    1    1    2    0    0 -0.33367530792E+02  0.11018885934E+02  0.50878850378E+02  0.61834176426E+02  0.00000000000E+00 0. -1.
<mgrwt>
<rscale>  0 0.15524011E+03</rscale>
<asrwt>0</asrwt>
<pdfrwt beam="1">  1        1 0.32716703E-01 0.16183139E+03</pdfrwt>
<pdfrwt beam="2">  1       -1 0.16802960E-01 0.16183139E+03</pdfrwt>
<totfact> 0.35323594E+03</totfact>
</mgrwt>
</event>
<event>
 7    1  0.6419647E-006  0.1461790E+03  0.7546771E-02  0.1214868E+00
         -4   -1    0    0    0  501 -0.00000000000E+00  0.00000000000E+00  0.23441605375E+03  0.23441605375E+03  0.00000000000E+00 0.  1.
          4   -1    0    0  501    0  0.00000000000E+00 -0.00000000000E+00 -0.75720789939E+02  0.75720789939E+02  0.00000000000E+00 0. -1.
         23    2    1    2    0    0 -0.69833960434E+02 -0.29438876634E+02  0.10228055609E+03  0.17840856397E+03  0.12499949623E+03 0.  0.
          5    1    3    3  502    0 -0.72693074601E+02  0.13726634160E+02  0.11153465004E+03  0.13392076665E+03  0.47000000000E+01 0.  1.
         -5    1    3    3    0  502  0.28591141672E+01 -0.43165510794E+02 -0.92540939511E+01  0.44487797324E+02  0.47000000000E+01 0.  1.
        -11    1    1    2    0    0  0.58532547160E+02  0.11848029392E+02  0.80243327537E+02  0.10002712878E+03  0.00000000000E+00 0.  1.
         11    1    1    2    0    0  0.11301413273E+02  0.17590847242E+02 -0.23828619813E+02  0.31701150939E+02  0.00000000000E+00 0. -1.
<mgrwt>
<rscale>  0 0.13886216E+03</rscale>
<asrwt>0</asrwt>
<pdfrwt beam="2">  1        4 0.11649352E-01 0.14617901E+03</pdfrwt>
<pdfrwt beam="1">  1       -4 0.36064008E-01 0.14617901E+03</pdfrwt>
<totfact> 0.73227659E+02</totfact>
</mgrwt>
</event>
<event>
 7    1  0.6419647E-006  0.1456251E+03  0.7546771E-02  0.1216777E+00
         -1   -1    0    0    0  501 -0.00000000000E+00  0.00000000000E+00  0.46351916395E+03  0.46351916395E+03  0.00000000000E+00 0.  1.
          1   -1    0    0  501    0  0.00000000000E+00 -0.00000000000E+00 -0.38458368243E+02  0.38458368243E+02  0.00000000000E+00 0. -1.
         23    2    1    2    0    0  0.26504310957E+02 -0.69854151763E+02  0.18432986738E+03  0.23491308698E+03  0.12499830961E+03 0.  0.
          5    1    3    3  502    0  0.38959630894E+01  0.35505862969E+02  0.62979465723E+02  0.72555826343E+02  0.47000000000E+01 0. -1.
         -5    1    3    3    0  502  0.22608347868E+02 -0.10536001473E+03  0.12135040166E+03  0.16235726064E+03  0.47000000000E+01 0. -1.
        -11    1    1    2    0    0 -0.93277422606E+01 -0.20877395456E+02  0.57491587674E+02  0.61872086355E+02  0.00000000000E+00 0. -1.
         11    1    1    2    0    0 -0.17176568696E+02  0.90731547219E+02  0.18323934065E+03  0.20519235886E+03  0.00000000000E+00 0.  1.
<mgrwt>
<rscale>  0 0.13746806E+03</rscale>
<asrwt>0</asrwt>
<pdfrwt beam="2">  1        1 0.59166724E-02 0.14562506E+03</pdfrwt>
<pdfrwt beam="1">  1       -1 0.71310637E-01 0.14562506E+03</pdfrwt>
<totfact> 0.26388462E+03</totfact>
</mgrwt>
</event>
<event>
 7    1  0.6419647E-006  0.1400250E+03  0.7546771E-02  0.1224566E+00
         -2   -1    0    0    0  501 -0.00000000000E+00  0.00000000000E+00  0.18253367843E+02  0.18253367843E+02  0.00000000000E+00 0.  1.
          2   -1    0    0  501    0  0.00000000000E+00 -0.00000000000E+00 -0.92526177845E+03  0.92526177845E+03  0.00000000000E+00 0. -1.
         23    2    1    2    0    0 -0.58693877236E+02 -0.23193536148E+02 -0.62824457312E+03  0.64366004332E+03  0.12499638539E+03 0.  0.
          5    1    3    3  502    0 -0.34060047306E+01  0.56693446529E+01  0.34931600874E+01  0.88337140781E+01  0.47000000000E+01 0.  1.
         -5    1    3    3    0  502 -0.55287872506E+02 -0.28862880801E+02 -0.63173773321E+03  0.63482632924E+03  0.47000000000E+01 0.  1.
        -11    1    1    2    0    0  0.27670271234E+02  0.51947401227E+02 -0.98937704733E+02  0.11512100513E+03  0.00000000000E+00 0. -1.
         11    1    1    2    0    0  0.31023606003E+02 -0.28753865078E+02 -0.17982613275E+03  0.18473409785E+03  0.00000000000E+00 0.  1.
<mgrwt>
<rscale>  0 0.13196725E+03</rscale>
<asrwt>0</asrwt>
<pdfrwt beam="2">  1        2 0.14234793E+00 0.14002503E+03</pdfrwt>
<pdfrwt beam="1">  1       -2 0.28082111E-02 0.14002503E+03</pdfrwt>
<totfact> 0.13133621E+04</totfact>
</mgrwt>
</event>
<event>
 7    1  0.6419647E-006  0.1614168E+03  0.7546771E-02  0.1193324E+00
         -2   -1    0    0    0  501 -0.00000000000E+00  0.00000000000E+00  0.10210287012E+03  0.10210287012E+03  0.00000000000E+00 0.  1.
          2   -1    0    0  501    0  0.00000000000E+00 -0.00000000000E+00 -0.25643884474E+03  0.25643884474E+03  0.00000000000E+00 0. -1.
         23    2    1    2    0    0 -0.66341897222E+02 -0.85729049011E+02 -0.14590152096E+03  0.21758364366E+03  0.11960213627E+03 0.  0.
          5    1    3    3  502    0 -0.52499414114E+02  0.93746237472E+01 -0.94205183203E+02  0.10835487343E+03  0.47000000000E+01 0. -1.
         -5    1    3    3    0  502 -0.13842483108E+02 -0.95103672758E+02 -0.51696337753E+02  0.10922877024E+03  0.47000000000E+01 0.  1.
        -11    1    1    2    0    0 -0.12115835140E+02 -0.70801522400E+01 -0.13297313340E+02  0.19332370753E+02  0.00000000000E+00 0.  1.
         11    1    1    2    0    0  0.78457732362E+02  0.92809201251E+02  0.48628596711E+01  0.12162570044E+03  0.00000000000E+00 0. -1.
<mgrwt>
<rscale>  0 0.15596938E+03</rscale>
<asrwt>0</asrwt>
<pdfrwt beam="2">  1        2 0.39452130E-01 0.16141682E+03</pdfrwt>
<pdfrwt beam="1">  1       -2 0.15708134E-01 0.16141682E+03</pdfrwt>
<totfact> 0.39914654E+03</totfact>
</mgrwt>
</event>
<event>
 7    1  0.6419647E-006  0.1436514E+03  0.7546771E-02  0.1217813E+00
         -2   -1    0    0    0  501 -0.00000000000E+00  0.00000000000E+00  0.37347166380E+02  0.37347166380E+02  0.00000000000E+00 0.  1.
          2   -1    0    0  501    0  0.00000000000E+00 -0.00000000000E+00 -0.46918468222E+03  0.46918468222E+03  0.00000000000E+00 0. -1.
         23    2    1    2    0    0  0.67614364965E+02  0.30304613795E+02 -0.27594605573E+03  0.31109798807E+03  0.12306770715E+03 0.  0.
          5    1    3    3  502    0  0.72384647020E+02 -0.21939173357E+02 -0.22654838030E+03  0.23888726017E+03  0.47000000000E+01 0.  1.
         -5    1    3    3    0  502 -0.47702820547E+01  0.52243787152E+02 -0.49397675423E+02  0.72210727902E+02  0.47000000000E+01 0.  1.
        -11    1    1    2    0    0 -0.46273797485E+02  0.25711327605E+02 -0.45440404718E+02  0.69765084977E+02  0.00000000000E+00 0.  1.
         11    1    1    2    0    0 -0.21340567480E+02 -0.56015941400E+02 -0.11045105539E+03  0.12566877555E+03  0.00000000000E+00 0. -1.
<mgrwt>
<rscale>  0 0.13671905E+03</rscale>
<asrwt>0</asrwt>
<pdfrwt beam="2">  1        2 0.72182256E-01 0.14365143E+03</pdfrwt>
<pdfrwt beam="1">  1       -2 0.57457181E-02 0.14365143E+03</pdfrwt>
<totfact> 0.10104177E+04</totfact>
</mgrwt>
</event>
<event>
 7    1  0.6419647E-006  0.1351576E+03  0.7546771E-02  0.1232462E+00
         -2   -1    0    0    0  501 -0.00000000000E+00  0.00000000000E+00  0.59257004739E+02  0.59257004739E+02  0.00000000000E+00 0. -1.
          2   -1    0    0  501    0  0.00000000000E+00 -0.00000000000E+00 -0.25813072122E+03  0.25813072122E+03  0.00000000000E+00 0.  1.
         23    2    1    2    0    0  0.83794941563E+01  0.50728300557E+02 -0.15086663126E+03  0.20255449619E+03  0.12499602834E+03 0.  0.
          5    1    3    3  502    0  0.17642057314E+02  0.77869562209E+02 -0.42930475467E+02  0.90774592418E+02  0.47000000000E+01 0. -1.
         -5    1    3    3    0  502 -0.92625631580E+01 -0.27141261652E+02 -0.10793615579E+03  0.11177990377E+03  0.47000000000E+01 0. -1.
        -11    1    1    2    0    0 -0.44702893960E+02 -0.36697542500E+01 -0.19622001116E+02  0.48957519876E+02  0.00000000000E+00 0. -1.
         11    1    1    2    0    0  0.36323399803E+02 -0.47058546307E+02 -0.28385084105E+02  0.65875709890E+02  0.00000000000E+00 0.  1.
<mgrwt>
<rscale>  0 0.12668318E+03</rscale>
<asrwt>0</asrwt>
<pdfrwt beam="2">  1        2 0.39712418E-01 0.13515762E+03</pdfrwt>
<pdfrwt beam="1">  1       -2 0.91164625E-02 0.13515762E+03</pdfrwt>
<totfact> 0.93682396E+03</totfact>
</mgrwt>
</event>
<event>
 7    1  0.6419647E-006  0.1905307E+03  0.7546771E-02  0.1162744E+00
          2   -1    0    0  501    0  0.00000000000E+00  0.00000000000E+00  0.45782642674E+03  0.45782642674E+03  0.00000000000E+00 0. -1.
         -2   -1    0    0    0  501 -0.00000000000E+00 -0.00000000000E+00 -0.79716984215E+02  0.79716984215E+02  0.00000000000E+00 0.  1.
         23    2    1    2    0    0  0.13896205247E+03  0.36971274979E+02  0.28614271335E+03  0.34377257162E+03  0.12499840557E+03 0.  0.
          5    1    3    3  502    0  0.11239420443E+03  0.81188869781E+02  0.20885663096E+03  0.25073346817E+03  0.47000000000E+01 0. -1.
         -5    1    3    3    0  502  0.26567848046E+02 -0.44217594801E+02  0.77286082382E+02  0.93039103445E+02  0.47000000000E+01 0. -1.
        -11    1    1    2    0    0 -0.82457429972E+02 -0.38434782877E+02  0.63730865095E+01  0.91198007238E+02  0.00000000000E+00 0.  1.
         11    1    1    2    0    0 -0.56504622500E+02  0.14635078973E+01  0.85593642667E+02  0.10257283210E+03  0.00000000000E+00 0. -1.
<mgrwt>
<rscale>  0 0.18532765E+03</rscale>
<asrwt>0</asrwt>
<pdfrwt beam="1">  1        2 0.70434833E-01 0.19053065E+03</pdfrwt>
<pdfrwt beam="2">  1       -2 0.12264152E-01 0.19053065E+03</pdfrwt>
<totfact> 0.32287339E+03</totfact>
</mgrwt>
</event>
<event>
 7    1  0.6419647E-006  0.3812605E+03  0.7546771E-02  0.1051360E+00
          2   -1    0    0  501    0  0.00000000000E+00  0.00000000000E+00  0.13699270667E+04  0.13699270667E+04  0.00000000000E+00 0.  1.
         -2   -1    0    0    0  501 -0.00000000000E+00 -0.00000000000E+00 -0.10348099693E+03  0.10348099693E+03  0.00000000000E+00 0. -1.
         23    2    1    2    0    0  0.33236839713E+03  0.13878255147E+03  0.63209994338E+03  0.73818013416E+03  0.12502089443E+03 0.  0.
          5    1    3    3  502    0  0.40578931738E+02  0.18122457030E+02  0.19056753883E+02  0.48583155706E+02  0.47000000000E+01 0.  1.
         -5    1    3    3    0  502  0.29178946539E+03  0.12066009444E+03  0.61304318950E+03  0.68959697846E+03  0.47000000000E+01 0.  1.
        -11    1    1    2    0    0 -0.11710175077E+03 -0.51766066409E+02  0.31808202576E+03  0.34288295492E+03  0.00000000000E+00 0.  1.
         11    1    1    2    0    0 -0.21526664636E+03 -0.87016485066E+02  0.31626410065E+03  0.39234497457E+03  0.00000000000E+00 0. -1.
<mgrwt>
<rscale>  0 0.37884901E+03</rscale>
<asrwt>0</asrwt>
<pdfrwt beam="1">  1        2 0.21075800E+00 0.38126050E+03</pdfrwt>
<pdfrwt beam="2">  1       -2 0.15920154E-01 0.38126050E+03</pdfrwt>
<totfact> 0.49391176E+02</totfact>
</mgrwt>
</event>
<event>
 7    1  0.6419647E-006  0.1297291E+03  0.7546771E-02  0.1241653E+00
          2   -1    0    0  501    0  0.00000000000E+00  0.00000000000E+00  0.57829603536E+03  0.57829603536E+03  0.00000000000E+00 0. -1.
         -2   -1    0    0    0  501 -0.00000000000E+00 -0.00000000000E+00 -0.26539794774E+02  0.26539794774E+02  0.00000000000E+00 0.  1.
         23    2    1    2    0    0  0.32993189722E+02  0.10773830754E+02  0.42728627247E+03  0.44654585343E+03  0.12500005833E+03 0.  0.
          5    1    3    3  502    0  0.74669795280E+02  0.65780892457E+01  0.35508941655E+03  0.36294549636E+03  0.47000000000E+01 0. -1.
         -5    1    3    3    0  502 -0.41676605558E+02  0.41957415080E+01  0.72196855917E+02  0.83600357068E+02  0.47000000000E+01 0. -1.
        -11    1    1    2    0    0  0.31905072544E+02 -0.52013719871E+01  0.35331775636E+02  0.47888644731E+02  0.00000000000E+00 0.  1.
         11    1    1    2    0    0 -0.64898262266E+02 -0.55724587666E+01  0.89138192485E+02  0.11040133197E+03  0.00000000000E+00 0. -1.
<mgrwt>
<rscale>  0 0.12087932E+03</rscale>
<asrwt>0</asrwt>
<pdfrwt beam="1">  1        2 0.88968612E-01 0.12972910E+03</pdfrwt>
<pdfrwt beam="2">  1       -2 0.40830458E-02 0.12972910E+03</pdfrwt>
<totfact> 0.13284399E+04</totfact>
</mgrwt>
</event>
<event>
 7    1  0.6419647E-006  0.1661164E+03  0.7546771E-02  0.1188928E+00
          2   -1    0    0  501    0  0.00000000000E+00  0.00000000000E+00  0.43969322027E+03  0.43969322027E+03  0.00000000000E+00 0.  1.
         -2   -1    0    0    0  501 -0.00000000000E+00 -0.00000000000E+00 -0.54759719089E+02  0.54759719089E+02  0.00000000000E+00 0. -1.
         23    2    1    2    0    0 -0.25652701213E+01  0.10937518911E+03  0.17936106129E+03  0.24446889153E+03  0.12500054406E+03 0.  0.
          5    1    3    3  502    0 -0.23819154520E+02 -0.43118861979E+01 -0.65086394437E+01  0.25502879682E+02  0.47000000000E+01 0.  1.
         -5    1    3    3    0  502  0.21253884399E+02  0.11368707531E+03  0.18586970073E+03  0.21896601185E+03  0.47000000000E+01 0.  1.
        -11    1    1    2    0    0  0.30926142613E+02 -0.21528318621E+02  0.19861176013E+02  0.42595317960E+02  0.00000000000E+00 0. -1.
         11    1    1    2    0    0 -0.28360872491E+02 -0.87846870493E+02  0.18571126388E+03  0.20738872986E+03  0.00000000000E+00 0.  1.
<mgrwt>
<rscale>  0 0.15979536E+03</rscale>
<asrwt>0</asrwt>
<pdfrwt beam="1">  1        2 0.67645108E-01 0.16611637E+03</pdfrwt>
<pdfrwt beam="2">  1       -2 0.84245725E-02 0.16611637E+03</pdfrwt>
<totfact> 0.60796201E+03</totfact>
</mgrwt>
</event>
<event>
 7    1  0.6419647E-006  0.1331324E+03  0.7546771E-02  0.1237375E+00
          2   -1    0    0  501    0  0.00000000000E+00  0.00000000000E+00  0.29353386983E+03  0.29353386983E+03  0.00000000000E+00 0. -1.
         -2   -1    0    0    0  501 -0.00000000000E+00 -0.00000000000E+00 -0.45801279767E+02  0.45801279767E+02  0.00000000000E+00 0.  1.
         23    2    1    2    0    0  0.29238629691E+02 -0.35347206772E+02  0.14619840148E+03  0.19773269407E+03  0.12497969121E+03 0.  0.
          5    1    3    3  502    0 -0.35543189098E+02 -0.49956707304E+02  0.97410529028E+02  0.11519501752E+03  0.47000000000E+01 0.  1.
         -5    1    3    3    0  502  0.64781818789E+02  0.14609500532E+02  0.48787872456E+02  0.82537676549E+02  0.47000000000E+01 0.  1.
        -11    1    1    2    0    0 -0.58672695403E+02  0.14581971565E+02  0.48577037846E+02  0.77555449108E+02  0.00000000000E+00 0.  1.
         11    1    1    2    0    0  0.29434065712E+02  0.20765235207E+02  0.52957150732E+02  0.64047006419E+02  0.00000000000E+00 0. -1.
<mgrwt>
<rscale>  0 0.12353621E+03</rscale>
<asrwt>0</asrwt>
<pdfrwt beam="1">  1        2 0.45159056E-01 0.13313244E+03</pdfrwt>
<pdfrwt beam="2">  1       -2 0.70463509E-02 0.13313244E+03</pdfrwt>
<totfact> 0.12154325E+04</totfact>
</mgrwt>
</event>
<event>
 7    1  0.6419647E-006  0.1348023E+03  0.7546771E-02  0.1233013E+00
          2   -1    0    0  501    0  0.00000000000E+00  0.00000000000E+00  0.10241165470E+03  0.10241165470E+03  0.00000000000E+00 0. -1.
         -2   -1    0    0    0  501 -0.00000000000E+00 -0.00000000000E+00 -0.14449116844E+03  0.14449116844E+03  0.00000000000E+00 0.  1.
         23    2    1    2    0    0 -0.18507330419E+02 -0.46907917644E+02 -0.13985319602E+00  0.13480234646E+03  0.12501511522E+03 0.  0.
          5    1    3    3  502    0  0.60341022641E+01  0.38909045488E+02  0.18084049419E+02  0.43582646251E+02  0.47000000000E+01 0. -1.
         -5    1    3    3    0  502 -0.24541432683E+02 -0.85816963131E+02 -0.18223902615E+02  0.91219700206E+02  0.47000000000E+01 0. -1.
        -11    1    1    2    0    0  0.41359734797E+02  0.42918606357E+02 -0.58564109219E+02  0.83560692450E+02  0.00000000000E+00 0.  1.
         11    1    1    2    0    0 -0.22852404378E+02  0.39893112865E+01  0.16624448671E+02  0.28539784232E+02  0.00000000000E+00 0. -1.
<mgrwt>
<rscale>  0 0.12632490E+03</rscale>
<asrwt>0</asrwt>
<pdfrwt beam="1">  1        2 0.15755639E-01 0.13480227E+03</pdfrwt>
<pdfrwt beam="2">  1       -2 0.22229410E-01 0.13480227E+03</pdfrwt>
<totfact> 0.60977412E+03</totfact>
</mgrwt>
</event>
<event>
 7    1  0.6419647E-006  0.1299193E+03  0.7546771E-02  0.1242130E+00
          4   -1    0    0  501    0  0.00000000000E+00  0.00000000000E+00  0.49904045608E+03  0.49904045608E+03  0.00000000000E+00 0. -1.
         -4   -1    0    0    0  501 -0.00000000000E+00 -0.00000000000E+00 -0.28651828947E+02  0.28651828947E+02  0.00000000000E+00 0.  1.
         23    2    1    2    0    0  0.33684541469E+02 -0.10912005066E+02  0.35070987070E+03  0.37400057312E+03  0.12500118040E+03 0.  0.
          5    1    3    3  502    0 -0.92032947817E+01  0.52339555449E+02  0.14254630203E+03  0.15220271982E+03  0.47000000000E+01 0. -1.
         -5    1    3    3    0  502  0.42887836251E+02 -0.63251560515E+02  0.20816356867E+03  0.22179785329E+03  0.47000000000E+01 0. -1.
        -11    1    1    2    0    0  0.51955350904E+01  0.39386993189E+02  0.86486930600E+02  0.95175196254E+02  0.00000000000E+00 0. -1.
         11    1    1    2    0    0 -0.38880076559E+02 -0.28474988123E+02  0.33191825833E+02  0.58516515652E+02  0.00000000000E+00 0.  1.
<mgrwt>
<rscale>  0 0.12058816E+03</rscale>
<asrwt>0</asrwt>
<pdfrwt beam="1">  1        4 0.76775448E-01 0.12991926E+03</pdfrwt>
<pdfrwt beam="2">  1       -4 0.44079741E-02 0.12991926E+03</pdfrwt>
<totfact> 0.74812898E+02</totfact>
</mgrwt>
</event>
<event>
 7    1  0.1339691E-005  0.2260427E+03  0.7546771E-02  0.1132636E+00
         -2   -1    0    0    0  501 -0.00000000000E+00  0.00000000000E+00  0.36661585656E+02  0.36661585656E+02  0.00000000000E+00 0.  1.
          2   -1    0    0  501    0  0.00000000000E+00 -0.00000000000E+00 -0.12912681620E+04  0.12912681620E+04  0.00000000000E+00 0. -1.
         23    2    1    2    0    0 -0.15981185013E+03  0.99652993813E+02 -0.65739154356E+03  0.69516828051E+03  0.12499900026E+03 0.  0.
          5    1    3    3  502    0 -0.28837999051E+02  0.85539110215E+02 -0.33215690260E+03  0.34423664464E+03  0.47000000000E+01 0.  1.
         -5    1    3    3    0  502 -0.13097385108E+03  0.14113883599E+02 -0.32523464095E+03  0.35093163587E+03  0.47000000000E+01 0.  1.
        -11    1    1    2    0    0  0.92363269402E+02 -0.77928120099E+02 -0.24139690170E+03  0.26995597713E+03  0.00000000000E+00 0.  1.
         11    1    1    2    0    0  0.67448580725E+02 -0.21724873715E+02 -0.35581813114E+03  0.36280549007E+03  0.00000000000E+00 0. -1.
<mgrwt>
<rscale>  0 0.22168150E+03</rscale>
<asrwt>0</asrwt>
<pdfrwt beam="2">  1        2 0.19865666E+00 0.22604269E+03</pdfrwt>
<pdfrwt beam="1">  1       -2 0.56402434E-02 0.22604269E+03</pdfrwt>
<totfact> 0.28831400E+03</totfact>
</mgrwt>
</event>
<event>
 7    1  0.6419647E-006  0.1291896E+03  0.7546771E-02  0.1242800E+00
          1   -1    0    0  501    0  0.00000000000E+00  0.00000000000E+00  0.20080174953E+03  0.20080174953E+03  0.00000000000E+00 0. -1.
         -1   -1    0    0    0  501 -0.00000000000E+00 -0.00000000000E+00 -0.67038702377E+02  0.67038702377E+02  0.00000000000E+00 0.  1.
         23    2    1    2    0    0 -0.13681203603E+02  0.29576572599E+02  0.10620814360E+03  0.16724267033E+03  0.12501196756E+03 0.  0.
          5    1    3    3  502    0 -0.46619960413E+02  0.64898538531E+02  0.58072562651E+02  0.98892636456E+02  0.47000000000E+01 0.  1.
         -5    1    3    3    0  502  0.32938756810E+02 -0.35321965932E+02  0.48135580952E+02  0.68350033877E+02  0.47000000000E+01 0.  1.
        -11    1    1    2    0    0  0.20574712927E+02  0.27477701862E+02 -0.47772336187E+01  0.34657825562E+02  0.00000000000E+00 0.  1.
         11    1    1    2    0    0 -0.68935093246E+01 -0.57054274461E+02  0.32332137172E+02  0.65939956015E+02  0.00000000000E+00 0. -1.
<mgrwt>
<rscale>  0 0.12018043E+03</rscale>
<asrwt>0</asrwt>
<pdfrwt beam="1">  1        1 0.30892576E-01 0.12918955E+03</pdfrwt>
<pdfrwt beam="2">  1       -1 0.10313647E-01 0.12918955E+03</pdfrwt>
<totfact> 0.79969317E+03</totfact>
</mgrwt>
</event>
<event>
 7    1  0.6419647E-006  0.1455164E+03  0.7546771E-02  0.1215978E+00
          2   -1    0    0  501    0  0.00000000000E+00  0.00000000000E+00  0.52248094362E+02  0.52248094362E+02  0.00000000000E+00 0. -1.
         -2   -1    0    0    0  501 -0.00000000000E+00 -0.00000000000E+00 -0.33463978692E+03  0.33463978692E+03  0.00000000000E+00 0.  1.
         23    2    1    2    0    0  0.51898786821E+02  0.53442046212E+02 -0.13860020119E+03  0.20096027076E+03  0.12500191310E+03 0.  0.
          5    1    3    3  502    0 -0.33523374019E+02  0.12479843166E+02 -0.40042063572E+01  0.36299955366E+02  0.47000000000E+01 0. -1.
         -5    1    3    3    0  502  0.85422160839E+02  0.40962203046E+02 -0.13459599484E+03  0.16466031540E+03  0.47000000000E+01 0. -1.
        -11    1    1    2    0    0 -0.28088220128E+02  0.17934112782E+02 -0.14516547438E+02  0.36349837149E+02  0.00000000000E+00 0. -1.
         11    1    1    2    0    0 -0.23810566693E+02 -0.71376158993E+02 -0.12927494393E+03  0.14957777337E+03  0.00000000000E+00 0.  1.
<mgrwt>
<rscale>  0 0.13804915E+03</rscale>
<asrwt>0</asrwt>
<pdfrwt beam="1">  1        2 0.80381682E-02 0.14551637E+03</pdfrwt>
<pdfrwt beam="2">  1       -2 0.51483045E-01 0.14551637E+03</pdfrwt>
<totfact> 0.29470150E+03</totfact>
</mgrwt>
</event>
<event>
 7    1  0.6419647E-006  0.1261056E+03  0.7546771E-02  0.1244866E+00
         -1   -1    0    0    0  501 -0.00000000000E+00  0.00000000000E+00  0.13340250837E+02  0.13340250837E+02  0.00000000000E+00 0.  1.
          1   -1    0    0  501    0  0.00000000000E+00 -0.00000000000E+00 -0.15110303686E+04  0.15110303686E+04  0.00000000000E+00 0. -1.
         23    2    1    2    0    0 -0.13055643957E+02 -0.10417567089E+02 -0.12639548302E+04  0.12702300691E+04  0.12499456001E+03 0.  0.
          5    1    3    3  502    0 -0.54352758342E+02 -0.40381108609E+02 -0.91745963791E+03  0.91996691977E+03  0.47000000000E+01 0. -1.
         -5    1    3    3    0  502  0.41297114385E+02  0.29963541520E+02 -0.34649519230E+03  0.35026314931E+03  0.47000000000E+01 0. -1.
        -11    1    1    2    0    0  0.50618737333E+02 -0.33417955974E+01 -0.75736598025E+02  0.91156220015E+02  0.00000000000E+00 0.  1.
         11    1    1    2    0    0 -0.37563093376E+02  0.13759362686E+02 -0.15799868953E+03  0.16298433034E+03  0.00000000000E+00 0. -1.
<mgrwt>
<rscale>  0 0.11893431E+03</rscale>
<asrwt>0</asrwt>
<pdfrwt beam="2">  1        1 0.23246613E+00 0.12610557E+03</pdfrwt>
<pdfrwt beam="1">  1       -1 0.20523470E-02 0.12610557E+03</pdfrwt>
<totfact> 0.45658196E+03</totfact>
</mgrwt>
</event>
<event>
 6    1  0.6419647E-006  0.1729415E+03  0.7546771E-02  0.1187219E+00
         -3   -1    0    0    0  501 -0.00000000000E+00  0.00000000000E+00  0.70640499783E+02  0.70640499783E+02  0.00000000000E+00 0.  1.
          3   -1    0    0  501    0  0.00000000000E+00 -0.00000000000E+00 -0.61179916885E+03  0.61179916885E+03  0.00000000000E+00 0. -1.
          5    1    1    2  502    0  0.63071324438E+02 -0.11914969041E+03 -0.37394568244E+03  0.39753251955E+03  0.47000000000E+01 0. -1.
         -5    1    1    2    0  502 -0.19822694345E+02  0.29658542795E+02 -0.14832716138E+03  0.15262897881E+03  0.47000000000E+01 0.  1.
        -11    1    1    2    0    0 -0.42261962840E+02  0.13792512806E+01 -0.62799923100E+00  0.42289126501E+02  0.00000000000E+00 0. -1.
         11    1    1    2    0    0 -0.98666725296E+00  0.88111896330E+02 -0.18257826028E+02  0.89989043768E+02  0.00000000000E+00 0.  1.
<mgrwt>
<rscale>  0 0.16131634E+03</rscale>
<asrwt>0</asrwt>
<pdfrwt beam="2">  1        3 0.94122946E-01 0.17294147E+03</pdfrwt>
<pdfrwt beam="1">  1       -3 0.10867770E-01 0.17294147E+03</pdfrwt>
<totfact> 0.16072461E+02</totfact>
</mgrwt>
</event>
<event>
 7    1  0.6419647E-006  0.1381981E+03  0.7546771E-02  0.1226118E+00
          1   -1    0    0  501    0  0.00000000000E+00  0.00000000000E+00  0.44341151937E+03  0.44341151937E+03  0.00000000000E+00 0. -1.
         -1   -1    0    0    0  501 -0.00000000000E+00 -0.00000000000E+00 -0.39006265670E+02  0.39006265670E+02  0.00000000000E+00 0.  1.
         23    2    1    2    0    0 -0.98722346541E+01 -0.63187324273E+02  0.29792397205E+03  0.32841649683E+03  0.12250960493E+03 0.  0.
          5    1    3    3  502    0 -0.32389891518E+02 -0.77576989485E+02  0.28712094090E+03  0.29921199687E+03  0.47000000000E+01 0. -1.
         -5    1    3    3    0  502  0.22517656864E+02  0.14389665212E+02  0.10803031155E+02  0.29204499956E+02  0.47000000000E+01 0.  1.
        -11    1    1    2    0    0  0.23591826642E+02 -0.17451672135E+02  0.25090055990E+02  0.38608885689E+02  0.00000000000E+00 0. -1.
         11    1    1    2    0    0 -0.13719591988E+02  0.80638996408E+02  0.81391225656E+02  0.11539240252E+03  0.00000000000E+00 0.  1.
<mgrwt>
<rscale>  0 0.13090564E+03</rscale>
<asrwt>0</asrwt>
<pdfrwt beam="1">  1        1 0.68217153E-01 0.13819805E+03</pdfrwt>
<pdfrwt beam="2">  1       -1 0.60009643E-02 0.13819805E+03</pdfrwt>
<totfact> 0.67798831E+03</totfact>
</mgrwt>
</event>
<event>
 7    1  0.6419647E-006  0.1194499E+03  0.7546771E-02  0.1246317E+00
         -2   -1    0    0    0  501 -0.00000000000E+00  0.00000000000E+00  0.31664562030E+02  0.31664562030E+02  0.00000000000E+00 0.  1.
          2   -1    0    0  501    0  0.00000000000E+00 -0.00000000000E+00 -0.14955073050E+04  0.14955073050E+04  0.00000000000E+00 0. -1.
         23    2    1    2    0    0 -0.19872391541E+02  0.81436317064E+01 -0.13811874732E+04  0.13863430686E+04  0.11750334861E+03 0.  0.
          5    1    3    3  502    0  0.20903543381E+02  0.47255443514E+02 -0.95395757407E+03  0.95536756182E+03  0.47000000000E+01 0. -1.
         -5    1    3    3    0  502 -0.40775934922E+02 -0.39111811808E+02 -0.42722989917E+03  0.43097550677E+03  0.47000000000E+01 0.  1.
        -11    1    1    2    0    0 -0.16289889632E+01 -0.40618392208E+02  0.86521998791E+01  0.41561616347E+02  0.00000000000E+00 0.  1.
         11    1    1    2    0    0  0.21501380504E+02  0.32474760502E+02 -0.91307469638E+02  0.99267182115E+02  0.00000000000E+00 0. -1.
<mgrwt>
<rscale>  0 0.11806895E+03</rscale>
<asrwt>0</asrwt>
<pdfrwt beam="2">  1        2 0.23007807E+00 0.11944985E+03</pdfrwt>
<pdfrwt beam="1">  1       -2 0.48714705E-02 0.11944985E+03</pdfrwt>
<totfact> 0.27809741E+03</totfact>
</mgrwt>
</event>
<event>
 7    1  0.6419647E-006  0.1296095E+03  0.7546771E-02  0.1242040E+00
         -1   -1    0    0    0  501 -0.00000000000E+00  0.00000000000E+00  0.14007485137E+02  0.14007485137E+02  0.00000000000E+00 0.  1.
          1   -1    0    0  501    0  0.00000000000E+00 -0.00000000000E+00 -0.93282183416E+03  0.93282183416E+03  0.00000000000E+00 0. -1.
         23    2    1    2    0    0 -0.31279630701E+02  0.13963658896E+02 -0.58107171495E+03  0.59535113418E+03  0.12500094397E+03 0.  0.
          5    1    3    3  502    0 -0.24280070056E+02 -0.51974566687E+02 -0.18523856064E+03  0.19397497707E+03  0.47000000000E+01 0.  1.
         -5    1    3    3    0  502 -0.69995606445E+01  0.65938225583E+02 -0.39583315431E+03  0.40137615711E+03  0.47000000000E+01 0.  1.
        -11    1    1    2    0    0  0.53714712205E+01  0.36528397643E+02 -0.89209002149E+02  0.96547514737E+02  0.00000000000E+00 0.  1.
         11    1    1    2    0    0  0.25908159480E+02 -0.50492056539E+02 -0.24853363193E+03  0.25493067038E+03  0.00000000000E+00 0. -1.
<mgrwt>
<rscale>  0 0.12064333E+03</rscale>
<asrwt>0</asrwt>
<pdfrwt beam="2">  1        1 0.14351108E+00 0.12960955E+03</pdfrwt>
<pdfrwt beam="1">  1       -1 0.21549973E-02 0.12960955E+03</pdfrwt>
<totfact> 0.10612239E+04</totfact>
</mgrwt>
</event>
<event>
 7    1  0.6419647E-006  0.1448693E+03  0.7546771E-02  0.1218312E+00
          2   -1    0    0  501    0  0.00000000000E+00  0.00000000000E+00  0.22211897758E+02  0.22211897758E+02  0.00000000000E+00 0. -1.
         -2   -1    0    0    0  501 -0.00000000000E+00 -0.00000000000E+00 -0.83604742852E+03  0.83604742852E+03  0.00000000000E+00 0.  1.
         23    2    1    2    0    0 -0.53658957223E+02 -0.43223878596E+02 -0.31636290287E+03  0.34795488086E+03  0.12743439659E+03 0.  0.
          5    1    3    3  502    0 -0.59894170695E+02 -0.82025616120E+02 -0.18939083502E+03  0.21495695330E+03  0.47000000000E+01 0. -1.
         -5    1    3    3    0  502  0.62352134718E+01  0.38801737524E+02 -0.12697206785E+03  0.13299792756E+03  0.47000000000E+01 0.  1.
        -11    1    1    2    0    0  0.71941209193E+02  0.49651625021E+02 -0.45874510135E+03  0.46699881098E+03  0.00000000000E+00 0. -1.
         11    1    1    2    0    0 -0.18282251970E+02 -0.64277464251E+01 -0.38727526536E+02  0.43305634423E+02  0.00000000000E+00 0.  1.
<mgrwt>
<rscale>  0 0.13636058E+03</rscale>
<asrwt>0</asrwt>
<pdfrwt beam="1">  1        2 0.34172145E-02 0.14486930E+03</pdfrwt>
<pdfrwt beam="2">  1       -2 0.12862270E+00 0.14486930E+03</pdfrwt>
<totfact> 0.11908225E+03</totfact>
</mgrwt>
</event>
<event>
 7    1  0.6419647E-006  0.1574538E+03  0.7546771E-02  0.1199453E+00
         -2   -1    0    0    0  501 -0.00000000000E+00  0.00000000000E+00  0.31704333151E+03  0.31704333151E+03  0.00000000000E+00 0.  1.
          2   -1    0    0  501    0  0.00000000000E+00 -0.00000000000E+00 -0.66349603910E+02  0.66349603910E+02  0.00000000000E+00 0. -1.
         23    2    1    2    0    0 -0.46707701000E+02  0.83682345610E+02  0.13865813283E+03  0.20980412308E+03  0.12492937189E+03 0.  0.
          5    1    3    3  502    0  0.13213163055E+02  0.85053551564E+02  0.11820779983E+03  0.14630060920E+03  0.47000000000E+01 0.  1.
         -5    1    3    3    0  502 -0.59920864056E+02 -0.13712059547E+01  0.20450333005E+02  0.63503513879E+02  0.47000000000E+01 0.  1.
        -11    1    1    2    0    0  0.20097075517E+01 -0.19682514697E+02 -0.14763806131E+02  0.24686236665E+02  0.00000000000E+00 0. -1.
         11    1    1    2    0    0  0.44697993449E+02 -0.63999830913E+02  0.12679940090E+03  0.14890257568E+03  0.00000000000E+00 0.  1.
<mgrwt>
<rscale>  0 0.15083272E+03</rscale>
<asrwt>0</asrwt>
<pdfrwt beam="2">  1        2 0.10207631E-01 0.15745378E+03</pdfrwt>
<pdfrwt beam="1">  1       -2 0.48775897E-01 0.15745378E+03</pdfrwt>
<totfact> 0.24480165E+03</totfact>
</mgrwt>
</event>
<event>
 7    1  0.6419647E-006  0.1395546E+03  0.7546771E-02  0.1225837E+00
          2   -1    0    0  501    0  0.00000000000E+00  0.00000000000E+00  0.59303604606E+03  0.59303604606E+03  0.00000000000E+00 0. -1.
         -2   -1    0    0    0  501 -0.00000000000E+00 -0.00000000000E+00 -0.26587685591E+02  0.26587685591E+02  0.00000000000E+00 0.  1.
         23    2    1    2    0    0  0.19669477737E+02 -0.58899436170E+02  0.36427500341E+03  0.39009198874E+03  0.12497779657E+03 0.  0.
          5    1    3    3  502    0 -0.13277325172E+02 -0.87583689091E+02  0.18027030299E+03  0.20091456418E+03  0.47000000000E+01 0. -1.
         -5    1    3    3    0  502  0.32946802909E+02  0.28684252922E+02  0.18400470042E+03  0.18917742456E+03  0.47000000000E+01 0. -1.
        -11    1    1    2    0    0 -0.54898153362E+02  0.41112251109E+02  0.11615835478E+03  0.13489546997E+03  0.00000000000E+00 0. -1.
         11    1    1    2    0    0  0.35228675625E+02  0.17787185061E+02  0.86015002278E+02  0.94636272938E+02  0.00000000000E+00 0.  1.
<mgrwt>
<rscale>  0 0.13109701E+03</rscale>
<asrwt>0</asrwt>
<pdfrwt beam="1">  1        2 0.91236305E-01 0.13955458E+03</pdfrwt>
<pdfrwt beam="2">  1       -2 0.40904136E-02 0.13955458E+03</pdfrwt>
<totfact> 0.12945987E+04</totfact>
</mgrwt>
</event>
<event>
 7    1  0.6419647E-006  0.1455527E+03  0.7546771E-02  0.1217199E+00
         -2   -1    0    0    0  501 -0.00000000000E+00  0.00000000000E+00  0.32960001209E+02  0.32960001209E+02  0.00000000000E+00 0.  1.
          2   -1    0    0  501    0  0.00000000000E+00 -0.00000000000E+00 -0.57097244664E+03  0.57097244664E+03  0.00000000000E+00 0. -1.
         23    2    1    2    0    0 -0.74469954435E+02 -0.39097453786E+01 -0.39235431688E+03  0.41848237929E+03  0.12499812629E+03 0.  0.
          5    1    3    3  502    0 -0.82595720662E+02 -0.51230921401E+02 -0.26128553359E+03  0.27881692998E+03  0.47000000000E+01 0. -1.
         -5    1    3    3    0  502  0.81257662261E+01  0.47321176023E+02 -0.13106878330E+03  0.13966544931E+03  0.47000000000E+01 0. -1.
        -11    1    1    2    0    0  0.74883935466E+02  0.33207554229E+02 -0.84791526403E+02  0.11789804239E+03  0.00000000000E+00 0.  1.
         11    1    1    2    0    0 -0.41398103067E+00 -0.29297808850E+02 -0.60866602140E+02  0.67552026170E+02  0.00000000000E+00 0. -1.
<mgrwt>
<rscale>  0 0.13716265E+03</rscale>
<asrwt>0</asrwt>
<pdfrwt beam="2">  1        2 0.87841912E-01 0.14555271E+03</pdfrwt>
<pdfrwt beam="1">  1       -2 0.50707696E-02 0.14555271E+03</pdfrwt>
<totfact> 0.98257782E+03</totfact>
</mgrwt>
</event>
<event>
 7    1  0.6419647E-006  0.1553794E+03  0.7546771E-02  0.1201756E+00
         -1   -1    0    0    0  501 -0.00000000000E+00  0.00000000000E+00  0.20793867449E+02  0.20793867449E+02  0.00000000000E+00 0.  1.
          1   -1    0    0  501    0  0.00000000000E+00 -0.00000000000E+00 -0.99168069589E+03  0.99168069589E+03  0.00000000000E+00 0. -1.
         23    2    1    2    0    0  0.12771436698E+02 -0.91413123160E+02 -0.49441513456E+03  0.51825580275E+03  0.12499313229E+03 0.  0.
          5    1    3    3  502    0  0.61866295590E+02 -0.84990295661E+02 -0.35295490335E+03  0.36830699517E+03  0.47000000000E+01 0. -1.
         -5    1    3    3    0  502 -0.49094858892E+02 -0.64228274990E+01 -0.14146023120E+03  0.14994880758E+03  0.47000000000E+01 0. -1.
        -11    1    1    2    0    0 -0.32031094955E+02  0.80623326617E+02 -0.45577558009E+03  0.46395850164E+03  0.00000000000E+00 0. -1.
         11    1    1    2    0    0  0.19259658257E+02  0.10789796543E+02 -0.20696113794E+02  0.30260258951E+02  0.00000000000E+00 0.  1.
<mgrwt>
<rscale>  0 0.14896044E+03</rscale>
<asrwt>0</asrwt>
<pdfrwt beam="2">  1        1 0.15256628E+00 0.15537938E+03</pdfrwt>
<pdfrwt beam="1">  1       -1 0.31990561E-02 0.15537938E+03</pdfrwt>
<totfact> 0.54522365E+03</totfact>
</mgrwt>
</event>
<event>
 7    1  0.6419647E-006  0.3227912E+03  0.7546771E-02  0.1075754E+00
         -2   -1    0    0    0  501 -0.00000000000E+00  0.00000000000E+00  0.10589792607E+03  0.10589792607E+03  0.00000000000E+00 0.  1.
          2   -1    0    0  501    0  0.00000000000E+00 -0.00000000000E+00 -0.99611952925E+03  0.99611952925E+03  0.00000000000E+00 0. -1.
         23    2    1    2    0    0 -0.28846561129E+03 -0.73186124069E+02 -0.57422632654E+03  0.65873364336E+03  0.12500208456E+03 0.  0.
          5    1    3    3  502    0 -0.16294637767E+03 -0.37467825817E+01 -0.20073947564E+03  0.25861938724E+03  0.47000000000E+01 0. -1.
         -5    1    3    3    0  502 -0.12551923362E+03 -0.69439341488E+02 -0.37348685090E+03  0.40011425612E+03  0.47000000000E+01 0. -1.
        -11    1    1    2    0    0  0.33339534177E+02 -0.68650561144E+01 -0.78847758731E+02  0.85881444978E+02  0.00000000000E+00 0. -1.
         11    1    1    2    0    0  0.25512607711E+03  0.80051180184E+02 -0.23714751791E+03  0.35740236698E+03  0.00000000000E+00 0.  1.
<mgrwt>
<rscale>  0 0.31977174E+03</rscale>
<asrwt>0</asrwt>
<pdfrwt beam="2">  1        2 0.15324916E+00 0.32279117E+03</pdfrwt>
<pdfrwt beam="1">  1       -2 0.16291988E-01 0.32279117E+03</pdfrwt>
<totfact> 0.78720420E+02</totfact>
</mgrwt>
</event>
<event>
 7    1  0.6419647E-006  0.1332341E+03  0.7546771E-02  0.1235460E+00
          2   -1    0    0  501    0  0.00000000000E+00  0.00000000000E+00  0.20466579543E+03  0.20466579543E+03  0.00000000000E+00 0. -1.
         -2   -1    0    0    0  501 -0.00000000000E+00 -0.00000000000E+00 -0.67950709233E+02  0.67950709233E+02  0.00000000000E+00 0.  1.
         23    2    1    2    0    0  0.44301946218E+02  0.12793640537E+02  0.83103777371E+02  0.15702725664E+03  0.12499992735E+03 0.  0.
          5    1    3    3  502    0  0.81519577621E+02  0.31705747062E+02  0.38279798071E+02  0.95593560833E+02  0.47000000000E+01 0.  1.
         -5    1    3    3    0  502 -0.37217631404E+02 -0.18912106525E+02  0.44823979300E+02  0.61433695810E+02  0.47000000000E+01 0.  1.
        -11    1    1    2    0    0 -0.34066858738E+02  0.37040965362E+02  0.35503362976E+02  0.61587927079E+02  0.00000000000E+00 0. -1.
         11    1    1    2    0    0 -0.10235087479E+02 -0.49834605899E+02  0.18107945853E+02  0.54001320945E+02  0.00000000000E+00 0.  1.
<mgrwt>
<rscale>  0 0.12475024E+03</rscale>
<asrwt>0</asrwt>
<pdfrwt beam="1">  1        2 0.31487045E-01 0.13323409E+03</pdfrwt>
<pdfrwt beam="2">  1       -2 0.10453955E-01 0.13323409E+03</pdfrwt>
<totfact> 0.96800564E+03</totfact>
</mgrwt>
</event>
<event>
 7    1  0.6419647E-006  0.1581962E+03  0.7546771E-02  0.1198543E+00
         -2   -1    0    0    0  501 -0.00000000000E+00  0.00000000000E+00  0.33579458194E+02  0.33579458194E+02  0.00000000000E+00 0.  1.
          2   -1    0    0  501    0  0.00000000000E+00 -0.00000000000E+00 -0.11203247647E+04  0.11203247647E+04  0.00000000000E+00 0. -1.
         23    2    1    2    0    0  0.10323489435E+02  0.96407245754E+02 -0.94933228974E+03  0.96242289701E+03  0.12500041954E+03 0.  0.
          5    1    3    3  502    0 -0.30112084385E+02 -0.13220785968E+02 -0.36467624831E+03  0.36618626803E+03  0.47000000000E+01 0. -1.
         -5    1    3    3    0  502  0.40435573819E+02  0.10962803172E+03 -0.58465604142E+03  0.59623662898E+03  0.47000000000E+01 0. -1.
        -11    1    1    2    0    0 -0.21391597488E+02 -0.61684642103E+02 -0.19610167392E+02  0.68170038723E+02  0.00000000000E+00 0.  1.
         11    1    1    2    0    0  0.11068108053E+02 -0.34722603652E+02 -0.11780284943E+03  0.12331128721E+03  0.00000000000E+00 0. -1.
<mgrwt>
<rscale>  0 0.15158175E+03</rscale>
<asrwt>0</asrwt>
<pdfrwt beam="2">  1        2 0.17235768E+00 0.15819620E+03</pdfrwt>
<pdfrwt beam="1">  1       -2 0.51660699E-02 0.15819620E+03</pdfrwt>
<totfact> 0.40838125E+03</totfact>
</mgrwt>
</event>
<event>
 7    1  0.6419647E-006  0.1672454E+03  0.7546771E-02  0.1188207E+00
         -2   -1    0    0    0  501 -0.00000000000E+00  0.00000000000E+00  0.11716244588E+03  0.11716244588E+03  0.00000000000E+00 0.  1.
          2   -1    0    0  501    0  0.00000000000E+00 -0.00000000000E+00 -0.28960013733E+03  0.28960013733E+03  0.00000000000E+00 0. -1.
         23    2    1    2    0    0 -0.97919087629E+02  0.52526726226E+02 -0.20183564847E+03  0.26212337275E+03  0.12499531534E+03 0.  0.
          5    1    3    3  502    0 -0.61730274331E+02 -0.30719228731E+02 -0.12616447303E+03  0.14385361323E+03  0.47000000000E+01 0. -1.
         -5    1    3    3    0  502 -0.36188813298E+02  0.83245954957E+02 -0.75671175441E+02  0.11826975952E+03  0.47000000000E+01 0. -1.
        -11    1    1    2    0    0  0.71371044631E+01 -0.46915890041E+02  0.24855026199E+02  0.53570619987E+02  0.00000000000E+00 0.  1.
         11    1    1    2    0    0  0.90781983166E+02 -0.56108361857E+01  0.45429308280E+01  0.91068590473E+02  0.00000000000E+00 0. -1.
<mgrwt>
<rscale>  0 0.16043420E+03</rscale>
<asrwt>0</asrwt>
<pdfrwt beam="2">  1        2 0.44553867E-01 0.16724543E+03</pdfrwt>
<pdfrwt beam="1">  1       -2 0.18024992E-01 0.16724543E+03</pdfrwt>
<totfact> 0.27931132E+03</totfact>
</mgrwt>
</event>
<event>
 7    1  0.6419647E-006  0.1327667E+03  0.7546771E-02  0.1236305E+00
         -2   -1    0    0    0  501 -0.00000000000E+00  0.00000000000E+00  0.23475800881E+03  0.23475800881E+03  0.00000000000E+00 0.  1.
          2   -1    0    0  501    0  0.00000000000E+00 -0.00000000000E+00 -0.59633348991E+02  0.59633348991E+02  0.00000000000E+00 0. -1.
         23    2    1    2    0    0  0.13887046844E+02  0.42465098251E+02  0.79304599012E+02  0.15464868436E+03  0.12502344384E+03 0.  0.
          5    1    3    3  502    0 -0.40212721859E+02  0.15373539280E+02 -0.12069976999E+02  0.44957569485E+02  0.47000000000E+01 0. -1.
         -5    1    3    3    0  502  0.54099768703E+02  0.27091558972E+02  0.91374576010E+02  0.10969111487E+03  0.47000000000E+01 0. -1.
        -11    1    1    2    0    0 -0.24155495792E+02  0.86644810505E+01 -0.50817524055E+01  0.26160761004E+02  0.00000000000E+00 0. -1.
         11    1    1    2    0    0  0.10268448948E+02 -0.51129579302E+02  0.10090181321E+03  0.11358191244E+03  0.00000000000E+00 0.  1.
<mgrwt>
<rscale>  0 0.12421276E+03</rscale>
<asrwt>0</asrwt>
<pdfrwt beam="2">  1        2 0.91743615E-02 0.13276670E+03</pdfrwt>
<pdfrwt beam="1">  1       -2 0.36116616E-01 0.13276670E+03</pdfrwt>
<totfact> 0.49097827E+03</totfact>
</mgrwt>
</event>
<event>
 7    1  0.6419647E-006  0.1356006E+03  0.7546771E-02  0.1231280E+00
          4   -1    0    0  501    0  0.00000000000E+00  0.00000000000E+00  0.11203780062E+04  0.11203780062E+04  0.00000000000E+00 0. -1.
         -4   -1    0    0    0  501 -0.00000000000E+00 -0.00000000000E+00 -0.13825003870E+02  0.13825003870E+02  0.00000000000E+00 0.  1.
         23    2    1    2    0    0  0.52185925821E+02 -0.63296340921E+01  0.75433082820E+03  0.76642189944E+03  0.12499637770E+03 0.  0.
          5    1    3    3  502    0  0.72591099291E+02  0.25792072438E+02  0.66144858740E+03  0.66593620000E+03  0.47000000000E+01 0. -1.
         -5    1    3    3    0  502 -0.20405173470E+02 -0.32121706530E+02  0.92882240801E+02  0.10048569944E+03  0.47000000000E+01 0. -1.
        -11    1    1    2    0    0 -0.66393642855E+02 -0.23761180476E+02  0.27057548282E+03  0.27961366457E+03  0.00000000000E+00 0.  1.
         11    1    1    2    0    0  0.14207717034E+02  0.30090814568E+02  0.81646691330E+02  0.88167446089E+02  0.00000000000E+00 0. -1.
<mgrwt>
<rscale>  0 0.12745608E+03</rscale>
<asrwt>0</asrwt>
<pdfrwt beam="1">  1        4 0.17236578E+00 0.13560063E+03</pdfrwt>
<pdfrwt beam="2">  1       -4 0.21269245E-02 0.13560063E+03</pdfrwt>
<totfact> 0.34083036E+02</totfact>
</mgrwt>
</event>
<event>
 7    1  0.6419647E-006  0.1308830E+03  0.7546771E-02  0.1239836E+00
         -3   -1    0    0    0  501 -0.00000000000E+00  0.00000000000E+00  0.71254780285E+02  0.71254780285E+02  0.00000000000E+00 0.  1.
          3   -1    0    0  501    0  0.00000000000E+00 -0.00000000000E+00 -0.18921889683E+03  0.18921889683E+03  0.00000000000E+00 0. -1.
         23    2    1    2    0    0 -0.38625222224E+02  0.37310568565E+01 -0.86083454231E+02  0.15665477198E+03  0.12499811164E+03 0.  0.
          5    1    3    3  502    0  0.34653364116E+02 -0.19026946100E+02  0.18511198772E+01  0.39854698183E+02  0.47000000000E+01 0. -1.
         -5    1    3    3    0  502 -0.73278586340E+02  0.22758002957E+02 -0.87934574108E+02  0.11680007379E+03  0.47000000000E+01 0. -1.
        -11    1    1    2    0    0  0.46735750546E+02  0.77563580818E+01 -0.57555451959E+02  0.74545432590E+02  0.00000000000E+00 0. -1.
         11    1    1    2    0    0 -0.81105283215E+01 -0.11487414938E+02  0.25674789646E+02  0.29273472547E+02  0.00000000000E+00 0.  1.
<mgrwt>
<rscale>  0 0.12199855E+03</rscale>
<asrwt>0</asrwt>
<pdfrwt beam="2">  1        3 0.29110599E-01 0.13088299E+03</pdfrwt>
<pdfrwt beam="1">  1       -3 0.10962274E-01 0.13088299E+03</pdfrwt>
<totfact> 0.16397844E+03</totfact>
</mgrwt>
</event>
<event>
 7    1  0.6419647E-006  0.1295469E+03  0.7546771E-02  0.1254565E+00
          1   -1    0    0  501    0  0.00000000000E+00  0.00000000000E+00  0.75987299089E+03  0.75987299089E+03  0.00000000000E+00 0. -1.
         -1   -1    0    0    0  501 -0.00000000000E+00 -0.00000000000E+00 -0.13923784984E+02  0.13923784984E+02  0.00000000000E+00 0.  1.
         23    2    1    2    0    0  0.43326406201E+01  0.33738223223E+02  0.44813876412E+03  0.46648768843E+03  0.12500148826E+03 0.  0.
          5    1    3    3  502    0  0.52865818694E+02 -0.19811566340E+02  0.17714058829E+03  0.18597895302E+03  0.47000000000E+01 0. -1.
         -5    1    3    3    0  502 -0.48533178073E+02  0.53549789563E+02  0.27099817583E+03  0.28050873541E+03  0.47000000000E+01 0. -1.
        -11    1    1    2    0    0  0.15656921836E+02 -0.48374185960E+02  0.18964572023E+03  0.19634332245E+03  0.00000000000E+00 0.  1.
         11    1    1    2    0    0 -0.19989562456E+02  0.14635962737E+02  0.10816472155E+03  0.11096576500E+03  0.00000000000E+00 0. -1.
<mgrwt>
<rscale>  0 0.11330739E+03</rscale>
<asrwt>0</asrwt>
<pdfrwt beam="1">  1        1 0.11690351E+00 0.12954695E+03</pdfrwt>
<pdfrwt beam="2">  1       -1 0.21421214E-02 0.12954695E+03</pdfrwt>
<totfact> 0.14682301E+04</totfact>
</mgrwt>
</event>
<event>
 7    1  0.6419647E-006  0.1254251E+03  0.7546771E-02  0.1249515E+00
         -1   -1    0    0    0  501 -0.00000000000E+00  0.00000000000E+00  0.71877709901E+02  0.71877709901E+02  0.00000000000E+00 0.  1.
          1   -1    0    0  501    0  0.00000000000E+00 -0.00000000000E+00 -0.16725211983E+03  0.16725211983E+03  0.00000000000E+00 0. -1.
         23    2    1    2    0    0  0.20116799164E+00 -0.95056715160E+01 -0.68575694961E+02  0.14294784072E+03  0.12506422737E+03 0.  0.
          5    1    3    3  502    0  0.27117060986E+02 -0.60036954089E+02 -0.49080489335E+02  0.82284599325E+02  0.47000000000E+01 0.  1.
         -5    1    3    3    0  502 -0.26915892995E+02  0.50531282573E+02 -0.19495205627E+02  0.60663241395E+02  0.47000000000E+01 0.  1.
        -11    1    1    2    0    0  0.25325617069E+02 -0.19665176268E+02 -0.43444990350E+02  0.53996048227E+02  0.00000000000E+00 0. -1.
         11    1    1    2    0    0 -0.25526785061E+02  0.29170847784E+02  0.16646275380E+02  0.42185940786E+02  0.00000000000E+00 0.  1.
<mgrwt>
<rscale>  0 0.11619163E+03</rscale>
<asrwt>0</asrwt>
<pdfrwt beam="2">  1        1 0.25731095E-01 0.12542511E+03</pdfrwt>
<pdfrwt beam="1">  1       -1 0.11058109E-01 0.12542511E+03</pdfrwt>
<totfact> 0.90049688E+03</totfact>
</mgrwt>
</event>
<event>
 7    1  0.6419647E-006  0.1283677E+03  0.7546771E-02  0.1243486E+00
          2   -1    0    0  501    0  0.00000000000E+00  0.00000000000E+00  0.11007909829E+03  0.11007909829E+03  0.00000000000E+00 0. -1.
         -2   -1    0    0    0  501 -0.00000000000E+00 -0.00000000000E+00 -0.12198924615E+03  0.12198924615E+03  0.00000000000E+00 0.  1.
         23    2    1    2    0    0 -0.11048477101E+02 -0.27073846095E+02  0.19543201572E+02  0.12984680388E+03  0.12499277483E+03 0.  0.
          5    1    3    3  502    0 -0.22378054331E+02 -0.54206438657E+01  0.69863024104E+02  0.73709516566E+02  0.47000000000E+01 0. -1.
         -5    1    3    3    0  502  0.11329577230E+02 -0.21653202229E+02 -0.50319822531E+02  0.56137287310E+02  0.47000000000E+01 0. -1.
        -11    1    1    2    0    0  0.28556809561E+02 -0.27583421566E+02 -0.15806719035E+02  0.42733931299E+02  0.00000000000E+00 0.  1.
         11    1    1    2    0    0 -0.17508332460E+02  0.54657267662E+02 -0.15646630401E+02  0.59487609270E+02  0.00000000000E+00 0. -1.
<mgrwt>
<rscale>  0 0.11976439E+03</rscale>
<asrwt>0</asrwt>
<pdfrwt beam="1">  1        2 0.16935246E-01 0.12836766E+03</pdfrwt>
<pdfrwt beam="2">  1       -2 0.18767576E-01 0.12836766E+03</pdfrwt>
<totfact> 0.74470706E+03</totfact>
</mgrwt>
</event>
<event>
 7    1  0.6419647E-006  0.2824713E+03  0.7546771E-02  0.1096159E+00
         -2   -1    0    0    0  501 -0.00000000000E+00  0.00000000000E+00  0.60043422278E+03  0.60043422278E+03  0.00000000000E+00 0.  1.
          2   -1    0    0  501    0  0.00000000000E+00 -0.00000000000E+00 -0.12968679507E+03  0.12968679507E+03  0.00000000000E+00 0. -1.
         23    2    1    2    0    0 -0.23068604371E+03  0.10463247934E+03  0.18640250645E+03  0.33843157475E+03  0.12500411947E+03 0.  0.
          5    1    3    3  502    0 -0.20274063536E+03  0.60987544874E+02  0.92528650888E+02  0.23109930137E+03  0.47000000000E+01 0.  1.
         -5    1    3    3    0  502 -0.27945408345E+02  0.43644934464E+02  0.93873855561E+02  0.10733227338E+03  0.47000000000E+01 0.  1.
        -11    1    1    2    0    0  0.73373076307E+02  0.67677453130E+01  0.10588945087E+03  0.12900382362E+03  0.00000000000E+00 0. -1.
         11    1    1    2    0    0  0.15731296740E+03 -0.11140022465E+03  0.17845547039E+03  0.26268561947E+03  0.00000000000E+00 0.  1.
<mgrwt>
<rscale>  0 0.27914145E+03</rscale>
<asrwt>0</asrwt>
<pdfrwt beam="2">  1        2 0.19951815E-01 0.28247130E+03</pdfrwt>
<pdfrwt beam="1">  1       -2 0.92374494E-01 0.28247130E+03</pdfrwt>
<totfact> 0.28781130E+02</totfact>
</mgrwt>
</event>
<event>
 7    1  0.6419647E-006  0.1265167E+03  0.7546771E-02  0.1247634E+00
         -1   -1    0    0    0  501 -0.00000000000E+00  0.00000000000E+00  0.58234649869E+02  0.58234649869E+02  0.00000000000E+00 0.  1.
          1   -1    0    0  501    0  0.00000000000E+00 -0.00000000000E+00 -0.25567940644E+03  0.25567940644E+03  0.00000000000E+00 0. -1.
         23    2    1    2    0    0  0.47257998617E+01 -0.18979028762E+02 -0.17812054496E+03  0.21847975927E+03  0.12499575975E+03 0.  0.
          5    1    3    3  502    0 -0.31264378390E+02  0.46002651485E+01  0.31593299713E+01  0.32104441459E+02  0.47000000000E+01 0.  1.
         -5    1    3    3    0  502  0.35990178252E+02 -0.23579293910E+02 -0.18127987493E+03  0.18637531781E+03  0.47000000000E+01 0.  1.
        -11    1    1    2    0    0 -0.31233178192E+02  0.37900761968E+02 -0.33979447619E+02  0.59720867695E+02  0.00000000000E+00 0.  1.
         11    1    1    2    0    0  0.26507378331E+02 -0.18921733206E+02  0.14655236008E+02  0.35713429350E+02  0.00000000000E+00 0. -1.
<mgrwt>
<rscale>  0 0.11729089E+03</rscale>
<asrwt>0</asrwt>
<pdfrwt beam="2">  1        1 0.39335294E-01 0.12651671E+03</pdfrwt>
<pdfrwt beam="1">  1       -1 0.89591768E-02 0.12651671E+03</pdfrwt>
<totfact> 0.73364814E+03</totfact>
</mgrwt>
</event>
<event>
 6    1  0.6419647E-006  0.1434417E+03  0.7546771E-02  0.1220849E+00
          1   -1    0    0  501    0  0.00000000000E+00  0.00000000000E+00  0.17568679877E+03  0.17568679877E+03  0.00000000000E+00 0. -1.
         -1   -1    0    0    0  501 -0.00000000000E+00 -0.00000000000E+00 -0.22891747352E+03  0.22891747352E+03  0.00000000000E+00 0.  1.
          5    1    1    2  502    0 -0.24249580555E+02  0.27064301630E+02  0.72126792250E+02  0.80900449567E+02  0.47000000000E+01 0. -1.
         -5    1    1    2    0  502  0.82344751432E+02 -0.49689272218E+02  0.55741170303E+02  0.11126028010E+03  0.47000000000E+01 0.  1.
        -11    1    1    2    0    0 -0.46380064155E+02  0.47503052690E+02 -0.17050638298E+03  0.18297561860E+03  0.00000000000E+00 0.  1.
         11    1    1    2    0    0 -0.11715106723E+02 -0.24878082102E+02 -0.10592254318E+02  0.29467924022E+02  0.00000000000E+00 0. -1.
<mgrwt>
<rscale>  0 0.13455549E+03</rscale>
<asrwt>0</asrwt>
<pdfrwt beam="1">  1        1 0.27028738E-01 0.14344173E+03</pdfrwt>
<pdfrwt beam="2">  1       -1 0.35218073E-01 0.14344173E+03</pdfrwt>
<totfact> 0.13199402E+03</totfact>
</mgrwt>
</event>
<event>
 7    1  0.6419647E-006  0.1290165E+03  0.7546771E-02  0.1243389E+00
         -2   -1    0    0    0  501 -0.00000000000E+00  0.00000000000E+00  0.25276104007E+02  0.25276104007E+02  0.00000000000E+00 0.  1.
          2   -1    0    0  501    0  0.00000000000E+00 -0.00000000000E+00 -0.76942117819E+03  0.76942117819E+03  0.00000000000E+00 0. -1.
         23    2    1    2    0    0 -0.18680268439E+02  0.25883351323E+02 -0.64076138728E+03  0.65362100352E+03  0.12500544194E+03 0.  0.
          5    1    3    3  502    0 -0.13807609136E+02  0.74383996600E+02 -0.30348685493E+03  0.31280983063E+03  0.47000000000E+01 0. -1.
         -5    1    3    3    0  502 -0.48726593032E+01 -0.48500645277E+02 -0.33727453235E+03  0.34081117290E+03  0.47000000000E+01 0. -1.
        -11    1    1    2    0    0  0.17489741184E+02 -0.36832114323E+02 -0.11680364267E+03  0.12371574933E+03  0.00000000000E+00 0. -1.
         11    1    1    2    0    0  0.11905272547E+01  0.10948763000E+02  0.13419955763E+02  0.17360529343E+02  0.00000000000E+00 0.  1.
<mgrwt>
<rscale>  0 0.11982348E+03</rscale>
<asrwt>0</asrwt>
<pdfrwt beam="2">  1        2 0.11837250E+00 0.12901651E+03</pdfrwt>
<pdfrwt beam="1">  1       -2 0.38886310E-02 0.12901651E+03</pdfrwt>
<totfact> 0.10221431E+04</totfact>
</mgrwt>
</event>
<event>
 7    1  0.6419647E-006  0.1564962E+03  0.7546771E-02  0.1200862E+00
          2   -1    0    0  501    0  0.00000000000E+00  0.00000000000E+00  0.55660891037E+03  0.55660891037E+03  0.00000000000E+00 0. -1.
         -2   -1    0    0    0  501 -0.00000000000E+00 -0.00000000000E+00 -0.39198349938E+02  0.39198349938E+02  0.00000000000E+00 0.  1.
         23    2    1    2    0    0  0.53394185455E+02 -0.77556169572E+02  0.34883684218E+03  0.38233258979E+03  0.12500067310E+03 0.  0.
          5    1    3    3  502    0 -0.21927573943E+01 -0.78802366735E+01  0.24592705623E+03  0.24610793018E+03  0.47000000000E+01 0. -1.
         -5    1    3    3    0  502  0.55586942850E+02 -0.69675932899E+02  0.10290978596E+03  0.13622465961E+03  0.47000000000E+01 0. -1.
        -11    1    1    2    0    0 -0.23153037083E+02  0.45333275560E+02  0.16072349351E+03  0.16859184549E+03  0.00000000000E+00 0. -1.
         11    1    1    2    0    0 -0.30241148372E+02  0.32222894012E+02  0.78502247360E+01  0.44882825020E+02  0.00000000000E+00 0.  1.
<mgrwt>
<rscale>  0 0.14968374E+03</rscale>
<asrwt>0</asrwt>
<pdfrwt beam="1">  1        2 0.85632134E-01 0.15649622E+03</pdfrwt>
<pdfrwt beam="2">  1       -2 0.60305158E-02 0.15649622E+03</pdfrwt>
<totfact> 0.78135589E+03</totfact>
</mgrwt>
</event>
<event>
 7    1  0.6419647E-006  0.1441069E+03  0.7546771E-02  0.1218306E+00
         -3   -1    0    0    0  501 -0.00000000000E+00  0.00000000000E+00  0.23394585352E+02  0.23394585352E+02  0.00000000000E+00 0.  1.
          3   -1    0    0  501    0  0.00000000000E+00 -0.00000000000E+00 -0.74195889666E+03  0.74195889666E+03  0.00000000000E+00 0. -1.
         23    2    1    2    0    0 -0.27817260234E+02 -0.65408147574E+02 -0.46242270008E+03  0.48435683883E+03  0.12535855786E+03 0.  0.
          5    1    3    3  502    0 -0.69175458328E+02 -0.47645009473E+02 -0.18451653625E+03  0.20278987428E+03  0.47000000000E+01 0.  1.
         -5    1    3    3    0  502  0.41358198095E+02 -0.17763138101E+02 -0.27790616383E+03  0.28156696454E+03  0.47000000000E+01 0.  1.
        -11    1    1    2    0    0 -0.77886230673E+01  0.35936013951E+02 -0.23119506443E+02  0.43434678842E+02  0.00000000000E+00 0.  1.
         11    1    1    2    0    0  0.35605883301E+02  0.29472133624E+02 -0.23302210478E+03  0.23756196434E+03  0.00000000000E+00 0. -1.
<mgrwt>
<rscale>  0 0.13636443E+03</rscale>
<asrwt>0</asrwt>
<pdfrwt beam="2">  1        3 0.11414751E+00 0.14410688E+03</pdfrwt>
<pdfrwt beam="1">  1       -3 0.35991674E-02 0.14410688E+03</pdfrwt>
<totfact> 0.59819541E+02</totfact>
</mgrwt>
</event>
<event>
 7    1  0.6419647E-006  0.3653212E+03  0.7546771E-02  0.1057525E+00
         -2   -1    0    0    0  501 -0.00000000000E+00  0.00000000000E+00  0.96200013686E+02  0.96200013686E+02  0.00000000000E+00 0.  1.
          2   -1    0    0  501    0  0.00000000000E+00 -0.00000000000E+00 -0.18893147867E+04  0.18893147867E+04  0.00000000000E+00 0. -1.
         23    2    1    2    0    0 -0.34118638974E+03 -0.37740912890E+02 -0.14371666048E+04  0.14828713457E+04  0.12500819534E+03 0.  0.
          5    1    3    3  502    0 -0.17037372492E+02  0.29279332855E+02 -0.12563485563E+03  0.13020659869E+03  0.47000000000E+01 0. -1.
         -5    1    3    3    0  502 -0.32414901725E+03 -0.67020245745E+02 -0.13115317491E+04  0.13526647470E+04  0.47000000000E+01 0. -1.
        -11    1    1    2    0    0  0.28037143790E+03  0.40164744611E+02 -0.23814438045E+03  0.37004607259E+03  0.00000000000E+00 0.  1.
         11    1    1    2    0    0  0.60814951838E+02 -0.24238317213E+01 -0.11780378781E+03  0.13259738214E+03  0.00000000000E+00 0. -1.
<mgrwt>
<rscale>  0 0.36268660E+03</rscale>
<asrwt>0</asrwt>
<pdfrwt beam="2">  1        2 0.29066379E+00 0.36532120E+03</pdfrwt>
<pdfrwt beam="1">  1       -2 0.14800003E-01 0.36532120E+03</pdfrwt>
<totfact> 0.29368148E+02</totfact>
</mgrwt>
</event>
<event>
 7    1  0.6419647E-006  0.1341233E+03  0.7546771E-02  0.1234690E+00
          1   -1    0    0  501    0  0.00000000000E+00  0.00000000000E+00  0.12690472753E+03  0.12690472753E+03  0.00000000000E+00 0. -1.
         -1   -1    0    0    0  501 -0.00000000000E+00 -0.00000000000E+00 -0.12478483572E+03  0.12478483572E+03  0.00000000000E+00 0.  1.
         23    2    1    2    0    0  0.33196463031E+02 -0.35516420564E+02  0.44418785524E+02  0.14128722844E+03  0.12500252448E+03 0.  0.
          5    1    3    3  502    0  0.50559129316E+02 -0.30299319784E+02  0.80943396756E+02  0.10024069939E+03  0.47000000000E+01 0.  1.
         -5    1    3    3    0  502 -0.17362666285E+02 -0.52171007801E+01 -0.36524611232E+02  0.41046529046E+02  0.47000000000E+01 0.  1.
        -11    1    1    2    0    0 -0.28883889625E+02  0.59604519448E+02 -0.51868332568E+02  0.84126700529E+02  0.00000000000E+00 0.  1.
         11    1    1    2    0    0 -0.43125734060E+01 -0.24088098884E+02  0.95694388537E+01  0.26275634287E+02  0.00000000000E+00 0. -1.
<mgrwt>
<rscale>  0 0.12524332E+03</rscale>
<asrwt>0</asrwt>
<pdfrwt beam="1">  1        1 0.19523804E-01 0.13412327E+03</pdfrwt>
<pdfrwt beam="2">  1       -1 0.19197667E-01 0.13412327E+03</pdfrwt>
<totfact> 0.54119301E+03</totfact>
</mgrwt>
</event>
<event>
 7    1  0.6419647E-006  0.1470603E+03  0.7546771E-02  0.1215952E+00
          1   -1    0    0  501    0  0.00000000000E+00  0.00000000000E+00  0.12835899951E+04  0.12835899951E+04  0.00000000000E+00 0. -1.
         -1   -1    0    0    0  501 -0.00000000000E+00 -0.00000000000E+00 -0.18246461968E+02  0.18246461968E+02  0.00000000000E+00 0.  1.
         23    2    1    2    0    0 -0.17935683985E+02  0.75356957807E+02  0.10275125469E+04  0.10379830281E+04  0.12500549064E+03 0.  0.
          5    1    3    3  502    0  0.27421380052E+01  0.91676887046E+02  0.42191172063E+03  0.43179133959E+03  0.47000000000E+01 0. -1.
         -5    1    3    3    0  502 -0.20677821990E+02 -0.16319929239E+02  0.60560082628E+03  0.60619168850E+03  0.47000000000E+01 0. -1.
        -11    1    1    2    0    0  0.35111883404E+02 -0.14824667533E+02  0.15622137614E+03  0.16080340011E+03  0.00000000000E+00 0. -1.
         11    1    1    2    0    0 -0.17176199419E+02 -0.60532290274E+02  0.81609610067E+02  0.10305002886E+03  0.00000000000E+00 0.  1.
<mgrwt>
<rscale>  0 0.13806828E+03</rscale>
<asrwt>0</asrwt>
<pdfrwt beam="1">  1        1 0.19747531E+00 0.14706030E+03</pdfrwt>
<pdfrwt beam="2">  1       -1 0.28071490E-02 0.14706030E+03</pdfrwt>
<totfact> 0.41113282E+03</totfact>
</mgrwt>
</event>
<event>
 7    1  0.6419647E-006  0.1606523E+03  0.7546771E-02  0.1195336E+00
         -1   -1    0    0    0  501 -0.00000000000E+00  0.00000000000E+00  0.23715190397E+03  0.23715190397E+03  0.00000000000E+00 0.  1.
          1   -1    0    0  501    0  0.00000000000E+00 -0.00000000000E+00 -0.17652460234E+03  0.17652460234E+03  0.00000000000E+00 0. -1.
         23    2    1    2    0    0 -0.50045679484E+02 -0.87632871078E+02 -0.11031612504E+03  0.19488148431E+03  0.12500022141E+03 0.  0.
          5    1    3    3  502    0 -0.26261906811E+02 -0.95540754785E+02 -0.12938846648E+03  0.16303738477E+03  0.47000000000E+01 0.  1.
         -5    1    3    3    0  502 -0.23783772673E+02  0.79078837073E+01  0.19072341440E+02  0.31844099536E+02  0.47000000000E+01 0.  1.
        -11    1    1    2    0    0  0.53136352313E+01  0.67526233696E+02  0.15165683955E+03  0.16609582757E+03  0.00000000000E+00 0.  1.
         11    1    1    2    0    0  0.44732044253E+02  0.20106637382E+02  0.19286587124E+02  0.52699194422E+02  0.00000000000E+00 0. -1.
<mgrwt>
<rscale>  0 0.15425840E+03</rscale>
<asrwt>0</asrwt>
<pdfrwt beam="2">  1        1 0.27157631E-01 0.16065225E+03</pdfrwt>
<pdfrwt beam="1">  1       -1 0.36484908E-01 0.16065225E+03</pdfrwt>
<totfact> 0.12378851E+03</totfact>
</mgrwt>
</event>
<event>
 7    1  0.6419647E-006  0.1466862E+03  0.7546771E-02  0.1213795E+00
         -2   -1    0    0    0  501 -0.00000000000E+00  0.00000000000E+00  0.50125435205E+02  0.50125435205E+02  0.00000000000E+00 0.  1.
          2   -1    0    0  501    0  0.00000000000E+00 -0.00000000000E+00 -0.35609771963E+03  0.35609771963E+03  0.00000000000E+00 0. -1.
         23    2    1    2    0    0  0.76290474304E+02 -0.84548027061E+01 -0.16748083340E+03  0.22263571121E+03  0.12500044077E+03 0.  0.
          5    1    3    3  502    0 -0.29986545328E+02  0.20055294707E+02 -0.46332288524E+02  0.58908222740E+02  0.47000000000E+01 0.  1.
         -5    1    3    3    0  502  0.10627701963E+03 -0.28510097413E+02 -0.12114854487E+03  0.16372748847E+03  0.47000000000E+01 0.  1.
        -11    1    1    2    0    0 -0.45893786762E+02  0.39541507187E+02 -0.31888433661E+02  0.68459058242E+02  0.00000000000E+00 0.  1.
         11    1    1    2    0    0 -0.30396687542E+02 -0.31086704481E+02 -0.10660301737E+03  0.11512838538E+03  0.00000000000E+00 0. -1.
<mgrwt>
<rscale>  0 0.13965432E+03</rscale>
<asrwt>0</asrwt>
<pdfrwt beam="2">  1        2 0.54784265E-01 0.14668616E+03</pdfrwt>
<pdfrwt beam="1">  1       -2 0.77116053E-02 0.14668616E+03</pdfrwt>
<totfact> 0.86799598E+03</totfact>
</mgrwt>
</event>
<event>
 7    1  0.6419647E-006  0.1446012E+03  0.7546771E-02  0.1217095E+00
         -2   -1    0    0    0  501 -0.00000000000E+00  0.00000000000E+00  0.30955058602E+02  0.30955058602E+02  0.00000000000E+00 0.  1.
          2   -1    0    0  501    0  0.00000000000E+00 -0.00000000000E+00 -0.78535169443E+03  0.78535169443E+03  0.00000000000E+00 0. -1.
         23    2    1    2    0    0 -0.68951383288E+02  0.23017168711E+02 -0.62556737417E+03  0.64206234311E+03  0.12500171796E+03 0.  0.
          5    1    3    3  502    0  0.13587723607E+02  0.24809532708E+02 -0.41273800357E+03  0.41373287123E+03  0.47000000000E+01 0.  1.
         -5    1    3    3    0  502 -0.82539106895E+02 -0.17923639969E+01 -0.21282937060E+03  0.22832947188E+03  0.47000000000E+01 0.  1.
        -11    1    1    2    0    0  0.68160698784E+02 -0.39998651907E+02 -0.49810456909E+02  0.93417635544E+02  0.00000000000E+00 0.  1.
         11    1    1    2    0    0  0.79068450431E+00  0.16981483196E+02 -0.79018804746E+02  0.80826774382E+02  0.00000000000E+00 0. -1.
<mgrwt>
<rscale>  0 0.13723743E+03</rscale>
<asrwt>0</asrwt>
<pdfrwt beam="2">  1        2 0.12082331E+00 0.14460122E+03</pdfrwt>
<pdfrwt beam="1">  1       -2 0.47623177E-02 0.14460122E+03</pdfrwt>
<totfact> 0.74154977E+03</totfact>
</mgrwt>
</event>
<event>
 7    1  0.6419647E-006  0.1739555E+03  0.7546771E-02  0.1180436E+00
          1   -1    0    0  501    0  0.00000000000E+00  0.00000000000E+00  0.74372794713E+03  0.74372794713E+03  0.00000000000E+00 0. -1.
         -1   -1    0    0    0  501 -0.00000000000E+00 -0.00000000000E+00 -0.13824501376E+03  0.13824501376E+03  0.00000000000E+00 0.  1.
         23    2    1    2    0    0 -0.13209003218E+02 -0.12025809261E+03  0.68896130141E+03  0.71058299701E+03  0.12499613667E+03 0.  0.
          5    1    3    3  502    0 -0.55511479037E+02 -0.80851974316E+02  0.26374228628E+03  0.28142609977E+03  0.47000000000E+01 0. -1.
         -5    1    3    3    0  502  0.42302475818E+02 -0.39406118294E+02  0.42521901513E+03  0.42915689724E+03  0.47000000000E+01 0. -1.
        -11    1    1    2    0    0  0.35432434585E+02  0.42851704963E+02 -0.28731185740E+00  0.55604033909E+02  0.00000000000E+00 0. -1.
         11    1    1    2    0    0 -0.22223431367E+02  0.77406387647E+02 -0.83191056190E+02  0.11578592998E+03  0.00000000000E+00 0.  1.
<mgrwt>
<rscale>  0 0.16754208E+03</rscale>
<asrwt>0</asrwt>
<pdfrwt beam="1">  1        1 0.11441968E+00 0.17395551E+03</pdfrwt>
<pdfrwt beam="2">  1       -1 0.21268464E-01 0.17395551E+03</pdfrwt>
<totfact> 0.47602305E+02</totfact>
</mgrwt>
</event>
<event>
 7    1  0.6419647E-006  0.1922268E+03  0.7546771E-02  0.1161397E+00
         -1   -1    0    0    0  501 -0.00000000000E+00  0.00000000000E+00  0.44810903298E+03  0.44810903298E+03  0.00000000000E+00 0.  1.
          1   -1    0    0  501    0  0.00000000000E+00 -0.00000000000E+00 -0.10179822132E+03  0.10179822132E+03  0.00000000000E+00 0. -1.
         23    2    1    2    0    0  0.14346734417E+03 -0.27201581475E+02  0.36201161074E+02  0.19560592570E+03  0.12501339619E+03 0.  0.
          5    1    3    3  502    0  0.82688036842E+02 -0.59790894897E+02 -0.22871836292E+02  0.10467795109E+03  0.47000000000E+01 0. -1.
         -5    1    3    3    0  502  0.60779307331E+02  0.32589313422E+02  0.59072997366E+02  0.90927974610E+02  0.47000000000E+01 0. -1.
        -11    1    1    2    0    0  0.65057657512E+01 -0.11599107375E+02  0.10248913874E+02  0.16790012373E+02  0.00000000000E+00 0.  1.
         11    1    1    2    0    0 -0.14997310992E+03  0.38800688850E+02  0.29986073671E+03  0.33751131622E+03  0.00000000000E+00 0. -1.
<mgrwt>
<rscale>  0 0.18678099E+03</rscale>
<asrwt>0</asrwt>
<pdfrwt beam="2">  1        1 0.15661265E-01 0.19222683E+03</pdfrwt>
<pdfrwt beam="1">  1       -1 0.68939850E-01 0.19222683E+03</pdfrwt>
<totfact> 0.77607740E+02</totfact>
</mgrwt>
</event>
<event>
 7    1  0.6419647E-006  0.1623842E+03  0.7546771E-02  0.1193609E+00
         -1   -1    0    0    0  501 -0.00000000000E+00  0.00000000000E+00  0.77683955092E+02  0.77683955092E+02  0.00000000000E+00 0.  1.
          1   -1    0    0  501    0  0.00000000000E+00 -0.00000000000E+00 -0.67000669542E+03  0.67000669542E+03  0.00000000000E+00 0. -1.
         23    2    1    2    0    0 -0.22123039165E+01  0.10362464822E+03 -0.58828749687E+03  0.61028748869E+03  0.12500271143E+03 0.  0.
          5    1    3    3  502    0  0.17728130366E+00  0.10469542193E+03 -0.23911136782E+03  0.26106991214E+03  0.47000000000E+01 0. -1.
         -5    1    3    3    0  502 -0.23895852202E+01 -0.10707737067E+01 -0.34917612905E+03  0.34921757655E+03  0.47000000000E+01 0. -1.
        -11    1    1    2    0    0  0.40105180332E+02 -0.86353141521E+02 -0.81333272009E+01  0.95558576545E+02  0.00000000000E+00 0.  1.
         11    1    1    2    0    0 -0.37892876415E+02 -0.17271506700E+02  0.40980837455E+01  0.41844585278E+02  0.00000000000E+00 0. -1.
<mgrwt>
<rscale>  0 0.15572568E+03</rscale>
<asrwt>0</asrwt>
<pdfrwt beam="2">  1        1 0.10307795E+00 0.16238424E+03</pdfrwt>
<pdfrwt beam="1">  1       -1 0.11951378E-01 0.16238424E+03</pdfrwt>
<totfact> 0.13798431E+03</totfact>
</mgrwt>
</event>
<event>
 7    1  0.6419647E-006  0.1956951E+03  0.7546771E-02  0.1159129E+00
         -1   -1    0    0    0  501 -0.00000000000E+00  0.00000000000E+00  0.10924002237E+04  0.10924002237E+04  0.00000000000E+00 0.  1.
          1   -1    0    0  501    0  0.00000000000E+00 -0.00000000000E+00 -0.33833982543E+02  0.33833982543E+02  0.00000000000E+00 0. -1.
         23    2    1    2    0    0  0.14126253162E+03 -0.52137528953E+02  0.39336188275E+03  0.43935197492E+03  0.12499264901E+03 0.  0.
          5    1    3    3  502    0  0.14667299158E+03 -0.38210392012E+01  0.29071729138E+03  0.32567806237E+03  0.47000000000E+01 0. -1.
         -5    1    3    3    0  502 -0.54104599614E+01 -0.48316489752E+02  0.10264459136E+03  0.11367391255E+03  0.47000000000E+01 0. -1.
        -11    1    1    2    0    0 -0.75065925530E+02 -0.29975867644E+01  0.42743282422E+03  0.43398467476E+03  0.00000000000E+00 0.  1.
         11    1    1    2    0    0 -0.66196606091E+02  0.55135115718E+02  0.23777153416E+03  0.25289755653E+03  0.00000000000E+00 0. -1.
<mgrwt>
<rscale>  0 0.18926167E+03</rscale>
<asrwt>0</asrwt>
<pdfrwt beam="2">  1        1 0.52052289E-02 0.19569514E+03</pdfrwt>
<pdfrwt beam="1">  1       -1 0.16806155E+00 0.19569514E+03</pdfrwt>
<totfact> 0.43713004E+02</totfact>
</mgrwt>
</event>
<event>
 7    1  0.6419647E-006  0.2852773E+03  0.7546771E-02  0.1094715E+00
         -3   -1    0    0    0  501 -0.00000000000E+00  0.00000000000E+00  0.62980648174E+02  0.62980648174E+02  0.00000000000E+00 0.  1.
          3   -1    0    0  501    0  0.00000000000E+00 -0.00000000000E+00 -0.14626988791E+04  0.14626988791E+04  0.00000000000E+00 0. -1.
         23    2    1    2    0    0 -0.18906422892E+03  0.17318295559E+03 -0.10179473545E+04  0.10571660062E+04  0.12508209018E+03 0.  0.
          5    1    3    3  502    0 -0.15818243576E+03  0.16549038345E+03 -0.67638736637E+03  0.71409432807E+03  0.47000000000E+01 0.  1.
         -5    1    3    3    0  502 -0.30881793160E+02  0.76925721363E+01 -0.34155998815E+03  0.34307167811E+03  0.47000000000E+01 0.  1.
        -11    1    1    2    0    0  0.68734667362E+02 -0.99044460131E+02 -0.23862780609E+03  0.26735274343E+03  0.00000000000E+00 0. -1.
         11    1    1    2    0    0  0.12032956155E+03 -0.74138495457E+02 -0.14314307032E+03  0.20116077767E+03  0.00000000000E+00 0.  1.
<mgrwt>
<rscale>  0 0.28178965E+03</rscale>
<asrwt>0</asrwt>
<pdfrwt beam="2">  1        3 0.22503056E+00 0.28527732E+03</pdfrwt>
<pdfrwt beam="1">  1       -3 0.96893320E-02 0.28527732E+03</pdfrwt>
<totfact> 0.22132291E+01</totfact>
</mgrwt>
</event>
<event>
 6    1  0.6419647E-006  0.1692250E+03  0.7546771E-02  0.1190466E+00
         -1   -1    0    0    0  501 -0.00000000000E+00  0.00000000000E+00  0.73818578336E+02  0.73818578336E+02  0.00000000000E+00 0.  1.
          1   -1    0    0  501    0  0.00000000000E+00 -0.00000000000E+00 -0.34438005491E+03  0.34438005491E+03  0.00000000000E+00 0. -1.
          5    1    1    2  502    0  0.66816121918E+02  0.22777317476E+01 -0.23315764422E+03  0.24259876189E+03  0.47000000000E+01 0. -1.
         -5    1    1    2    0  502  0.24218642946E+02  0.25394937147E+02  0.10628091459E+02  0.36966090230E+02  0.47000000000E+01 0.  1.
        -11    1    1    2    0    0  0.58743215909E+00 -0.37851891774E+02 -0.14522945699E+02  0.40546599600E+02  0.00000000000E+00 0. -1.
         11    1    1    2    0    0 -0.91622197023E+02  0.10179222879E+02 -0.33508978109E+02  0.98087181526E+02  0.00000000000E+00 0.  1.
<mgrwt>
<rscale>  0 0.15844321E+03</rscale>
<asrwt>0</asrwt>
<pdfrwt beam="2">  1        1 0.52981547E-01 0.16922501E+03</pdfrwt>
<pdfrwt beam="1">  1       -1 0.11356704E-01 0.16922501E+03</pdfrwt>
<totfact> 0.35849829E+03</totfact>
</mgrwt>
</event>
<event>
 7    1  0.6419647E-006  0.1301809E+03  0.7546771E-02  0.1240732E+00
         -1   -1    0    0    0  501 -0.00000000000E+00  0.00000000000E+00  0.28733976344E+02  0.28733976344E+02  0.00000000000E+00 0.  1.
          1   -1    0    0  501    0  0.00000000000E+00 -0.00000000000E+00 -0.47080386790E+03  0.47080386790E+03  0.00000000000E+00 0. -1.
         23    2    1    2    0    0  0.68353129540E+01 -0.35730238658E+02 -0.20577855053E+03  0.24349921458E+03  0.12499473663E+03 0.  0.
          5    1    3    3  502    0  0.55156098474E+02  0.99768855042E+01 -0.13504832226E+03  0.14629378930E+03  0.47000000000E+01 0.  1.
         -5    1    3    3    0  502 -0.48320785520E+02 -0.45707124162E+02 -0.70730228275E+02  0.97205425282E+02  0.47000000000E+01 0.  1.
        -11    1    1    2    0    0 -0.43905884065E+02  0.48831620323E+01 -0.68962452111E+02  0.81898667438E+02  0.00000000000E+00 0.  1.
         11    1    1    2    0    0  0.37070571111E+02  0.30847076626E+02 -0.16732888891E+03  0.17413996222E+03  0.00000000000E+00 0. -1.
<mgrwt>
<rscale>  0 0.12144533E+03</rscale>
<asrwt>0</asrwt>
<pdfrwt beam="2">  1        1 0.72431354E-01 0.13018086E+03</pdfrwt>
<pdfrwt beam="1">  1       -1 0.44206123E-02 0.13018086E+03</pdfrwt>
<totfact> 0.98320329E+03</totfact>
</mgrwt>
</event>
<event>
 7    1  0.6419647E-006  0.1378784E+03  0.7546771E-02  0.1224984E+00
         -1   -1    0    0    0  501 -0.00000000000E+00  0.00000000000E+00  0.15472663110E+03  0.15472663110E+03  0.00000000000E+00 0.  1.
          1   -1    0    0  501    0  0.00000000000E+00 -0.00000000000E+00 -0.10337570566E+03  0.10337570566E+03  0.00000000000E+00 0. -1.
         23    2    1    2    0    0  0.18482319143E+02 -0.55128458612E+02  0.21191990826E+02  0.13949749915E+03  0.12501883348E+03 0.  0.
          5    1    3    3  502    0  0.60897625589E+02 -0.58255677036E+02  0.39210918698E+02  0.93068957523E+02  0.47000000000E+01 0.  1.
         -5    1    3    3    0  502 -0.42415306446E+02  0.31272184238E+01 -0.18018927873E+02  0.46428541628E+02  0.47000000000E+01 0.  1.
        -11    1    1    2    0    0  0.14673707696E+02  0.41526152720E+02  0.58280831561E+02  0.73050628914E+02  0.00000000000E+00 0.  1.
         11    1    1    2    0    0 -0.33156026839E+02  0.13602305892E+02 -0.28121896949E+02  0.45554208689E+02  0.00000000000E+00 0. -1.
<mgrwt>
<rscale>  0 0.13167976E+03</rscale>
<asrwt>0</asrwt>
<pdfrwt beam="2">  1        1 0.15903955E-01 0.13787839E+03</pdfrwt>
<pdfrwt beam="1">  1       -1 0.23804097E-01 0.13787839E+03</pdfrwt>
<totfact> 0.49803889E+03</totfact>
</mgrwt>
</event>
<event>
 7    1  0.6419647E-006  0.2023762E+03  0.7546771E-02  0.1151783E+00
          3   -1    0    0  501    0  0.00000000000E+00  0.00000000000E+00  0.11415404354E+03  0.11415404354E+03  0.00000000000E+00 0. -1.
         -3   -1    0    0    0  501 -0.00000000000E+00 -0.00000000000E+00 -0.43156601174E+03  0.43156601174E+03  0.00000000000E+00 0.  1.
         23    2    1    2    0    0  0.64993550871E+02  0.14526215799E+03 -0.30131355119E+02  0.20460704243E+03  0.12502354598E+03 0.  0.
          5    1    3    3  502    0  0.96281973598E+02  0.10047262116E+03  0.52667086367E+01  0.13933698096E+03  0.47000000000E+01 0.  1.
         -5    1    3    3    0  502 -0.31288422727E+02  0.44789536827E+02 -0.35398063756E+02  0.65270061465E+02  0.47000000000E+01 0.  1.
        -11    1    1    2    0    0 -0.37651307515E+02 -0.13133452553E+03 -0.27680929412E+03  0.30869040132E+03  0.00000000000E+00 0.  1.
         11    1    1    2    0    0 -0.27342243356E+02 -0.13927632461E+02 -0.10471318961E+02  0.32422611531E+02  0.00000000000E+00 0. -1.
<mgrwt>
<rscale>  0 0.19759643E+03</rscale>
<asrwt>0</asrwt>
<pdfrwt beam="1">  1        3 0.17562161E-01 0.20237624E+03</pdfrwt>
<pdfrwt beam="2">  1       -3 0.66394771E-01 0.20237624E+03</pdfrwt>
<totfact> 0.15361426E+02</totfact>
</mgrwt>
</event>
<event>
 7    1  0.6419647E-006  0.1485186E+03  0.7546771E-02  0.1212182E+00
          1   -1    0    0  501    0  0.00000000000E+00  0.00000000000E+00  0.35682371994E+02  0.35682371994E+02  0.00000000000E+00 0. -1.
         -1   -1    0    0    0  501 -0.00000000000E+00 -0.00000000000E+00 -0.51276423008E+03  0.51276423008E+03  0.00000000000E+00 0.  1.
         23    2    1    2    0    0 -0.78180597068E+02  0.17914414354E+02 -0.23150804317E+03  0.27505227248E+03  0.12499858618E+03 0.  0.
          5    1    3    3  502    0  0.41066031035E+01  0.41291872394E+02 -0.18913041517E+02  0.45844040554E+02  0.47000000000E+01 0.  1.
         -5    1    3    3    0  502 -0.82287200171E+02 -0.23377458040E+02 -0.21259500165E+03  0.22920823193E+03  0.47000000000E+01 0.  1.
        -11    1    1    2    0    0  0.91832326613E+02 -0.23707326317E+02 -0.23907966079E+03  0.25720477782E+03  0.00000000000E+00 0.  1.
         11    1    1    2    0    0 -0.13651729545E+02  0.57929119634E+01 -0.64941541281E+01  0.16189551768E+02  0.00000000000E+00 0. -1.
<mgrwt>
<rscale>  0 0.14085553E+03</rscale>
<asrwt>0</asrwt>
<pdfrwt beam="1">  1        1 0.54895960E-02 0.14851861E+03</pdfrwt>
<pdfrwt beam="2">  1       -1 0.78886800E-01 0.14851861E+03</pdfrwt>
<totfact> 0.23872610E+03</totfact>
</mgrwt>
</event>
<event>
 7    1  0.6419647E-006  0.1471952E+03  0.7546771E-02  0.1214059E+00
          2   -1    0    0  501    0  0.00000000000E+00  0.00000000000E+00  0.50148459965E+03  0.50148459965E+03  0.00000000000E+00 0. -1.
         -2   -1    0    0    0  501 -0.00000000000E+00 -0.00000000000E+00 -0.39106079541E+02  0.39106079541E+02  0.00000000000E+00 0.  1.
         23    2    1    2    0    0 -0.30339807188E+02  0.71561791149E+02  0.33834667369E+03  0.36897816660E+03  0.12499928790E+03 0.  0.
          5    1    3    3  502    0  0.44886071613E+02  0.30716673382E+02  0.18951985902E+03  0.19722611493E+03  0.47000000000E+01 0.  1.
         -5    1    3    3    0  502 -0.75225878801E+02  0.40845117767E+02  0.14882681468E+03  0.17175205167E+03  0.47000000000E+01 0.  1.
        -11    1    1    2    0    0  0.58129614886E+02 -0.36536196382E+02  0.49292453847E+02  0.84520363103E+02  0.00000000000E+00 0. -1.
         11    1    1    2    0    0 -0.27789807698E+02 -0.35025594767E+02  0.74739392569E+02  0.87092149487E+02  0.00000000000E+00 0.  1.
<mgrwt>
<rscale>  0 0.13945856E+03</rscale>
<asrwt>0</asrwt>
<pdfrwt beam="1">  1        2 0.77151472E-01 0.14719516E+03</pdfrwt>
<pdfrwt beam="2">  1       -2 0.60163203E-02 0.14719516E+03</pdfrwt>
<totfact> 0.87739887E+03</totfact>
</mgrwt>
</event>
<event>
 7    1  0.6419647E-006  0.2019755E+03  0.7546771E-02  0.1152244E+00
          2   -1    0    0  501    0  0.00000000000E+00  0.00000000000E+00  0.18307175022E+04  0.18307175022E+04  0.00000000000E+00 0. -1.
         -2   -1    0    0    0  501 -0.00000000000E+00 -0.00000000000E+00 -0.41868027046E+02  0.41868027046E+02  0.00000000000E+00 0.  1.
         23    2    1    2    0    0  0.15813177628E+03 -0.12750401980E+02  0.15882587366E+04  0.16010496303E+04  0.12500349183E+03 0.  0.
          5    1    3    3  502    0  0.10889706027E+03  0.31281153120E+02  0.13150651387E+04  0.13199452600E+04  0.47000000000E+01 0. -1.
         -5    1    3    3    0  502  0.49234716008E+02 -0.44031555100E+02  0.27319359792E+03  0.28110437038E+03  0.47000000000E+01 0. -1.
        -11    1    1    2    0    0 -0.73785327716E+02 -0.39596625635E+02  0.93047018485E+02  0.12517953106E+03  0.00000000000E+00 0. -1.
         11    1    1    2    0    0 -0.84346448562E+02  0.52347027615E+02  0.10754372006E+03  0.14635636785E+03  0.00000000000E+00 0.  1.
<mgrwt>
<rscale>  0 0.19705919E+03</rscale>
<asrwt>0</asrwt>
<pdfrwt beam="1">  1        2 0.28164878E+00 0.20197550E+03</pdfrwt>
<pdfrwt beam="2">  1       -2 0.64412363E-02 0.20197550E+03</pdfrwt>
<totfact> 0.12181594E+03</totfact>
</mgrwt>
</event>
<event>
 7    1  0.6419647E-006  0.2292916E+03  0.7546771E-02  0.1130513E+00
         -1   -1    0    0    0  501 -0.00000000000E+00  0.00000000000E+00  0.28452148218E+03  0.28452148218E+03  0.00000000000E+00 0.  1.
          1   -1    0    0  501    0  0.00000000000E+00 -0.00000000000E+00 -0.17036492891E+03  0.17036492891E+03  0.00000000000E+00 0. -1.
         23    2    1    2    0    0  0.12894487795E+02  0.19178903939E+03  0.57440965824E+02  0.23637707271E+03  0.12500140999E+03 0.  0.
          5    1    3    3  502    0  0.57389964580E+02  0.16423892891E+03  0.28404544021E+02  0.17634325030E+03  0.47000000000E+01 0.  1.
         -5    1    3    3    0  502 -0.44495476785E+02  0.27550110484E+02  0.29036421803E+02  0.60033822410E+02  0.47000000000E+01 0.  1.
        -11    1    1    2    0    0 -0.23193361830E+02 -0.16193532501E+02  0.28875989636E+02  0.40422584100E+02  0.00000000000E+00 0.  1.
         11    1    1    2    0    0  0.10298874035E+02 -0.17559550689E+03  0.27839597807E+02  0.17808675429E+03  0.00000000000E+00 0. -1.
<mgrwt>
<rscale>  0 0.22458066E+03</rscale>
<asrwt>0</asrwt>
<pdfrwt beam="2">  1        1 0.26209989E-01 0.22929164E+03</pdfrwt>
<pdfrwt beam="1">  1       -1 0.43772536E-01 0.22929164E+03</pdfrwt>
<totfact> 0.94399315E+02</totfact>
</mgrwt>
</event>
<event>
 7    1  0.6419647E-006  0.2027174E+03  0.7546771E-02  0.1151638E+00
         -1   -1    0    0    0  501 -0.00000000000E+00  0.00000000000E+00  0.28075232192E+02  0.28075232192E+02  0.00000000000E+00 0.  1.
          1   -1    0    0  501    0  0.00000000000E+00 -0.00000000000E+00 -0.13362044414E+04  0.13362044414E+04  0.00000000000E+00 0. -1.
         23    2    1    2    0    0  0.13873729510E+03  0.78877028918E+02 -0.63651104867E+03  0.66801248126E+03  0.12499894917E+03 0.  0.
          5    1    3    3  502    0  0.15580836362E+03  0.88167600806E+02 -0.52451135205E+03  0.55424184291E+03  0.47000000000E+01 0. -1.
         -5    1    3    3    0  502 -0.17071068519E+02 -0.92905718879E+01 -0.11199969663E+03  0.11377063835E+03  0.47000000000E+01 0. -1.
        -11    1    1    2    0    0 -0.38151660443E+02 -0.20803343978E+02 -0.62176672472E+02  0.75856884427E+02  0.00000000000E+00 0.  1.
         11    1    1    2    0    0 -0.10058563466E+03 -0.58073684940E+02 -0.60944148810E+03  0.62041030794E+03  0.00000000000E+00 0. -1.
<mgrwt>
<rscale>  0 0.19776504E+03</rscale>
<asrwt>0</asrwt>
<pdfrwt beam="2">  1        1 0.20556994E+00 0.20271744E+03</pdfrwt>
<pdfrwt beam="1">  1       -1 0.43192660E-02 0.20271744E+03</pdfrwt>
<totfact> 0.20200672E+03</totfact>
</mgrwt>
</event>
<event>
 7    1  0.6419647E-006  0.1276868E+03  0.7546771E-02  0.1245245E+00
         -3   -1    0    0    0  501 -0.00000000000E+00  0.00000000000E+00  0.25788379469E+03  0.25788379469E+03  0.00000000000E+00 0.  1.
          3   -1    0    0  501    0  0.00000000000E+00 -0.00000000000E+00 -0.56085518295E+02  0.56085518295E+02  0.00000000000E+00 0. -1.
         23    2    1    2    0    0  0.26056944244E+02  0.95325992728E+00  0.55280639648E+02  0.13913974787E+03  0.12499618902E+03 0.  0.
          5    1    3    3  502    0 -0.26152329715E+02  0.44036380089E+02 -0.29338084242E+00  0.51432705482E+02  0.47000000000E+01 0.  1.
         -5    1    3    3    0  502  0.52209273959E+02 -0.43083120162E+02  0.55574020491E+02  0.87707042384E+02  0.47000000000E+01 0.  1.
        -11    1    1    2    0    0  0.11409472684E+02  0.30442735070E+02  0.17628642979E+02  0.36982499088E+02  0.00000000000E+00 0. -1.
         11    1    1    2    0    0 -0.37466416928E+02 -0.31395994997E+02  0.12888899377E+03  0.13784706603E+03  0.00000000000E+00 0.  1.
<mgrwt>
<rscale>  0 0.11870732E+03</rscale>
<asrwt>0</asrwt>
<pdfrwt beam="2">  1        3 0.86285414E-02 0.12768681E+03</pdfrwt>
<pdfrwt beam="1">  1       -3 0.39674429E-01 0.12768681E+03</pdfrwt>
<totfact> 0.13533767E+03</totfact>
</mgrwt>
</event>
<event>
 7    1  0.6419647E-006  0.1435418E+03  0.7546771E-02  0.1219412E+00
          2   -1    0    0  501    0  0.00000000000E+00  0.00000000000E+00  0.20624681018E+03  0.20624681018E+03  0.00000000000E+00 0. -1.
         -2   -1    0    0    0  501 -0.00000000000E+00 -0.00000000000E+00 -0.87380406725E+02  0.87380406725E+02  0.00000000000E+00 0.  1.
         23    2    1    2    0    0  0.37343713798E+02 -0.59874021301E+02  0.10649303802E+03  0.17873167681E+03  0.12499917505E+03 0.  0.
          5    1    3    3  502    0  0.46915506315E+02 -0.39762658739E+02 -0.78218478209E+01  0.62172381860E+02  0.47000000000E+01 0. -1.
         -5    1    3    3    0  502 -0.95717925178E+01 -0.20111362562E+02  0.11431488584E+03  0.11655929495E+03  0.47000000000E+01 0. -1.
        -11    1    1    2    0    0 -0.64053786909E+02  0.22207067475E+02  0.35717269625E+01  0.67888133696E+02  0.00000000000E+00 0. -1.
         11    1    1    2    0    0  0.26710073111E+02  0.37666953826E+02  0.88016384764E+01  0.47007406395E+02  0.00000000000E+00 0.  1.
<mgrwt>
<rscale>  0 0.13557396E+03</rscale>
<asrwt>0</asrwt>
<pdfrwt beam="1">  1        2 0.31730278E-01 0.14354179E+03</pdfrwt>
<pdfrwt beam="2">  1       -2 0.13443140E-01 0.14354179E+03</pdfrwt>
<totfact> 0.64600347E+03</totfact>
</mgrwt>
</event>
<event>
 7    1  0.6419647E-006  0.1383202E+03  0.7546771E-02  0.1225131E+00
         -2   -1    0    0    0  501 -0.00000000000E+00  0.00000000000E+00  0.75434047989E+02  0.75434047989E+02  0.00000000000E+00 0.  1.
          2   -1    0    0  501    0  0.00000000000E+00 -0.00000000000E+00 -0.21239200459E+03  0.21239200459E+03  0.00000000000E+00 0. -1.
         23    2    1    2    0    0  0.35218756352E+01  0.59112588914E+02 -0.59299430254E+02  0.15049548148E+03  0.12500306293E+03 0.  0.
          5    1    3    3  502    0 -0.55463228442E+02  0.29370853197E+02 -0.55908873951E+02  0.84182592698E+02  0.47000000000E+01 0.  1.
         -5    1    3    3    0  502  0.58985104077E+02  0.29741735717E+02 -0.33905563021E+01  0.66312888781E+02  0.47000000000E+01 0.  1.
        -11    1    1    2    0    0  0.18139150606E+02 -0.16291823945E+02  0.18002800559E+02  0.30307641613E+02  0.00000000000E+00 0.  1.
         11    1    1    2    0    0 -0.21661026241E+02 -0.42820764968E+02 -0.95661326903E+02  0.10702292948E+03  0.00000000000E+00 0. -1.
<mgrwt>
<rscale>  0 0.13157929E+03</rscale>
<asrwt>0</asrwt>
<pdfrwt beam="2">  1        2 0.32675693E-01 0.13832016E+03</pdfrwt>
<pdfrwt beam="1">  1       -2 0.11605238E-01 0.13832016E+03</pdfrwt>
<totfact> 0.79038146E+03</totfact>
</mgrwt>
</event>
<event>
 7    1  0.6419647E-006  0.1781876E+03  0.7546771E-02  0.1175394E+00
         -1   -1    0    0    0  501 -0.00000000000E+00  0.00000000000E+00  0.12788782592E+03  0.12788782592E+03  0.00000000000E+00 0.  1.
          1   -1    0    0  501    0  0.00000000000E+00 -0.00000000000E+00 -0.22023118894E+03  0.22023118894E+03  0.00000000000E+00 0. -1.
         23    2    1    2    0    0  0.12357829372E+03 -0.29178987198E+02 -0.65117865702E+02  0.18971331373E+03  0.12501118750E+03 0.  0.
          5    1    3    3  502    0  0.75745241958E+02  0.35991286838E+02  0.27779759605E+01  0.84038809832E+02  0.47000000000E+01 0.  1.
         -5    1    3    3    0  502  0.47833051765E+02 -0.65170274036E+02 -0.67895841662E+02  0.10567450390E+03  0.47000000000E+01 0.  1.
        -11    1    1    2    0    0 -0.26022078867E+02  0.10654166836E+02  0.32147565984E+02  0.42709786446E+02  0.00000000000E+00 0.  1.
         11    1    1    2    0    0 -0.97556214856E+02  0.18524820362E+02 -0.59373063303E+02  0.11569591468E+03  0.00000000000E+00 0. -1.
<mgrwt>
<rscale>  0 0.17237447E+03</rscale>
<asrwt>0</asrwt>
<pdfrwt beam="2">  1        1 0.33881721E-01 0.17818756E+03</pdfrwt>
<pdfrwt beam="1">  1       -1 0.19675050E-01 0.17818756E+03</pdfrwt>
<totfact> 0.26373200E+03</totfact>
</mgrwt>
</event>
<event>
 7    1  0.6419647E-006  0.3117699E+03  0.7546771E-02  0.1081115E+00
         -2   -1    0    0    0  501 -0.00000000000E+00  0.00000000000E+00  0.52682891323E+02  0.52682891323E+02  0.00000000000E+00 0.  1.
          2   -1    0    0  501    0  0.00000000000E+00 -0.00000000000E+00 -0.22047572747E+04  0.22047572747E+04  0.00000000000E+00 0. -1.
         23    2    1    2    0    0 -0.27343045222E+03  0.82522208129E+02 -0.15974089377E+04  0.16275490122E+04  0.12500538267E+03 0.  0.
          5    1    3    3  502    0 -0.18705399836E+03  0.97471077014E+02 -0.88748032342E+03  0.91221336518E+03  0.47000000000E+01 0.  1.
         -5    1    3    3    0  502 -0.86376453857E+02 -0.14948868886E+02 -0.70992861428E+03  0.71533564698E+03  0.47000000000E+01 0.  1.
        -11    1    1    2    0    0  0.25938471012E+02 -0.37733411672E+02 -0.66448027299E+02  0.80696684980E+02  0.00000000000E+00 0. -1.
         11    1    1    2    0    0  0.24749198121E+03 -0.44788796457E+02 -0.48821741841E+03  0.54919446891E+03  0.00000000000E+00 0.  1.
<mgrwt>
<rscale>  0 0.30840109E+03</rscale>
<asrwt>0</asrwt>
<pdfrwt beam="2">  1        2 0.33919348E+00 0.31176990E+03</pdfrwt>
<pdfrwt beam="1">  1       -2 0.81050590E-02 0.31176990E+03</pdfrwt>
<totfact> 0.53302008E+02</totfact>
</mgrwt>
</event>
<event>
 7    1  0.6419647E-006  0.2951037E+03  0.7546771E-02  0.1089629E+00
          2   -1    0    0  501    0  0.00000000000E+00  0.00000000000E+00  0.22716444580E+03  0.22716444580E+03  0.00000000000E+00 0. -1.
         -2   -1    0    0    0  501 -0.00000000000E+00 -0.00000000000E+00 -0.42223580872E+03  0.42223580872E+03  0.00000000000E+00 0.  1.
         23    2    1    2    0    0 -0.21912341040E+03 -0.15312026854E+03  0.20225115775E+02  0.29579597018E+03  0.12500126017E+03 0.  0.
          5    1    3    3  502    0 -0.64775601267E+02 -0.30960251544E+02 -0.49039698538E+02  0.87071222157E+02  0.47000000000E+01 0.  1.
         -5    1    3    3    0  502 -0.15434780913E+03 -0.12216001700E+03  0.69264814313E+02  0.20872474802E+03  0.47000000000E+01 0.  1.
        -11    1    1    2    0    0  0.15810223916E+03  0.12654727164E+03 -0.11398232749E+03  0.23238438193E+03  0.00000000000E+00 0. -1.
         11    1    1    2    0    0  0.61021171240E+02  0.26572996901E+02 -0.10131415121E+03  0.12121990240E+03  0.00000000000E+00 0.  1.
<mgrwt>
<rscale>  0 0.29138447E+03</rscale>
<asrwt>0</asrwt>
<pdfrwt beam="1">  1        2 0.34948376E-01 0.29510371E+03</pdfrwt>
<pdfrwt beam="2">  1       -2 0.64959355E-01 0.29510371E+03</pdfrwt>
<totfact> 0.33304460E+02</totfact>
</mgrwt>
</event>
<event>
 6    1  0.6419647E-006  0.2824612E+03  0.7546771E-02  0.1116186E+00
         -2   -1    0    0    0  501 -0.00000000000E+00  0.00000000000E+00  0.38991398015E+02  0.38991398015E+02  0.00000000000E+00 0.  1.
          2   -1    0    0  501    0  0.00000000000E+00 -0.00000000000E+00 -0.13346372753E+04  0.13346372753E+04  0.00000000000E+00 0. -1.
          5    1    1    2  502    0  0.95959082202E+02 -0.31538884217E+01 -0.92337266441E+03  0.92836267689E+03  0.47000000000E+01 0. -1.
         -5    1    1    2    0  502  0.18198357954E+02 -0.64632251125E+02 -0.46514140149E+02  0.81817866946E+02  0.47000000000E+01 0.  1.
        -11    1    1    2    0    0 -0.11524994914E+03  0.42369887920E+02 -0.31022046422E+03  0.33363826909E+03  0.00000000000E+00 0.  1.
         11    1    1    2    0    0  0.10925089836E+01  0.25416251626E+02 -0.15538608523E+02  0.29809860406E+02  0.00000000000E+00 0. -1.
<mgrwt>
<rscale>  0 0.24549334E+03</rscale>
<asrwt>0</asrwt>
<pdfrwt beam="2">  1        2 0.20532885E+00 0.28246118E+03</pdfrwt>
<pdfrwt beam="1">  1       -2 0.59986755E-02 0.28246118E+03</pdfrwt>
<totfact> 0.24847756E+03</totfact>
</mgrwt>
</event>
<event>
 7    1  0.6419647E-006  0.1388656E+03  0.7546771E-02  0.1226626E+00
          2   -1    0    0  501    0  0.00000000000E+00  0.00000000000E+00  0.17355299147E+04  0.17355299147E+04  0.00000000000E+00 0. -1.
         -2   -1    0    0    0  501 -0.00000000000E+00 -0.00000000000E+00 -0.10417201726E+02  0.10417201726E+02  0.00000000000E+00 0.  1.
         23    2    1    2    0    0 -0.34013761731E+02  0.48840656379E+02  0.12922942047E+04  0.12997338075E+04  0.12546438972E+03 0.  0.
          5    1    3    3  502    0  0.42971476340E+02  0.34342312474E+02  0.71521382951E+03  0.71734151847E+03  0.47000000000E+01 0. -1.
         -5    1    3    3    0  502 -0.76985238071E+02  0.14498343905E+02  0.57708037523E+03  0.58239228904E+03  0.47000000000E+01 0. -1.
        -11    1    1    2    0    0 -0.90385408043E+01 -0.61999436873E+02  0.22402193794E+03  0.23261868814E+03  0.00000000000E+00 0.  1.
         11    1    1    2    0    0  0.43052302536E+02  0.13158780494E+02  0.20879657029E+03  0.21359462077E+03  0.00000000000E+00 0. -1.
<mgrwt>
<rscale>  0 0.13056105E+03</rscale>
<asrwt>0</asrwt>
<pdfrwt beam="1">  1        2 0.26700437E+00 0.13886561E+03</pdfrwt>
<pdfrwt beam="2">  1       -2 0.16026478E-02 0.13886561E+03</pdfrwt>
<totfact> 0.10722144E+04</totfact>
</mgrwt>
</event>
<event>
 7    1  0.6419647E-006  0.1913127E+03  0.7546771E-02  0.1161993E+00
         -1   -1    0    0    0  501 -0.00000000000E+00  0.00000000000E+00  0.47172428503E+03  0.47172428503E+03  0.00000000000E+00 0.  1.
          1   -1    0    0  501    0  0.00000000000E+00 -0.00000000000E+00 -0.70196823416E+02  0.70196823416E+02  0.00000000000E+00 0. -1.
         23    2    1    2    0    0 -0.10664383494E+03 -0.98006243081E+02  0.18976277419E+03  0.26946330527E+03  0.12498972439E+03 0.  0.
          5    1    3    3  502    0 -0.98713162583E+02 -0.10117616631E+03  0.20638373707E+03  0.25019440845E+03  0.47000000000E+01 0.  1.
         -5    1    3    3    0  502 -0.79306723607E+01  0.31699232258E+01 -0.16620962879E+02  0.19268896813E+02  0.47000000000E+01 0.  1.
        -11    1    1    2    0    0  0.11326868446E+02 -0.12808430028E+02  0.57301973018E+02  0.59798578080E+02  0.00000000000E+00 0.  1.
         11    1    1    2    0    0  0.95316966498E+02  0.11081467311E+03  0.15446271441E+03  0.21265922510E+03  0.00000000000E+00 0. -1.
<mgrwt>
<rscale>  0 0.18613625E+03</rscale>
<asrwt>0</asrwt>
<pdfrwt beam="2">  1        1 0.10799512E-01 0.19131273E+03</pdfrwt>
<pdfrwt beam="1">  1       -1 0.72572965E-01 0.19131273E+03</pdfrwt>
<totfact> 0.11433848E+03</totfact>
</mgrwt>
</event>
<event>
 7    1  0.6419647E-006  0.1152348E+03  0.7546771E-02  0.1259786E+00
          3   -1    0    0  501    0  0.00000000000E+00  0.00000000000E+00  0.18976884970E+03  0.18976884970E+03  0.00000000000E+00 0. -1.
         -3   -1    0    0    0  501 -0.00000000000E+00 -0.00000000000E+00 -0.96243937391E+02  0.96243937391E+02  0.00000000000E+00 0.  1.
         23    2    1    2    0    0  0.19427547563E+02  0.27565719324E+02  0.13746323099E+03  0.17937443710E+03  0.11018961079E+03 0.  0.
          5    1    3    3  502    0  0.21477199863E+02  0.52020748501E+02  0.14302905867E+03  0.15377525813E+03  0.47000000000E+01 0. -1.
         -5    1    3    3    0  502 -0.20496523005E+01 -0.24455029177E+02 -0.55658276791E+01  0.25599178978E+02  0.47000000000E+01 0.  1.
        -11    1    1    2    0    0  0.61264521309E+01  0.20783232546E+02  0.14911005193E+02  0.26302361998E+02  0.00000000000E+00 0. -1.
         11    1    1    2    0    0 -0.25553999693E+02 -0.48348951870E+02 -0.58849323868E+02  0.80335987994E+02  0.00000000000E+00 0.  1.
<mgrwt>
<rscale>  0 0.11042459E+03</rscale>
<asrwt>0</asrwt>
<pdfrwt beam="1">  1        3 0.29195208E-01 0.11523476E+03</pdfrwt>
<pdfrwt beam="2">  1       -3 0.14806760E-01 0.11523476E+03</pdfrwt>
<totfact> 0.96272113E+02</totfact>
</mgrwt>
</event>
<event>
 7    1  0.6419647E-006  0.1447121E+03  0.7546771E-02  0.1217443E+00
          2   -1    0    0  501    0  0.00000000000E+00  0.00000000000E+00  0.11176906688E+04  0.11176906688E+04  0.00000000000E+00 0. -1.
         -2   -1    0    0    0  501 -0.00000000000E+00 -0.00000000000E+00 -0.26014396040E+02  0.26014396040E+02  0.00000000000E+00 0.  1.
         23    2    1    2    0    0 -0.71147814206E+02  0.15994991662E+02  0.94771973386E+03  0.95870447744E+03  0.12499491945E+03 0.  0.
          5    1    3    3  502    0 -0.60348483159E+02 -0.31239430694E+02  0.80567722786E+03  0.80855162293E+03  0.47000000000E+01 0.  1.
         -5    1    3    3    0  502 -0.10799331048E+02  0.47234422356E+02  0.14204250600E+03  0.15015285451E+03  0.47000000000E+01 0.  1.
        -11    1    1    2    0    0 -0.20551473736E+02 -0.10917652910E+02  0.19715282651E+02  0.30500009636E+02  0.00000000000E+00 0.  1.
         11    1    1    2    0    0  0.91699287943E+02 -0.50773387524E+01  0.12424125629E+03  0.15450057780E+03  0.00000000000E+00 0. -1.
<mgrwt>
<rscale>  0 0.13698633E+03</rscale>
<asrwt>0</asrwt>
<pdfrwt beam="1">  1        2 0.17195237E+00 0.14471206E+03</pdfrwt>
<pdfrwt beam="2">  1       -2 0.40022156E-02 0.14471206E+03</pdfrwt>
<totfact> 0.59907530E+03</totfact>
</mgrwt>
</event>
<event>
 7    1  0.6419647E-006  0.1444836E+03  0.7546771E-02  0.1217797E+00
         -4   -1    0    0    0  501 -0.00000000000E+00  0.00000000000E+00  0.41323818490E+03  0.41323818490E+03  0.00000000000E+00 0.  1.
          4   -1    0    0  501    0  0.00000000000E+00 -0.00000000000E+00 -0.41080424695E+02  0.41080424695E+02  0.00000000000E+00 0. -1.
         23    2    1    2    0    0  0.72449858008E+02  0.13947000482E+01  0.19718308004E+03  0.24445177584E+03  0.12499830615E+03 0.  0.
          5    1    3    3  502    0  0.84224255162E+02 -0.59003961498E+01  0.53583205281E+02  0.10010888932E+03  0.47000000000E+01 0.  1.
         -5    1    3    3    0  502 -0.11774397153E+02  0.72950961980E+01  0.14359987476E+03  0.14434288652E+03  0.47000000000E+01 0.  1.
        -11    1    1    2    0    0 -0.85449872117E+02  0.83837614294E+01  0.17343835904E+03  0.19352734299E+03  0.00000000000E+00 0.  1.
         11    1    1    2    0    0  0.13000014108E+02 -0.97784614776E+01  0.15363211187E+01  0.16339490759E+02  0.00000000000E+00 0. -1.
<mgrwt>
<rscale>  0 0.13673040E+03</rscale>
<asrwt>0</asrwt>
<pdfrwt beam="2">  1        4 0.63200656E-02 0.14448358E+03</pdfrwt>
<pdfrwt beam="1">  1       -4 0.63575103E-01 0.14448358E+03</pdfrwt>
<totfact> 0.64195252E+02</totfact>
</mgrwt>
</event>
<event>
 7    1  0.6419647E-006  0.1265397E+03  0.7546771E-02  0.1248462E+00
          1   -1    0    0  501    0  0.00000000000E+00  0.00000000000E+00  0.51351115597E+03  0.51351115597E+03  0.00000000000E+00 0. -1.
         -1   -1    0    0    0  501 -0.00000000000E+00 -0.00000000000E+00 -0.23453856773E+02  0.23453856773E+02  0.00000000000E+00 0.  1.
         23    2    1    2    0    0 -0.11488296118E+02 -0.15998860271E+02  0.30980372469E+03  0.33465002230E+03  0.12499738044E+03 0.  0.
          5    1    3    3  502    0  0.37332718721E+02 -0.79908712458E+01  0.26488021557E+03  0.26765874638E+03  0.47000000000E+01 0. -1.
         -5    1    3    3    0  502 -0.48821014839E+02 -0.80079890257E+01  0.44923509115E+02  0.66991275920E+02  0.47000000000E+01 0. -1.
        -11    1    1    2    0    0  0.38353177243E+02  0.36795482689E+02  0.76580509104E+02  0.93217209385E+02  0.00000000000E+00 0. -1.
         11    1    1    2    0    0 -0.26864881125E+02 -0.20796622418E+02  0.10367306540E+03  0.10909778106E+03  0.00000000000E+00 0.  1.
<mgrwt>
<rscale>  0 0.11680539E+03</rscale>
<asrwt>0</asrwt>
<pdfrwt beam="1">  1        1 0.79001708E-01 0.12653968E+03</pdfrwt>
<pdfrwt beam="2">  1       -1 0.36082860E-02 0.12653968E+03</pdfrwt>
<totfact> 0.11805270E+04</totfact>
</mgrwt>
</event>
<event>
 7    1  0.6419647E-006  0.4400374E+03  0.7546771E-02  0.1031202E+00
         -1   -1    0    0    0  501 -0.00000000000E+00  0.00000000000E+00  0.39278524841E+03  0.39278524841E+03  0.00000000000E+00 0.  1.
          1   -1    0    0  501    0  0.00000000000E+00 -0.00000000000E+00 -0.49426184175E+03  0.49426184175E+03  0.00000000000E+00 0. -1.
         23    2    1    2    0    0 -0.23774823467E+03 -0.34854326153E+03 -0.10760480335E+03  0.45300296928E+03  0.12500507280E+03 0.  0.
          5    1    3    3  502    0 -0.20075021113E+03 -0.33341389284E+03 -0.12551322847E+03  0.40895125838E+03  0.47000000000E+01 0.  1.
         -5    1    3    3    0  502 -0.36998023548E+02 -0.15129368685E+02  0.17908425120E+02  0.44051710904E+02  0.47000000000E+01 0.  1.
        -11    1    1    2    0    0  0.13940421755E+03  0.16683693984E+03  0.49388241207E+02  0.22295133715E+03  0.00000000000E+00 0. -1.
         11    1    1    2    0    0  0.98344017122E+02  0.18170632169E+03 -0.43260031201E+02  0.21109278373E+03  0.00000000000E+00 0.  1.
<mgrwt>
<rscale>  0 0.43852042E+03</rscale>
<asrwt>0</asrwt>
<pdfrwt beam="2">  1        1 0.76040283E-01 0.44003738E+03</pdfrwt>
<pdfrwt beam="1">  1       -1 0.60428500E-01 0.44003738E+03</pdfrwt>
<totfact> 0.13018852E+02</totfact>
</mgrwt>
</event>
<event>
 7    1  0.6419647E-006  0.1190873E+03  0.7546771E-02  0.1254668E+00
         -1   -1    0    0    0  501 -0.00000000000E+00  0.00000000000E+00  0.74412434087E+01  0.74412434087E+01  0.00000000000E+00 0.  1.
          1   -1    0    0  501    0  0.00000000000E+00 -0.00000000000E+00 -0.25849553475E+04  0.25849553475E+04  0.00000000000E+00 0. -1.
         23    2    1    2    0    0  0.29405102501E+02  0.21828079397E+02 -0.21753193328E+04  0.21785765954E+04  0.11331662427E+03 0.  0.
          5    1    3    3  502    0 -0.88920964848E+01  0.41775314132E+02 -0.18341677070E+04  0.18346709552E+04  0.47000000000E+01 0. -1.
         -5    1    3    3    0  502  0.38297198986E+02 -0.19947234735E+02 -0.34115162572E+03  0.34390564019E+03  0.47000000000E+01 0.  1.
        -11    1    1    2    0    0 -0.48578920447E+02 -0.45490198773E+02 -0.25815408138E+03  0.26659482259E+03  0.00000000000E+00 0.  1.
         11    1    1    2    0    0  0.19173817947E+02  0.23662119376E+02 -0.14404069000E+03  0.14722517299E+03  0.00000000000E+00 0. -1.
<mgrwt>
<rscale>  0 0.11324955E+03</rscale>
<asrwt>0</asrwt>
<pdfrwt beam="2">  1        1 0.39768652E+00 0.11908729E+03</pdfrwt>
<pdfrwt beam="1">  1       -1 0.11448036E-02 0.11908729E+03</pdfrwt>
<totfact> 0.21661151E+03</totfact>
</mgrwt>
</event>
<event>
 7    1  0.6419647E-006  0.2059669E+03  0.7546771E-02  0.1148397E+00
          2   -1    0    0  501    0  0.00000000000E+00  0.00000000000E+00  0.72826329714E+03  0.72826329714E+03  0.00000000000E+00 0. -1.
         -2   -1    0    0    0  501 -0.00000000000E+00 -0.00000000000E+00 -0.11311289608E+03  0.11311289608E+03  0.00000000000E+00 0.  1.
         23    2    1    2    0    0  0.10704715373E+03  0.12384467483E+03  0.61892658525E+03  0.65229784583E+03  0.12500306053E+03 0.  0.
          5    1    3    3  502    0  0.11537051157E+03  0.10989344734E+03  0.37099219549E+03  0.40378734975E+03  0.47000000000E+01 0.  1.
         -5    1    3    3    0  502 -0.83233578402E+01  0.13951227489E+02  0.24793438976E+03  0.24851049608E+03  0.47000000000E+01 0.  1.
        -11    1    1    2    0    0 -0.41103177613E+02 -0.11534981806E+03 -0.53462733483E+01  0.12257093610E+03  0.00000000000E+00 0.  1.
         11    1    1    2    0    0 -0.65943976119E+02 -0.84948567700E+01  0.15700891641E+01  0.66507411301E+02  0.00000000000E+00 0. -1.
<mgrwt>
<rscale>  0 0.20159830E+03</rscale>
<asrwt>0</asrwt>
<pdfrwt beam="1">  1        2 0.11204050E+00 0.20596689E+03</pdfrwt>
<pdfrwt beam="2">  1       -2 0.17401984E-01 0.20596689E+03</pdfrwt>
<totfact> 0.10667878E+03</totfact>
</mgrwt>
</event>
<event>
 7    1  0.6419647E-006  0.1488507E+03  0.7546771E-02  0.1210037E+00
         -2   -1    0    0    0  501 -0.00000000000E+00  0.00000000000E+00  0.27368068412E+02  0.27368068412E+02  0.00000000000E+00 0.  1.
          2   -1    0    0  501    0  0.00000000000E+00 -0.00000000000E+00 -0.74502384269E+03  0.74502384269E+03  0.00000000000E+00 0. -1.
         23    2    1    2    0    0 -0.23855520248E+02  0.77234512556E+02 -0.49708457870E+03  0.51889266919E+03  0.12498907145E+03 0.  0.
          5    1    3    3  502    0 -0.31145517175E+01  0.98931391207E+02 -0.46188488734E+03  0.47239481343E+03  0.47000000000E+01 0. -1.
         -5    1    3    3    0  502 -0.20740968530E+02 -0.21696878651E+02 -0.35199691362E+02  0.46497855765E+02  0.47000000000E+01 0. -1.
        -11    1    1    2    0    0  0.10949373719E+02 -0.12728846602E+01  0.71212529839E+01  0.13123309958E+02  0.00000000000E+00 0.  1.
         11    1    1    2    0    0  0.12906146528E+02 -0.75961627896E+02 -0.22769244856E+03  0.24037593195E+03  0.00000000000E+00 0. -1.
<mgrwt>
<rscale>  0 0.14247518E+03</rscale>
<asrwt>0</asrwt>
<pdfrwt beam="2">  1        2 0.11461906E+00 0.14885068E+03</pdfrwt>
<pdfrwt beam="1">  1       -2 0.42104720E-02 0.14885068E+03</pdfrwt>
<totfact> 0.95274665E+03</totfact>
</mgrwt>
</event>
<event>
 7    1  0.6419647E-006  0.1518282E+03  0.7546771E-02  0.1207234E+00
         -2   -1    0    0    0  501 -0.00000000000E+00  0.00000000000E+00  0.14421477989E+02  0.14421477989E+02  0.00000000000E+00 0. -1.
          2   -1    0    0  501    0  0.00000000000E+00 -0.00000000000E+00 -0.13760927559E+04  0.13760927559E+04  0.00000000000E+00 0.  1.
         23    2    1    2    0    0 -0.83404254500E+02  0.21687922323E+02 -0.87310788912E+03  0.88621058588E+03  0.12500072336E+03 0.  0.
          5    1    3    3  502    0  0.26321070924E+02  0.24779040536E+02 -0.33660864951E+03  0.33857683404E+03  0.47000000000E+01 0. -1.
         -5    1    3    3    0  502 -0.10972532542E+03 -0.30911182136E+01 -0.53649923961E+03  0.54763375184E+03  0.47000000000E+01 0. -1.
        -11    1    1    2    0    0  0.74018333786E+02 -0.44274161910E+02 -0.45302314140E+03  0.46116036451E+03  0.00000000000E+00 0.  1.
         11    1    1    2    0    0  0.93859207145E+01  0.22586239587E+02 -0.35540247379E+02  0.43143283488E+02  0.00000000000E+00 0. -1.
<mgrwt>
<rscale>  0 0.14462797E+03</rscale>
<asrwt>0</asrwt>
<pdfrwt beam="2">  1        2 0.21170663E+00 0.15182825E+03</pdfrwt>
<pdfrwt beam="1">  1       -2 0.22186884E-02 0.15182825E+03</pdfrwt>
<totfact> 0.10322124E+04</totfact>
</mgrwt>
</event>
<event>
 7    1  0.6419647E-006  0.2446743E+03  0.7546771E-02  0.1119184E+00
         -2   -1    0    0    0  501 -0.00000000000E+00  0.00000000000E+00  0.88823076910E+03  0.88823076910E+03  0.00000000000E+00 0.  1.
          2   -1    0    0  501    0  0.00000000000E+00 -0.00000000000E+00 -0.76672920236E+02  0.76672920236E+02  0.00000000000E+00 0. -1.
         23    2    1    2    0    0 -0.14370750513E+03  0.15527251484E+03  0.21560682413E+03  0.32611628363E+03  0.12289884841E+03 0.  0.
          5    1    3    3  502    0 -0.71182746565E+02  0.66983934921E+02  0.18247733479E+03  0.20706013296E+03  0.47000000000E+01 0.  1.
         -5    1    3    3    0  502 -0.72524758568E+02  0.88288579919E+02  0.33129489339E+02  0.11905615067E+03  0.47000000000E+01 0.  1.
        -11    1    1    2    0    0  0.61309196304E+02 -0.58337156757E+02  0.36928157732E+03  0.37885475417E+03  0.00000000000E+00 0.  1.
         11    1    1    2    0    0  0.82398308829E+02 -0.96935358083E+02  0.22666944742E+03  0.25993265154E+03  0.00000000000E+00 0. -1.
<mgrwt>
<rscale>  0 0.24091552E+03</rscale>
<asrwt>0</asrwt>
<pdfrwt beam="2">  1        2 0.11795834E-01 0.24467433E+03</pdfrwt>
<pdfrwt beam="1">  1       -2 0.13665088E+00 0.24467433E+03</pdfrwt>
<totfact> 0.21038234E+02</totfact>
</mgrwt>
</event>
<event>
 7    1  0.6419647E-006  0.1361609E+03  0.7546771E-02  0.1230851E+00
         -1   -1    0    0    0  501 -0.00000000000E+00  0.00000000000E+00  0.18231505871E+02  0.18231505871E+02  0.00000000000E+00 0.  1.
          1   -1    0    0  501    0  0.00000000000E+00 -0.00000000000E+00 -0.13639306481E+04  0.13639306481E+04  0.00000000000E+00 0. -1.
         23    2    1    2    0    0 -0.14440230961E+02 -0.52018342379E+02 -0.11650366327E+04  0.11729663932E+04  0.12500150336E+03 0.  0.
          5    1    3    3  502    0 -0.48703744216E+01 -0.91251481409E+02 -0.92459940880E+03  0.92911609079E+03  0.47000000000E+01 0.  1.
         -5    1    3    3    0  502 -0.95698565396E+01  0.39233139030E+02 -0.24043722386E+03  0.24385030238E+03  0.47000000000E+01 0.  1.
        -11    1    1    2    0    0  0.31106566985E+02  0.29602006202E+02 -0.17564226129E+03  0.18081510233E+03  0.00000000000E+00 0. -1.
         11    1    1    2    0    0 -0.16666336024E+02  0.22416336177E+02 -0.50202483107E+01  0.28380658505E+02  0.00000000000E+00 0.  1.
<mgrwt>
<rscale>  0 0.12773846E+03</rscale>
<asrwt>0</asrwt>
<pdfrwt beam="2">  1        1 0.20983558E+00 0.13616095E+03</pdfrwt>
<pdfrwt beam="1">  1       -1 0.28048457E-02 0.13616095E+03</pdfrwt>
<totfact> 0.36316269E+03</totfact>
</mgrwt>
</event>
<event>
 7    1  0.6419647E-006  0.1376839E+03  0.7546771E-02  0.1228901E+00
          1   -1    0    0  501    0  0.00000000000E+00  0.00000000000E+00  0.18176196141E+03  0.18176196141E+03  0.00000000000E+00 0. -1.
         -1   -1    0    0    0  501 -0.00000000000E+00 -0.00000000000E+00 -0.91262616674E+02  0.91262616674E+02  0.00000000000E+00 0.  1.
         23    2    1    2    0    0  0.56636687732E+02  0.11139554426E+02  0.94090720942E+02  0.16676304441E+03  0.12500018058E+03 0.  0.
          5    1    3    3  502    0 -0.75483147585E+01  0.53714794415E+02  0.15469850064E+02  0.56600905079E+02  0.47000000000E+01 0. -1.
         -5    1    3    3    0  502  0.64185002491E+02 -0.42575239989E+02  0.78620870878E+02  0.11016213933E+03  0.47000000000E+01 0. -1.
        -11    1    1    2    0    0  0.11746064349E+02  0.19439544575E+02 -0.19204116856E+02  0.29743302191E+02  0.00000000000E+00 0. -1.
         11    1    1    2    0    0 -0.68382752081E+02 -0.30579099002E+02  0.15612740646E+02  0.76518231478E+02  0.00000000000E+00 0.  1.
<mgrwt>
<rscale>  0 0.12903107E+03</rscale>
<asrwt>0</asrwt>
<pdfrwt beam="1">  1        1 0.27963379E-01 0.13768387E+03</pdfrwt>
<pdfrwt beam="2">  1       -1 0.14040403E-01 0.13768387E+03</pdfrwt>
<totfact> 0.56488140E+03</totfact>
</mgrwt>
</event>
<event>
 6    1  0.6419647E-006  0.2161012E+03  0.7546771E-02  0.1161957E+00
          2   -1    0    0  501    0  0.00000000000E+00  0.00000000000E+00  0.23917960785E+03  0.23917960785E+03  0.00000000000E+00 0. -1.
         -2   -1    0    0    0  501 -0.00000000000E+00 -0.00000000000E+00 -0.23174515313E+03  0.23174515313E+03  0.00000000000E+00 0.  1.
          5    1    1    2  502    0  0.58081324847E+02  0.18783070427E+02  0.20639280332E+03  0.21528196231E+03  0.47000000000E+01 0. -1.
         -5    1    1    2    0  502  0.16521499544E+02 -0.36915358378E+02 -0.40289283603E+02  0.57280188587E+02  0.47000000000E+01 0.  1.
        -11    1    1    2    0    0 -0.72950948753E+01  0.30978615251E+02 -0.79586230055E+01  0.32805985617E+02  0.00000000000E+00 0. -1.
         11    1    1    2    0    0 -0.67307729516E+02 -0.12846327300E+02 -0.15071044200E+03  0.16555662447E+03  0.00000000000E+00 0.  1.
<mgrwt>
<rscale>  0 0.18617496E+03</rscale>
<asrwt>0</asrwt>
<pdfrwt beam="1">  1        2 0.36796863E-01 0.21610124E+03</pdfrwt>
<pdfrwt beam="2">  1       -2 0.35653100E-01 0.21610124E+03</pdfrwt>
<totfact> 0.10356563E+03</totfact>
</mgrwt>
</event>
<event>
 7    1  0.6419647E-006  0.1377021E+03  0.7546771E-02  0.1227621E+00
          2   -1    0    0  501    0  0.00000000000E+00  0.00000000000E+00  0.35952834497E+03  0.35952834497E+03  0.00000000000E+00 0.  1.
         -2   -1    0    0    0  501 -0.00000000000E+00 -0.00000000000E+00 -0.43310732112E+02  0.43310732112E+02  0.00000000000E+00 0. -1.
         23    2    1    2    0    0  0.56473257365E+02  0.12141666272E+02  0.20628320569E+03  0.24802142892E+03  0.12500087759E+03 0.  0.
          5    1    3    3  502    0 -0.30267414947E+02 -0.13576586680E+02  0.15697487894E+02  0.36999205933E+02  0.47000000000E+01 0.  1.
         -5    1    3    3    0  502  0.86740672312E+02  0.25718252951E+02  0.19058571780E+03  0.21102222299E+03  0.47000000000E+01 0.  1.
        -11    1    1    2    0    0  0.11016343029E+01 -0.37298141711E+02  0.13421253410E+02  0.39654697280E+02  0.00000000000E+00 0. -1.
         11    1    1    2    0    0 -0.57574891668E+02  0.25156475440E+02  0.96513153757E+02  0.11516295088E+03  0.00000000000E+00 0.  1.
<mgrwt>
<rscale>  0 0.12988855E+03</rscale>
<asrwt>0</asrwt>
<pdfrwt beam="1">  1        2 0.55312051E-01 0.13770210E+03</pdfrwt>
<pdfrwt beam="2">  1       -2 0.66631898E-02 0.13770210E+03</pdfrwt>
<totfact> 0.10704069E+04</totfact>
</mgrwt>
</event>
<event>
 7    1  0.6419647E-006  0.1251324E+03  0.7546771E-02  0.1264198E+00
          1   -1    0    0  501    0  0.00000000000E+00  0.00000000000E+00  0.23020713740E+03  0.23020713740E+03  0.00000000000E+00 0. -1.
         -1   -1    0    0    0  501 -0.00000000000E+00 -0.00000000000E+00 -0.44646668086E+02  0.44646668086E+02  0.00000000000E+00 0.  1.
         23    2    1    2    0    0 -0.55916536576E+01 -0.13836504231E+01  0.15400746936E+03  0.19843494189E+03  0.12499977786E+03 0.  0.
          5    1    3    3  502    0  0.25407858261E+02 -0.43463394608E+02  0.19746376627E+02  0.54282919248E+02  0.47000000000E+01 0. -1.
         -5    1    3    3    0  502 -0.30999511919E+02  0.42079744185E+02  0.13426109273E+03  0.14415202264E+03  0.47000000000E+01 0. -1.
        -11    1    1    2    0    0  0.36113865685E+02 -0.63911042109E+01  0.92452157964E+01  0.37822368023E+02  0.00000000000E+00 0. -1.
         11    1    1    2    0    0 -0.30522212027E+02  0.77747546339E+01  0.22307784165E+02  0.38596495579E+02  0.00000000000E+00 0.  1.
<mgrwt>
<rscale>  0 0.10806393E+03</rscale>
<asrwt>0</asrwt>
<pdfrwt beam="1">  1        1 0.35416482E-01 0.12513243E+03</pdfrwt>
<pdfrwt beam="2">  1       -1 0.68687183E-02 0.12513243E+03</pdfrwt>
<totfact> 0.12443696E+04</totfact>
</mgrwt>
</event>
<event>
 7    1  0.6419647E-006  0.1462039E+03  0.7546771E-02  0.1215380E+00
          2   -1    0    0  501    0  0.00000000000E+00  0.00000000000E+00  0.12767779304E+04  0.12767779304E+04  0.00000000000E+00 0.  1.
         -2   -1    0    0    0  501 -0.00000000000E+00 -0.00000000000E+00 -0.20391990986E+02  0.20391990986E+02  0.00000000000E+00 0. -1.
         23    2    1    2    0    0 -0.28257097895E+02  0.70369047440E+02  0.10454248583E+04  0.10555987434E+04  0.12500122512E+03 0.  0.
          5    1    3    3  502    0  0.16265948853E+02  0.46277508186E+02  0.90349355704E+03  0.90483638657E+03  0.47000000000E+01 0.  1.
         -5    1    3    3    0  502 -0.44523046748E+02  0.24091539254E+02  0.14193130122E+03  0.15076235678E+03  0.47000000000E+01 0.  1.
        -11    1    1    2    0    0  0.20344078314E+02 -0.35458764093E+02  0.19999919689E+03  0.20413447585E+03  0.00000000000E+00 0.  1.
         11    1    1    2    0    0  0.79130195810E+01 -0.34910283347E+02  0.10961884234E+02  0.37436702155E+02  0.00000000000E+00 0. -1.
<mgrwt>
<rscale>  0 0.13848682E+03</rscale>
<asrwt>0</asrwt>
<pdfrwt beam="1">  1        2 0.19642731E+00 0.14620387E+03</pdfrwt>
<pdfrwt beam="2">  1       -2 0.31372304E-02 0.14620387E+03</pdfrwt>
<totfact> 0.70121219E+03</totfact>
</mgrwt>
</event>
<event>
 7    1  0.6419647E-006  0.1649777E+03  0.7546771E-02  0.1191494E+00
         -2   -1    0    0    0  501 -0.00000000000E+00  0.00000000000E+00  0.66287363422E+02  0.66287363422E+02  0.00000000000E+00 0.  1.
          2   -1    0    0  501    0  0.00000000000E+00 -0.00000000000E+00 -0.36788046135E+03  0.36788046135E+03  0.00000000000E+00 0. -1.
         23    2    1    2    0    0 -0.10739668945E+03  0.76761494137E+01 -0.21841357260E+03  0.27371907870E+03  0.12499869270E+03 0.  0.
          5    1    3    3  502    0 -0.69235169393E+02 -0.36303640079E+02 -0.19614282163E+03  0.21120028277E+03  0.47000000000E+01 0. -1.
         -5    1    3    3    0  502 -0.38161520057E+02  0.43979789493E+02 -0.22270750967E+02  0.62518795938E+02  0.47000000000E+01 0. -1.
        -11    1    1    2    0    0  0.38858227604E+02 -0.32563105207E+01 -0.83070874237E+02  0.91767835091E+02  0.00000000000E+00 0. -1.
         11    1    1    2    0    0  0.68538461847E+02 -0.44198388929E+01 -0.10865109821E+00  0.68680910981E+02  0.00000000000E+00 0.  1.
<mgrwt>
<rscale>  0 0.15754722E+03</rscale>
<asrwt>0</asrwt>
<pdfrwt beam="2">  1        2 0.56596993E-01 0.16497771E+03</pdfrwt>
<pdfrwt beam="1">  1       -2 0.10198056E-01 0.16497771E+03</pdfrwt>
<totfact> 0.54570800E+03</totfact>
</mgrwt>
</event>
<event>
 7    1  0.6419647E-006  0.1659256E+03  0.7546771E-02  0.1189370E+00
         -1   -1    0    0    0  501 -0.00000000000E+00  0.00000000000E+00  0.11182474112E+03  0.11182474112E+03  0.00000000000E+00 0.  1.
          1   -1    0    0  501    0  0.00000000000E+00 -0.00000000000E+00 -0.23266523021E+03  0.23266523021E+03  0.00000000000E+00 0. -1.
         23    2    1    2    0    0  0.10001244735E+03  0.43628964643E+02 -0.11712249207E+03  0.20309845398E+03  0.12500131071E+03 0.  0.
          5    1    3    3  502    0  0.10029932896E+03  0.36556647009E+02 -0.14148134309E+03  0.17730032226E+03  0.47000000000E+01 0. -1.
         -5    1    3    3    0  502 -0.28688160389E+00  0.70723176338E+01  0.24358851014E+02  0.25798131725E+02  0.47000000000E+01 0. -1.
        -11    1    1    2    0    0 -0.31371808412E+02 -0.12199738697E+02  0.41466477832E+02  0.53408733098E+02  0.00000000000E+00 0.  1.
         11    1    1    2    0    0 -0.68640638941E+02 -0.31429225946E+02 -0.45184474848E+02  0.87982784254E+02  0.00000000000E+00 0. -1.
<mgrwt>
<rscale>  0 0.15940551E+03</rscale>
<asrwt>0</asrwt>
<pdfrwt beam="2">  1        1 0.35794650E-01 0.16592560E+03</pdfrwt>
<pdfrwt beam="1">  1       -1 0.17203807E-01 0.16592560E+03</pdfrwt>
<totfact> 0.30451154E+03</totfact>
</mgrwt>
</event>
<event>
 7    1  0.6419647E-006  0.2791346E+03  0.7546771E-02  0.1098055E+00
         -2   -1    0    0    0  501 -0.00000000000E+00  0.00000000000E+00  0.68848201228E+02  0.68848201228E+02  0.00000000000E+00 0.  1.
          2   -1    0    0  501    0  0.00000000000E+00 -0.00000000000E+00 -0.19891246386E+04  0.19891246386E+04  0.00000000000E+00 0. -1.
         23    2    1    2    0    0  0.12722255862E+03  0.21472331398E+03 -0.16693370257E+04  0.16925135916E+04  0.12499788602E+03 0.  0.
          5    1    3    3  502    0  0.44988942970E+02  0.17211372840E+03 -0.88513285390E+03  0.90284516919E+03  0.47000000000E+01 0.  1.
         -5    1    3    3    0  502  0.82233615646E+02  0.42609585589E+02 -0.78420417180E+03  0.78966842243E+03  0.47000000000E+01 0.  1.
        -11    1    1    2    0    0 -0.45252441919E+02 -0.15938139432E+03 -0.14077240653E+03  0.21740994180E+03  0.00000000000E+00 0.  1.
         11    1    1    2    0    0 -0.81970116698E+02 -0.55341919661E+02 -0.11016700520E+03  0.14804930644E+03  0.00000000000E+00 0. -1.
<mgrwt>
<rscale>  0 0.27571038E+03</rscale>
<asrwt>0</asrwt>
<pdfrwt beam="2">  1        2 0.30601916E+00 0.27913465E+03</pdfrwt>
<pdfrwt beam="1">  1       -2 0.10592031E-01 0.27913465E+03</pdfrwt>
<totfact> 0.45582841E+02</totfact>
</mgrwt>
</event>
<event>
 7    1  0.6419647E-006  0.2040232E+03  0.7546771E-02  0.1150418E+00
         -2   -1    0    0    0  501 -0.00000000000E+00  0.00000000000E+00  0.31611923324E+02  0.31611923324E+02  0.00000000000E+00 0.  1.
          2   -1    0    0  501    0  0.00000000000E+00 -0.00000000000E+00 -0.12119387016E+04  0.12119387016E+04  0.00000000000E+00 0. -1.
         23    2    1    2    0    0 -0.75157869984E+02  0.14273865739E+03 -0.68155600832E+03  0.71143801630E+03  0.12490968266E+03 0.  0.
          5    1    3    3  502    0  0.27504319645E+02  0.58546188364E+02 -0.14792384737E+03  0.16151686721E+03  0.47000000000E+01 0. -1.
         -5    1    3    3    0  502 -0.10266218963E+03  0.84192469030E+02 -0.53363216094E+03  0.54992114909E+03  0.47000000000E+01 0. -1.
        -11    1    1    2    0    0  0.46014469400E+02 -0.14840444662E+03 -0.40644537798E+03  0.43513107962E+03  0.00000000000E+00 0.  1.
         11    1    1    2    0    0  0.29143400584E+02  0.56657892216E+01 -0.92325392015E+02  0.96981529045E+02  0.00000000000E+00 0. -1.
<mgrwt>
<rscale>  0 0.19919779E+03</rscale>
<asrwt>0</asrwt>
<pdfrwt beam="2">  1        2 0.18645211E+00 0.20402318E+03</pdfrwt>
<pdfrwt beam="1">  1       -2 0.48633728E-02 0.20402318E+03</pdfrwt>
<totfact> 0.39934612E+03</totfact>
</mgrwt>
</event>
<event>
 7    1  0.6419647E-006  0.2212457E+03  0.7546771E-02  0.1136529E+00
         -2   -1    0    0    0  501 -0.00000000000E+00  0.00000000000E+00  0.33838673664E+02  0.33838673664E+02  0.00000000000E+00 0.  1.
          2   -1    0    0  501    0  0.00000000000E+00 -0.00000000000E+00 -0.17817650940E+04  0.17817650940E+04  0.00000000000E+00 0. -1.
         23    2    1    2    0    0  0.11143874663E+03  0.14458924405E+03 -0.13597748295E+04  0.13776564283E+04  0.12500001410E+03 0.  0.
          5    1    3    3  502    0  0.94409246080E+02  0.11212702455E+03 -0.62590968885E+03  0.64286126339E+03  0.47000000000E+01 0.  1.
         -5    1    3    3    0  502  0.17029500554E+02  0.32462219502E+02 -0.73386514070E+03  0.73479516487E+03  0.47000000000E+01 0.  1.
        -11    1    1    2    0    0 -0.22554679768E+01 -0.38208285692E+02 -0.15294693518E+03  0.15766332869E+03  0.00000000000E+00 0.  1.
         11    1    1    2    0    0 -0.10918327866E+03 -0.10638095836E+03 -0.23520465558E+03  0.28028401068E+03  0.00000000000E+00 0. -1.
<mgrwt>
<rscale>  0 0.21648815E+03</rscale>
<asrwt>0</asrwt>
<pdfrwt beam="2">  1        2 0.27411776E+00 0.22124567E+03</pdfrwt>
<pdfrwt beam="1">  1       -2 0.52059488E-02 0.22124567E+03</pdfrwt>
<totfact> 0.17861119E+03</totfact>
</mgrwt>
</event>
<event>
 7    1  0.6419647E-006  0.1601388E+03  0.7546771E-02  0.1196453E+00
         -2   -1    0    0    0  501 -0.00000000000E+00  0.00000000000E+00  0.18074973414E+03  0.18074973414E+03  0.00000000000E+00 0.  1.
          2   -1    0    0  501    0  0.00000000000E+00 -0.00000000000E+00 -0.17573706754E+03  0.17573706754E+03  0.00000000000E+00 0. -1.
         23    2    1    2    0    0 -0.32485152648E+01 -0.10004846301E+03 -0.97363158912E+02  0.18741401560E+03  0.12499672287E+03 0.  0.
          5    1    3    3  502    0 -0.34927048128E+02  0.21568179064E+01 -0.67575605918E+02  0.76243708393E+02  0.47000000000E+01 0. -1.
         -5    1    3    3    0  502  0.31678532863E+02 -0.10220528092E+03 -0.29787552994E+02  0.11117030721E+03  0.47000000000E+01 0. -1.
        -11    1    1    2    0    0 -0.12668011813E+02 -0.13815641468E+02  0.82223334025E+01  0.20468444959E+02  0.00000000000E+00 0.  1.
         11    1    1    2    0    0  0.15916527078E+02  0.11386410448E+03  0.94153492108E+02  0.14860434112E+03  0.00000000000E+00 0. -1.
<mgrwt>
<rscale>  0 0.15331922E+03</rscale>
<asrwt>0</asrwt>
<pdfrwt beam="2">  1        2 0.27036472E-01 0.16013878E+03</pdfrwt>
<pdfrwt beam="1">  1       -2 0.27807652E-01 0.16013878E+03</pdfrwt>
<totfact> 0.22611005E+03</totfact>
</mgrwt>
</event>
<event>
 7    1  0.6419647E-006  0.1336640E+03  0.7546771E-02  0.1231427E+00
          2   -1    0    0  501    0  0.00000000000E+00  0.00000000000E+00  0.44952897571E+03  0.44952897571E+03  0.00000000000E+00 0. -1.
         -2   -1    0    0    0  501 -0.00000000000E+00 -0.00000000000E+00 -0.58203107612E+02  0.58203107612E+02  0.00000000000E+00 0.  1.
         23    2    1    2    0    0  0.35371632872E+02 -0.31464284832E+02  0.37276560629E+03  0.39600538099E+03  0.12499964362E+03 0.  0.
          5    1    3    3  502    0  0.55943364102E+02 -0.28864777630E+02  0.36906457962E+03  0.37442434390E+03  0.47000000000E+01 0.  1.
         -5    1    3    3    0  502 -0.20571731229E+02 -0.25995072028E+01  0.37010266761E+01  0.21581037091E+02  0.47000000000E+01 0.  1.
        -11    1    1    2    0    0 -0.69480359833E+02  0.18929117008E+02  0.21808718604E+02  0.75242621434E+02  0.00000000000E+00 0. -1.
         11    1    1    2    0    0  0.34108726960E+02  0.12535167824E+02 -0.32484568035E+01  0.36484080896E+02  0.00000000000E+00 0.  1.
<mgrwt>
<rscale>  0 0.12735937E+03</rscale>
<asrwt>0</asrwt>
<pdfrwt beam="1">  1        2 0.69158302E-01 0.13366400E+03</pdfrwt>
<pdfrwt beam="2">  1       -2 0.89543245E-02 0.13366400E+03</pdfrwt>
<totfact> 0.53348177E+03</totfact>
</mgrwt>
</event>
<event>
 7    1  0.6419647E-006  0.1339605E+03  0.7546771E-02  0.1225821E+00
         -2   -1    0    0    0  501 -0.00000000000E+00  0.00000000000E+00  0.19890332896E+02  0.19890332896E+02  0.00000000000E+00 0.  1.
          2   -1    0    0  501    0  0.00000000000E+00 -0.00000000000E+00 -0.89828952486E+03  0.89828952486E+03  0.00000000000E+00 0. -1.
         23    2    1    2    0    0  0.45172680008E+02 -0.16681118966E+02 -0.58374705426E+03  0.59892072468E+03  0.12500632121E+03 0.  0.
          5    1    3    3  502    0 -0.37550855589E+02 -0.25244483890E+02 -0.13362905125E+03  0.14116006539E+03  0.47000000000E+01 0. -1.
         -5    1    3    3    0  502  0.82723535598E+02  0.85633649248E+01 -0.45011800301E+03  0.45776065929E+03  0.47000000000E+01 0. -1.
        -11    1    1    2    0    0  0.17226593773E+02  0.47920221588E+02 -0.95387850720E+02  0.10812929869E+03  0.00000000000E+00 0.  1.
         11    1    1    2    0    0 -0.62399273782E+02 -0.31239102622E+02 -0.19926428699E+03  0.21112983439E+03  0.00000000000E+00 0. -1.
<mgrwt>
<rscale>  0 0.13110766E+03</rscale>
<asrwt>0</asrwt>
<pdfrwt beam="2">  1        2 0.13819836E+00 0.13396048E+03</pdfrwt>
<pdfrwt beam="1">  1       -2 0.30600520E-02 0.13396048E+03</pdfrwt>
<totfact> 0.12003014E+04</totfact>
</mgrwt>
</event>
<event>
 7    1  0.6419647E-006  0.1300281E+03  0.7546771E-02  0.1241057E+00
         -2   -1    0    0    0  501 -0.00000000000E+00  0.00000000000E+00  0.55728236810E+03  0.55728236810E+03  0.00000000000E+00 0.  1.
          2   -1    0    0  501    0  0.00000000000E+00 -0.00000000000E+00 -0.36229761708E+02  0.36229761708E+02  0.00000000000E+00 0. -1.
         23    2    1    2    0    0 -0.30226548934E+02 -0.19216636000E+02  0.10831864575E+03  0.16923429779E+03  0.12499758066E+03 0.  0.
          5    1    3    3  502    0 -0.48780519085E+02 -0.68653159508E+01  0.12918755400E+03  0.13834083170E+03  0.47000000000E+01 0. -1.
         -5    1    3    3    0  502  0.18553970151E+02 -0.12351320049E+02 -0.20868908257E+02  0.30893466092E+02  0.47000000000E+01 0. -1.
        -11    1    1    2    0    0 -0.16663733567E+02  0.42671886635E+02  0.18522841123E+03  0.19080915662E+03  0.00000000000E+00 0.  1.
         11    1    1    2    0    0  0.46890282501E+02 -0.23455250635E+02  0.22750554943E+03  0.23346867540E+03  0.00000000000E+00 0. -1.
<mgrwt>
<rscale>  0 0.12124488E+03</rscale>
<asrwt>0</asrwt>
<pdfrwt beam="2">  1        2 0.55738099E-02 0.13002815E+03</pdfrwt>
<pdfrwt beam="1">  1       -2 0.85735743E-01 0.13002815E+03</pdfrwt>
<totfact> 0.15988744E+03</totfact>
</mgrwt>
</event>
<event>
 7    1  0.6419647E-006  0.1414723E+03  0.7546771E-02  0.1221689E+00
          1   -1    0    0  501    0  0.00000000000E+00  0.00000000000E+00  0.27292880361E+03  0.27292880361E+03  0.00000000000E+00 0. -1.
         -1   -1    0    0    0  501 -0.00000000000E+00 -0.00000000000E+00 -0.64818125593E+02  0.64818125593E+02  0.00000000000E+00 0.  1.
         23    2    1    2    0    0  0.29588927881E+02 -0.59262357265E+02  0.16181302931E+03  0.21493687155E+03  0.12500748240E+03 0.  0.
          5    1    3    3  502    0 -0.23682482273E+02  0.21982953956E+02  0.84812993238E+02  0.90881483555E+02  0.47000000000E+01 0. -1.
         -5    1    3    3    0  502  0.53271410154E+02 -0.81245311221E+02  0.77000036073E+02  0.12405538799E+03  0.47000000000E+01 0. -1.
        -11    1    1    2    0    0 -0.33143263488E+02  0.10210521686E+02  0.62121684687E+02  0.71146569672E+02  0.00000000000E+00 0. -1.
         11    1    1    2    0    0  0.35543356072E+01  0.49051835579E+02 -0.15824035983E+02  0.51663487978E+02  0.00000000000E+00 0.  1.
<mgrwt>
<rscale>  0 0.13396471E+03</rscale>
<asrwt>0</asrwt>
<pdfrwt beam="1">  1        1 0.41989046E-01 0.14147227E+03</pdfrwt>
<pdfrwt beam="2">  1       -1 0.99720195E-02 0.14147227E+03</pdfrwt>
<totfact> 0.57930994E+03</totfact>
</mgrwt>
</event>
<event>
 7    1  0.6419647E-006  0.1770817E+03  0.7546771E-02  0.1176698E+00
          2   -1    0    0  501    0  0.00000000000E+00  0.00000000000E+00  0.89475810984E+02  0.89475810984E+02  0.00000000000E+00 0. -1.
         -2   -1    0    0    0  501 -0.00000000000E+00 -0.00000000000E+00 -0.31075348491E+03  0.31075348491E+03  0.00000000000E+00 0.  1.
         23    2    1    2    0    0 -0.19821562065E+02 -0.12385540645E+03 -0.96044255495E+02  0.20145080962E+03  0.12499949461E+03 0.  0.
          5    1    3    3  502    0  0.49802288772E+02 -0.42734001892E+02 -0.58532973589E+02  0.88060558037E+02  0.47000000000E+01 0. -1.
         -5    1    3    3    0  502 -0.69623850838E+02 -0.81121404556E+02 -0.37511281906E+02  0.11339025158E+03  0.47000000000E+01 0. -1.
        -11    1    1    2    0    0 -0.24330634239E+02  0.94924902440E+02 -0.60157122317E+02  0.11498520005E+03  0.00000000000E+00 0.  1.
         11    1    1    2    0    0  0.44152196304E+02  0.28930504008E+02 -0.65076296114E+02  0.83793286226E+02  0.00000000000E+00 0. -1.
<mgrwt>
<rscale>  0 0.17110771E+03</rscale>
<asrwt>0</asrwt>
<pdfrwt beam="1">  1        2 0.13765509E-01 0.17708170E+03</pdfrwt>
<pdfrwt beam="2">  1       -2 0.47808228E-01 0.17708170E+03</pdfrwt>
<totfact> 0.17827157E+03</totfact>
</mgrwt>
</event>
<event>
 7    1  0.6419647E-006  0.1554113E+03  0.7546771E-02  0.1201792E+00
          2   -1    0    0  501    0  0.00000000000E+00  0.00000000000E+00  0.72522533489E+03  0.72522533489E+03  0.00000000000E+00 0. -1.
         -2   -1    0    0    0  501 -0.00000000000E+00 -0.00000000000E+00 -0.61174231441E+02  0.61174231441E+02  0.00000000000E+00 0.  1.
         23    2    1    2    0    0 -0.88101890895E+02  0.27652760377E+02  0.63287061321E+03  0.65167314350E+03  0.12500421819E+03 0.  0.
          5    1    3    3  502    0 -0.99101272292E+02  0.41056236670E+02  0.30567134139E+03  0.32398107304E+03  0.47000000000E+01 0.  1.
         -5    1    3    3    0  502  0.10999381397E+02 -0.13403476294E+02  0.32719927182E+03  0.32769207047E+03  0.47000000000E+01 0.  1.
        -11    1    1    2    0    0  0.83775951785E+02 -0.45396689328E+02  0.50750718831E+02  0.10795788513E+03  0.00000000000E+00 0. -1.
         11    1    1    2    0    0  0.43259391105E+01  0.17743928951E+02 -0.19570228587E+02  0.26768537703E+02  0.00000000000E+00 0.  1.
<mgrwt>
<rscale>  0 0.14893153E+03</rscale>
<asrwt>0</asrwt>
<pdfrwt beam="1">  1        2 0.11157312E+00 0.15541130E+03</pdfrwt>
<pdfrwt beam="2">  1       -2 0.94114207E-02 0.15541130E+03</pdfrwt>
<totfact> 0.28883693E+03</totfact>
</mgrwt>
</event>
<event>
 7    1  0.6419647E-006  0.1413143E+03  0.7546771E-02  0.1216431E+00
         -2   -1    0    0    0  501 -0.00000000000E+00  0.00000000000E+00  0.11221381271E+03  0.11221381271E+03  0.00000000000E+00 0.  1.
          2   -1    0    0  501    0  0.00000000000E+00 -0.00000000000E+00 -0.16123914355E+03  0.16123914355E+03  0.00000000000E+00 0. -1.
         23    2    1    2    0    0 -0.55984240555E+02 -0.34828921017E+02 -0.31458903029E+02  0.14477363857E+03  0.12498981925E+03 0.  0.
          5    1    3    3  502    0  0.36227982050E+02 -0.26113128217E+02  0.48731767015E+01  0.45168573143E+02  0.47000000000E+01 0.  1.
         -5    1    3    3    0  502 -0.92212222604E+02 -0.87157928008E+01 -0.36332079730E+02  0.99605065430E+02  0.47000000000E+01 0.  1.
        -11    1    1    2    0    0  0.21652514647E+02 -0.37087468475E+02 -0.23159985133E+02  0.48792382805E+02  0.00000000000E+00 0. -1.
         11    1    1    2    0    0  0.34331725908E+02  0.71916389492E+02  0.55935573297E+01  0.79886934883E+02  0.00000000000E+00 0.  1.
<mgrwt>
<rscale>  0 0.13771957E+03</rscale>
<asrwt>0</asrwt>
<pdfrwt beam="2">  1        2 0.24806022E-01 0.14131434E+03</pdfrwt>
<pdfrwt beam="1">  1       -2 0.17263664E-01 0.14131434E+03</pdfrwt>
<totfact> 0.56040220E+03</totfact>
</mgrwt>
</event>
<event>
 7    1  0.6419647E-006  0.2531657E+03  0.7546771E-02  0.1113601E+00
          2   -1    0    0  501    0  0.00000000000E+00  0.00000000000E+00  0.56444362568E+03  0.56444362568E+03  0.00000000000E+00 0. -1.
         -2   -1    0    0    0  501 -0.00000000000E+00 -0.00000000000E+00 -0.13799267491E+03  0.13799267491E+03  0.00000000000E+00 0.  1.
         23    2    1    2    0    0  0.17845663096E+03  0.12893478638E+03  0.38370868316E+03  0.45970126155E+03  0.12498779165E+03 0.  0.
          5    1    3    3  502    0  0.16140144167E+03  0.70360860128E+02  0.34482388021E+03  0.38720366008E+03  0.47000000000E+01 0.  1.
         -5    1    3    3    0  502  0.17055189294E+02  0.58573926256E+02  0.38884802949E+02  0.72497601473E+02  0.47000000000E+01 0.  1.
        -11    1    1    2    0    0  0.14745062858E+01 -0.36121349821E+02  0.11109884202E+02  0.37820042420E+02  0.00000000000E+00 0. -1.
         11    1    1    2    0    0 -0.17993113725E+03 -0.92813436564E+02  0.31632383408E+02  0.20491499662E+03  0.00000000000E+00 0.  1.
<mgrwt>
<rscale>  0 0.24953240E+03</rscale>
<asrwt>0</asrwt>
<pdfrwt beam="1">  1        2 0.86837480E-01 0.25316575E+03</pdfrwt>
<pdfrwt beam="2">  1       -2 0.21229643E-01 0.25316575E+03</pdfrwt>
<totfact> 0.10285090E+03</totfact>
</mgrwt>
</event>
<event>
 7    1  0.6419647E-006  0.1253407E+03  0.7546771E-02  0.1247649E+00
          2   -1    0    0  501    0  0.00000000000E+00  0.00000000000E+00  0.50863900261E+03  0.50863900261E+03  0.00000000000E+00 0. -1.
         -2   -1    0    0    0  501 -0.00000000000E+00 -0.00000000000E+00 -0.24206156233E+02  0.24206156233E+02  0.00000000000E+00 0.  1.
         23    2    1    2    0    0  0.78770900629E+01  0.46975572702E+01  0.25642865959E+03  0.28542239645E+03  0.12500468529E+03 0.  0.
          5    1    3    3  502    0 -0.47022169092E+02  0.38026302750E+02  0.13407316421E+03  0.14715565721E+03  0.47000000000E+01 0.  1.
         -5    1    3    3    0  502  0.54899259155E+02 -0.33328745480E+02  0.12235549538E+03  0.13826673924E+03  0.47000000000E+01 0.  1.
        -11    1    1    2    0    0 -0.28980696726E+02 -0.42490513379E+02  0.14423666441E+03  0.15313242593E+03  0.00000000000E+00 0.  1.
         11    1    1    2    0    0  0.21103606663E+02  0.37792956109E+02  0.83767522377E+02  0.94290336465E+02  0.00000000000E+00 0. -1.
<mgrwt>
<rscale>  0 0.11728209E+03</rscale>
<asrwt>0</asrwt>
<pdfrwt beam="1">  1        2 0.78252146E-01 0.12534068E+03</pdfrwt>
<pdfrwt beam="2">  1       -2 0.37240244E-02 0.12534068E+03</pdfrwt>
<totfact> 0.17510848E+04</totfact>
</mgrwt>
</event>
<event>
 7    1  0.6419647E-006  0.1587579E+03  0.7546771E-02  0.1198090E+00
         -1   -1    0    0    0  501 -0.00000000000E+00  0.00000000000E+00  0.28515128515E+02  0.28515128515E+02  0.00000000000E+00 0.  1.
          1   -1    0    0  501    0  0.00000000000E+00 -0.00000000000E+00 -0.10115742646E+04  0.10115742646E+04  0.00000000000E+00 0. -1.
         23    2    1    2    0    0 -0.57361149789E+02  0.78443794535E+02 -0.78818056953E+03  0.80401037309E+03  0.12554019056E+03 0.  0.
          5    1    3    3  502    0  0.15528087871E+01  0.95686600274E+02 -0.52998314571E+03  0.53857456440E+03  0.47000000000E+01 0. -1.
         -5    1    3    3    0  502 -0.58913958576E+02 -0.17242805739E+02 -0.25819742383E+03  0.26543580869E+03  0.47000000000E+01 0.  1.
        -11    1    1    2    0    0  0.47334894596E+02  0.22408787006E+01 -0.10308366370E+03  0.11345420003E+03  0.00000000000E+00 0. -1.
         11    1    1    2    0    0  0.10026255193E+02 -0.80684673236E+02 -0.91794902866E+02  0.12262482000E+03  0.00000000000E+00 0.  1.
<mgrwt>
<rscale>  0 0.15195625E+03</rscale>
<asrwt>0</asrwt>
<pdfrwt beam="2">  1        1 0.15562682E+00 0.15875790E+03</pdfrwt>
<pdfrwt beam="1">  1       -1 0.43869425E-02 0.15875790E+03</pdfrwt>
<totfact> 0.33153961E+03</totfact>
</mgrwt>
</event>
<event>
 7    1  0.6419647E-006  0.1331400E+03  0.7546771E-02  0.1235461E+00
          1   -1    0    0  501    0  0.00000000000E+00  0.00000000000E+00  0.43915859663E+03  0.43915859663E+03  0.00000000000E+00 0. -1.
         -1   -1    0    0    0  501 -0.00000000000E+00 -0.00000000000E+00 -0.34975818083E+02  0.34975818083E+02  0.00000000000E+00 0.  1.
         23    2    1    2    0    0  0.49849126624E+01  0.45561045722E+02  0.29839943831E+03  0.32675448088E+03  0.12500243099E+03 0.  0.
          5    1    3    3  502    0  0.28602071946E+02  0.13835503691E+02  0.28176739073E+03  0.28359205235E+03  0.47000000000E+01 0. -1.
         -5    1    3    3    0  502 -0.23617159284E+02  0.31725542031E+02  0.16632047584E+02  0.43162428530E+02  0.47000000000E+01 0. -1.
        -11    1    1    2    0    0  0.67419991524E+01 -0.97462477788E+01 -0.15993204179E+02  0.19905438409E+02  0.00000000000E+00 0.  1.
         11    1    1    2    0    0 -0.11726911815E+02 -0.35814797943E+02  0.12177654441E+03  0.12747449542E+03  0.00000000000E+00 0. -1.
<mgrwt>
<rscale>  0 0.12474949E+03</rscale>
<asrwt>0</asrwt>
<pdfrwt beam="1">  1        1 0.67562857E-01 0.13314002E+03</pdfrwt>
<pdfrwt beam="2">  1       -1 0.53808954E-02 0.13314002E+03</pdfrwt>
<totfact> 0.80529118E+03</totfact>
</mgrwt>
</event>
<event>
 7    1  0.6419647E-006  0.1470957E+03  0.7546771E-02  0.1213702E+00
         -1   -1    0    0    0  501 -0.00000000000E+00  0.00000000000E+00  0.28478485566E+02  0.28478485566E+02  0.00000000000E+00 0.  1.
          1   -1    0    0  501    0  0.00000000000E+00 -0.00000000000E+00 -0.89410946014E+03  0.89410946014E+03  0.00000000000E+00 0. -1.
         23    2    1    2    0    0  0.72909118553E+02 -0.23501151093E+02 -0.71592676987E+03  0.73088184684E+03  0.12557503957E+03 0.  0.
          5    1    3    3  502    0  0.67102071906E+02 -0.59138887001E+02 -0.29283910386E+03  0.30623018590E+03  0.47000000000E+01 0. -1.
         -5    1    3    3    0  502  0.58070466477E+01  0.35637735908E+02 -0.42308766601E+03  0.42465166094E+03  0.47000000000E+01 0.  1.
        -11    1    1    2    0    0 -0.56330391105E+02  0.27528536577E+02 -0.15995412894E+03  0.17180295880E+03  0.00000000000E+00 0.  1.
         11    1    1    2    0    0 -0.16578727448E+02 -0.40273854838E+01  0.10249924230E+02  0.19903140062E+02  0.00000000000E+00 0. -1.
<mgrwt>
<rscale>  0 0.13972306E+03</rscale>
<asrwt>0</asrwt>
<pdfrwt beam="2">  1        1 0.13755532E+00 0.14709566E+03</pdfrwt>
<pdfrwt beam="1">  1       -1 0.43813050E-02 0.14709566E+03</pdfrwt>
<totfact> 0.40611787E+03</totfact>
</mgrwt>
</event>
<event>
 7    1  0.6419647E-006  0.1293462E+03  0.7546771E-02  0.1240970E+00
          1   -1    0    0  501    0  0.00000000000E+00  0.00000000000E+00  0.68521377846E+02  0.68521377846E+02  0.00000000000E+00 0. -1.
         -1   -1    0    0    0  501 -0.00000000000E+00 -0.00000000000E+00 -0.30234895800E+03  0.30234895800E+03  0.00000000000E+00 0.  1.
         23    2    1    2    0    0 -0.31679553728E+02  0.10044750660E+02 -0.14939666871E+02  0.13020607931E+03  0.12500375316E+03 0.  0.
          5    1    3    3  502    0  0.10694529051E+02 -0.38806767578E+02 -0.43413801890E+02  0.59390120020E+02  0.47000000000E+01 0. -1.
         -5    1    3    3    0  502 -0.42374082779E+02  0.48851518237E+02  0.28474135019E+02  0.70815959293E+02  0.47000000000E+01 0. -1.
        -11    1    1    2    0    0  0.48391166858E+02 -0.36735814349E+02 -0.18348560363E+03  0.19328267337E+03  0.00000000000E+00 0.  1.
         11    1    1    2    0    0 -0.16711613130E+02  0.26691063689E+02 -0.35402309654E+02  0.47381583164E+02  0.00000000000E+00 0. -1.
<mgrwt>
<rscale>  0 0.12129842E+03</rscale>
<asrwt>0</asrwt>
<pdfrwt beam="1">  1        1 0.10541750E-01 0.12934616E+03</pdfrwt>
<pdfrwt beam="2">  1       -1 0.46515225E-01 0.12934616E+03</pdfrwt>
<totfact> 0.27044228E+03</totfact>
</mgrwt>
</event>
<event>
 7    1  0.6419647E-006  0.1556121E+03  0.7546771E-02  0.1201692E+00
          1   -1    0    0  501    0  0.00000000000E+00  0.00000000000E+00  0.15833024146E+04  0.15833024146E+04  0.00000000000E+00 0. -1.
         -1   -1    0    0    0  501 -0.00000000000E+00 -0.00000000000E+00 -0.15128484297E+02  0.15128484297E+02  0.00000000000E+00 0.  1.
         23    2    1    2    0    0 -0.87488592048E+02  0.30616367770E+02  0.11439751181E+04  0.11545103765E+04  0.12499409104E+03 0.  0.
          5    1    3    3  502    0 -0.42192423140E+02 -0.44427285119E+02  0.31791012487E+03  0.32379456717E+03  0.47000000000E+01 0. -1.
         -5    1    3    3    0  502 -0.45296168908E+02  0.75043652889E+02  0.82606499323E+03  0.83071580928E+03  0.47000000000E+01 0. -1.
        -11    1    1    2    0    0  0.62834049454E+02  0.21110997150E+02  0.15312647031E+03  0.16685774744E+03  0.00000000000E+00 0.  1.
         11    1    1    2    0    0  0.24654542594E+02 -0.51727364920E+02  0.27107234187E+03  0.27706277497E+03  0.00000000000E+00 0. -1.
<mgrwt>
<rscale>  0 0.14901264E+03</rscale>
<asrwt>0</asrwt>
<pdfrwt beam="1">  1        1 0.24358486E+00 0.15561214E+03</pdfrwt>
<pdfrwt beam="2">  1       -1 0.23274604E-02 0.15561214E+03</pdfrwt>
<totfact> 0.34346628E+03</totfact>
</mgrwt>
</event>
<event>
 7    1  0.6419647E-006  0.1387536E+03  0.7546771E-02  0.1226514E+00
          1   -1    0    0  501    0  0.00000000000E+00  0.00000000000E+00  0.11874233725E+04  0.11874233725E+04  0.00000000000E+00 0. -1.
         -1   -1    0    0    0  501 -0.00000000000E+00 -0.00000000000E+00 -0.14404452265E+02  0.14404452265E+02  0.00000000000E+00 0.  1.
         23    2    1    2    0    0 -0.39882667397E+02 -0.45116350333E+02  0.84092277019E+03  0.85229318608E+03  0.12500582941E+03 0.  0.
          5    1    3    3  502    0 -0.15617447827E+02 -0.87850356416E+02  0.53238577589E+03  0.53983172764E+03  0.47000000000E+01 0.  1.
         -5    1    3    3    0  502 -0.24265219570E+02  0.42734006082E+02  0.30853699430E+03  0.31246145844E+03  0.47000000000E+01 0.  1.
        -11    1    1    2    0    0  0.64086979607E+02  0.10252760338E+02  0.22965053012E+03  0.23864539810E+03  0.00000000000E+00 0.  1.
         11    1    1    2    0    0 -0.24204312209E+02  0.34863589995E+02  0.10244561996E+03  0.11088924063E+03  0.00000000000E+00 0. -1.
<mgrwt>
<rscale>  0 0.13063680E+03</rscale>
<asrwt>0</asrwt>
<pdfrwt beam="1">  1        1 0.18268044E+00 0.13875363E+03</pdfrwt>
<pdfrwt beam="2">  1       -1 0.22160705E-02 0.13875363E+03</pdfrwt>
<totfact> 0.67214862E+03</totfact>
</mgrwt>
</event>
<event>
 7    1  0.6419647E-006  0.1319745E+03  0.7546771E-02  0.1239175E+00
          2   -1    0    0  501    0  0.00000000000E+00  0.00000000000E+00  0.41071032454E+03  0.41071032454E+03  0.00000000000E+00 0. -1.
         -2   -1    0    0    0  501 -0.00000000000E+00 -0.00000000000E+00 -0.64795266111E+02  0.64795266111E+02  0.00000000000E+00 0.  1.
         23    2    1    2    0    0  0.33844656902E+02  0.25433045517E+02  0.35370070310E+03  0.37752013113E+03  0.12499984571E+03 0.  0.
          5    1    3    3  502    0  0.24959764293E+02  0.37576643391E+02  0.35825266434E+03  0.36111224775E+03  0.47000000000E+01 0. -1.
         -5    1    3    3    0  502  0.88848926085E+01 -0.12143597875E+02 -0.45519612398E+01  0.16407883384E+02  0.47000000000E+01 0. -1.
        -11    1    1    2    0    0 -0.51778704468E+02 -0.24623299526E+02  0.23460339789E+02  0.61949404024E+02  0.00000000000E+00 0. -1.
         11    1    1    2    0    0  0.17934047566E+02 -0.80974599093E+00 -0.31245984464E+02  0.36036055497E+02  0.00000000000E+00 0.  1.
<mgrwt>
<rscale>  0 0.12240920E+03</rscale>
<asrwt>0</asrwt>
<pdfrwt beam="1">  1        2 0.63186202E-01 0.13197447E+03</pdfrwt>
<pdfrwt beam="2">  1       -2 0.99685027E-02 0.13197447E+03</pdfrwt>
<totfact> 0.49676533E+03</totfact>
</mgrwt>
</event>
<event>
 6    1  0.6419647E-006  0.1845722E+03  0.7546771E-02  0.1180556E+00
         -1   -1    0    0    0  501 -0.00000000000E+00  0.00000000000E+00  0.56082000231E+02  0.56082000231E+02  0.00000000000E+00 0.  1.
          1   -1    0    0  501    0  0.00000000000E+00 -0.00000000000E+00 -0.47393900515E+03  0.47393900515E+03  0.00000000000E+00 0. -1.
          5    1    1    2  502    0 -0.41497302536E+02  0.12499580402E+02 -0.23281126498E+02  0.49420304319E+02  0.47000000000E+01 0.  1.
         -5    1    1    2    0  502  0.77212844678E+02 -0.89961329846E+02 -0.30377145972E+03  0.32611969274E+03  0.47000000000E+01 0. -1.
        -11    1    1    2    0    0 -0.36383451585E+02  0.13927352655E+02  0.52536150545E+01  0.39310649605E+02  0.00000000000E+00 0. -1.
         11    1    1    2    0    0  0.66790944341E+00  0.63534396790E+02 -0.96058033753E+02  0.11517035872E+03  0.00000000000E+00 0.  1.
<mgrwt>
<rscale>  0 0.16742918E+03</rscale>
<asrwt>0</asrwt>
<pdfrwt beam="2">  1        1 0.72913694E-01 0.18457220E+03</pdfrwt>
<pdfrwt beam="1">  1       -1 0.86279999E-02 0.18457220E+03</pdfrwt>
<totfact> 0.36507795E+03</totfact>
</mgrwt>
</event>
<event>
 7    1  0.6419647E-006  0.1383641E+03  0.7546771E-02  0.1226729E+00
          1   -1    0    0  501    0  0.00000000000E+00  0.00000000000E+00  0.80299157675E+02  0.80299157675E+02  0.00000000000E+00 0. -1.
         -1   -1    0    0    0  501 -0.00000000000E+00 -0.00000000000E+00 -0.19954250165E+03  0.19954250165E+03  0.00000000000E+00 0.  1.
         23    2    1    2    0    0  0.50815347686E+01  0.59097766537E+02 -0.37879304823E+02  0.14345542346E+03  0.12500499502E+03 0.  0.
          5    1    3    3  502    0 -0.19025686594E+02 -0.23824868468E+02 -0.47288560906E+02  0.56461483336E+02  0.47000000000E+01 0.  1.
         -5    1    3    3    0  502  0.24107221363E+02  0.82922635004E+02  0.94092560829E+01  0.86993940122E+02  0.47000000000E+01 0.  1.
        -11    1    1    2    0    0 -0.12215036003E+02 -0.39266019205E+02 -0.10008050666E+03  0.10819951563E+03  0.00000000000E+00 0.  1.
         11    1    1    2    0    0  0.71335012343E+01 -0.19831747332E+02  0.18716467506E+02  0.28186720242E+02  0.00000000000E+00 0. -1.
<mgrwt>
<rscale>  0 0.13049071E+03</rscale>
<asrwt>0</asrwt>
<pdfrwt beam="1">  1        1 0.12353717E-01 0.13836407E+03</pdfrwt>
<pdfrwt beam="2">  1       -1 0.30698846E-01 0.13836407E+03</pdfrwt>
<totfact> 0.45367304E+03</totfact>
</mgrwt>
</event>
<event>
 7    1  0.6419647E-006  0.1543692E+03  0.7546771E-02  0.1204836E+00
          1   -1    0    0  501    0  0.00000000000E+00  0.00000000000E+00  0.31672744029E+03  0.31672744029E+03  0.00000000000E+00 0. -1.
         -1   -1    0    0    0  501 -0.00000000000E+00 -0.00000000000E+00 -0.61810527572E+02  0.61810527572E+02  0.00000000000E+00 0.  1.
         23    2    1    2    0    0  0.80312480589E+02 -0.41918680054E+02  0.14842629974E+03  0.21414998916E+03  0.12499032413E+03 0.  0.
          5    1    3    3  502    0  0.25380946262E+02  0.44651977124E+02  0.45124335844E+02  0.68529462128E+02  0.47000000000E+01 0.  1.
         -5    1    3    3    0  502  0.54931534327E+02 -0.86570657178E+02  0.10330196389E+03  0.14562052703E+03  0.47000000000E+01 0.  1.
        -11    1    1    2    0    0 -0.23989449766E+02 -0.10732780332E+02  0.77805861640E+02  0.82124529705E+02  0.00000000000E+00 0. -1.
         11    1    1    2    0    0 -0.56323030823E+02  0.52651460387E+02  0.28684751341E+02  0.82263449000E+02  0.00000000000E+00 0.  1.
<mgrwt>
<rscale>  0 0.14650407E+03</rscale>
<asrwt>0</asrwt>
<pdfrwt beam="1">  1        1 0.48727298E-01 0.15436920E+03</pdfrwt>
<pdfrwt beam="2">  1       -1 0.95093121E-02 0.15436920E+03</pdfrwt>
<totfact> 0.52051796E+03</totfact>
</mgrwt>
</event>
<event>
 7    1  0.6419647E-006  0.2013435E+03  0.7546771E-02  0.1152409E+00
         -2   -1    0    0    0  501 -0.00000000000E+00  0.00000000000E+00  0.27564547404E+03  0.27564547404E+03  0.00000000000E+00 0.  1.
          2   -1    0    0  501    0  0.00000000000E+00 -0.00000000000E+00 -0.17662845532E+03  0.17662845532E+03  0.00000000000E+00 0. -1.
         23    2    1    2    0    0 -0.88474897858E+02 -0.13071399206E+03 -0.58896063925E+02  0.20978070636E+03  0.12500097258E+03 0.  0.
          5    1    3    3  502    0 -0.39234400328E+02 -0.10702459453E+03 -0.91262748453E+02  0.14609784823E+03  0.47000000000E+01 0. -1.
         -5    1    3    3    0  502 -0.49240497530E+02 -0.23689397535E+02  0.32366684527E+02  0.63682858132E+02  0.47000000000E+01 0. -1.
        -11    1    1    2    0    0  0.66959552900E+02  0.61640618214E+02  0.30524114887E+02  0.95994109861E+02  0.00000000000E+00 0. -1.
         11    1    1    2    0    0  0.21515344959E+02  0.69073373846E+02  0.12738896776E+03  0.14649911314E+03  0.00000000000E+00 0.  1.
<mgrwt>
<rscale>  0 0.19686765E+03</rscale>
<asrwt>0</asrwt>
<pdfrwt beam="2">  1        2 0.27173608E-01 0.20134348E+03</pdfrwt>
<pdfrwt beam="1">  1       -2 0.42406996E-01 0.20134348E+03</pdfrwt>
<totfact> 0.10363336E+03</totfact>
</mgrwt>
</event>
<event>
 7    1  0.6419647E-006  0.1895026E+03  0.7546771E-02  0.1163506E+00
          1   -1    0    0  501    0  0.00000000000E+00  0.00000000000E+00  0.12517589538E+04  0.12517589538E+04  0.00000000000E+00 0. -1.
         -1   -1    0    0    0  501 -0.00000000000E+00 -0.00000000000E+00 -0.29220414993E+02  0.29220414993E+02  0.00000000000E+00 0.  1.
         23    2    1    2    0    0  0.65561696162E+02 -0.12645333093E+03  0.85712101787E+03  0.87781983219E+03  0.12498975000E+03 0.  0.
          5    1    3    3  502    0  0.32168059331E+02 -0.14122401540E+03  0.56084696726E+03  0.57926713808E+03  0.47000000000E+01 0. -1.
         -5    1    3    3    0  502  0.33393636831E+02  0.14770684465E+02  0.29627405061E+03  0.29855269412E+03  0.47000000000E+01 0. -1.
        -11    1    1    2    0    0 -0.84149195895E+01  0.10045162541E+03  0.27656824230E+03  0.29436598406E+03  0.00000000000E+00 0. -1.
         11    1    1    2    0    0 -0.57146776573E+02  0.26001705519E+02  0.88849278670E+02  0.10879355258E+03  0.00000000000E+00 0.  1.
<mgrwt>
<rscale>  0 0.18451232E+03</rscale>
<asrwt>0</asrwt>
<pdfrwt beam="1">  1        1 0.19257826E+00 0.18950256E+03</pdfrwt>
<pdfrwt beam="2">  1       -1 0.44954494E-02 0.18950256E+03</pdfrwt>
<totfact> 0.21710742E+03</totfact>
</mgrwt>
</event>
<event>
 7    1  0.6419647E-006  0.1444878E+03  0.7546771E-02  0.1231351E+00
         -4   -1    0    0    0  501 -0.00000000000E+00  0.00000000000E+00  0.41392803228E+03  0.41392803228E+03  0.00000000000E+00 0. -1.
          4   -1    0    0  501    0  0.00000000000E+00 -0.00000000000E+00 -0.34729862098E+02  0.34729862098E+02  0.00000000000E+00 0.  1.
         23    2    1    2    0    0  0.61309210910E+02 -0.38644745506E+02  0.17763874970E+03  0.22898090428E+03  0.12499797371E+03 0.  0.
          5    1    3    3  502    0 -0.13620720915E+02 -0.63686356917E+02  0.77357558424E+02  0.10123121031E+03  0.47000000000E+01 0.  1.
         -5    1    3    3    0  502  0.74929931824E+02  0.25041611412E+02  0.10028119127E+03  0.12774969397E+03  0.47000000000E+01 0.  1.
        -11    1    1    2    0    0 -0.50236228588E+02  0.11365663696E+02  0.16433447093E+03  0.17221694258E+03  0.00000000000E+00 0.  1.
         11    1    1    2    0    0 -0.11072982322E+02  0.27279081809E+02  0.37224949550E+02  0.47460047523E+02  0.00000000000E+00 0. -1.
<mgrwt>
<rscale>  0 0.12740945E+03</rscale>
<asrwt>0</asrwt>
<pdfrwt beam="2">  1        4 0.53430560E-02 0.14448782E+03</pdfrwt>
<pdfrwt beam="1">  1       -4 0.63681232E-01 0.14448782E+03</pdfrwt>
<totfact> 0.84026954E+02</totfact>
</mgrwt>
</event>
<event>
 7    1  0.6419647E-006  0.1354138E+03  0.7546771E-02  0.1233021E+00
         -2   -1    0    0    0  501 -0.00000000000E+00  0.00000000000E+00  0.17761418530E+02  0.17761418530E+02  0.00000000000E+00 0.  1.
          2   -1    0    0  501    0  0.00000000000E+00 -0.00000000000E+00 -0.85397408630E+03  0.85397408630E+03  0.00000000000E+00 0. -1.
         23    2    1    2    0    0  0.22213856787E+02 -0.47088230474E+02 -0.58360778451E+03  0.59911179483E+03  0.12500455865E+03 0.  0.
          5    1    3    3  502    0  0.43710818343E+02 -0.10176623772E+02 -0.67357356399E+02  0.81075907473E+02  0.47000000000E+01 0. -1.
         -5    1    3    3    0  502 -0.21496961555E+02 -0.36911606702E+02 -0.51625042811E+03  0.51803588735E+03  0.47000000000E+01 0. -1.
        -11    1    1    2    0    0 -0.46897773423E+01 -0.17262445963E+02 -0.89430530133E+01  0.19999106214E+02  0.00000000000E+00 0.  1.
         11    1    1    2    0    0 -0.17524079445E+02  0.64350676437E+02 -0.24366183025E+03  0.25262460379E+03  0.00000000000E+00 0. -1.
<mgrwt>
<rscale>  0 0.12631955E+03</rscale>
<asrwt>0</asrwt>
<pdfrwt beam="2">  1        2 0.13138055E+00 0.13541380E+03</pdfrwt>
<pdfrwt beam="1">  1       -2 0.27325275E-02 0.13541380E+03</pdfrwt>
<totfact> 0.15139245E+04</totfact>
</mgrwt>
</event>
<event>
 7    1  0.6419647E-006  0.1735592E+03  0.7546771E-02  0.1180659E+00
          1   -1    0    0  501    0  0.00000000000E+00  0.00000000000E+00  0.48129980140E+03  0.48129980140E+03  0.00000000000E+00 0. -1.
         -1   -1    0    0    0  501 -0.00000000000E+00 -0.00000000000E+00 -0.54605593335E+02  0.54605593335E+02  0.00000000000E+00 0.  1.
         23    2    1    2    0    0  0.11073338007E+03 -0.47287510557E+02  0.21113675888E+03  0.27331581030E+03  0.12499924436E+03 0.  0.
          5    1    3    3  502    0 -0.28012061437E+01  0.33621065008E+02  0.40856124055E+02  0.53193379672E+02  0.47000000000E+01 0.  1.
         -5    1    3    3    0  502  0.11353458622E+03 -0.80908575565E+02  0.17028063483E+03  0.22012243062E+03  0.47000000000E+01 0.  1.
        -11    1    1    2    0    0 -0.36151010551E+02 -0.12101813381E+02  0.15839609977E+02  0.41282474432E+02  0.00000000000E+00 0.  1.
         11    1    1    2    0    0 -0.74582369523E+02  0.59389323938E+02  0.19971783921E+03  0.22130711001E+03  0.00000000000E+00 0. -1.
<mgrwt>
<rscale>  0 0.16733249E+03</rscale>
<asrwt>0</asrwt>
<pdfrwt beam="1">  1        1 0.74046121E-01 0.17355922E+03</pdfrwt>
<pdfrwt beam="2">  1       -1 0.84008608E-02 0.17355922E+03</pdfrwt>
<totfact> 0.37174354E+03</totfact>
</mgrwt>
</event>
<event>
 7    1  0.6419647E-006  0.1254190E+03  0.7546771E-02  0.1258894E+00
          1   -1    0    0  501    0  0.00000000000E+00  0.00000000000E+00  0.44841833047E+03  0.44841833047E+03  0.00000000000E+00 0. -1.
         -1   -1    0    0    0  501 -0.00000000000E+00 -0.00000000000E+00 -0.23895160758E+02  0.23895160758E+02  0.00000000000E+00 0.  1.
         23    2    1    2    0    0  0.85220002577E+00  0.10167367105E+02  0.31070996067E+03  0.33506807135E+03  0.12500332469E+03 0.  0.
          5    1    3    3  502    0  0.37781005828E+01 -0.56889069557E+02  0.12270305877E+03  0.13538379117E+03  0.47000000000E+01 0. -1.
         -5    1    3    3    0  502 -0.29259005571E+01  0.67056436662E+02  0.18800690190E+03  0.19968428019E+03  0.47000000000E+01 0. -1.
        -11    1    1    2    0    0  0.79470026959E+01  0.13106046412E+02 -0.47917159502E+01  0.16058762285E+02  0.00000000000E+00 0.  1.
         11    1    1    2    0    0 -0.87992027217E+01 -0.23273413517E+02  0.11860492499E+03  0.12118665758E+03  0.00000000000E+00 0. -1.
<mgrwt>
<rscale>  0 0.11091011E+03</rscale>
<asrwt>0</asrwt>
<pdfrwt beam="1">  1        1 0.68987430E-01 0.12541903E+03</pdfrwt>
<pdfrwt beam="2">  1       -1 0.36761789E-02 0.12541903E+03</pdfrwt>
<totfact> 0.13675328E+04</totfact>
</mgrwt>
</event>
<event>
 7    1  0.6419647E-006  0.1576286E+03  0.7546771E-02  0.1200344E+00
          1   -1    0    0  501    0  0.00000000000E+00  0.00000000000E+00  0.10034326700E+04  0.10034326700E+04  0.00000000000E+00 0. -1.
         -1   -1    0    0    0  501 -0.00000000000E+00 -0.00000000000E+00 -0.22363083619E+02  0.22363083619E+02  0.00000000000E+00 0.  1.
         23    2    1    2    0    0 -0.94134944431E+02 -0.18970061526E+02  0.67959411740E+03  0.69763524000E+03  0.12500205075E+03 0.  0.
          5    1    3    3  502    0  0.45928751169E+01  0.75629727810E+01  0.39623813809E+03  0.39636478796E+03  0.47000000000E+01 0.  1.
         -5    1    3    3    0  502 -0.98727819548E+02 -0.26533034307E+02  0.28335597931E+03  0.30127045204E+03  0.47000000000E+01 0.  1.
        -11    1    1    2    0    0  0.46694285784E+02 -0.23066221885E+02  0.21330450151E+03  0.21957052918E+03  0.00000000000E+00 0. -1.
         11    1    1    2    0    0  0.47440658648E+02  0.42036283411E+02  0.88170967452E+02  0.10858998442E+03  0.00000000000E+00 0.  1.
<mgrwt>
<rscale>  0 0.15010525E+03</rscale>
<asrwt>0</asrwt>
<pdfrwt beam="1">  1        1 0.15437422E+00 0.15762856E+03</pdfrwt>
<pdfrwt beam="2">  1       -1 0.34404752E-02 0.15762856E+03</pdfrwt>
<totfact> 0.48067184E+03</totfact>
</mgrwt>
</event>
<event>
 7    1  0.6419647E-006  0.1310351E+03  0.7546771E-02  0.1242130E+00
          1   -1    0    0  501    0  0.00000000000E+00  0.00000000000E+00  0.17127331080E+03  0.17127331080E+03  0.00000000000E+00 0. -1.
         -1   -1    0    0    0  501 -0.00000000000E+00 -0.00000000000E+00 -0.87574915553E+02  0.87574915553E+02  0.00000000000E+00 0.  1.
         23    2    1    2    0    0 -0.34113746697E+02  0.19576270219E+02  0.98203914574E+02  0.16375044982E+03  0.12499289143E+03 0.  0.
          5    1    3    3  502    0 -0.68222464440E+02 -0.16397553617E+02  0.88466742589E+02  0.11301167622E+03  0.47000000000E+01 0. -1.
         -5    1    3    3    0  502  0.34108717743E+02  0.35973823836E+02  0.97371719851E+01  0.50738773593E+02  0.47000000000E+01 0. -1.
        -11    1    1    2    0    0  0.74693926314E+01 -0.41322648142E+02  0.19883670762E+02  0.46461956897E+02  0.00000000000E+00 0. -1.
         11    1    1    2    0    0  0.26644354065E+02  0.21746377923E+02 -0.34389190092E+02  0.48635819634E+02  0.00000000000E+00 0.  1.
<mgrwt>
<rscale>  0 0.12058836E+03</rscale>
<asrwt>0</asrwt>
<pdfrwt beam="1">  1        1 0.26349740E-01 0.13103511E+03</pdfrwt>
<pdfrwt beam="2">  1       -1 0.13473064E-01 0.13103511E+03</pdfrwt>
<totfact> 0.64667596E+03</totfact>
</mgrwt>
</event>
<event>
 7    1  0.6419647E-006  0.1319536E+03  0.7546771E-02  0.1227744E+00
          1   -1    0    0  501    0  0.00000000000E+00  0.00000000000E+00  0.16246412193E+04  0.16246412193E+04  0.00000000000E+00 0. -1.
         -1   -1    0    0    0  501 -0.00000000000E+00 -0.00000000000E+00 -0.13846712731E+02  0.13846712731E+02  0.00000000000E+00 0.  1.
         23    2    1    2    0    0 -0.30010650765E+02 -0.53548210329E+02  0.12535398608E+04  0.12604657602E+04  0.11680624913E+03 0.  0.
          5    1    3    3  502    0 -0.72564872502E+02 -0.14802792725E+02  0.70926752353E+03  0.71313904207E+03  0.47000000000E+01 0. -1.
         -5    1    3    3    0  502  0.42554221737E+02 -0.38745417604E+02  0.54427233731E+03  0.54732671809E+03  0.47000000000E+01 0.  1.
        -11    1    1    2    0    0 -0.10310835417E+02  0.75771887606E+02  0.19828526514E+03  0.21251997235E+03  0.00000000000E+00 0.  1.
         11    1    1    2    0    0  0.40321486182E+02 -0.22223677277E+02  0.15896938061E+03  0.16550219954E+03  0.00000000000E+00 0. -1.
<mgrwt>
<rscale>  0 0.12980618E+03</rscale>
<asrwt>0</asrwt>
<pdfrwt beam="1">  1        1 0.24994465E+00 0.13195359E+03</pdfrwt>
<pdfrwt beam="2">  1       -1 0.21302648E-02 0.13195359E+03</pdfrwt>
<totfact> 0.36612590E+03</totfact>
</mgrwt>
</event>
<event>
 7    1  0.6419647E-006  0.1505542E+03  0.7546771E-02  0.1208687E+00
         -2   -1    0    0    0  501 -0.00000000000E+00  0.00000000000E+00  0.45222677778E+02  0.45222677778E+02  0.00000000000E+00 0. -1.
          2   -1    0    0  501    0  0.00000000000E+00 -0.00000000000E+00 -0.41887642557E+03  0.41887642557E+03  0.00000000000E+00 0.  1.
         23    2    1    2    0    0 -0.56829308207E+02 -0.61741819901E+02 -0.19174678478E+03  0.24378965267E+03  0.12499977071E+03 0.  0.
          5    1    3    3  502    0 -0.24160778411E+02  0.14550091321E+02 -0.14626872857E+03  0.14903717432E+03  0.47000000000E+01 0. -1.
         -5    1    3    3    0  502 -0.32668529796E+02 -0.76291911223E+02 -0.45478056214E+02  0.94752478353E+02  0.47000000000E+01 0. -1.
        -11    1    1    2    0    0  0.73914847398E+02  0.21917422448E+02 -0.14108336247E+03  0.16077404405E+03  0.00000000000E+00 0.  1.
         11    1    1    2    0    0 -0.17085539191E+02  0.39824397453E+02 -0.40823600532E+02  0.59535406628E+02  0.00000000000E+00 0. -1.
<mgrwt>
<rscale>  0 0.14350665E+03</rscale>
<asrwt>0</asrwt>
<pdfrwt beam="2">  1        2 0.64442529E-01 0.15055419E+03</pdfrwt>
<pdfrwt beam="1">  1       -2 0.69573348E-02 0.15055419E+03</pdfrwt>
<totfact> 0.85618558E+03</totfact>
</mgrwt>
</event>
<event>
 7    1  0.6419647E-006  0.1735263E+03  0.7546771E-02  0.1179386E+00
         -4   -1    0    0    0  501 -0.00000000000E+00  0.00000000000E+00  0.10157911302E+03  0.10157911302E+03  0.00000000000E+00 0. -1.
          4   -1    0    0  501    0  0.00000000000E+00 -0.00000000000E+00 -0.31764125010E+03  0.31764125010E+03  0.00000000000E+00 0.  1.
         23    2    1    2    0    0 -0.10882459210E+03 -0.51412475044E+02 -0.19876759972E+03  0.26385591859E+03  0.12500141055E+03 0.  0.
          5    1    3    3  502    0  0.13181285923E+02  0.20813064805E+02 -0.61670225540E+02  0.66575045500E+02  0.47000000000E+01 0. -1.
         -5    1    3    3    0  502 -0.12200587802E+03 -0.72225539849E+02 -0.13709737418E+03  0.19728087309E+03  0.47000000000E+01 0. -1.
        -11    1    1    2    0    0 -0.24847794127E+01  0.12610352697E+02 -0.33962513284E+02  0.36313185380E+02  0.00000000000E+00 0.  1.
         11    1    1    2    0    0  0.11130937151E+03  0.38802122347E+02  0.16667975930E+02  0.11905125916E+03  0.00000000000E+00 0. -1.
<mgrwt>
<rscale>  0 0.16853304E+03</rscale>
<asrwt>0</asrwt>
<pdfrwt beam="2">  1        4 0.48867884E-01 0.17352633E+03</pdfrwt>
<pdfrwt beam="1">  1       -4 0.15627556E-01 0.17352633E+03</pdfrwt>
<totfact> 0.24787207E+02</totfact>
</mgrwt>
</event>
<event>
 7    1  0.6419647E-006  0.1228321E+03  0.7546771E-02  0.1247672E+00
          1   -1    0    0  501    0  0.00000000000E+00  0.00000000000E+00  0.27650405468E+03  0.27650405468E+03  0.00000000000E+00 0. -1.
         -1   -1    0    0    0  501 -0.00000000000E+00 -0.00000000000E+00 -0.47254879519E+02  0.47254879519E+02  0.00000000000E+00 0.  1.
         23    2    1    2    0    0 -0.34551519514E+01 -0.45434597553E+02  0.15390609003E+03  0.19691320407E+03  0.11406789495E+03 0.  0.
          5    1    3    3  502    0  0.12229417904E+02  0.13517390151E+02  0.12979044319E+03  0.13114849463E+03  0.47000000000E+01 0. -1.
         -5    1    3    3    0  502 -0.15684569855E+02 -0.58951987704E+02  0.24115646836E+02  0.65764709443E+02  0.47000000000E+01 0.  1.
        -11    1    1    2    0    0 -0.22072274737E+02 -0.78760777120E+01  0.61957603392E+02  0.66241697821E+02  0.00000000000E+00 0.  1.
         11    1    1    2    0    0  0.25527426689E+02  0.53310675265E+02  0.13385481740E+02  0.60604032308E+02  0.00000000000E+00 0. -1.
<mgrwt>
<rscale>  0 0.11726874E+03</rscale>
<asrwt>0</asrwt>
<pdfrwt beam="1">  1        1 0.42539084E-01 0.12283210E+03</pdfrwt>
<pdfrwt beam="2">  1       -1 0.72699817E-02 0.12283210E+03</pdfrwt>
<totfact> 0.91050499E+03</totfact>
</mgrwt>
</event>
<event>
 7    1  0.6419647E-006  0.1303279E+03  0.7546771E-02  0.1234547E+00
          2   -1    0    0  501    0  0.00000000000E+00  0.00000000000E+00  0.78354551144E+03  0.78354551144E+03  0.00000000000E+00 0. -1.
         -2   -1    0    0    0  501 -0.00000000000E+00 -0.00000000000E+00 -0.23719129709E+02  0.23719129709E+02  0.00000000000E+00 0.  1.
         23    2    1    2    0    0  0.65948187375E+02 -0.17310987708E+01  0.58926544832E+03  0.60350569745E+03  0.11239750062E+03 0.  0.
          5    1    3    3  502    0 -0.22810617585E+02 -0.28499925126E+02  0.14055136202E+03  0.14529055501E+03  0.47000000000E+01 0. -1.
         -5    1    3    3    0  502  0.88758804960E+02  0.26768826355E+02  0.44871408629E+03  0.45821514244E+03  0.47000000000E+01 0.  1.
        -11    1    1    2    0    0 -0.16904422701E+02  0.42732128278E+02  0.88682571370E+02  0.99881894049E+02  0.00000000000E+00 0.  1.
         11    1    1    2    0    0 -0.49043764674E+02 -0.41001029508E+02  0.81878362042E+02  0.10387704965E+03  0.00000000000E+00 0. -1.
<mgrwt>
<rscale>  0 0.12533501E+03</rscale>
<asrwt>0</asrwt>
<pdfrwt beam="1">  1        2 0.12054544E+00 0.13032789E+03</pdfrwt>
<pdfrwt beam="2">  1       -2 0.36490975E-02 0.13032789E+03</pdfrwt>
<totfact> 0.10989526E+04</totfact>
</mgrwt>
</event>
<event>
 7    1  0.6419647E-006  0.1943647E+03  0.7546771E-02  0.1159133E+00
         -3   -1    0    0    0  501 -0.00000000000E+00  0.00000000000E+00  0.80211315723E+02  0.80211315723E+02  0.00000000000E+00 0.  1.
          3   -1    0    0  501    0  0.00000000000E+00 -0.00000000000E+00 -0.46705241423E+03  0.46705241423E+03  0.00000000000E+00 0. -1.
         23    2    1    2    0    0 -0.79239863066E+02 -0.12598857027E+03 -0.28518106705E+03  0.34511718893E+03  0.12500222941E+03 0.  0.
          5    1    3    3  502    0 -0.64765968462E+02 -0.63758025262E+01 -0.15227655738E+03  0.16566689910E+03  0.47000000000E+01 0. -1.
         -5    1    3    3    0  502 -0.14473894604E+02 -0.11961276774E+03 -0.13290450967E+03  0.17945028983E+03  0.47000000000E+01 0. -1.
        -11    1    1    2    0    0  0.40139084695E+02  0.36183617085E+02 -0.87974880988E+02  0.10324717890E+03  0.00000000000E+00 0. -1.
         11    1    1    2    0    0  0.39100778371E+02  0.89804953182E+02 -0.13685150471E+02  0.98899362124E+02  0.00000000000E+00 0.  1.
<mgrwt>
<rscale>  0 0.18925665E+03</rscale>
<asrwt>0</asrwt>
<pdfrwt beam="2">  1        3 0.71854216E-01 0.19436469E+03</pdfrwt>
<pdfrwt beam="1">  1       -3 0.12340203E-01 0.19436469E+03</pdfrwt>
<totfact> 0.23765736E+02</totfact>
</mgrwt>
</event>
<event>
 7    1  0.6419647E-006  0.1485689E+03  0.7546771E-02  0.1211616E+00
         -2   -1    0    0    0  501 -0.00000000000E+00  0.00000000000E+00  0.82626056352E+02  0.82626056352E+02  0.00000000000E+00 0.  1.
          2   -1    0    0  501    0  0.00000000000E+00 -0.00000000000E+00 -0.25255365086E+03  0.25255365086E+03  0.00000000000E+00 0. -1.
         23    2    1    2    0    0  0.65568804558E+02 -0.46366238161E+02 -0.15168784962E+03  0.21232504226E+03  0.12499449458E+03 0.  0.
          5    1    3    3  502    0  0.38036895401E+02 -0.29243862665E+02  0.83862633358E+01  0.48932896175E+02  0.47000000000E+01 0. -1.
         -5    1    3    3    0  502  0.27531909156E+02 -0.17122375496E+02 -0.16007411295E+03  0.16339214608E+03  0.47000000000E+01 0. -1.
        -11    1    1    2    0    0 -0.76531427936E+02  0.29234406115E+02  0.15576887149E+02  0.83392741747E+02  0.00000000000E+00 0.  1.
         11    1    1    2    0    0  0.10962623378E+02  0.17131832046E+02 -0.33816632047E+02  0.39461923212E+02  0.00000000000E+00 0. -1.
<mgrwt>
<rscale>  0 0.14128104E+03</rscale>
<asrwt>0</asrwt>
<pdfrwt beam="2">  1        2 0.38854407E-01 0.14856891E+03</pdfrwt>
<pdfrwt beam="1">  1       -2 0.12711701E-01 0.14856891E+03</pdfrwt>
<totfact> 0.57006665E+03</totfact>
</mgrwt>
</event>
<event>
 7    1  0.6419647E-006  0.1401450E+03  0.7546771E-02  0.1224291E+00
         -2   -1    0    0    0  501 -0.00000000000E+00  0.00000000000E+00  0.25965925184E+02  0.25965925184E+02  0.00000000000E+00 0.  1.
          2   -1    0    0  501    0  0.00000000000E+00 -0.00000000000E+00 -0.77748072326E+03  0.77748072326E+03  0.00000000000E+00 0. -1.
         23    2    1    2    0    0  0.78705977800E+01 -0.62879190633E+02 -0.59744241732E+03  0.61365955623E+03  0.12499948002E+03 0.  0.
          5    1    3    3  502    0 -0.26397970125E+02 -0.52159207680E+02 -0.55403485825E+03  0.55713028093E+03  0.47000000000E+01 0.  1.
         -5    1    3    3    0  502  0.34268567905E+02 -0.10719982953E+02 -0.43407559073E+02  0.56529275295E+02  0.47000000000E+01 0.  1.
        -11    1    1    2    0    0  0.21528466626E+02  0.32878021876E+02 -0.14011874724E+03  0.14552560780E+03  0.00000000000E+00 0. -1.
         11    1    1    2    0    0 -0.29399064406E+02  0.30001168757E+02 -0.13953633513E+02  0.44261484419E+02  0.00000000000E+00 0.  1.
<mgrwt>
<rscale>  0 0.13215592E+03</rscale>
<asrwt>0</asrwt>
<pdfrwt beam="2">  1        2 0.11961241E+00 0.14014496E+03</pdfrwt>
<pdfrwt beam="1">  1       -2 0.39947581E-02 0.14014496E+03</pdfrwt>
<totfact> 0.97452584E+03</totfact>
</mgrwt>
</event>
<event>
 7    1  0.6419647E-006  0.1316804E+03  0.7546771E-02  0.1238186E+00
          3   -1    0    0  501    0  0.00000000000E+00  0.00000000000E+00  0.36023217861E+02  0.36023217861E+02  0.00000000000E+00 0. -1.
         -3   -1    0    0    0  501 -0.00000000000E+00 -0.00000000000E+00 -0.44328296108E+03  0.44328296108E+03  0.00000000000E+00 0.  1.
         23    2    1    2    0    0 -0.41395451804E+02 -0.14447434505E+01 -0.13251593467E+03  0.18681596001E+03  0.12499623698E+03 0.  0.
          5    1    3    3  502    0 -0.30743841748E+02  0.58489666276E+02 -0.44906423633E+02  0.80030630074E+02  0.47000000000E+01 0.  1.
         -5    1    3    3    0  502 -0.10651610056E+02 -0.59934409727E+02 -0.87609511038E+02  0.10678532994E+03  0.47000000000E+01 0.  1.
        -11    1    1    2    0    0 -0.13471772232E+02 -0.32930647309E+02 -0.98878240866E+02  0.10508483571E+03  0.00000000000E+00 0. -1.
         11    1    1    2    0    0  0.54867224036E+02  0.34375390760E+02 -0.17586556768E+03  0.18740538321E+03  0.00000000000E+00 0.  1.
<mgrwt>
<rscale>  0 0.12302687E+03</rscale>
<asrwt>0</asrwt>
<pdfrwt beam="1">  1        3 0.55420336E-02 0.13168041E+03</pdfrwt>
<pdfrwt beam="2">  1       -3 0.68197377E-01 0.13168041E+03</pdfrwt>
<totfact> 0.93443762E+02</totfact>
</mgrwt>
</event>
<event>
 7    1  0.6419647E-006  0.1360994E+03  0.7546771E-02  0.1231429E+00
         -4   -1    0    0    0  501 -0.00000000000E+00  0.00000000000E+00  0.13015454745E+03  0.13015454745E+03  0.00000000000E+00 0.  1.
          4   -1    0    0  501    0  0.00000000000E+00 -0.00000000000E+00 -0.11794963142E+03  0.11794963142E+03  0.00000000000E+00 0. -1.
         23    2    1    2    0    0 -0.48991373363E+02 -0.22406152116E+02 -0.22867426541E+02  0.13800708993E+03  0.12498338833E+03 0.  0.
          5    1    3    3  502    0 -0.86688540820E+02 -0.15448761145E+02  0.80345167639E+01  0.88544964792E+02  0.47000000000E+01 0. -1.
         -5    1    3    3    0  502  0.37697167457E+02 -0.69573909716E+01 -0.30901943305E+02  0.49462125141E+02  0.47000000000E+01 0. -1.
        -11    1    1    2    0    0  0.21621651715E+02  0.17003029514E+02  0.64151331473E+02  0.69799657344E+02  0.00000000000E+00 0.  1.
         11    1    1    2    0    0  0.27369721648E+02  0.54031226027E+01 -0.29078988911E+02  0.40297431593E+02  0.00000000000E+00 0. -1.
<mgrwt>
<rscale>  0 0.12735824E+03</rscale>
<asrwt>0</asrwt>
<pdfrwt beam="2">  1        4 0.18146097E-01 0.13609937E+03</pdfrwt>
<pdfrwt beam="1">  1       -4 0.20023777E-01 0.13609937E+03</pdfrwt>
<totfact> 0.99970949E+02</totfact>
</mgrwt>
</event>
<event>
 7    1  0.6419647E-006  0.1434674E+03  0.7546771E-02  0.1216406E+00
          1   -1    0    0  501    0  0.00000000000E+00  0.00000000000E+00  0.84906415853E+02  0.84906415853E+02  0.00000000000E+00 0. -1.
         -1   -1    0    0    0  501 -0.00000000000E+00 -0.00000000000E+00 -0.23178725783E+03  0.23178725783E+03  0.00000000000E+00 0.  1.
         23    2    1    2    0    0  0.98406214340E+01 -0.69721370765E+02 -0.27491313000E+02  0.14607755818E+03  0.12499989337E+03 0.  0.
          5    1    3    3  502    0 -0.36807437229E+02  0.13886821305E+02 -0.30770264741E+02  0.50165031980E+02  0.47000000000E+01 0. -1.
         -5    1    3    3    0  502  0.46648058663E+02 -0.83608192070E+02  0.32789517410E+01  0.95912526204E+02  0.47000000000E+01 0. -1.
        -11    1    1    2    0    0 -0.43053244882E+02  0.37424199636E+02 -0.19124075734E+02  0.60165462567E+02  0.00000000000E+00 0. -1.
         11    1    1    2    0    0  0.33212623448E+02  0.32297171129E+02 -0.10026545325E+03  0.11045065294E+03  0.00000000000E+00 0.  1.
<mgrwt>
<rscale>  0 0.13773761E+03</rscale>
<asrwt>0</asrwt>
<pdfrwt beam="1">  1        1 0.13062525E-01 0.14346735E+03</pdfrwt>
<pdfrwt beam="2">  1       -1 0.35659578E-01 0.14346735E+03</pdfrwt>
<totfact> 0.32738833E+03</totfact>
</mgrwt>
</event>
<event>
 7    1  0.6419647E-006  0.1374466E+03  0.7546771E-02  0.1226965E+00
         -1   -1    0    0    0  501 -0.00000000000E+00  0.00000000000E+00  0.80618477980E+02  0.80618477980E+02  0.00000000000E+00 0.  1.
          1   -1    0    0  501    0  0.00000000000E+00 -0.00000000000E+00 -0.20101180353E+03  0.20101180353E+03  0.00000000000E+00 0. -1.
         23    2    1    2    0    0 -0.34076079523E+02  0.45891944372E+02 -0.96583999572E+02  0.16798818974E+03  0.12499725264E+03 0.  0.
          5    1    3    3  502    0 -0.64981555870E+02  0.70714080634E+02 -0.57027986738E+02  0.11179161451E+03  0.47000000000E+01 0.  1.
         -5    1    3    3    0  502  0.30905476347E+02 -0.24822136262E+02 -0.39556012834E+02  0.56196575236E+02  0.47000000000E+01 0.  1.
        -11    1    1    2    0    0  0.46197236307E+01 -0.71685705699E+02 -0.12754901705E+02  0.72958000010E+02  0.00000000000E+00 0. -1.
         11    1    1    2    0    0  0.29456355892E+02  0.25793761327E+02 -0.11054424271E+02  0.40684091753E+02  0.00000000000E+00 0.  1.
<mgrwt>
<rscale>  0 0.13033122E+03</rscale>
<asrwt>0</asrwt>
<pdfrwt beam="2">  1        1 0.30924892E-01 0.13744658E+03</pdfrwt>
<pdfrwt beam="1">  1       -1 0.12402843E-01 0.13744658E+03</pdfrwt>
<totfact> 0.60412164E+03</totfact>
</mgrwt>
</event>
<event>
 7    1  0.6419647E-006  0.1274797E+03  0.7546771E-02  0.1245672E+00
         -1   -1    0    0    0  501 -0.00000000000E+00  0.00000000000E+00  0.79987870545E+02  0.79987870545E+02  0.00000000000E+00 0.  1.
          1   -1    0    0  501    0  0.00000000000E+00 -0.00000000000E+00 -0.15524140750E+03  0.15524140750E+03  0.00000000000E+00 0. -1.
         23    2    1    2    0    0  0.10418851414E+02  0.22733413514E+02 -0.49701250132E+02  0.13682580060E+03  0.12500289953E+03 0.  0.
          5    1    3    3  502    0  0.66732550550E+02  0.10274776397E+02 -0.38561882292E+02  0.77896810581E+02  0.47000000000E+01 0.  1.
         -5    1    3    3    0  502 -0.56313699136E+02  0.12458637117E+02 -0.11139367841E+02  0.58928990022E+02  0.47000000000E+01 0.  1.
        -11    1    1    2    0    0  0.19206124505E+02  0.24737332034E+02 -0.28534442027E+02  0.42367737684E+02  0.00000000000E+00 0. -1.
         11    1    1    2    0    0 -0.29624975919E+02 -0.47470745548E+02  0.29821552009E+01  0.56035739762E+02  0.00000000000E+00 0.  1.
<mgrwt>
<rscale>  0 0.11845239E+03</rscale>
<asrwt>0</asrwt>
<pdfrwt beam="2">  1        1 0.23883293E-01 0.12747975E+03</pdfrwt>
<pdfrwt beam="1">  1       -1 0.12305827E-01 0.12747975E+03</pdfrwt>
<totfact> 0.83987444E+03</totfact>
</mgrwt>
</event>
<event>
 7    1  0.8959770E-006  0.1310929E+03  0.7546771E-02  0.1239653E+00
          1   -1    0    0  501    0  0.00000000000E+00  0.00000000000E+00  0.37675035734E+02  0.37675035734E+02  0.00000000000E+00 0. -1.
         -1   -1    0    0    0  501 -0.00000000000E+00 -0.00000000000E+00 -0.36970574620E+03  0.36970574620E+03  0.00000000000E+00 0.  1.
         23    2    1    2    0    0 -0.22524611520E+00  0.39504601286E+02 -0.14207033530E+03  0.19331149097E+03  0.12499875243E+03 0.  0.
          5    1    3    3  502    0 -0.33864121088E+02  0.88857371928E+00 -0.13748992566E+03  0.14167970185E+03  0.47000000000E+01 0. -1.
         -5    1    3    3    0  502  0.33638874973E+02  0.38616027566E+02 -0.45804096476E+01  0.51631789113E+02  0.47000000000E+01 0. -1.
        -11    1    1    2    0    0  0.25979077856E+02 -0.51774227635E+02 -0.16904998474E+03  0.17869913395E+03  0.00000000000E+00 0.  1.
         11    1    1    2    0    0 -0.25753831741E+02  0.12269626350E+02 -0.20910390430E+02  0.35370157026E+02  0.00000000000E+00 0. -1.
<mgrwt>
<rscale>  0 0.12211198E+03</rscale>
<asrwt>0</asrwt>
<pdfrwt beam="1">  1        1 0.57961593E-02 0.13109292E+03</pdfrwt>
<pdfrwt beam="2">  1       -1 0.56877807E-01 0.13109292E+03</pdfrwt>
<totfact> 0.41721323E+03</totfact>
</mgrwt>
</event>
<event>
 7    1  0.6419647E-006  0.1521856E+03  0.7546771E-02  0.1205868E+00
          2   -1    0    0  501    0  0.00000000000E+00  0.00000000000E+00  0.77703933845E+03  0.77703933845E+03  0.00000000000E+00 0. -1.
         -2   -1    0    0    0  501 -0.00000000000E+00 -0.00000000000E+00 -0.27486564519E+02  0.27486564519E+02  0.00000000000E+00 0.  1.
         23    2    1    2    0    0  0.23672522434E+02  0.83506836490E+02  0.51963879241E+03  0.54146555412E+03  0.12500676649E+03 0.  0.
          5    1    3    3  502    0  0.45603035314E+02  0.73526594650E+02  0.50603440624E+03  0.51339916951E+03  0.47000000000E+01 0. -1.
         -5    1    3    3    0  502 -0.21930512880E+02  0.99802418399E+01  0.13604386163E+02  0.28066384613E+02  0.47000000000E+01 0. -1.
        -11    1    1    2    0    0  0.19012046587E+02  0.10643720147E+02  0.63688831257E+02  0.67312806514E+02  0.00000000000E+00 0.  1.
         11    1    1    2    0    0 -0.42684569022E+02 -0.94150556637E+02  0.16622515027E+03  0.19574754234E+03  0.00000000000E+00 0. -1.
<mgrwt>
<rscale>  0 0.14569270E+03</rscale>
<asrwt>0</asrwt>
<pdfrwt beam="1">  1        2 0.11954450E+00 0.15218565E+03</pdfrwt>
<pdfrwt beam="2">  1       -2 0.42287028E-02 0.15218565E+03</pdfrwt>
<totfact> 0.90017368E+03</totfact>
</mgrwt>
</event>
<event>
 7    1  0.6419647E-006  0.1269111E+03  0.7546771E-02  0.1242186E+00
         -2   -1    0    0    0  501 -0.00000000000E+00  0.00000000000E+00  0.16050083910E+02  0.16050083910E+02  0.00000000000E+00 0. -1.
          2   -1    0    0  501    0  0.00000000000E+00 -0.00000000000E+00 -0.85071897852E+03  0.85071897852E+03  0.00000000000E+00 0.  1.
         23    2    1    2    0    0 -0.31130628282E+02  0.50788741706E+02 -0.53274445012E+03  0.54765232053E+03  0.11206160246E+03 0.  0.
          5    1    3    3  502    0 -0.23699362882E+02  0.23027692112E+02 -0.32583912736E+02  0.46644782926E+02  0.47000000000E+01 0. -1.
         -5    1    3    3    0  502 -0.74312654005E+01  0.27761049594E+02 -0.50016053739E+03  0.50100753761E+03  0.47000000000E+01 0.  1.
        -11    1    1    2    0    0  0.14954911773E+02 -0.64772228225E+02 -0.28254309943E+03  0.29025797831E+03  0.00000000000E+00 0.  1.
         11    1    1    2    0    0  0.16175716509E+02  0.13983486519E+02 -0.19381345062E+02  0.28858763595E+02  0.00000000000E+00 0. -1.
<mgrwt>
<rscale>  0 0.12055393E+03</rscale>
<asrwt>0</asrwt>
<pdfrwt beam="2">  1        2 0.13087983E+00 0.12691105E+03</pdfrwt>
<pdfrwt beam="1">  1       -2 0.24692438E-02 0.12691105E+03</pdfrwt>
<totfact> 0.17557812E+04</totfact>
</mgrwt>
</event>
<event>
 7    1  0.6419647E-006  0.2948319E+03  0.7546771E-02  0.1089411E+00
         -2   -1    0    0    0  501 -0.00000000000E+00  0.00000000000E+00  0.20522559764E+03  0.20522559764E+03  0.00000000000E+00 0.  1.
          2   -1    0    0  501    0  0.00000000000E+00 -0.00000000000E+00 -0.46891483304E+03  0.46891483304E+03  0.00000000000E+00 0. -1.
         23    2    1    2    0    0 -0.25393357728E+03 -0.82573119767E+02 -0.25705831928E+03  0.39115830379E+03  0.12500102934E+03 0.  0.
          5    1    3    3  502    0 -0.93704779348E+02 -0.58843131300E+02 -0.18090186882E+03  0.21211005614E+03  0.47000000000E+01 0.  1.
         -5    1    3    3    0  502 -0.16022879793E+03 -0.23729988466E+02 -0.76156450456E+02  0.17904824765E+03  0.47000000000E+01 0.  1.
        -11    1    1    2    0    0  0.65521371853E+02  0.51733702767E+02 -0.33941758227E+02  0.90119193977E+02  0.00000000000E+00 0. -1.
         11    1    1    2    0    0  0.18841220543E+03  0.30839417000E+02  0.27310842104E+02  0.19286293291E+03  0.00000000000E+00 0.  1.
<mgrwt>
<rscale>  0 0.29180368E+03</rscale>
<asrwt>0</asrwt>
<pdfrwt beam="2">  1        2 0.72140743E-01 0.29483188E+03</pdfrwt>
<pdfrwt beam="1">  1       -2 0.31573169E-01 0.29483188E+03</pdfrwt>
<totfact> 0.62525801E+02</totfact>
</mgrwt>
</event>
<event>
 7    1  0.6419647E-006  0.1343120E+03  0.7546771E-02  0.1233777E+00
         -3   -1    0    0    0  501 -0.00000000000E+00  0.00000000000E+00  0.37659272072E+03  0.37659272072E+03  0.00000000000E+00 0.  1.
          3   -1    0    0  501    0  0.00000000000E+00 -0.00000000000E+00 -0.48132621072E+02  0.48132621072E+02  0.00000000000E+00 0. -1.
         23    2    1    2    0    0  0.24867351800E+02  0.42428026850E+02  0.81842813672E+02  0.15728305136E+03  0.12498475686E+03 0.  0.
          5    1    3    3  502    0 -0.32266241634E+02  0.40196413065E+02 -0.62725327608E+01  0.52137286463E+02  0.47000000000E+01 0. -1.
         -5    1    3    3    0  502  0.57133593433E+02  0.22316137854E+01  0.88115346433E+02  0.10514576490E+03  0.47000000000E+01 0. -1.
        -11    1    1    2    0    0 -0.81681890828E+01 -0.70099106831E+02  0.18170932052E+03  0.19493301736E+03  0.00000000000E+00 0.  1.
         11    1    1    2    0    0 -0.16699162717E+02  0.27671079981E+02  0.64907965458E+02  0.72509273080E+02  0.00000000000E+00 0. -1.
<mgrwt>
<rscale>  0 0.12583050E+03</rscale>
<asrwt>0</asrwt>
<pdfrwt beam="2">  1        3 0.74050189E-02 0.13431200E+03</pdfrwt>
<pdfrwt beam="1">  1       -3 0.57937340E-01 0.13431200E+03</pdfrwt>
<totfact> 0.82615728E+02</totfact>
</mgrwt>
</event>
<event>
 7    1  0.6419647E-006  0.1968082E+03  0.7546771E-02  0.1156637E+00
          2   -1    0    0  501    0  0.00000000000E+00  0.00000000000E+00  0.66880308477E+03  0.66880308477E+03  0.00000000000E+00 0. -1.
         -2   -1    0    0    0  501 -0.00000000000E+00 -0.00000000000E+00 -0.52719858334E+02  0.52719858334E+02  0.00000000000E+00 0.  1.
         23    2    1    2    0    0 -0.15142272609E+03  0.13334515457E+02  0.33831907899E+03  0.39139910005E+03  0.12500721992E+03 0.  0.
          5    1    3    3  502    0 -0.14427761710E+03  0.52459328228E+02  0.23661029907E+03  0.28208958779E+03  0.47000000000E+01 0.  1.
         -5    1    3    3    0  502 -0.71451089871E+01 -0.39124812771E+02  0.10170877992E+03  0.10930951225E+03  0.47000000000E+01 0.  1.
        -11    1    1    2    0    0  0.18348790572E+02  0.12644284706E+02  0.14430519530E+01  0.22330213839E+02  0.00000000000E+00 0.  1.
         11    1    1    2    0    0  0.13307393552E+03 -0.25978800163E+02  0.27632109549E+03  0.30779362922E+03  0.00000000000E+00 0. -1.
<mgrwt>
<rscale>  0 0.19203701E+03</rscale>
<asrwt>0</asrwt>
<pdfrwt beam="1">  1        2 0.10289278E+00 0.19680817E+03</pdfrwt>
<pdfrwt beam="2">  1       -2 0.81107479E-02 0.19680817E+03</pdfrwt>
<totfact> 0.40463173E+03</totfact>
</mgrwt>
</event>
<event>
 6    1  0.6419647E-006  0.1568697E+03  0.7546771E-02  0.1203137E+00
         -1   -1    0    0    0  501 -0.00000000000E+00  0.00000000000E+00  0.59470292080E+02  0.59470292080E+02  0.00000000000E+00 0.  1.
          1   -1    0    0  501    0  0.00000000000E+00 -0.00000000000E+00 -0.33180821866E+03  0.33180821866E+03  0.00000000000E+00 0. -1.
          5    1    1    2  502    0  0.20168051378E+02 -0.13412678057E+02 -0.10760837513E+03  0.11040064595E+03  0.47000000000E+01 0. -1.
         -5    1    1    2    0  502 -0.33030474262E+02  0.95475864422E+02 -0.53307742525E+02  0.11432610520E+03  0.47000000000E+01 0.  1.
        -11    1    1    2    0    0  0.41488970892E+02 -0.83144339227E+02 -0.70683713978E+02  0.11674974635E+03  0.00000000000E+00 0. -1.
         11    1    1    2    0    0 -0.28626548007E+02  0.10811528621E+01 -0.40738094949E+02  0.49802013237E+02  0.00000000000E+00 0.  1.
<mgrwt>
<rscale>  0 0.14785236E+03</rscale>
<asrwt>0</asrwt>
<pdfrwt beam="2">  1        1 0.51047420E-01 0.15686974E+03</pdfrwt>
<pdfrwt beam="1">  1       -1 0.91492755E-02 0.15686974E+03</pdfrwt>
<totfact> 0.52143978E+03</totfact>
</mgrwt>
</event>
<event>
 7    1  0.6419647E-006  0.1367613E+03  0.7546771E-02  0.1229589E+00
         -3   -1    0    0    0  501 -0.00000000000E+00  0.00000000000E+00  0.35240036685E+02  0.35240036685E+02  0.00000000000E+00 0.  1.
          3   -1    0    0  501    0  0.00000000000E+00 -0.00000000000E+00 -0.51842582464E+03  0.51842582464E+03  0.00000000000E+00 0. -1.
         23    2    1    2    0    0 -0.38374050846E+02 -0.40112363379E+02 -0.38499087604E+03  0.40856043860E+03  0.12498835098E+03 0.  0.
          5    1    3    3  502    0 -0.13336853631E+02 -0.71000889101E+02 -0.34293676476E+03  0.35049495366E+03  0.47000000000E+01 0. -1.
         -5    1    3    3    0  502 -0.25037197214E+02  0.30888525723E+02 -0.42054111285E+02  0.58065484943E+02  0.47000000000E+01 0. -1.
        -11    1    1    2    0    0  0.42997023734E+02  0.59664504822E+02 -0.10087379240E+03  0.12483636962E+03  0.00000000000E+00 0. -1.
         11    1    1    2    0    0 -0.46229728888E+01 -0.19552141443E+02  0.26788804861E+01  0.20269053110E+02  0.00000000000E+00 0.  1.
<mgrwt>
<rscale>  0 0.12857279E+03</rscale>
<asrwt>0</asrwt>
<pdfrwt beam="2">  1        3 0.79757814E-01 0.13676132E+03</pdfrwt>
<pdfrwt beam="1">  1       -3 0.54215445E-02 0.13676132E+03</pdfrwt>
<totfact> 0.69736312E+02</totfact>
</mgrwt>
</event>
<event>
 7    1  0.6419647E-006  0.1257799E+03  0.7546771E-02  0.1243280E+00
          2   -1    0    0  501    0  0.00000000000E+00  0.00000000000E+00  0.60800674557E+03  0.60800674557E+03  0.00000000000E+00 0.  1.
         -2   -1    0    0    0  501 -0.00000000000E+00 -0.00000000000E+00 -0.22195870720E+02  0.22195870720E+02  0.00000000000E+00 0. -1.
         23    2    1    2    0    0  0.10339189513E+02 -0.94265426067E+01  0.36826985141E+03  0.38915713338E+03  0.12499932984E+03 0.  0.
          5    1    3    3  502    0  0.48607087088E+02  0.24291702658E+02  0.82940907621E+02  0.99267416055E+02  0.47000000000E+01 0.  1.
         -5    1    3    3    0  502 -0.38267897576E+02 -0.33718245265E+02  0.28532894379E+03  0.28988971732E+03  0.47000000000E+01 0.  1.
        -11    1    1    2    0    0 -0.20407837384E+02 -0.40008094253E+02  0.15102520746E+03  0.15756186316E+03  0.00000000000E+00 0.  1.
         11    1    1    2    0    0  0.10068647872E+02  0.49434636860E+02  0.66515815982E+02  0.83483619753E+02  0.00000000000E+00 0. -1.
<mgrwt>
<rscale>  0 0.11988917E+03</rscale>
<asrwt>0</asrwt>
<pdfrwt beam="1">  1        2 0.93539487E-01 0.12577993E+03</pdfrwt>
<pdfrwt beam="2">  1       -2 0.34147498E-02 0.12577993E+03</pdfrwt>
<totfact> 0.16311900E+04</totfact>
</mgrwt>
</event>
<event>
 7    1  0.6419647E-006  0.1340701E+03  0.7546771E-02  0.1235430E+00
         -1   -1    0    0    0  501 -0.00000000000E+00  0.00000000000E+00  0.11185529231E+03  0.11185529231E+03  0.00000000000E+00 0.  1.
          1   -1    0    0  501    0  0.00000000000E+00 -0.00000000000E+00 -0.12715413769E+03  0.12715413769E+03  0.00000000000E+00 0. -1.
         23    2    1    2    0    0 -0.48207715392E+02  0.50400175970E+01 -0.29978177085E+02  0.13738081107E+03  0.12500164218E+03 0.  0.
          5    1    3    3  502    0  0.32342438099E+01 -0.40310561805E+02 -0.51225022386E+02  0.65433131092E+02  0.47000000000E+01 0.  1.
         -5    1    3    3    0  502 -0.51441959201E+02  0.45350579402E+02  0.21246845302E+02  0.71947679975E+02  0.47000000000E+01 0.  1.
        -11    1    1    2    0    0  0.13891761172E+02 -0.44914594021E+02  0.94073625087E-02  0.47013847673E+02  0.00000000000E+00 0.  1.
         11    1    1    2    0    0  0.34315954220E+02  0.39874576424E+02  0.14669924340E+02  0.54614771254E+02  0.00000000000E+00 0. -1.
<mgrwt>
<rscale>  0 0.12476950E+03</rscale>
<asrwt>0</asrwt>
<pdfrwt beam="2">  1        1 0.19562175E-01 0.13407012E+03</pdfrwt>
<pdfrwt beam="1">  1       -1 0.17208507E-01 0.13407012E+03</pdfrwt>
<totfact> 0.64245346E+03</totfact>
</mgrwt>
</event>
<event>
 7    1  0.6419647E-006  0.1391872E+03  0.7546771E-02  0.1225549E+00
          1   -1    0    0  501    0  0.00000000000E+00  0.00000000000E+00  0.32968877877E+03  0.32968877877E+03  0.00000000000E+00 0. -1.
         -1   -1    0    0    0  501 -0.00000000000E+00 -0.00000000000E+00 -0.75588173395E+02  0.75588173395E+02  0.00000000000E+00 0.  1.
         23    2    1    2    0    0  0.44607850127E+02 -0.41975533184E+02  0.26001018791E+03  0.29492093992E+03  0.12498502832E+03 0.  0.
          5    1    3    3  502    0 -0.19860106850E+02 -0.66443274867E+02  0.14364514063E+03  0.15957803435E+03  0.47000000000E+01 0.  1.
         -5    1    3    3    0  502  0.64467956977E+02  0.24467741682E+02  0.11636504728E+03  0.13534290557E+03  0.47000000000E+01 0.  1.
        -11    1    1    2    0    0 -0.42482568727E+02 -0.18818448448E+02  0.98936607345E+01  0.47505654088E+02  0.00000000000E+00 0.  1.
         11    1    1    2    0    0 -0.21252814002E+01  0.60793981633E+02 -0.15803243264E+02  0.62850358165E+02  0.00000000000E+00 0. -1.
<mgrwt>
<rscale>  0 0.13129327E+03</rscale>
<asrwt>0</asrwt>
<pdfrwt beam="1">  1        1 0.50721350E-01 0.13918715E+03</pdfrwt>
<pdfrwt beam="2">  1       -1 0.11628950E-01 0.13918715E+03</pdfrwt>
<totfact> 0.36175028E+03</totfact>
</mgrwt>
</event>
<event>
 7    1  0.6419647E-006  0.1636208E+03  0.7546771E-02  0.1191878E+00
          2   -1    0    0  501    0  0.00000000000E+00  0.00000000000E+00  0.11394679497E+03  0.11394679497E+03  0.00000000000E+00 0. -1.
         -2   -1    0    0    0  501 -0.00000000000E+00 -0.00000000000E+00 -0.26034487589E+03  0.26034487589E+03  0.00000000000E+00 0.  1.
         23    2    1    2    0    0 -0.57071474826E+02 -0.88823425649E+02  0.11010224715E+02  0.16399086152E+03  0.12500009372E+03 0.  0.
          5    1    3    3  502    0 -0.90290383613E+02 -0.58608980556E+02  0.34448293073E+02  0.11312002860E+03  0.47000000000E+01 0. -1.
         -5    1    3    3    0  502  0.33218908787E+02 -0.30214445093E+02 -0.23438068358E+02  0.50870832917E+02  0.47000000000E+01 0. -1.
        -11    1    1    2    0    0  0.44011797933E+02 -0.52756266448E+01 -0.54394993643E+02  0.70168981232E+02  0.00000000000E+00 0.  1.
         11    1    1    2    0    0  0.13059676893E+02  0.94099052294E+02 -0.10301331199E+03  0.14013182811E+03  0.00000000000E+00 0. -1.
<mgrwt>
<rscale>  0 0.15721402E+03</rscale>
<asrwt>0</asrwt>
<pdfrwt beam="1">  1        2 0.17530276E-01 0.16362083E+03</pdfrwt>
<pdfrwt beam="2">  1       -2 0.40053058E-01 0.16362083E+03</pdfrwt>
<totfact> 0.18844395E+03</totfact>
</mgrwt>
</event>
<event>
 7    1  0.6419647E-006  0.3237610E+03  0.7546771E-02  0.1075252E+00
         -2   -1    0    0    0  501 -0.00000000000E+00  0.00000000000E+00  0.10354304291E+03  0.10354304291E+03  0.00000000000E+00 0. -1.
          2   -1    0    0  501    0  0.00000000000E+00 -0.00000000000E+00 -0.10230222029E+04  0.10230222029E+04  0.00000000000E+00 0.  1.
         23    2    1    2    0    0 -0.25777744433E+03 -0.15082002156E+03 -0.34807852685E+03  0.47537340931E+03  0.12500131084E+03 0.  0.
          5    1    3    3  502    0 -0.16202580141E+02 -0.27072458984E+02 -0.10922167545E+03  0.11378447182E+03  0.47000000000E+01 0.  1.
         -5    1    3    3    0  502 -0.24157486419E+03 -0.12374756258E+03 -0.23885685140E+03  0.36158893749E+03  0.47000000000E+01 0.  1.
        -11    1    1    2    0    0  0.88242608329E+02  0.87499939106E+01 -0.20241596437E+03  0.22098765339E+03  0.00000000000E+00 0.  1.
         11    1    1    2    0    0  0.16953483600E+03  0.14207002765E+03 -0.36898466873E+03  0.43020418307E+03  0.00000000000E+00 0. -1.
<mgrwt>
<rscale>  0 0.32086551E+03</rscale>
<asrwt>0</asrwt>
<pdfrwt beam="2">  1        2 0.15738803E+00 0.32376105E+03</pdfrwt>
<pdfrwt beam="1">  1       -2 0.15929699E-01 0.32376105E+03</pdfrwt>
<totfact> 0.78681845E+02</totfact>
</mgrwt>
</event>
<event>
 7    1  0.6419647E-006  0.1286125E+03  0.7546771E-02  0.1243729E+00
         -1   -1    0    0    0  501 -0.00000000000E+00  0.00000000000E+00  0.71085113559E+02  0.71085113559E+02  0.00000000000E+00 0.  1.
          1   -1    0    0  501    0  0.00000000000E+00 -0.00000000000E+00 -0.17887762855E+03  0.17887762855E+03  0.00000000000E+00 0. -1.
         23    2    1    2    0    0  0.30218036831E+02 -0.23957154730E+01 -0.71196494330E+02  0.14700381119E+03  0.12498924152E+03 0.  0.
          5    1    3    3  502    0 -0.12705817144E+01 -0.37541120837E+02 -0.88711514077E+02  0.96450883155E+02  0.47000000000E+01 0. -1.
         -5    1    3    3    0  502  0.31488618545E+02  0.35145405365E+02  0.17515019746E+02  0.50552928034E+02  0.47000000000E+01 0. -1.
        -11    1    1    2    0    0 -0.62207801706E+02 -0.57327591695E+01 -0.17718344068E+02  0.64935466713E+02  0.00000000000E+00 0.  1.
         11    1    1    2    0    0  0.31989764875E+02  0.81284746424E+01 -0.18877676596E+02  0.38023464208E+02  0.00000000000E+00 0. -1.
<mgrwt>
<rscale>  0 0.11961792E+03</rscale>
<asrwt>0</asrwt>
<pdfrwt beam="2">  1        1 0.27519635E-01 0.12861252E+03</pdfrwt>
<pdfrwt beam="1">  1       -1 0.10936172E-01 0.12861252E+03</pdfrwt>
<totfact> 0.84386541E+03</totfact>
</mgrwt>
</event>
<event>
 7    1  0.6419647E-006  0.1474966E+03  0.7546771E-02  0.1207523E+00
         -2   -1    0    0    0  501 -0.00000000000E+00  0.00000000000E+00  0.50101045817E+03  0.50101045817E+03  0.00000000000E+00 0.  1.
          2   -1    0    0  501    0  0.00000000000E+00 -0.00000000000E+00 -0.44316770272E+02  0.44316770272E+02  0.00000000000E+00 0. -1.
         23    2    1    2    0    0  0.78195094073E+02 -0.57797202266E+02  0.15170325934E+03  0.21158715371E+03  0.11090651646E+03 0.  0.
          5    1    3    3  502    0  0.62562352441E+02 -0.90954053739E+02  0.11594304855E+03  0.16016106999E+03  0.47000000000E+01 0. -1.
         -5    1    3    3    0  502  0.15632741632E+02  0.33156851473E+02  0.35760210794E+02  0.51426083718E+02  0.47000000000E+01 0.  1.
        -11    1    1    2    0    0 -0.10033675037E+03  0.48704349014E+02  0.24785926512E+03  0.27179733698E+03  0.00000000000E+00 0.  1.
         11    1    1    2    0    0  0.22141656294E+02  0.90928532513E+01  0.57131163438E+02  0.61942737746E+02  0.00000000000E+00 0. -1.
<mgrwt>
<rscale>  0 0.14440434E+03</rscale>
<asrwt>0</asrwt>
<pdfrwt beam="2">  1        2 0.68179650E-02 0.14749659E+03</pdfrwt>
<pdfrwt beam="1">  1       -2 0.77078528E-01 0.14749659E+03</pdfrwt>
<totfact> 0.15695942E+03</totfact>
</mgrwt>
</event>
<event>
 7    1  0.6419647E-006  0.1281810E+03  0.7546771E-02  0.1246072E+00
         -2   -1    0    0    0  501 -0.00000000000E+00  0.00000000000E+00  0.11687010908E+03  0.11687010908E+03  0.00000000000E+00 0. -1.
          2   -1    0    0  501    0  0.00000000000E+00 -0.00000000000E+00 -0.10786735501E+03  0.10786735501E+03  0.00000000000E+00 0.  1.
         23    2    1    2    0    0 -0.11354381593E+02  0.26214115850E+02 -0.14720380592E+02  0.12902345833E+03  0.12495703799E+03 0.  0.
          5    1    3    3  502    0 -0.14494488507E+02  0.17625681924E+02  0.54380685253E+02  0.59161675002E+02  0.47000000000E+01 0.  1.
         -5    1    3    3    0  502  0.31401069136E+01  0.85884339252E+01 -0.69101065845E+02  0.69861783327E+02  0.47000000000E+01 0.  1.
        -11    1    1    2    0    0 -0.28797568794E+02  0.14331550850E+02  0.21340160505E+02  0.38601758620E+02  0.00000000000E+00 0. -1.
         11    1    1    2    0    0  0.40151950387E+02 -0.40545666700E+02  0.23829741553E+01  0.57112247144E+02  0.00000000000E+00 0.  1.
<mgrwt>
<rscale>  0 0.11821424E+03</rscale>
<asrwt>0</asrwt>
<pdfrwt beam="2">  1        2 0.16594978E-01 0.12818098E+03</pdfrwt>
<pdfrwt beam="1">  1       -2 0.17980017E-01 0.12818098E+03</pdfrwt>
<totfact> 0.81885974E+03</totfact>
</mgrwt>
</event>
<event>
 7    1  0.6419647E-006  0.1285467E+03  0.7546771E-02  0.1243628E+00
         -1   -1    0    0    0  501 -0.00000000000E+00  0.00000000000E+00  0.85085102435E+02  0.85085102435E+02  0.00000000000E+00 0.  1.
          1   -1    0    0  501    0  0.00000000000E+00 -0.00000000000E+00 -0.16890613946E+03  0.16890613946E+03  0.00000000000E+00 0. -1.
         23    2    1    2    0    0 -0.29900504085E+02  0.22428796991E+01 -0.90458079777E+02  0.15718432155E+03  0.12500070436E+03 0.  0.
          5    1    3    3  502    0 -0.66644847390E+02  0.36473655241E+02 -0.67624808282E+02  0.10181879937E+03  0.47000000000E+01 0. -1.
         -5    1    3    3    0  502  0.36744343304E+02 -0.34230775542E+02 -0.22833271495E+02  0.55365522180E+02  0.47000000000E+01 0. -1.
        -11    1    1    2    0    0  0.46975606296E+02  0.16990239318E+02  0.33084283924E+02  0.59916155265E+02  0.00000000000E+00 0.  1.
         11    1    1    2    0    0 -0.17075102210E+02 -0.19233119017E+02 -0.26447241176E+02  0.36890765084E+02  0.00000000000E+00 0. -1.
<mgrwt>
<rscale>  0 0.11967859E+03</rscale>
<asrwt>0</asrwt>
<pdfrwt beam="2">  1        1 0.25985560E-01 0.12854667E+03</pdfrwt>
<pdfrwt beam="1">  1       -1 0.13090016E-01 0.12854667E+03</pdfrwt>
<totfact> 0.68720875E+03</totfact>
</mgrwt>
</event>
<event>
 7    1  0.6419647E-006  0.2073456E+03  0.7546771E-02  0.1147319E+00
         -2   -1    0    0    0  501 -0.00000000000E+00  0.00000000000E+00  0.80484887492E+02  0.80484887492E+02  0.00000000000E+00 0.  1.
          2   -1    0    0  501    0  0.00000000000E+00 -0.00000000000E+00 -0.49435514298E+03  0.49435514298E+03  0.00000000000E+00 0. -1.
         23    2    1    2    0    0  0.16519967143E+03  0.87955168108E+01 -0.24060936764E+03  0.31762407288E+03  0.12499556519E+03 0.  0.
          5    1    3    3  502    0 -0.78675010218E+01  0.15842040607E+01  0.95378079377E+01  0.13321676137E+02  0.47000000000E+01 0. -1.
         -5    1    3    3    0  502  0.17306717245E+03  0.72113127501E+01 -0.25014717558E+03  0.30430239674E+03  0.47000000000E+01 0. -1.
        -11    1    1    2    0    0 -0.14004089232E+03 -0.24966869205E+02 -0.17699855460E+03  0.22707550376E+03  0.00000000000E+00 0. -1.
         11    1    1    2    0    0 -0.25158779110E+02  0.16171352394E+02  0.37376667528E+01  0.30140453834E+02  0.00000000000E+00 0.  1.
<mgrwt>
<rscale>  0 0.20289468E+03</rscale>
<asrwt>0</asrwt>
<pdfrwt beam="2">  1        2 0.76054638E-01 0.20734557E+03</pdfrwt>
<pdfrwt beam="1">  1       -2 0.12382290E-01 0.20734557E+03</pdfrwt>
<totfact> 0.29287160E+03</totfact>
</mgrwt>
</event>
<event>
 7    1  0.6419647E-006  0.2062651E+03  0.7546771E-02  0.1148497E+00
         -1   -1    0    0    0  501 -0.00000000000E+00  0.00000000000E+00  0.37051280230E+02  0.37051280230E+02  0.00000000000E+00 0.  1.
          1   -1    0    0  501    0  0.00000000000E+00 -0.00000000000E+00 -0.11463768898E+04  0.11463768898E+04  0.00000000000E+00 0. -1.
         23    2    1    2    0    0 -0.12366418473E+02  0.16360216827E+03 -0.75189835341E+03  0.77967713252E+03  0.12500679719E+03 0.  0.
          5    1    3    3  502    0 -0.34996674254E+02 -0.57841682842E+00 -0.77015045310E+02  0.84726082046E+02  0.47000000000E+01 0.  1.
         -5    1    3    3    0  502  0.22630255780E+02  0.16418058510E+03 -0.67488330810E+03  0.69495105047E+03  0.47000000000E+01 0.  1.
        -11    1    1    2    0    0  0.18448905804E+02 -0.66151646031E+02 -0.24689688026E+03  0.25627031018E+03  0.00000000000E+00 0. -1.
         11    1    1    2    0    0 -0.60824873311E+01 -0.97450522238E+02 -0.11053037589E+03  0.14748072732E+03  0.00000000000E+00 0.  1.
<mgrwt>
<rscale>  0 0.20147939E+03</rscale>
<asrwt>0</asrwt>
<pdfrwt beam="2">  1        1 0.17636566E+00 0.20626511E+03</pdfrwt>
<pdfrwt beam="1">  1       -1 0.57001974E-02 0.20626511E+03</pdfrwt>
<totfact> 0.18029223E+03</totfact>
</mgrwt>
</event>
<event>
 7    1  0.6419647E-006  0.1437466E+03  0.7546771E-02  0.1219172E+00
          2   -1    0    0  501    0  0.00000000000E+00  0.00000000000E+00  0.62851227166E+03  0.62851227166E+03  0.00000000000E+00 0. -1.
         -2   -1    0    0    0  501 -0.00000000000E+00 -0.00000000000E+00 -0.37509502713E+02  0.37509502713E+02  0.00000000000E+00 0.  1.
         23    2    1    2    0    0 -0.30389270050E+02 -0.64166175770E+02  0.49897149917E+03  0.51926450660E+03  0.12498905946E+03 0.  0.
          5    1    3    3  502    0  0.18191932245E+02 -0.23131764325E+02  0.19596327124E+02  0.35666944870E+02  0.47000000000E+01 0. -1.
         -5    1    3    3    0  502 -0.48581202295E+02 -0.41034411445E+02  0.47937517204E+03  0.48359756173E+03  0.47000000000E+01 0. -1.
        -11    1    1    2    0    0  0.47643746711E+02  0.13241788350E-01  0.33794586107E+02  0.58412334538E+02  0.00000000000E+00 0.  1.
         11    1    1    2    0    0 -0.17254476661E+02  0.64152933982E+02  0.58236683674E+02  0.88344933237E+02  0.00000000000E+00 0. -1.
<mgrwt>
<rscale>  0 0.13574504E+03</rscale>
<asrwt>0</asrwt>
<pdfrwt beam="1">  1        2 0.96694188E-01 0.14374655E+03</pdfrwt>
<pdfrwt beam="2">  1       -2 0.57706932E-02 0.14374655E+03</pdfrwt>
<totfact> 0.72392112E+03</totfact>
</mgrwt>
</event>
<event>
 7    1  0.6419647E-006  0.1524903E+03  0.7546771E-02  0.1206701E+00
          1   -1    0    0  501    0  0.00000000000E+00  0.00000000000E+00  0.16548288350E+03  0.16548288350E+03  0.00000000000E+00 0. -1.
         -1   -1    0    0    0  501 -0.00000000000E+00 -0.00000000000E+00 -0.11730239438E+03  0.11730239438E+03  0.00000000000E+00 0.  1.
         23    2    1    2    0    0 -0.86571971162E+02  0.11513189337E+02  0.40309927591E+02  0.15772817975E+03  0.12500411475E+03 0.  0.
          5    1    3    3  502    0 -0.10285417987E+03 -0.29300906735E+02  0.19220886759E+02  0.10876147268E+03  0.47000000000E+01 0. -1.
         -5    1    3    3    0  502  0.16282208703E+02  0.40814096072E+02  0.21089040832E+02  0.48966707074E+02  0.47000000000E+01 0. -1.
        -11    1    1    2    0    0 -0.43908605933E+01 -0.26589279077E+02  0.17835015637E+02  0.32316515923E+02  0.00000000000E+00 0. -1.
         11    1    1    2    0    0  0.90962831756E+02  0.15076089740E+02 -0.99644541045E+01  0.92740582209E+02  0.00000000000E+00 0.  1.
<mgrwt>
<rscale>  0 0.14504183E+03</rscale>
<asrwt>0</asrwt>
<pdfrwt beam="1">  1        1 0.25458905E-01 0.15249029E+03</pdfrwt>
<pdfrwt beam="2">  1       -1 0.18046522E-01 0.15249029E+03</pdfrwt>
<totfact> 0.43025563E+03</totfact>
</mgrwt>
</event>
<event>
 6    1  0.6419647E-006  0.2328405E+03  0.7546771E-02  0.1160005E+00
         -4   -1    0    0    0  501 -0.00000000000E+00  0.00000000000E+00  0.20157598016E+03  0.20157598016E+03  0.00000000000E+00 0.  1.
          4   -1    0    0  501    0  0.00000000000E+00 -0.00000000000E+00 -0.13828228403E+03  0.13828228403E+03  0.00000000000E+00 0. -1.
          5    1    1    2  502    0 -0.38384486018E+02  0.12569415854E+03  0.28694900934E+02  0.13460266564E+03  0.47000000000E+01 0. -1.
         -5    1    1    2    0  502  0.34328896606E+01 -0.99932496265E+02  0.85541296036E+00  0.10010549572E+03  0.47000000000E+01 0.  1.
        -11    1    1    2    0    0  0.45129482115E+02 -0.44537710533E+02 -0.20841395698E+01  0.63439904266E+02  0.00000000000E+00 0.  1.
         11    1    1    2    0    0 -0.10177885757E+02  0.18776048258E+02  0.35827521798E+02  0.41710198572E+02  0.00000000000E+00 0. -1.
<mgrwt>
<rscale>  0 0.18829835E+03</rscale>
<asrwt>0</asrwt>
<pdfrwt beam="2">  1        4 0.21274197E-01 0.23284050E+03</pdfrwt>
<pdfrwt beam="1">  1       -4 0.31011689E-01 0.23284050E+03</pdfrwt>
<totfact> 0.36659777E+02</totfact>
</mgrwt>
</event>
<event>
 7    1  0.6419647E-006  0.1417504E+03  0.7546771E-02  0.1222850E+00
          1   -1    0    0  501    0  0.00000000000E+00  0.00000000000E+00  0.51396794495E+02  0.51396794495E+02  0.00000000000E+00 0. -1.
         -1   -1    0    0    0  501 -0.00000000000E+00 -0.00000000000E+00 -0.32116963346E+03  0.32116963346E+03  0.00000000000E+00 0.  1.
         23    2    1    2    0    0  0.66672533612E+02  0.48474901360E+01 -0.18677664512E+03  0.23447533940E+03  0.12499777889E+03 0.  0.
          5    1    3    3  502    0  0.30436792100E+02 -0.23595536198E+02 -0.18404529375E+03  0.18809015869E+03  0.47000000000E+01 0. -1.
         -5    1    3    3    0  502  0.36235741512E+02  0.28443026334E+02 -0.27313513695E+01  0.46385180718E+02  0.47000000000E+01 0. -1.
        -11    1    1    2    0    0 -0.44258455755E+02  0.34172683201E+01 -0.99569109560E+02  0.10901603647E+03  0.00000000000E+00 0.  1.
         11    1    1    2    0    0 -0.22414077856E+02 -0.82647584561E+01  0.16572915715E+02  0.29075052085E+02  0.00000000000E+00 0. -1.
<mgrwt>
<rscale>  0 0.13315349E+03</rscale>
<asrwt>0</asrwt>
<pdfrwt beam="1">  1        1 0.79071991E-02 0.14175038E+03</pdfrwt>
<pdfrwt beam="2">  1       -1 0.49410713E-01 0.14175038E+03</pdfrwt>
<totfact> 0.35734237E+03</totfact>
</mgrwt>
</event>
<event>
 7    1  0.6419647E-006  0.1211033E+03  0.7546771E-02  0.1250240E+00
          2   -1    0    0  501    0  0.00000000000E+00  0.00000000000E+00  0.19719908638E+04  0.19719908638E+04  0.00000000000E+00 0.  1.
         -2   -1    0    0    0  501 -0.00000000000E+00 -0.00000000000E+00 -0.88201645324E+01  0.88201645324E+01  0.00000000000E+00 0. -1.
         23    2    1    2    0    0  0.68803414281E+01 -0.39398275120E+02  0.15760323617E+04  0.15806783427E+04  0.11430859397E+03 0.  0.
          5    1    3    3  502    0 -0.18831231406E+02  0.29855022367E+02  0.88017785873E+03  0.88089788888E+03  0.47000000000E+01 0.  1.
         -5    1    3    3    0  502  0.25711572834E+02 -0.69253297487E+02  0.69585450300E+03  0.69978045381E+03  0.47000000000E+01 0. -1.
        -11    1    1    2    0    0 -0.24356741145E+02 -0.23100538371E+02  0.91715224952E+02  0.97665593738E+02  0.00000000000E+00 0. -1.
         11    1    1    2    0    0  0.17476399717E+02  0.62498813491E+02  0.29542311264E+03  0.30246709195E+03  0.00000000000E+00 0.  1.
<mgrwt>
<rscale>  0 0.11577157E+03</rscale>
<asrwt>0</asrwt>
<pdfrwt beam="1">  1        2 0.30338286E+00 0.12110334E+03</pdfrwt>
<pdfrwt beam="2">  1       -2 0.13569500E-02 0.12110334E+03</pdfrwt>
<totfact> 0.10270974E+04</totfact>
</mgrwt>
</event>
<event>
 6    1  0.6419647E-006  0.1695134E+03  0.7546771E-02  0.1189121E+00
          1   -1    0    0  501    0  0.00000000000E+00  0.00000000000E+00  0.58696265823E+02  0.58696265823E+02  0.00000000000E+00 0. -1.
         -1   -1    0    0    0  501 -0.00000000000E+00 -0.00000000000E+00 -0.39433266698E+03  0.39433266698E+03  0.00000000000E+00 0.  1.
          5    1    1    2  502    0 -0.25074934010E+02 -0.47226986035E+02 -0.12542544167E+03  0.13642863315E+03  0.47000000000E+01 0. -1.
         -5    1    1    2    0  502 -0.73256715441E+02  0.72526535535E+02 -0.84381136068E+02  0.13330007816E+03  0.47000000000E+01 0.  1.
        -11    1    1    2    0    0  0.69683437018E+02 -0.48598996855E+02 -0.11824826472E+03  0.14560321425E+03  0.00000000000E+00 0. -1.
         11    1    1    2    0    0  0.28648212433E+02  0.23299447354E+02 -0.75815586981E+01  0.37697007241E+02  0.00000000000E+00 0.  1.
<mgrwt>
<rscale>  0 0.15962508E+03</rscale>
<asrwt>0</asrwt>
<pdfrwt beam="1">  1        1 0.90301945E-02 0.16951336E+03</pdfrwt>
<pdfrwt beam="2">  1       -1 0.60666565E-01 0.16951336E+03</pdfrwt>
<totfact> 0.20559302E+03</totfact>
</mgrwt>
</event>
<event>
 7    1  0.6419647E-006  0.1703499E+03  0.7546771E-02  0.1183572E+00
          2   -1    0    0  501    0  0.00000000000E+00  0.00000000000E+00  0.85302578923E+03  0.85302578923E+03  0.00000000000E+00 0. -1.
         -2   -1    0    0    0  501 -0.00000000000E+00 -0.00000000000E+00 -0.52888242850E+02  0.52888242850E+02  0.00000000000E+00 0.  1.
         23    2    1    2    0    0  0.10264872232E+03 -0.53509211025E+02  0.71427774102E+03  0.73431041057E+03  0.12497636536E+03 0.  0.
          5    1    3    3  502    0  0.36462636815E+02  0.94143338712E+01  0.45229856670E+02  0.59042217947E+02  0.47000000000E+01 0. -1.
         -5    1    3    3    0  502  0.66186085509E+02 -0.62923544896E+02  0.66904788435E+03  0.67526819263E+03  0.47000000000E+01 0. -1.
        -11    1    1    2    0    0 -0.84497505509E+02  0.62426082238E+02  0.10146867858E+03  0.14605730695E+03  0.00000000000E+00 0. -1.
         11    1    1    2    0    0 -0.18151216814E+02 -0.89168712126E+01 -0.15608873223E+02  0.25546314555E+02  0.00000000000E+00 0.  1.
<mgrwt>
<rscale>  0 0.16462516E+03</rscale>
<asrwt>0</asrwt>
<pdfrwt beam="1">  1        2 0.13123473E+00 0.17034990E+03</pdfrwt>
<pdfrwt beam="2">  1       -2 0.81366534E-02 0.17034990E+03</pdfrwt>
<totfact> 0.29687641E+03</totfact>
</mgrwt>
</event>
<event>
 7    1  0.6419647E-006  0.1446264E+03  0.7546771E-02  0.1216717E+00
          2   -1    0    0  501    0  0.00000000000E+00  0.00000000000E+00  0.50821898460E+03  0.50821898460E+03  0.00000000000E+00 0. -1.
         -2   -1    0    0    0  501 -0.00000000000E+00 -0.00000000000E+00 -0.35053806658E+02  0.35053806658E+02  0.00000000000E+00 0.  1.
         23    2    1    2    0    0  0.59271568012E+02  0.42156483787E+02  0.30694545037E+03  0.33931152798E+03  0.12500606231E+03 0.  0.
          5    1    3    3  502    0  0.40005317301E+02  0.55373780110E+02  0.30793732684E+03  0.31545866321E+03  0.47000000000E+01 0. -1.
         -5    1    3    3    0  502  0.19266250711E+02 -0.13217296323E+02 -0.99187646533E+00  0.23852864765E+02  0.47000000000E+01 0. -1.
        -11    1    1    2    0    0  0.41455950458E+01 -0.53591495631E+02  0.76803379332E+02  0.93744298169E+02  0.00000000000E+00 0.  1.
         11    1    1    2    0    0 -0.63417163058E+02  0.11435011844E+02  0.89416348240E+02  0.11021696511E+03  0.00000000000E+00 0. -1.
<mgrwt>
<rscale>  0 0.13751180E+03</rscale>
<asrwt>0</asrwt>
<pdfrwt beam="1">  1        2 0.78187531E-01 0.14462643E+03</pdfrwt>
<pdfrwt beam="2">  1       -2 0.53928937E-02 0.14462643E+03</pdfrwt>
<totfact> 0.10191952E+04</totfact>
</mgrwt>
</event>
<event>
 7    1  0.6419647E-006  0.1621974E+03  0.7546771E-02  0.1195521E+00
          2   -1    0    0  501    0  0.00000000000E+00  0.00000000000E+00  0.91884450632E+03  0.91884450632E+03  0.00000000000E+00 0. -1.
         -2   -1    0    0    0  501 -0.00000000000E+00 -0.00000000000E+00 -0.28843390867E+02  0.28843390867E+02  0.00000000000E+00 0.  1.
         23    2    1    2    0    0  0.14597399643E+02  0.10231054612E+03  0.68376697259E+03  0.70274124681E+03  0.12500982056E+03 0.  0.
          5    1    3    3  502    0  0.62559463051E+02  0.18903596250E+02  0.29964131306E+03  0.30672143528E+03  0.47000000000E+01 0. -1.
         -5    1    3    3    0  502 -0.47962063408E+02  0.83406949873E+02  0.38412565953E+03  0.39601981153E+03  0.47000000000E+01 0. -1.
        -11    1    1    2    0    0 -0.30329939212E+02 -0.20647287397E+01  0.40978879537E+02  0.51023885441E+02  0.00000000000E+00 0.  1.
         11    1    1    2    0    0  0.15732539569E+02 -0.10024581738E+03  0.16525526333E+03  0.19392276494E+03  0.00000000000E+00 0. -1.
<mgrwt>
<rscale>  0 0.15410194E+03</rscale>
<asrwt>0</asrwt>
<pdfrwt beam="1">  1        2 0.14136067E+00 0.16219737E+03</pdfrwt>
<pdfrwt beam="2">  1       -2 0.44374454E-02 0.16219737E+03</pdfrwt>
<totfact> 0.67791931E+03</totfact>
</mgrwt>
</event>
<event>
 7    1  0.6419647E-006  0.1367829E+03  0.7546771E-02  0.1229162E+00
         -1   -1    0    0    0  501 -0.00000000000E+00  0.00000000000E+00  0.15563733043E+02  0.15563733043E+02  0.00000000000E+00 0.  1.
          1   -1    0    0  501    0  0.00000000000E+00 -0.00000000000E+00 -0.96312888521E+03  0.96312888521E+03  0.00000000000E+00 0. -1.
         23    2    1    2    0    0  0.29975026227E+02  0.46748986855E+02 -0.55604472599E+03  0.57262142487E+03  0.12500235574E+03 0.  0.
          5    1    3    3  502    0  0.68714632941E+02 -0.41728739566E+01 -0.22216381114E+03  0.23263267749E+03  0.47000000000E+01 0. -1.
         -5    1    3    3    0  502 -0.38739606714E+02  0.50921860812E+02 -0.33388091486E+03  0.33998874738E+03  0.47000000000E+01 0. -1.
        -11    1    1    2    0    0 -0.17158140881E+02  0.23237509736E+02 -0.55135733236E+02  0.62244138172E+02  0.00000000000E+00 0.  1.
         11    1    1    2    0    0 -0.12816885346E+02 -0.69986496592E+02 -0.33638469293E+03  0.34382705521E+03  0.00000000000E+00 0. -1.
<mgrwt>
<rscale>  0 0.12885674E+03</rscale>
<asrwt>0</asrwt>
<pdfrwt beam="2">  1        1 0.14817367E+00 0.13678289E+03</pdfrwt>
<pdfrwt beam="1">  1       -1 0.23944206E-02 0.13678289E+03</pdfrwt>
<totfact> 0.86760458E+03</totfact>
</mgrwt>
</event>
<event>
 7    1  0.6419647E-006  0.1748638E+03  0.7546771E-02  0.1179147E+00
          2   -1    0    0  501    0  0.00000000000E+00  0.00000000000E+00  0.12889465291E+04  0.12889465291E+04  0.00000000000E+00 0. -1.
         -2   -1    0    0    0  501 -0.00000000000E+00 -0.00000000000E+00 -0.22085823167E+02  0.22085823167E+02  0.00000000000E+00 0.  1.
         23    2    1    2    0    0 -0.10427248275E+03 -0.63885315468E+02  0.84026870259E+03  0.85827083713E+03  0.12499301229E+03 0.  0.
          5    1    3    3  502    0 -0.38816437617E+02 -0.69907340414E+02  0.68401396218E+03  0.68868784113E+03  0.47000000000E+01 0. -1.
         -5    1    3    3    0  502 -0.65456045130E+02  0.60220249463E+01  0.15625474041E+03  0.16958299599E+03  0.47000000000E+01 0. -1.
        -11    1    1    2    0    0  0.99588813427E+02  0.24290972868E+02  0.22480663491E+03  0.24707490002E+03  0.00000000000E+00 0.  1.
         11    1    1    2    0    0  0.46836693188E+01  0.39594342601E+02  0.20178536848E+03  0.20568661516E+03  0.00000000000E+00 0. -1.
<mgrwt>
<rscale>  0 0.16876010E+03</rscale>
<asrwt>0</asrwt>
<pdfrwt beam="1">  1        2 0.19829941E+00 0.17486377E+03</pdfrwt>
<pdfrwt beam="2">  1       -2 0.33978200E-02 0.17486377E+03</pdfrwt>
<totfact> 0.61738411E+03</totfact>
</mgrwt>
</event>
<event>
 7    1  0.6419647E-006  0.2203934E+03  0.7546771E-02  0.1137066E+00
          2   -1    0    0  501    0  0.00000000000E+00  0.00000000000E+00  0.20333069796E+04  0.20333069796E+04  0.00000000000E+00 0. -1.
         -2   -1    0    0    0  501 -0.00000000000E+00 -0.00000000000E+00 -0.25143320574E+02  0.25143320574E+02  0.00000000000E+00 0.  1.
         23    2    1    2    0    0  0.21525593987E+02  0.18024423809E+03  0.14053287546E+04  0.14225055968E+04  0.12498771063E+03 0.  0.
          5    1    3    3  502    0  0.60469050680E+02  0.83560815505E+02  0.46051408331E+03  0.47194727132E+03  0.47000000000E+01 0. -1.
         -5    1    3    3    0  502 -0.38943456693E+02  0.96683422588E+02  0.94481467133E+03  0.95055832551E+03  0.47000000000E+01 0. -1.
        -11    1    1    2    0    0 -0.39250619930E+02 -0.13861813112E+03  0.53751062686E+03  0.55648294801E+03  0.00000000000E+00 0.  1.
         11    1    1    2    0    0  0.17725025942E+02 -0.41626106971E+02  0.65324277479E+02  0.79461755294E+02  0.00000000000E+00 0. -1.
<mgrwt>
<rscale>  0 0.21578329E+03</rscale>
<asrwt>0</asrwt>
<pdfrwt beam="1">  1        2 0.31281633E+00 0.22039343E+03</pdfrwt>
<pdfrwt beam="2">  1       -2 0.38682048E-02 0.22039343E+03</pdfrwt>
<totfact> 0.20687455E+03</totfact>
</mgrwt>
</event>
<event>
 7    1  0.7017099E-006  0.2238343E+03  0.7546771E-02  0.1134004E+00
         -1   -1    0    0    0  501 -0.00000000000E+00  0.00000000000E+00  0.22189266403E+03  0.22189266403E+03  0.00000000000E+00 0.  1.
          1   -1    0    0  501    0  0.00000000000E+00 -0.00000000000E+00 -0.21612515934E+03  0.21612515934E+03  0.00000000000E+00 0. -1.
         23    2    1    2    0    0 -0.12282787876E+03 -0.13924657743E+03 -0.32735359763E+02  0.22621542489E+03  0.12500207020E+03 0.  0.
          5    1    3    3  502    0  0.15716841364E+02 -0.60844012457E+02 -0.21406009030E+02  0.66553137994E+02  0.47000000000E+01 0.  1.
         -5    1    3    3    0  502 -0.13854472013E+03 -0.78402564970E+02 -0.11329350733E+02  0.15966228690E+03  0.47000000000E+01 0.  1.
        -11    1    1    2    0    0  0.56428597126E+02  0.11656234582E+03 -0.43654027694E+01  0.12957632414E+03  0.00000000000E+00 0. -1.
         11    1    1    2    0    0  0.66399281638E+02  0.22684231603E+02  0.42868267224E+02  0.82226074333E+02  0.00000000000E+00 0.  1.
<mgrwt>
<rscale>  0 0.21983836E+03</rscale>
<asrwt>0</asrwt>
<pdfrwt beam="2">  1        1 0.33250024E-01 0.22383435E+03</pdfrwt>
<pdfrwt beam="1">  1       -1 0.34137333E-01 0.22383435E+03</pdfrwt>
<totfact> 0.10836124E+03</totfact>
</mgrwt>
</event>
<event>
 7    1  0.6419647E-006  0.1270604E+03  0.7546771E-02  0.1245217E+00
          2   -1    0    0  501    0  0.00000000000E+00  0.00000000000E+00  0.32132407797E+03  0.32132407797E+03  0.00000000000E+00 0. -1.
         -2   -1    0    0    0  501 -0.00000000000E+00 -0.00000000000E+00 -0.45608537422E+02  0.45608537422E+02  0.00000000000E+00 0.  1.
         23    2    1    2    0    0 -0.18190150680E+02 -0.13728700822E+02  0.22300608018E+03  0.25666333157E+03  0.12499998067E+03 0.  0.
          5    1    3    3  502    0 -0.36847927720E+01  0.40339952367E+02  0.18352200139E+03  0.18799815012E+03  0.47000000000E+01 0.  1.
         -5    1    3    3    0  502 -0.14505357908E+02 -0.54068653188E+02  0.39484078790E+02  0.68665181450E+02  0.47000000000E+01 0.  1.
        -11    1    1    2    0    0  0.39693419999E+02 -0.27343542800E+02  0.14914433418E+02  0.50454704917E+02  0.00000000000E+00 0. -1.
         11    1    1    2    0    0 -0.21503269319E+02  0.41072243621E+02  0.37795026952E+02  0.59814578907E+02  0.00000000000E+00 0.  1.
<mgrwt>
<rscale>  0 0.11872415E+03</rscale>
<asrwt>0</asrwt>
<pdfrwt beam="1">  1        2 0.49434472E-01 0.12706043E+03</pdfrwt>
<pdfrwt beam="2">  1       -2 0.70166983E-02 0.12706043E+03</pdfrwt>
<totfact> 0.11074914E+04</totfact>
</mgrwt>
</event>
<event>
 7    1  0.6419647E-006  0.1398102E+03  0.7546771E-02  0.1224908E+00
          2   -1    0    0  501    0  0.00000000000E+00  0.00000000000E+00  0.37589624068E+03  0.37589624068E+03  0.00000000000E+00 0. -1.
         -2   -1    0    0    0  501 -0.00000000000E+00 -0.00000000000E+00 -0.75389169446E+02  0.75389169446E+02  0.00000000000E+00 0.  1.
         23    2    1    2    0    0 -0.13014064059E+02 -0.61252913581E+02  0.31061570814E+03  0.34063033289E+03  0.12500248101E+03 0.  0.
          5    1    3    3  502    0 -0.36553351869E+02 -0.10828404760E+02  0.26705693120E+03  0.26980529347E+03  0.47000000000E+01 0.  1.
         -5    1    3    3    0  502  0.23539287810E+02 -0.50424508821E+02  0.43558776935E+02  0.70825039418E+02  0.47000000000E+01 0.  1.
        -11    1    1    2    0    0 -0.14781792384E+02  0.67042600611E+02 -0.31077066763E+02  0.75359112000E+02  0.00000000000E+00 0.  1.
         11    1    1    2    0    0  0.27795856443E+02 -0.57896870299E+01  0.20968429864E+02  0.35295965241E+02  0.00000000000E+00 0. -1.
<mgrwt>
<rscale>  0 0.13173226E+03</rscale>
<asrwt>0</asrwt>
<pdfrwt beam="1">  1        2 0.57830190E-01 0.13981025E+03</pdfrwt>
<pdfrwt beam="2">  1       -2 0.11598334E-01 0.13981025E+03</pdfrwt>
<totfact> 0.43105425E+03</totfact>
</mgrwt>
</event>
<event>
 6    1  0.6419647E-006  0.1898725E+03  0.7546771E-02  0.1174209E+00
          2   -1    0    0  501    0  0.00000000000E+00  0.00000000000E+00  0.11103736182E+04  0.11103736182E+04  0.00000000000E+00 0. -1.
         -2   -1    0    0    0  501 -0.00000000000E+00 -0.00000000000E+00 -0.55251035996E+02  0.55251035996E+02  0.00000000000E+00 0.  1.
          5    1    1    2  502    0  0.80079285191E+02  0.25176191638E+02  0.75582655495E+03  0.76048826665E+03  0.47000000000E+01 0. -1.
         -5    1    1    2    0  502 -0.53658447492E+02 -0.61965402800E+02  0.25105327577E+03  0.26413780004E+03  0.47000000000E+01 0.  1.
        -11    1    1    2    0    0 -0.87537337868E+01  0.66532798609E+02 -0.15136739211E+02  0.68792165396E+02  0.00000000000E+00 0.  1.
         11    1    1    2    0    0 -0.17667103912E+02 -0.29743587446E+02  0.63379490710E+02  0.72206422135E+02  0.00000000000E+00 0. -1.
<mgrwt>
<rscale>  0 0.17353668E+03</rscale>
<asrwt>0</asrwt>
<pdfrwt beam="1">  1        2 0.17082669E+00 0.18987254E+03</pdfrwt>
<pdfrwt beam="2">  1       -2 0.85001602E-02 0.18987254E+03</pdfrwt>
<totfact> 0.19323136E+03</totfact>
</mgrwt>
</event>
<event>
 7    1  0.6419647E-006  0.1272514E+03  0.7546771E-02  0.1246102E+00
          2   -1    0    0  501    0  0.00000000000E+00  0.00000000000E+00  0.25977413671E+03  0.25977413671E+03  0.00000000000E+00 0. -1.
         -2   -1    0    0    0  501 -0.00000000000E+00 -0.00000000000E+00 -0.70254797698E+02  0.70254797698E+02  0.00000000000E+00 0.  1.
         23    2    1    2    0    0  0.13883159429E+02  0.19364900021E+02  0.19753327849E+03  0.23497300934E+03  0.12500071015E+03 0.  0.
          5    1    3    3  502    0 -0.50816455818E+02 -0.14756164495E+02  0.69976337263E+02  0.87856896993E+02  0.47000000000E+01 0. -1.
         -5    1    3    3    0  502  0.64699615247E+02  0.34121064516E+02  0.12755694123E+03  0.14711611235E+03  0.47000000000E+01 0. -1.
        -11    1    1    2    0    0  0.33729080416E+02 -0.27829739190E+02 -0.14926596451E+02  0.46205503251E+02  0.00000000000E+00 0.  1.
         11    1    1    2    0    0 -0.47612239845E+02  0.84648391692E+01  0.69126569721E+01  0.48850421816E+02  0.00000000000E+00 0. -1.
<mgrwt>
<rscale>  0 0.11819647E+03</rscale>
<asrwt>0</asrwt>
<pdfrwt beam="1">  1        2 0.39965251E-01 0.12725140E+03</pdfrwt>
<pdfrwt beam="2">  1       -2 0.10808431E-01 0.12725140E+03</pdfrwt>
<totfact> 0.70930486E+03</totfact>
</mgrwt>
</event>
<event>
 7    1  0.6419647E-006  0.1254755E+03  0.7546771E-02  0.1250394E+00
         -2   -1    0    0    0  501 -0.00000000000E+00  0.00000000000E+00  0.12185933074E+02  0.12185933074E+02  0.00000000000E+00 0.  1.
          2   -1    0    0  501    0  0.00000000000E+00 -0.00000000000E+00 -0.98433171708E+03  0.98433171708E+03  0.00000000000E+00 0. -1.
         23    2    1    2    0    0  0.10015153135E+02  0.44790377080E+01 -0.64224017810E+03  0.65438256273E+03  0.12499490778E+03 0.  0.
          5    1    3    3  502    0  0.18205060284E+02  0.54348134553E+02 -0.17087805723E+03  0.18029571374E+03  0.47000000000E+01 0. -1.
         -5    1    3    3    0  502 -0.81899071489E+01 -0.49869096845E+02 -0.47136212087E+03  0.47408684899E+03  0.47000000000E+01 0. -1.
        -11    1    1    2    0    0  0.82302130851E+01 -0.44355905118E+02 -0.20009057960E+03  0.20511319502E+03  0.00000000000E+00 0. -1.
         11    1    1    2    0    0 -0.18245366220E+02  0.39876867410E+02 -0.12981502630E+03  0.13702189240E+03  0.00000000000E+00 0.  1.
<mgrwt>
<rscale>  0 0.11568300E+03</rscale>
<asrwt>0</asrwt>
<pdfrwt beam="2">  1        2 0.15143565E+00 0.12547546E+03</pdfrwt>
<pdfrwt beam="1">  1       -2 0.18747590E-02 0.12547546E+03</pdfrwt>
<totfact> 0.21606043E+04</totfact>
</mgrwt>
</event>
<event>
 7    1  0.6419647E-006  0.1520285E+03  0.7546771E-02  0.1206720E+00
         -2   -1    0    0    0  501 -0.00000000000E+00  0.00000000000E+00  0.17689305980E+02  0.17689305980E+02  0.00000000000E+00 0.  1.
          2   -1    0    0  501    0  0.00000000000E+00 -0.00000000000E+00 -0.12715084193E+04  0.12715084193E+04  0.00000000000E+00 0. -1.
         23    2    1    2    0    0 -0.75233736969E+02  0.42766905784E+02 -0.91900920591E+03  0.93149910689E+03  0.12499416859E+03 0.  0.
          5    1    3    3  502    0  0.12361567103E+02 -0.75871621895E+01 -0.13518642251E+02  0.20376875610E+02  0.47000000000E+01 0.  1.
         -5    1    3    3    0  502 -0.87595304071E+02  0.50354067973E+02 -0.90549056366E+03  0.91112223128E+03  0.47000000000E+01 0.  1.
        -11    1    1    2    0    0  0.10862229567E+02 -0.44317729442E+02 -0.23158409606E+03  0.23603652837E+03  0.00000000000E+00 0.  1.
         11    1    1    2    0    0  0.64371507402E+02  0.15508236587E+01 -0.10322581131E+03  0.12166208998E+03  0.00000000000E+00 0. -1.
<mgrwt>
<rscale>  0 0.14502724E+03</rscale>
<asrwt>0</asrwt>
<pdfrwt beam="2">  1        2 0.19561662E+00 0.15202850E+03</pdfrwt>
<pdfrwt beam="1">  1       -2 0.27214325E-02 0.15202850E+03</pdfrwt>
<totfact> 0.87153442E+03</totfact>
</mgrwt>
</event>
<event>
 7    1  0.6419647E-006  0.1365055E+03  0.7546771E-02  0.1230248E+00
          2   -1    0    0  501    0  0.00000000000E+00  0.00000000000E+00  0.18505204941E+04  0.18505204941E+04  0.00000000000E+00 0. -1.
         -2   -1    0    0    0  501 -0.00000000000E+00 -0.00000000000E+00 -0.23892312281E+02  0.23892312281E+02  0.00000000000E+00 0.  1.
         23    2    1    2    0    0 -0.33988041287E+01 -0.54771836976E+02  0.17152313227E+04  0.17206545984E+04  0.12498900200E+03 0.  0.
          5    1    3    3  502    0  0.15193341642E+02  0.11441990502E+02  0.12671667803E+04  0.12673182299E+04  0.47000000000E+01 0.  1.
         -5    1    3    3    0  502 -0.18592145770E+02 -0.66213827478E+02  0.44806454239E+03  0.45333636847E+03  0.47000000000E+01 0.  1.
        -11    1    1    2    0    0 -0.36985457540E+02 -0.71336521741E+00  0.33050147229E+02  0.49605898755E+02  0.00000000000E+00 0. -1.
         11    1    1    2    0    0  0.40384261669E+02  0.55485202193E+02  0.78346711877E+02  0.10415230922E+03  0.00000000000E+00 0.  1.
<mgrwt>
<rscale>  0 0.12813606E+03</rscale>
<asrwt>0</asrwt>
<pdfrwt beam="1">  1        2 0.28469535E+00 0.13650552E+03</pdfrwt>
<pdfrwt beam="2">  1       -2 0.36757418E-02 0.13650552E+03</pdfrwt>
<totfact> 0.27835254E+03</totfact>
</mgrwt>
</event>
<event>
 7    1  0.6419647E-006  0.2356717E+03  0.7546771E-02  0.1125593E+00
          3   -1    0    0  501    0  0.00000000000E+00  0.00000000000E+00  0.34382126650E+03  0.34382126650E+03  0.00000000000E+00 0. -1.
         -3   -1    0    0    0  501 -0.00000000000E+00 -0.00000000000E+00 -0.15622694099E+03  0.15622694099E+03  0.00000000000E+00 0.  1.
         23    2    1    2    0    0  0.12470090370E+03 -0.15613339176E+03  0.14454336540E+03  0.27646686698E+03  0.12495276167E+03 0.  0.
          5    1    3    3  502    0  0.25080088556E+01 -0.89293325701E+02  0.89774006675E+02  0.12673219953E+03  0.47000000000E+01 0.  1.
         -5    1    3    3    0  502  0.12219289484E+03 -0.66840066060E+02  0.54769358724E+02  0.14973466745E+03  0.47000000000E+01 0.  1.
        -11    1    1    2    0    0 -0.13398900119E+03  0.14784145077E+03  0.24196310473E+02  0.20098658773E+03  0.00000000000E+00 0.  1.
         11    1    1    2    0    0  0.92880974931E+01  0.82919409895E+01  0.18854649644E+02  0.22594752789E+02  0.00000000000E+00 0. -1.
<mgrwt>
<rscale>  0 0.23149331E+03</rscale>
<asrwt>0</asrwt>
<pdfrwt beam="1">  1        3 0.52895579E-01 0.23567169E+03</pdfrwt>
<pdfrwt beam="2">  1       -3 0.24034914E-01 0.23567169E+03</pdfrwt>
<totfact> 0.14276233E+02</totfact>
</mgrwt>
</event>
<event>
 6    1  0.6419647E-006  0.1661761E+03  0.7546771E-02  0.1190594E+00
         -1   -1    0    0    0  501 -0.00000000000E+00  0.00000000000E+00  0.29719961574E+02  0.29719961574E+02  0.00000000000E+00 0.  1.
          1   -1    0    0  501    0  0.00000000000E+00 -0.00000000000E+00 -0.36254873873E+04  0.36254873873E+04  0.00000000000E+00 0. -1.
          5    1    1    2  502    0  0.98436657064E+02  0.20494696760E+01 -0.29409181254E+04  0.29425695380E+04  0.47000000000E+01 0. -1.
         -5    1    1    2    0  502 -0.14948125313E+02 -0.46543266008E+02 -0.51344120112E+03  0.51578452776E+03  0.47000000000E+01 0.  1.
        -11    1    1    2    0    0 -0.40159788926E+02  0.74058357625E+02 -0.92849391411E+02  0.12537327652E+03  0.00000000000E+00 0.  1.
         11    1    1    2    0    0 -0.43328742826E+02 -0.29564561292E+02 -0.48558707830E+02  0.71480006613E+02  0.00000000000E+00 0. -1.
<mgrwt>
<rscale>  0 0.15833098E+03</rscale>
<asrwt>0</asrwt>
<pdfrwt beam="2">  1        1 0.55776712E+00 0.16617607E+03</pdfrwt>
<pdfrwt beam="1">  1       -1 0.45723032E-02 0.16617607E+03</pdfrwt>
<totfact> 0.53210178E+01</totfact>
</mgrwt>
</event>
<event>
 7    1  0.6419647E-006  0.1417404E+03  0.7546771E-02  0.1221760E+00
          2   -1    0    0  501    0  0.00000000000E+00  0.00000000000E+00  0.12721351845E+03  0.12721351845E+03  0.00000000000E+00 0. -1.
         -2   -1    0    0    0  501 -0.00000000000E+00 -0.00000000000E+00 -0.13630818553E+03  0.13630818553E+03  0.00000000000E+00 0.  1.
         23    2    1    2    0    0  0.66682214452E+02 -0.43089397017E+01  0.28333379605E+02  0.14454454931E+03  0.12500104659E+03 0.  0.
          5    1    3    3  502    0  0.85462375218E+02 -0.44890621120E+02  0.22191041207E+02  0.99164095076E+02  0.47000000000E+01 0.  1.
         -5    1    3    3    0  502 -0.18780160767E+02  0.40581681418E+02  0.61423383984E+01  0.45380454230E+02  0.47000000000E+01 0.  1.
        -11    1    1    2    0    0 -0.63766848043E+02 -0.25210672957E+02 -0.51876414092E+02  0.85982273053E+02  0.00000000000E+00 0.  1.
         11    1    1    2    0    0 -0.29153664088E+01  0.29519612658E+02  0.14448367408E+02  0.32994881627E+02  0.00000000000E+00 0. -1.
<mgrwt>
<rscale>  0 0.13391496E+03</rscale>
<asrwt>0</asrwt>
<pdfrwt beam="1">  1        2 0.19571310E-01 0.14174042E+03</pdfrwt>
<pdfrwt beam="2">  1       -2 0.20970490E-01 0.14174042E+03</pdfrwt>
<totfact> 0.52684530E+03</totfact>
</mgrwt>
</event>
<event>
 7    1  0.6419647E-006  0.1370656E+03  0.7546771E-02  0.1224126E+00
          2   -1    0    0  501    0  0.00000000000E+00  0.00000000000E+00  0.23299168587E+03  0.23299168587E+03  0.00000000000E+00 0. -1.
         -2   -1    0    0    0  501 -0.00000000000E+00 -0.00000000000E+00 -0.89103200067E+02  0.89103200067E+02  0.00000000000E+00 0.  1.
         23    2    1    2    0    0 -0.37289126698E+02 -0.66197884991E+02  0.14984899547E+03  0.20308055412E+03  0.11408045875E+03 0.  0.
          5    1    3    3  502    0  0.17265189970E+02 -0.78191015019E+02  0.98828947074E+02  0.12728382613E+03  0.47000000000E+01 0. -1.
         -5    1    3    3    0  502 -0.54554316668E+02  0.11993130028E+02  0.51020048399E+02  0.75796727988E+02  0.47000000000E+01 0.  1.
        -11    1    1    2    0    0 -0.26109928730E+02  0.38503663419E+02 -0.15806032050E+02  0.49133401308E+02  0.00000000000E+00 0.  1.
         11    1    1    2    0    0  0.63399055427E+02  0.27694221572E+02  0.98455223744E+01  0.69880930506E+02  0.00000000000E+00 0. -1.
<mgrwt>
<rscale>  0 0.13226957E+03</rscale>
<asrwt>0</asrwt>
<pdfrwt beam="1">  1        2 0.35844875E-01 0.13706564E+03</pdfrwt>
<pdfrwt beam="2">  1       -2 0.13708185E-01 0.13706564E+03</pdfrwt>
<totfact> 0.54744426E+03</totfact>
</mgrwt>
</event>
<event>
 7    1  0.6419647E-006  0.1611982E+03  0.7546771E-02  0.1194526E+00
         -2   -1    0    0    0  501 -0.00000000000E+00  0.00000000000E+00  0.11150590459E+02  0.11150590459E+02  0.00000000000E+00 0.  1.
          2   -1    0    0  501    0  0.00000000000E+00 -0.00000000000E+00 -0.28514088163E+04  0.28514088163E+04  0.00000000000E+00 0. -1.
         23    2    1    2    0    0 -0.81514714242E+02 -0.60950598238E+02 -0.22784622456E+04  0.22841574099E+04  0.12500097772E+03 0.  0.
          5    1    3    3  502    0  0.27432991185E+02  0.11561230037E+02 -0.39530053199E+03  0.39644776659E+03  0.47000000000E+01 0. -1.
         -5    1    3    3    0  502 -0.10894770543E+03 -0.72511828275E+02 -0.18831617136E+04  0.18877096433E+04  0.47000000000E+01 0. -1.
        -11    1    1    2    0    0  0.84794037856E+01  0.57541551810E+02 -0.16562738614E+03  0.17554304747E+03  0.00000000000E+00 0.  1.
         11    1    1    2    0    0  0.73035310456E+02  0.34090464283E+01 -0.39616859412E+03  0.40285894943E+03  0.00000000000E+00 0. -1.
<mgrwt>
<rscale>  0 0.15494441E+03</rscale>
<asrwt>0</asrwt>
<pdfrwt beam="2">  1        2 0.43867850E+00 0.16119823E+03</pdfrwt>
<pdfrwt beam="1">  1       -2 0.17154746E-02 0.16119823E+03</pdfrwt>
<totfact> 0.24982501E+03</totfact>
</mgrwt>
</event>
<event>
 7    1  0.6419647E-006  0.1441974E+03  0.7546771E-02  0.1218124E+00
          1   -1    0    0  501    0  0.00000000000E+00  0.00000000000E+00  0.14670470680E+03  0.14670470680E+03  0.00000000000E+00 0. -1.
         -1   -1    0    0    0  501 -0.00000000000E+00 -0.00000000000E+00 -0.11992316644E+03  0.11992316644E+03  0.00000000000E+00 0.  1.
         23    2    1    2    0    0  0.63305960014E+02  0.34056394075E+02  0.41185890386E+02  0.14996392357E+03  0.12500167301E+03 0.  0.
          5    1    3    3  502    0  0.47765642532E+02  0.37893886634E+02  0.84064627363E+02  0.10395409960E+03  0.47000000000E+01 0. -1.
         -5    1    3    3    0  502  0.15540317482E+02 -0.38374925588E+01 -0.42878736977E+02  0.46009823965E+02  0.47000000000E+01 0. -1.
        -11    1    1    2    0    0 -0.55730660245E+02 -0.63259931536E+02 -0.18219745020E+02  0.86253605942E+02  0.00000000000E+00 0.  1.
         11    1    1    2    0    0 -0.75752997690E+01  0.29203537461E+02  0.38153949982E+01  0.30410343731E+02  0.00000000000E+00 0. -1.
<mgrwt>
<rscale>  0 0.13649551E+03</rscale>
<asrwt>0</asrwt>
<pdfrwt beam="1">  1        1 0.22569955E-01 0.14419744E+03</pdfrwt>
<pdfrwt beam="2">  1       -1 0.18449718E-01 0.14419744E+03</pdfrwt>
<totfact> 0.48193962E+03</totfact>
</mgrwt>
</event>
<event>
 7    1  0.6419647E-006  0.2009839E+03  0.7546771E-02  0.1153100E+00
         -2   -1    0    0    0  501 -0.00000000000E+00  0.00000000000E+00  0.57698414175E+02  0.57698414175E+02  0.00000000000E+00 0.  1.
          2   -1    0    0  501    0  0.00000000000E+00 -0.00000000000E+00 -0.64107863630E+03  0.64107863630E+03  0.00000000000E+00 0. -1.
         23    2    1    2    0    0 -0.15155543700E+03 -0.42440049334E+02 -0.33817143484E+03  0.39338842617E+03  0.12499730491E+03 0.  0.
          5    1    3    3  502    0 -0.79030141483E+02 -0.13380947837E+01 -0.28163263595E+03  0.29255185078E+03  0.47000000000E+01 0.  1.
         -5    1    3    3    0  502 -0.72525295516E+02 -0.41101954550E+02 -0.56538798881E+02  0.10083657539E+03  0.47000000000E+01 0.  1.
        -11    1    1    2    0    0  0.41782534887E+02  0.36395099538E+02 -0.15016274867E+03  0.16006009678E+03  0.00000000000E+00 0. -1.
         11    1    1    2    0    0  0.10977290211E+03  0.60449497961E+01 -0.95046038617E+02  0.14532852753E+03  0.00000000000E+00 0.  1.
<mgrwt>
<rscale>  0 0.19606796E+03</rscale>
<asrwt>0</asrwt>
<pdfrwt beam="2">  1        2 0.98627478E-01 0.20098392E+03</pdfrwt>
<pdfrwt beam="1">  1       -2 0.88766795E-02 0.20098392E+03</pdfrwt>
<totfact> 0.36962120E+03</totfact>
</mgrwt>
</event>
<event>
 7    1  0.6419647E-006  0.1442979E+03  0.7546771E-02  0.1212976E+00
         -1   -1    0    0    0  501 -0.00000000000E+00  0.00000000000E+00  0.10404337541E+03  0.10404337541E+03  0.00000000000E+00 0.  1.
          1   -1    0    0  501    0  0.00000000000E+00 -0.00000000000E+00 -0.17948193240E+03  0.17948193240E+03  0.00000000000E+00 0. -1.
         23    2    1    2    0    0  0.87313693640E+02 -0.24889949129E+02 -0.45081015130E+02  0.15117603175E+03  0.11215482150E+03 0.  0.
          5    1    3    3  502    0  0.11361946739E+03 -0.16112017985E+02 -0.44111814980E+02  0.12303220194E+03  0.47000000000E+01 0. -1.
         -5    1    3    3    0  502 -0.26305773748E+02 -0.87779311448E+01 -0.96920014999E+00  0.28143829814E+02  0.47000000000E+01 0.  1.
        -11    1    1    2    0    0 -0.21613440214E+02  0.13395056553E+01  0.32078910209E+02  0.38703895843E+02  0.00000000000E+00 0.  1.
         11    1    1    2    0    0 -0.65700253426E+02  0.23550443474E+02 -0.62436452070E+02  0.93645380213E+02  0.00000000000E+00 0. -1.
<mgrwt>
<rscale>  0 0.14026245E+03</rscale>
<asrwt>0</asrwt>
<pdfrwt beam="2">  1        1 0.27612605E-01 0.14429794E+03</pdfrwt>
<pdfrwt beam="1">  1       -1 0.16006673E-01 0.14429794E+03</pdfrwt>
<totfact> 0.46853732E+03</totfact>
</mgrwt>
</event>
<event>
 7    1  0.6511430E-006  0.2450180E+03  0.7546771E-02  0.1119180E+00
         -1   -1    0    0    0  501 -0.00000000000E+00  0.00000000000E+00  0.33488696022E+02  0.33488696022E+02  0.00000000000E+00 0. -1.
          1   -1    0    0  501    0  0.00000000000E+00 -0.00000000000E+00 -0.18187218574E+04  0.18187218574E+04  0.00000000000E+00 0.  1.
         23    2    1    2    0    0 -0.19445121034E+03  0.81227793997E+02 -0.11781283455E+04  0.12033371203E+04  0.12499839598E+03 0.  0.
          5    1    3    3  502    0 -0.14254449915E+03  0.89712474242E+02 -0.61259935808E+03  0.63534819256E+03  0.47000000000E+01 0.  1.
         -5    1    3    3    0  502 -0.51906711188E+02 -0.84846802450E+01 -0.56552898743E+03  0.56798892778E+03  0.47000000000E+01 0.  1.
        -11    1    1    2    0    0  0.84238821584E+01  0.16102342677E+02 -0.66281336614E+02  0.68727453129E+02  0.00000000000E+00 0.  1.
         11    1    1    2    0    0  0.18602732818E+03 -0.97330136674E+02 -0.54082347929E+03  0.58014597998E+03  0.00000000000E+00 0. -1.
<mgrwt>
<rscale>  0 0.24092260E+03</rscale>
<asrwt>0</asrwt>
<pdfrwt beam="2">  1        1 0.27980338E+00 0.24501801E+03</pdfrwt>
<pdfrwt beam="1">  1       -1 0.51521068E-02 0.24501801E+03</pdfrwt>
<totfact> 0.74640780E+02</totfact>
</mgrwt>
</event>
<event>
 6    1  0.6419647E-006  0.1466277E+03  0.7546771E-02  0.1213854E+00
          1   -1    0    0  501    0  0.00000000000E+00  0.00000000000E+00  0.10833559644E+04  0.10833559644E+04  0.00000000000E+00 0. -1.
         -1   -1    0    0    0  501 -0.00000000000E+00 -0.00000000000E+00 -0.18671772767E+02  0.18671772767E+02  0.00000000000E+00 0.  1.
          5    1    1    2  502    0  0.29066098556E+02  0.35529493357E+02  0.14787380258E+03  0.15490621186E+03  0.47000000000E+01 0. -1.
         -5    1    1    2    0  502 -0.40107788484E+02 -0.83123196677E+02  0.61887676954E+03  0.62573848084E+03  0.47000000000E+01 0.  1.
        -11    1    1    2    0    0  0.52409504526E+02  0.57005612457E+02  0.17608354306E+03  0.19235854582E+03  0.00000000000E+00 0.  1.
         11    1    1    2    0    0 -0.41367814598E+02 -0.94119091368E+01  0.12185007645E+03  0.12902449864E+03  0.00000000000E+00 0. -1.
<mgrwt>
<rscale>  0 0.13961039E+03</rscale>
<asrwt>0</asrwt>
<pdfrwt beam="1">  1        1 0.16667010E+00 0.14662775E+03</pdfrwt>
<pdfrwt beam="2">  1       -1 0.28725813E-02 0.14662775E+03</pdfrwt>
<totfact> 0.54639108E+03</totfact>
</mgrwt>
</event>
<event>
 7    1  0.6419647E-006  0.1453625E+03  0.7546771E-02  0.1215476E+00
          3   -1    0    0  501    0  0.00000000000E+00  0.00000000000E+00  0.11059176945E+03  0.11059176945E+03  0.00000000000E+00 0. -1.
         -3   -1    0    0    0  501 -0.00000000000E+00 -0.00000000000E+00 -0.16774112063E+03  0.16774112063E+03  0.00000000000E+00 0.  1.
         23    2    1    2    0    0  0.45574975866E+02 -0.59550639208E+02  0.11423122458E+01  0.14536696436E+03  0.12452667343E+03 0.  0.
          5    1    3    3  502    0  0.21283198730E+02 -0.95949948209E+02  0.14304157319E+02  0.99428698202E+02  0.47000000000E+01 0. -1.
         -5    1    3    3    0  502  0.24291777136E+02  0.36399309001E+02 -0.13161845073E+02  0.45938266161E+02  0.47000000000E+01 0. -1.
        -11    1    1    2    0    0 -0.25611883458E+02  0.25469789608E+02 -0.80086010489E+02  0.87854697274E+02  0.00000000000E+00 0.  1.
         11    1    1    2    0    0 -0.19963092408E+02  0.34080849600E+02  0.21794347059E+02  0.45111228444E+02  0.00000000000E+00 0. -1.
<mgrwt>
<rscale>  0 0.13841652E+03</rscale>
<asrwt>0</asrwt>
<pdfrwt beam="1">  1        3 0.17014118E-01 0.14536248E+03</pdfrwt>
<pdfrwt beam="2">  1       -3 0.25806326E-01 0.14536248E+03</pdfrwt>
<totfact> 0.98578357E+02</totfact>
</mgrwt>
</event>
<event>
 7    1  0.6419647E-006  0.1356704E+03  0.7546771E-02  0.1231364E+00
          2   -1    0    0  501    0  0.00000000000E+00  0.00000000000E+00  0.33671207360E+03  0.33671207360E+03  0.00000000000E+00 0. -1.
         -2   -1    0    0    0  501 -0.00000000000E+00 -0.00000000000E+00 -0.43754028570E+02  0.43754028570E+02  0.00000000000E+00 0.  1.
         23    2    1    2    0    0  0.10632317209E+02 -0.51651510253E+02  0.18612378812E+03  0.23032262755E+03  0.12500209430E+03 0.  0.
          5    1    3    3  502    0  0.51917968885E+02 -0.55740724427E+02  0.58846209595E+02  0.96371521916E+02  0.47000000000E+01 0. -1.
         -5    1    3    3    0  502 -0.41285651676E+02  0.40892141737E+01  0.12727757852E+03  0.13395110564E+03  0.47000000000E+01 0. -1.
        -11    1    1    2    0    0 -0.79882222748E+01  0.75498966263E+02  0.57342602525E+02  0.95142417808E+02  0.00000000000E+00 0.  1.
         11    1    1    2    0    0 -0.26440949338E+01 -0.23847456010E+02  0.49491654388E+02  0.55001056810E+02  0.00000000000E+00 0. -1.
<mgrwt>
<rscale>  0 0.12740111E+03</rscale>
<asrwt>0</asrwt>
<pdfrwt beam="1">  1        2 0.51801856E-01 0.13567037E+03</pdfrwt>
<pdfrwt beam="2">  1       -2 0.67313892E-02 0.13567037E+03</pdfrwt>
<totfact> 0.11286878E+04</totfact>
</mgrwt>
</event>
<event>
 7    1  0.6419647E-006  0.1311170E+03  0.7546771E-02  0.1239741E+00
          2   -1    0    0  501    0  0.00000000000E+00  0.00000000000E+00  0.67792393570E+03  0.67792393570E+03  0.00000000000E+00 0. -1.
         -2   -1    0    0    0  501 -0.00000000000E+00 -0.00000000000E+00 -0.19599199604E+02  0.19599199604E+02  0.00000000000E+00 0.  1.
         23    2    1    2    0    0 -0.28665536451E+02  0.27322447939E+02  0.40697555833E+03  0.42757546021E+03  0.12499375964E+03 0.  0.
          5    1    3    3  502    0 -0.36222377690E+02  0.20077321593E+02  0.32317094552E+02  0.52741293956E+02  0.47000000000E+01 0. -1.
         -5    1    3    3    0  502  0.75568412386E+01  0.72451263459E+01  0.37465846378E+03  0.37483416625E+03  0.47000000000E+01 0. -1.
        -11    1    1    2    0    0  0.46103833237E+02 -0.51151367291E+02  0.17103152536E+03  0.18437409927E+03  0.00000000000E+00 0.  1.
         11    1    1    2    0    0 -0.17438296786E+02  0.23828919352E+02  0.80317652398E+02  0.85573575823E+02  0.00000000000E+00 0. -1.
<mgrwt>
<rscale>  0 0.12205755E+03</rscale>
<asrwt>0</asrwt>
<pdfrwt beam="1">  1        2 0.10429597E+00 0.13111701E+03</pdfrwt>
<pdfrwt beam="2">  1       -2 0.30152620E-02 0.13111701E+03</pdfrwt>
<totfact> 0.17331405E+04</totfact>
</mgrwt>
</event>
<event>
 6    1  0.6419647E-006  0.2077320E+03  0.7546771E-02  0.1165325E+00
          1   -1    0    0  501    0  0.00000000000E+00  0.00000000000E+00  0.19724241623E+04  0.19724241623E+04  0.00000000000E+00 0. -1.
         -1   -1    0    0    0  501 -0.00000000000E+00 -0.00000000000E+00 -0.19140038965E+02  0.19140038965E+02  0.00000000000E+00 0.  1.
          5    1    1    2  502    0 -0.12417701200E+02 -0.83124732174E+02  0.81354082084E+03  0.81788426906E+03  0.47000000000E+01 0. -1.
         -5    1    1    2    0  502 -0.69928890742E+02  0.98685147389E+02  0.84931871877E+03  0.85790045118E+03  0.47000000000E+01 0.  1.
        -11    1    1    2    0    0  0.51247017132E+02 -0.53865379052E+02  0.18496841882E+03  0.19935157834E+03  0.00000000000E+00 0. -1.
         11    1    1    2    0    0  0.31099574809E+02  0.38304963837E+02  0.10545616488E+03  0.11642790267E+03  0.00000000000E+00 0.  1.
<mgrwt>
<rscale>  0 0.18258396E+03</rscale>
<asrwt>0</asrwt>
<pdfrwt beam="1">  1        1 0.30344971E+00 0.20773199E+03</pdfrwt>
<pdfrwt beam="2">  1       -1 0.29446229E-02 0.20773199E+03</pdfrwt>
<totfact> 0.13685664E+03</totfact>
</mgrwt>
</event>
<event>
 7    1  0.6419647E-006  0.1162829E+03  0.7546771E-02  0.1263867E+00
         -2   -1    0    0    0  501 -0.00000000000E+00  0.00000000000E+00  0.13259603926E+02  0.13259603926E+02  0.00000000000E+00 0.  1.
          2   -1    0    0  501    0  0.00000000000E+00 -0.00000000000E+00 -0.78641421282E+03  0.78641421282E+03  0.00000000000E+00 0. -1.
         23    2    1    2    0    0 -0.22772939469E+02  0.10323949713E+02 -0.47294368825E+03  0.48702920013E+03  0.11356284084E+03 0.  0.
          5    1    3    3  502    0 -0.24774235490E+02 -0.28552356700E+02 -0.41686579064E+03  0.41860264837E+03  0.47000000000E+01 0. -1.
         -5    1    3    3    0  502  0.20012960211E+01  0.38876306413E+02 -0.56077897609E+02  0.68426551764E+02  0.47000000000E+01 0.  1.
        -11    1    1    2    0    0 -0.72855444507E+01 -0.39852887593E+02 -0.19775865021E+03  0.20186583549E+03  0.00000000000E+00 0. -1.
         11    1    1    2    0    0  0.30058483920E+02  0.29528937880E+02 -0.10245227043E+03  0.11077878111E+03  0.00000000000E+00 0.  1.
<mgrwt>
<rscale>  0 0.10823847E+03</rscale>
<asrwt>0</asrwt>
<pdfrwt beam="2">  1        2 0.12098682E+00 0.11628289E+03</pdfrwt>
<pdfrwt beam="1">  1       -2 0.20399387E-02 0.11628289E+03</pdfrwt>
<totfact> 0.25376250E+04</totfact>
</mgrwt>
</event>
<event>
 7    1  0.6419647E-006  0.1579101E+03  0.7546771E-02  0.1199057E+00
         -2   -1    0    0    0  501 -0.00000000000E+00  0.00000000000E+00  0.13224699503E+03  0.13224699503E+03  0.00000000000E+00 0.  1.
          2   -1    0    0  501    0  0.00000000000E+00 -0.00000000000E+00 -0.15989123850E+03  0.15989123850E+03  0.00000000000E+00 0. -1.
         23    2    1    2    0    0  0.37176956837E+02 -0.89036254204E+02 -0.80819510301E+01  0.15811680391E+03  0.12500410019E+03 0.  0.
          5    1    3    3  502    0 -0.11126373079E+02 -0.64172299382E+01  0.46068239403E+02  0.48055693728E+02  0.47000000000E+01 0. -1.
         -5    1    3    3    0  502  0.48303329917E+02 -0.82619024266E+02 -0.54150190433E+02  0.11006111019E+03  0.47000000000E+01 0. -1.
        -11    1    1    2    0    0 -0.54123838526E+02  0.78537540958E+02 -0.41815609566E+02  0.10414451709E+03  0.00000000000E+00 0. -1.
         11    1    1    2    0    0  0.16946881689E+02  0.10498713246E+02  0.22253317125E+02  0.29876912522E+02  0.00000000000E+00 0.  1.
<mgrwt>
<rscale>  0 0.15115828E+03</rscale>
<asrwt>0</asrwt>
<pdfrwt beam="2">  1        2 0.24598652E-01 0.15791012E+03</pdfrwt>
<pdfrwt beam="1">  1       -2 0.20345692E-01 0.15791012E+03</pdfrwt>
<totfact> 0.43201689E+03</totfact>
</mgrwt>
</event>
<event>
 7    1  0.6419647E-006  0.1587147E+03  0.7546771E-02  0.1198231E+00
          3   -1    0    0  501    0  0.00000000000E+00  0.00000000000E+00  0.20615981695E+03  0.20615981695E+03  0.00000000000E+00 0. -1.
         -3   -1    0    0    0  501 -0.00000000000E+00 -0.00000000000E+00 -0.29123079694E+03  0.29123079694E+03  0.00000000000E+00 0.  1.
         23    2    1    2    0    0 -0.87093426997E+02  0.44498945583E+02  0.15571090088E+03  0.22234262815E+03  0.12499975382E+03 0.  0.
          5    1    3    3  502    0  0.95248211327E+01  0.26188290741E+02 -0.96762803040E+01  0.29870875281E+02  0.47000000000E+01 0.  1.
         -5    1    3    3    0  502 -0.96618248130E+02  0.18310654842E+02  0.16538718118E+03  0.19247175287E+03  0.47000000000E+01 0.  1.
        -11    1    1    2    0    0  0.57333588613E+02 -0.12096881105E+02 -0.21753576030E+03  0.22528932936E+03  0.00000000000E+00 0.  1.
         11    1    1    2    0    0  0.29759838384E+02 -0.32402064478E+02 -0.23246120567E+02  0.49758656377E+02  0.00000000000E+00 0. -1.
<mgrwt>
<rscale>  0 0.15183933E+03</rscale>
<asrwt>0</asrwt>
<pdfrwt beam="1">  1        3 0.31716895E-01 0.15871471E+03</pdfrwt>
<pdfrwt beam="2">  1       -3 0.44804738E-01 0.15871471E+03</pdfrwt>
<totfact> 0.11489432E+02</totfact>
</mgrwt>
</event>
<event>
 7    1  0.6419647E-006  0.1307188E+03  0.7546771E-02  0.1239784E+00
          1   -1    0    0  501    0  0.00000000000E+00  0.00000000000E+00  0.11850108295E+03  0.11850108295E+03  0.00000000000E+00 0. -1.
         -1   -1    0    0    0  501 -0.00000000000E+00 -0.00000000000E+00 -0.11726479447E+03  0.11726479447E+03  0.00000000000E+00 0.  1.
         23    2    1    2    0    0  0.32907361373E+02  0.19491072572E+02  0.26372168173E+02  0.13335254527E+03  0.12499845492E+03 0.  0.
          5    1    3    3  502    0  0.33049640286E+02  0.96719511975E+01 -0.47402726956E+02  0.58778685642E+02  0.47000000000E+01 0. -1.
         -5    1    3    3    0  502 -0.14227891322E+00  0.98191213749E+01  0.73774895129E+02  0.74573859623E+02  0.47000000000E+01 0. -1.
        -11    1    1    2    0    0 -0.12941785767E+02 -0.27871980025E+02 -0.56490834557E+02  0.64308253578E+02  0.00000000000E+00 0.  1.
         11    1    1    2    0    0 -0.19965575607E+02  0.83809074525E+01  0.31354954860E+02  0.38105078576E+02  0.00000000000E+00 0. -1.
<mgrwt>
<rscale>  0 0.12203093E+03</rscale>
<asrwt>0</asrwt>
<pdfrwt beam="1">  1        1 0.18230936E-01 0.13071882E+03</pdfrwt>
<pdfrwt beam="2">  1       -1 0.18040737E-01 0.13071882E+03</pdfrwt>
<totfact> 0.65095624E+03</totfact>
</mgrwt>
</event>
<event>
 7    1  0.6419647E-006  0.1414558E+03  0.7546771E-02  0.1222641E+00
          1   -1    0    0  501    0  0.00000000000E+00  0.00000000000E+00  0.30663566401E+02  0.30663566401E+02  0.00000000000E+00 0. -1.
         -1   -1    0    0    0  501 -0.00000000000E+00 -0.00000000000E+00 -0.53847036366E+03  0.53847036366E+03  0.00000000000E+00 0.  1.
         23    2    1    2    0    0 -0.14132093372E+02 -0.64698661916E+02 -0.23336144478E+03  0.27288698323E+03  0.12499643512E+03 0.  0.
          5    1    3    3  502    0 -0.52154724844E+02 -0.51150817378E+02 -0.59482932575E+02  0.94323012620E+02  0.47000000000E+01 0.  1.
         -5    1    3    3    0  502  0.38022631473E+02 -0.13547844538E+02 -0.17387851220E+03  0.17856397061E+03  0.47000000000E+01 0.  1.
        -11    1    1    2    0    0 -0.18179563653E+02  0.75357522129E+02 -0.19062950329E+03  0.20578838694E+03  0.00000000000E+00 0.  1.
         11    1    1    2    0    0  0.32311657025E+02 -0.10658860213E+02 -0.83815849197E+02  0.90458559890E+02  0.00000000000E+00 0. -1.
<mgrwt>
<rscale>  0 0.13329898E+03</rscale>
<asrwt>0</asrwt>
<pdfrwt beam="1">  1        1 0.47174725E-02 0.14145579E+03</pdfrwt>
<pdfrwt beam="2">  1       -1 0.82841581E-01 0.14145579E+03</pdfrwt>
<totfact> 0.26499872E+03</totfact>
</mgrwt>
</event>
<event>
 7    1  0.6419647E-006  0.1841862E+03  0.7546771E-02  0.1169124E+00
         -1   -1    0    0    0  501 -0.00000000000E+00  0.00000000000E+00  0.65847660297E+02  0.65847660297E+02  0.00000000000E+00 0.  1.
          1   -1    0    0  501    0  0.00000000000E+00 -0.00000000000E+00 -0.50091539529E+03  0.50091539529E+03  0.00000000000E+00 0. -1.
         23    2    1    2    0    0  0.10372789896E+03 -0.86830829729E+02 -0.31284633497E+03  0.36303911159E+03  0.12500198889E+03 0.  0.
          5    1    3    3  502    0  0.96858150499E+02 -0.15231945746E+02 -0.24547986909E+03  0.26437845906E+03  0.47000000000E+01 0. -1.
         -5    1    3    3    0  502  0.68697484597E+01 -0.71598883983E+02 -0.67366465881E+02  0.98660652526E+02  0.47000000000E+01 0. -1.
        -11    1    1    2    0    0 -0.35742899522E+02  0.37535731790E+02  0.41475016970E+01  0.51996997967E+02  0.00000000000E+00 0.  1.
         11    1    1    2    0    0 -0.67984999436E+02  0.49295097939E+02 -0.12636890172E+03  0.15172694603E+03  0.00000000000E+00 0. -1.
<mgrwt>
<rscale>  0 0.17864150E+03</rscale>
<asrwt>0</asrwt>
<pdfrwt beam="2">  1        1 0.77063905E-01 0.18418623E+03</pdfrwt>
<pdfrwt beam="1">  1       -1 0.10130410E-01 0.18418623E+03</pdfrwt>
<totfact> 0.26545516E+03</totfact>
</mgrwt>
</event>
<event>
 7    1  0.6419647E-006  0.1283703E+03  0.7546771E-02  0.1244796E+00
         -2   -1    0    0    0  501 -0.00000000000E+00  0.00000000000E+00  0.28108115327E+02  0.28108115327E+02  0.00000000000E+00 0. -1.
          2   -1    0    0  501    0  0.00000000000E+00 -0.00000000000E+00 -0.50406354276E+03  0.50406354276E+03  0.00000000000E+00 0.  1.
         23    2    1    2    0    0  0.18012689787E+02 -0.23053404402E+02 -0.36143945094E+03  0.38355886800E+03  0.12499204805E+03 0.  0.
          5    1    3    3  502    0 -0.11405211047E+02  0.47722424898E+02 -0.10747736244E+03  0.11824120311E+03  0.47000000000E+01 0. -1.
         -5    1    3    3    0  502  0.29417900835E+02 -0.70775829301E+02 -0.25396208851E+03  0.26531766489E+03  0.47000000000E+01 0. -1.
        -11    1    1    2    0    0 -0.18729001874E+02  0.10930128747E+02 -0.12837040375E+03  0.13018910778E+03  0.00000000000E+00 0.  1.
         11    1    1    2    0    0  0.71631208665E+00  0.12123275655E+02  0.13854427252E+02  0.18423682316E+02  0.00000000000E+00 0. -1.
<mgrwt>
<rscale>  0 0.11897580E+03</rscale>
<asrwt>0</asrwt>
<pdfrwt beam="2">  1        2 0.77548236E-01 0.12837028E+03</pdfrwt>
<pdfrwt beam="1">  1       -2 0.43243255E-02 0.12837028E+03</pdfrwt>
<totfact> 0.14196354E+04</totfact>
</mgrwt>
</event>
<event>
 7    1  0.6419647E-006  0.1373142E+03  0.7546771E-02  0.1227097E+00
         -1   -1    0    0    0  501 -0.00000000000E+00  0.00000000000E+00  0.33721447008E+03  0.33721447008E+03  0.00000000000E+00 0.  1.
          1   -1    0    0  501    0  0.00000000000E+00 -0.00000000000E+00 -0.50439249728E+02  0.50439249728E+02  0.00000000000E+00 0. -1.
         23    2    1    2    0    0  0.24652816993E+02 -0.59559611273E+02  0.98376233928E+02  0.16891735188E+03  0.12124388513E+03 0.  0.
          5    1    3    3  502    0  0.42032279930E+02 -0.83294228489E+02  0.36595518872E+02  0.10032927318E+03  0.47000000000E+01 0. -1.
         -5    1    3    3    0  502 -0.17379462937E+02  0.23734617216E+02  0.61780715056E+02  0.68588078695E+02  0.47000000000E+01 0.  1.
        -11    1    1    2    0    0  0.33368509726E+02  0.16265573531E+02  0.47087535596E+02  0.59960506436E+02  0.00000000000E+00 0. -1.
         11    1    1    2    0    0 -0.58021326719E+02  0.43294037742E+02  0.14131145083E+03  0.15877586150E+03  0.00000000000E+00 0.  1.
<mgrwt>
<rscale>  0 0.13024204E+03</rscale>
<asrwt>0</asrwt>
<pdfrwt beam="2">  1        1 0.77598848E-02 0.13731420E+03</pdfrwt>
<pdfrwt beam="1">  1       -1 0.51879148E-01 0.13731420E+03</pdfrwt>
<totfact> 0.33458911E+03</totfact>
</mgrwt>
</event>
<event>
 7    1  0.6419647E-006  0.1180571E+03  0.7546771E-02  0.1256006E+00
          1   -1    0    0  501    0  0.00000000000E+00  0.00000000000E+00  0.17022541444E+03  0.17022541444E+03  0.00000000000E+00 0. -1.
         -1   -1    0    0    0  501 -0.00000000000E+00 -0.00000000000E+00 -0.28854086663E+03  0.28854086663E+03  0.00000000000E+00 0.  1.
         23    2    1    2    0    0 -0.19371550995E+02 -0.18250238890E+02  0.13975371206E+03  0.18294422125E+03  0.11501808487E+03 0.  0.
          5    1    3    3  502    0 -0.58380318281E+02 -0.15135316310E+02  0.12838531877E+03  0.14192328716E+03  0.47000000000E+01 0. -1.
         -5    1    3    3    0  502  0.39008767286E+02 -0.31149225801E+01  0.11368393295E+02  0.41020934094E+02  0.47000000000E+01 0.  1.
        -11    1    1    2    0    0  0.32341552985E+02  0.49859855691E+02 -0.19787363694E+03  0.20660580209E+03  0.00000000000E+00 0.  1.
         11    1    1    2    0    0 -0.12970001990E+02 -0.31609616802E+02 -0.60195527310E+02  0.69216257729E+02  0.00000000000E+00 0. -1.
<mgrwt>
<rscale>  0 0.11250179E+03</rscale>
<asrwt>0</asrwt>
<pdfrwt beam="1">  1        1 0.26188526E-01 0.11805714E+03</pdfrwt>
<pdfrwt beam="2">  1       -1 0.44390902E-01 0.11805714E+03</pdfrwt>
<totfact> 0.91204796E+02</totfact>
</mgrwt>
</event>
<event>
 7    1  0.6419647E-006  0.1497121E+03  0.7546771E-02  0.1216393E+00
         -1   -1    0    0    0  501 -0.00000000000E+00  0.00000000000E+00  0.24333548663E+02  0.24333548663E+02  0.00000000000E+00 0.  1.
          1   -1    0    0  501    0  0.00000000000E+00 -0.00000000000E+00 -0.67965118566E+03  0.67965118566E+03  0.00000000000E+00 0. -1.
         23    2    1    2    0    0  0.81544198044E+02  0.11795987339E+02 -0.39540095060E+03  0.42279502711E+03  0.12500048666E+03 0.  0.
          5    1    3    3  502    0  0.23670806120E+02  0.69867342730E+01 -0.21104878481E+01  0.25212411173E+02  0.47000000000E+01 0.  1.
         -5    1    3    3    0  502  0.57873391924E+02  0.48092530661E+01 -0.39329046275E+03  0.39758261594E+03  0.47000000000E+01 0.  1.
        -11    1    1    2    0    0 -0.14566314330E+02 -0.27163416008E+02 -0.38292305214E+02  0.49156172766E+02  0.00000000000E+00 0.  1.
         11    1    1    2    0    0 -0.66977883714E+02  0.15367428669E+02 -0.22162438119E+03  0.23203353444E+03  0.00000000000E+00 0. -1.
<mgrwt>
<rscale>  0 0.13774687E+03</rscale>
<asrwt>0</asrwt>
<pdfrwt beam="2">  1        1 0.10456172E+00 0.14971213E+03</pdfrwt>
<pdfrwt beam="1">  1       -1 0.37436230E-02 0.14971213E+03</pdfrwt>
<totfact> 0.77280276E+03</totfact>
</mgrwt>
</event>
<event>
 7    1  0.6419647E-006  0.2035650E+03  0.7546771E-02  0.1148358E+00
          2   -1    0    0  501    0  0.00000000000E+00  0.00000000000E+00  0.28706327447E+03  0.28706327447E+03  0.00000000000E+00 0. -1.
         -2   -1    0    0    0  501 -0.00000000000E+00 -0.00000000000E+00 -0.21667876235E+03  0.21667876235E+03  0.00000000000E+00 0.  1.
         23    2    1    2    0    0  0.10236318053E+03 -0.12383611104E+03  0.18637358116E+03  0.27599603572E+03  0.12500038742E+03 0.  0.
          5    1    3    3  502    0  0.26497686384E+02 -0.15669718650E+02  0.12755074839E+03  0.13129718535E+03  0.47000000000E+01 0.  1.
         -5    1    3    3    0  502  0.75865494142E+02 -0.10816639239E+03  0.58822832775E+02  0.14469885038E+03  0.47000000000E+01 0.  1.
        -11    1    1    2    0    0 -0.40955259642E+02  0.11901590889E+03 -0.10758262211E+03  0.16557820038E+03  0.00000000000E+00 0.  1.
         11    1    1    2    0    0 -0.61407920883E+02  0.48202021460E+01 -0.84064469359E+01  0.62167800717E+02  0.00000000000E+00 0. -1.
<mgrwt>
<rscale>  0 0.20164599E+03</rscale>
<asrwt>0</asrwt>
<pdfrwt beam="1">  1        2 0.44163581E-01 0.20356498E+03</pdfrwt>
<pdfrwt beam="2">  1       -2 0.33335194E-01 0.20356498E+03</pdfrwt>
<totfact> 0.96304538E+02</totfact>
</mgrwt>
</event>
<event>
 7    1  0.6419647E-006  0.1750470E+03  0.7546771E-02  0.1178609E+00
         -2   -1    0    0    0  501 -0.00000000000E+00  0.00000000000E+00  0.13682210488E+03  0.13682210488E+03  0.00000000000E+00 0.  1.
          2   -1    0    0  501    0  0.00000000000E+00 -0.00000000000E+00 -0.26759234182E+03  0.26759234182E+03  0.00000000000E+00 0. -1.
         23    2    1    2    0    0  0.12246282482E+03 -0.43323666224E+01 -0.17250327586E+03  0.24576170820E+03  0.12500209668E+03 0.  0.
          5    1    3    3  502    0 -0.40179143985E+01 -0.12940586012E+02 -0.97163514207E+02  0.98216296487E+02  0.47000000000E+01 0. -1.
         -5    1    3    3    0  502  0.12648073921E+03  0.86082193895E+01 -0.75339761648E+02  0.14754541172E+03  0.47000000000E+01 0. -1.
        -11    1    1    2    0    0 -0.12015933606E+03 -0.80636033810E+01  0.57969529539E+01  0.12056903585E+03  0.00000000000E+00 0. -1.
         11    1    1    2    0    0 -0.23034887542E+01  0.12395970003E+02  0.35936085962E+02  0.38083702643E+02  0.00000000000E+00 0.  1.
<mgrwt>
<rscale>  0 0.16927205E+03</rscale>
<asrwt>0</asrwt>
<pdfrwt beam="2">  1        2 0.41168052E-01 0.17504696E+03</pdfrwt>
<pdfrwt beam="1">  1       -2 0.21049555E-01 0.17504696E+03</pdfrwt>
<totfact> 0.23404443E+03</totfact>
</mgrwt>
</event>
<event>
 7    1  0.6419647E-006  0.1679654E+03  0.7546771E-02  0.1186264E+00
         -1   -1    0    0    0  501 -0.00000000000E+00  0.00000000000E+00  0.47106803651E+02  0.47106803651E+02  0.00000000000E+00 0.  1.
          1   -1    0    0  501    0  0.00000000000E+00 -0.00000000000E+00 -0.53956273172E+03  0.53956273172E+03  0.00000000000E+00 0. -1.
         23    2    1    2    0    0  0.76860597268E+02 -0.81734373412E+02 -0.31416183038E+03  0.35624432493E+03  0.12499721665E+03 0.  0.
          5    1    3    3  502    0 -0.20924756510E+02 -0.18553732487E+02 -0.16269189979E+03  0.16514487786E+03  0.47000000000E+01 0.  1.
         -5    1    3    3    0  502  0.97785353778E+02 -0.63180640924E+02 -0.15146993059E+03  0.19109944708E+03  0.47000000000E+01 0.  1.
        -11    1    1    2    0    0 -0.41027490275E+02  0.34884650904E+01 -0.11522412701E+02  0.42757342544E+02  0.00000000000E+00 0.  1.
         11    1    1    2    0    0 -0.35833106993E+02  0.78245908321E+02 -0.16677168499E+03  0.18766786790E+03  0.00000000000E+00 0. -1.
<mgrwt>
<rscale>  0 0.16217357E+03</rscale>
<asrwt>0</asrwt>
<pdfrwt beam="2">  1        1 0.83009653E-01 0.16796536E+03</pdfrwt>
<pdfrwt beam="1">  1       -1 0.72472004E-02 0.16796536E+03</pdfrwt>
<totfact> 0.39938536E+03</totfact>
</mgrwt>
</event>
<event>
 7    1  0.6419647E-006  0.1512738E+03  0.7546771E-02  0.1207895E+00
          1   -1    0    0  501    0  0.00000000000E+00  0.00000000000E+00  0.82567417175E+03  0.82567417175E+03  0.00000000000E+00 0. -1.
         -1   -1    0    0    0  501 -0.00000000000E+00 -0.00000000000E+00 -0.31490456237E+02  0.31490456237E+02  0.00000000000E+00 0.  1.
         23    2    1    2    0    0  0.71847600792E+02  0.45793399853E+02  0.64635964928E+03  0.66382570363E+03  0.12499862149E+03 0.  0.
          5    1    3    3  502    0  0.98310093596E+02  0.63173531583E+02  0.54974226021E+03  0.56204484898E+03  0.47000000000E+01 0. -1.
         -5    1    3    3    0  502 -0.26462492804E+02 -0.17380131731E+02  0.96617389063E+02  0.10178085465E+03  0.47000000000E+01 0. -1.
        -11    1    1    2    0    0 -0.17704088873E+02  0.92435984510E+01  0.10119164872E+03  0.10314372809E+03  0.00000000000E+00 0. -1.
         11    1    1    2    0    0 -0.54143511919E+02 -0.55036998304E+02  0.46632417515E+02  0.90195196260E+02  0.00000000000E+00 0.  1.
<mgrwt>
<rscale>  0 0.14411601E+03</rscale>
<asrwt>0</asrwt>
<pdfrwt beam="1">  1        1 0.12702678E+00 0.15127382E+03</pdfrwt>
<pdfrwt beam="2">  1       -1 0.48446862E-02 0.15127382E+03</pdfrwt>
<totfact> 0.39677908E+03</totfact>
</mgrwt>
</event>
<event>
 7    1  0.6419647E-006  0.1558032E+03  0.7546771E-02  0.1201381E+00
          2   -1    0    0  501    0  0.00000000000E+00  0.00000000000E+00  0.17927863023E+04  0.17927863023E+04  0.00000000000E+00 0. -1.
         -2   -1    0    0    0  501 -0.00000000000E+00 -0.00000000000E+00 -0.13274177733E+02  0.13274177733E+02  0.00000000000E+00 0.  1.
         23    2    1    2    0    0  0.10995849094E+02 -0.92349180723E+02  0.12856612476E+04  0.12950673616E+04  0.12500139023E+03 0.  0.
          5    1    3    3  502    0  0.26158961620E+02 -0.99080365915E+02  0.56736979977E+03  0.57656898102E+03  0.47000000000E+01 0.  1.
         -5    1    3    3    0  502 -0.15163112526E+02  0.67311851916E+01  0.71829144780E+03  0.71849838053E+03  0.47000000000E+01 0.  1.
        -11    1    1    2    0    0 -0.66714855426E+01  0.11037131268E+03  0.45001398182E+03  0.46339930860E+03  0.00000000000E+00 0.  1.
         11    1    1    2    0    0 -0.43243635512E+01 -0.18022131953E+02  0.43836895144E+02  0.47593809851E+02  0.00000000000E+00 0. -1.
<mgrwt>
<rscale>  0 0.14926329E+03</rscale>
<asrwt>0</asrwt>
<pdfrwt beam="1">  1        2 0.27581309E+00 0.15580317E+03</pdfrwt>
<pdfrwt beam="2">  1       -2 0.20421826E-02 0.15580317E+03</pdfrwt>
<totfact> 0.70751921E+03</totfact>
</mgrwt>
</event>
<event>
 7    1  0.6419647E-006  0.1311786E+03  0.7546771E-02  0.1238705E+00
          1   -1    0    0  501    0  0.00000000000E+00  0.00000000000E+00  0.17771276980E+03  0.17771276980E+03  0.00000000000E+00 0. -1.
         -1   -1    0    0    0  501 -0.00000000000E+00 -0.00000000000E+00 -0.14568471314E+03  0.14568471314E+03  0.00000000000E+00 0.  1.
         23    2    1    2    0    0  0.24269259643E+02  0.31524021423E+02  0.12887029084E+03  0.18388960024E+03  0.12500028929E+03 0.  0.
          5    1    3    3  502    0  0.70382388126E+02  0.43510682770E+02  0.88680558186E+02  0.12138035868E+03  0.47000000000E+01 0.  1.
         -5    1    3    3    0  502 -0.46113128483E+02 -0.11986661348E+02  0.40189732657E+02  0.62509241555E+02  0.47000000000E+01 0.  1.
        -11    1    1    2    0    0 -0.54573685827E+02 -0.41151620429E+00 -0.38562789549E+02  0.66824735451E+02  0.00000000000E+00 0. -1.
         11    1    1    2    0    0  0.30304426185E+02 -0.31112505218E+02 -0.58279444631E+02  0.72683147247E+02  0.00000000000E+00 0.  1.
<mgrwt>
<rscale>  0 0.12270199E+03</rscale>
<asrwt>0</asrwt>
<pdfrwt beam="1">  1        1 0.27340426E-01 0.13117863E+03</pdfrwt>
<pdfrwt beam="2">  1       -1 0.22413033E-01 0.13117863E+03</pdfrwt>
<totfact> 0.27559675E+03</totfact>
</mgrwt>
</event>
<event>
 7    1  0.1504116E-005  0.3400446E+03  0.7546771E-02  0.1067985E+00
         -1   -1    0    0    0  501 -0.00000000000E+00  0.00000000000E+00  0.11418947814E+03  0.11418947814E+03  0.00000000000E+00 0.  1.
          1   -1    0    0  501    0  0.00000000000E+00 -0.00000000000E+00 -0.98501317863E+03  0.98501317863E+03  0.00000000000E+00 0. -1.
         23    2    1    2    0    0 -0.31098950410E+03 -0.57366548890E+02 -0.48301091945E+03  0.59070284707E+03  0.12499965053E+03 0.  0.
          5    1    3    3  502    0 -0.92097483209E+02 -0.72642838330E+02 -0.20810476329E+03  0.23893223072E+03  0.47000000000E+01 0.  1.
         -5    1    3    3    0  502 -0.21889202089E+03  0.15276289440E+02 -0.27490615616E+03  0.35177061635E+03  0.47000000000E+01 0.  1.
        -11    1    1    2    0    0  0.19683376147E+03  0.69646672959E+02 -0.29194711125E+03  0.35892520736E+03  0.00000000000E+00 0. -1.
         11    1    1    2    0    0  0.11415574263E+03 -0.12280124069E+02 -0.95865669787E+02  0.14957460234E+03  0.00000000000E+00 0.  1.
<mgrwt>
<rscale>  0 0.33722277E+03</rscale>
<asrwt>0</asrwt>
<pdfrwt beam="2">  1        1 0.15154048E+00 0.34004456E+03</pdfrwt>
<pdfrwt beam="1">  1       -1 0.17567613E-01 0.34004456E+03</pdfrwt>
<totfact> 0.40853836E+02</totfact>
</mgrwt>
</event>
<event>
 7    1  0.6419647E-006  0.1707669E+03  0.7546771E-02  0.1184298E+00
         -2   -1    0    0    0  501 -0.00000000000E+00  0.00000000000E+00  0.10175134506E+03  0.10175134506E+03  0.00000000000E+00 0.  1.
          2   -1    0    0  501    0  0.00000000000E+00 -0.00000000000E+00 -0.27129892691E+03  0.27129892691E+03  0.00000000000E+00 0. -1.
         23    2    1    2    0    0  0.10827699586E+03  0.42569712518E+02 -0.14870947528E+03  0.22644172791E+03  0.12500103939E+03 0.  0.
          5    1    3    3  502    0  0.87856982928E+02  0.71178897989E+02 -0.15344606710E+03  0.19066481185E+03  0.47000000000E+01 0.  1.
         -5    1    3    3    0  502  0.20420012927E+02 -0.28609185471E+02  0.47365918202E+01  0.35776916068E+02  0.47000000000E+01 0.  1.
        -11    1    1    2    0    0 -0.51379574508E+02 -0.70539130119E+01  0.32248048228E+02  0.61070082527E+02  0.00000000000E+00 0.  1.
         11    1    1    2    0    0 -0.56897421347E+02 -0.35515799506E+02 -0.53086154790E+02  0.85538461530E+02  0.00000000000E+00 0. -1.
<mgrwt>
<rscale>  0 0.16395880E+03</rscale>
<asrwt>0</asrwt>
<pdfrwt beam="2">  1        2 0.41738297E-01 0.17076694E+03</pdfrwt>
<pdfrwt beam="1">  1       -2 0.15654053E-01 0.17076694E+03</pdfrwt>
<totfact> 0.37898781E+03</totfact>
</mgrwt>
</event>
<event>
 7    1  0.6419647E-006  0.1585536E+03  0.7546771E-02  0.1196803E+00
         -1   -1    0    0    0  501 -0.00000000000E+00  0.00000000000E+00  0.24937083619E+02  0.24937083619E+02  0.00000000000E+00 0.  1.
          1   -1    0    0  501    0  0.00000000000E+00 -0.00000000000E+00 -0.10179135298E+04  0.10179135298E+04  0.00000000000E+00 0. -1.
         23    2    1    2    0    0  0.37722163912E+02 -0.89959899344E+02 -0.71897905234E+03  0.73625410437E+03  0.12499393328E+03 0.  0.
          5    1    3    3  502    0  0.32468593093E+02 -0.11659448265E+03 -0.66168882272E+03  0.67268318772E+03  0.47000000000E+01 0.  1.
         -5    1    3    3    0  502  0.52535708198E+01  0.26634583308E+02 -0.57290229620E+02  0.63570916654E+02  0.47000000000E+01 0.  1.
        -11    1    1    2    0    0  0.21835957117E+02  0.24101323435E+02 -0.21615870187E+02  0.39050334934E+02  0.00000000000E+00 0.  1.
         11    1    1    2    0    0 -0.59558121029E+02  0.65858575909E+02 -0.25238152363E+03  0.26754617409E+03  0.00000000000E+00 0. -1.
<mgrwt>
<rscale>  0 0.15302654E+03</rscale>
<asrwt>0</asrwt>
<pdfrwt beam="2">  1        1 0.15660210E+00 0.15855355E+03</pdfrwt>
<pdfrwt beam="1">  1       -1 0.38364741E-02 0.15855355E+03</pdfrwt>
<totfact> 0.39974685E+03</totfact>
</mgrwt>
</event>
<event>
 7    1  0.6419647E-006  0.1257665E+03  0.7546771E-02  0.1249610E+00
         -1   -1    0    0    0  501 -0.00000000000E+00  0.00000000000E+00  0.41736640672E+02  0.41736640672E+02  0.00000000000E+00 0.  1.
          1   -1    0    0  501    0  0.00000000000E+00 -0.00000000000E+00 -0.29275518486E+03  0.29275518486E+03  0.00000000000E+00 0. -1.
         23    2    1    2    0    0 -0.10032297004E+02 -0.94535576524E+01 -0.17538833782E+03  0.21582003166E+03  0.12500880084E+03 0.  0.
          5    1    3    3  502    0  0.26754908974E+02  0.44861669038E+02 -0.11558642195E+03  0.12692795375E+03  0.47000000000E+01 0.  1.
         -5    1    3    3    0  502 -0.36787205978E+02 -0.54315226691E+02 -0.59801915864E+02  0.88892077910E+02  0.47000000000E+01 0.  1.
        -11    1    1    2    0    0 -0.22519251635E+02  0.22064019647E+02 -0.77546702671E+02  0.83710386168E+02  0.00000000000E+00 0. -1.
         11    1    1    2    0    0  0.32551548639E+02 -0.12610461995E+02  0.19164963013E+01  0.34961407703E+02  0.00000000000E+00 0.  1.
<mgrwt>
<rscale>  0 0.11613670E+03</rscale>
<asrwt>0</asrwt>
<pdfrwt beam="2">  1        1 0.45039258E-01 0.12576652E+03</pdfrwt>
<pdfrwt beam="1">  1       -1 0.64210218E-02 0.12576652E+03</pdfrwt>
<totfact> 0.10235127E+04</totfact>
</mgrwt>
</event>
<event>
 7    1  0.6419647E-006  0.1925976E+03  0.7546771E-02  0.1160987E+00
         -2   -1    0    0    0  501 -0.00000000000E+00  0.00000000000E+00  0.87926069505E+03  0.87926069505E+03  0.00000000000E+00 0.  1.
          2   -1    0    0  501    0  0.00000000000E+00 -0.00000000000E+00 -0.38317973640E+02  0.38317973640E+02  0.00000000000E+00 0. -1.
         23    2    1    2    0    0  0.12645236577E+03  0.74012214786E+02  0.49739491757E+03  0.53338123890E+03  0.12500333292E+03 0.  0.
          5    1    3    3  502    0  0.13488284165E+02  0.78156499478E+02  0.20772033180E+03  0.22239648933E+03  0.47000000000E+01 0.  1.
         -5    1    3    3    0  502  0.11296408160E+03 -0.41442846921E+01  0.28967458577E+03  0.31098474957E+03  0.47000000000E+01 0.  1.
        -11    1    1    2    0    0 -0.13617838873E+03 -0.77643555702E+02  0.33763343985E+03  0.37224913029E+03  0.00000000000E+00 0.  1.
         11    1    1    2    0    0  0.97260229613E+01  0.36313409164E+01  0.59143639916E+01  0.11948299499E+02  0.00000000000E+00 0. -1.
<mgrwt>
<rscale>  0 0.18722665E+03</rscale>
<asrwt>0</asrwt>
<pdfrwt beam="2">  1        2 0.58950735E-02 0.19259762E+03</pdfrwt>
<pdfrwt beam="1">  1       -2 0.13527086E+00 0.19259762E+03</pdfrwt>
<totfact> 0.51744546E+02</totfact>
</mgrwt>
</event>
<event>
 6    1  0.6419647E-006  0.3466953E+03  0.7546771E-02  0.1105317E+00
         -1   -1    0    0    0  501 -0.00000000000E+00  0.00000000000E+00  0.16478247992E+03  0.16478247992E+03  0.00000000000E+00 0.  1.
          1   -1    0    0  501    0  0.00000000000E+00 -0.00000000000E+00 -0.39216258228E+03  0.39216258228E+03  0.00000000000E+00 0. -1.
          5    1    1    2  502    0 -0.92849678383E+02  0.15773590020E+03 -0.15729146609E+03  0.24138014064E+03  0.47000000000E+01 0. -1.
         -5    1    1    2    0  502  0.19966344738E+02 -0.16122248948E+03 -0.10732810300E+03  0.19476333775E+03  0.47000000000E+01 0.  1.
        -11    1    1    2    0    0  0.39435945665E+02 -0.65366729692E+01 -0.26615130927E+02  0.48023818031E+02  0.00000000000E+00 0. -1.
         11    1    1    2    0    0  0.33447387981E+02  0.10023262246E+02  0.63854597666E+02  0.72777765780E+02  0.00000000000E+00 0.  1.
<mgrwt>
<rscale>  0 0.26306215E+03</rscale>
<asrwt>0</asrwt>
<pdfrwt beam="2">  1        1 0.60332704E-01 0.34669528E+03</pdfrwt>
<pdfrwt beam="1">  1       -1 0.25351151E-01 0.34669528E+03</pdfrwt>
<totfact> 0.84756283E+02</totfact>
</mgrwt>
</event>
<event>
 7    1  0.1300017E-005  0.2429183E+03  0.7546771E-02  0.1120417E+00
          1   -1    0    0  501    0  0.00000000000E+00  0.00000000000E+00  0.20916188601E+04  0.20916188601E+04  0.00000000000E+00 0. -1.
         -1   -1    0    0    0  501 -0.00000000000E+00 -0.00000000000E+00 -0.28115877046E+02  0.28115877046E+02  0.00000000000E+00 0.  1.
         23    2    1    2    0    0 -0.19740039310E+03 -0.66467740313E+02  0.13174731616E+04  0.13396808626E+04  0.12499762560E+03 0.  0.
          5    1    3    3  502    0 -0.69332067178E+02  0.57128647460E+00  0.77995849835E+03  0.78304828143E+03  0.47000000000E+01 0. -1.
         -5    1    3    3    0  502 -0.12806832592E+03 -0.67039026787E+02  0.53751466323E+03  0.55663258116E+03  0.47000000000E+01 0. -1.
        -11    1    1    2    0    0  0.66951869477E+02  0.32190516193E+02  0.13279935063E+03  0.15216586242E+03  0.00000000000E+00 0. -1.
         11    1    1    2    0    0  0.13044852362E+03  0.34277224120E+02  0.61323047082E+03  0.62788801211E+03  0.00000000000E+00 0.  1.
<mgrwt>
<rscale>  0 0.23906482E+03</rscale>
<asrwt>0</asrwt>
<pdfrwt beam="1">  1        1 0.32178739E+00 0.24291826E+03</pdfrwt>
<pdfrwt beam="2">  1       -1 0.43255212E-02 0.24291826E+03</pdfrwt>
<totfact> 0.64570382E+02</totfact>
</mgrwt>
</event>
<event>
 7    1  0.6419647E-006  0.1374487E+03  0.7546771E-02  0.1228441E+00
         -2   -1    0    0    0  501 -0.00000000000E+00  0.00000000000E+00  0.17759481322E+02  0.17759481322E+02  0.00000000000E+00 0.  1.
          2   -1    0    0  501    0  0.00000000000E+00 -0.00000000000E+00 -0.88613680158E+03  0.88613680158E+03  0.00000000000E+00 0. -1.
         23    2    1    2    0    0  0.13793333132E+01  0.57142479242E+02 -0.57935861936E+03  0.59543979893E+03  0.12499991531E+03 0.  0.
          5    1    3    3  502    0  0.85404994099E+01  0.50923629405E+02 -0.76181351121E+02  0.92151204119E+02  0.47000000000E+01 0. -1.
         -5    1    3    3    0  502 -0.71611660967E+01  0.62188498370E+01 -0.50317726824E+03  0.50328859481E+03  0.47000000000E+01 0. -1.
        -11    1    1    2    0    0  0.39603610727E+02 -0.41990131607E+02 -0.21393162698E+03  0.22158149326E+03  0.00000000000E+00 0. -1.
         11    1    1    2    0    0 -0.40982944040E+02 -0.15152347636E+02 -0.75087073923E+02  0.86874990713E+02  0.00000000000E+00 0.  1.
<mgrwt>
<rscale>  0 0.12933805E+03</rscale>
<asrwt>0</asrwt>
<pdfrwt beam="2">  1        2 0.13632869E+00 0.13744870E+03</pdfrwt>
<pdfrwt beam="1">  1       -2 0.27322289E-02 0.13744870E+03</pdfrwt>
<totfact> 0.14452474E+04</totfact>
</mgrwt>
</event>
<event>
 7    1  0.6419647E-006  0.1653223E+03  0.7546771E-02  0.1190251E+00
         -2   -1    0    0    0  501 -0.00000000000E+00  0.00000000000E+00  0.33010984655E+02  0.33010984655E+02  0.00000000000E+00 0.  1.
          2   -1    0    0  501    0  0.00000000000E+00 -0.00000000000E+00 -0.73095035558E+03  0.73095035558E+03  0.00000000000E+00 0. -1.
         23    2    1    2    0    0 -0.97127465458E+02 -0.47665946592E+02 -0.44622455860E+03  0.47586535206E+03  0.12500275832E+03 0.  0.
          5    1    3    3  502    0 -0.19616003320E+02 -0.78843707564E+02 -0.20667393998E+03  0.22212006950E+03  0.47000000000E+01 0. -1.
         -5    1    3    3    0  502 -0.77511462138E+02  0.31177760972E+02 -0.23955061862E+03  0.25374528256E+03  0.47000000000E+01 0. -1.
        -11    1    1    2    0    0  0.87468545724E+02  0.72370686261E+02 -0.20791613355E+03  0.23689107478E+03  0.00000000000E+00 0. -1.
         11    1    1    2    0    0  0.96589197342E+01 -0.24704739669E+02 -0.43798678772E+02  0.51204913385E+02  0.00000000000E+00 0.  1.
<mgrwt>
<rscale>  0 0.15863114E+03</rscale>
<asrwt>0</asrwt>
<pdfrwt beam="2">  1        2 0.11245389E+00 0.16532234E+03</pdfrwt>
<pdfrwt beam="1">  1       -2 0.50786133E-02 0.16532234E+03</pdfrwt>
<totfact> 0.74011751E+03</totfact>
</mgrwt>
</event>
<event>
 7    1  0.6419647E-006  0.1872430E+03  0.7546771E-02  0.1166213E+00
         -2   -1    0    0    0  501 -0.00000000000E+00  0.00000000000E+00  0.21288102316E+02  0.21288102316E+02  0.00000000000E+00 0.  1.
          2   -1    0    0  501    0  0.00000000000E+00 -0.00000000000E+00 -0.15041754128E+04  0.15041754128E+04  0.00000000000E+00 0. -1.
         23    2    1    2    0    0  0.41957600954E+02  0.13294682351E+03 -0.90917430532E+03  0.92825527266E+03  0.12499854248E+03 0.  0.
          5    1    3    3  502    0  0.42102598681E+02 -0.10506537732E+02 -0.20182914394E+03  0.20649481712E+03  0.47000000000E+01 0. -1.
         -5    1    3    3    0  502 -0.14499772693E+00  0.14345336124E+03 -0.70734516137E+03  0.72176045555E+03  0.47000000000E+01 0. -1.
        -11    1    1    2    0    0 -0.15426112414E+02 -0.56172713248E+02 -0.93412768284E+02  0.11008761936E+03  0.00000000000E+00 0. -1.
         11    1    1    2    0    0 -0.26531488540E+02 -0.76774110261E+02 -0.48030023690E+03  0.48712062311E+03  0.00000000000E+00 0.  1.
<mgrwt>
<rscale>  0 0.18165301E+03</rscale>
<asrwt>0</asrwt>
<pdfrwt beam="2">  1        2 0.23141159E+00 0.18724298E+03</pdfrwt>
<pdfrwt beam="1">  1       -2 0.32750928E-02 0.18724298E+03</pdfrwt>
<totfact> 0.50077096E+03</totfact>
</mgrwt>
</event>
<event>
 7    1  0.6419647E-006  0.2879976E+03  0.7546771E-02  0.1093134E+00
         -1   -1    0    0    0  501 -0.00000000000E+00  0.00000000000E+00  0.29291863479E+03  0.29291863479E+03  0.00000000000E+00 0.  1.
          1   -1    0    0  501    0  0.00000000000E+00 -0.00000000000E+00 -0.28724851955E+03  0.28724851955E+03  0.00000000000E+00 0. -1.
         23    2    1    2    0    0 -0.21645069324E+03 -0.14306445251E+03 -0.66789063237E+02  0.29564064796E+03  0.12499709431E+03 0.  0.
          5    1    3    3  502    0 -0.17872758686E+02 -0.75974158446E+02 -0.22406533078E+02  0.81336652127E+02  0.47000000000E+01 0. -1.
         -5    1    3    3    0  502 -0.19857793455E+03 -0.67090294068E+02 -0.44382530159E+02  0.21430399584E+03  0.47000000000E+01 0. -1.
        -11    1    1    2    0    0  0.19340998551E+03  0.85062758649E+02  0.67978635707E+02  0.22195537911E+03  0.00000000000E+00 0.  1.
         11    1    1    2    0    0  0.23040707730E+02  0.58001693865E+02  0.44805427655E+01  0.62571127266E+02  0.00000000000E+00 0. -1.
<mgrwt>
<rscale>  0 0.28472934E+03</rscale>
<asrwt>0</asrwt>
<pdfrwt beam="2">  1        1 0.44192080E-01 0.28799759E+03</pdfrwt>
<pdfrwt beam="1">  1       -1 0.45064406E-01 0.28799759E+03</pdfrwt>
<totfact> 0.46280925E+02</totfact>
</mgrwt>
</event>
<event>
 7    1  0.6419647E-006  0.1323483E+03  0.7546771E-02  0.1237195E+00
          2   -1    0    0  501    0  0.00000000000E+00  0.00000000000E+00  0.12370515791E+04  0.12370515791E+04  0.00000000000E+00 0. -1.
         -2   -1    0    0    0  501 -0.00000000000E+00 -0.00000000000E+00 -0.11467099065E+02  0.11467099065E+02  0.00000000000E+00 0.  1.
         23    2    1    2    0    0  0.15942320227E+01 -0.43410382363E+02  0.81851855442E+03  0.82914938868E+03  0.12501632673E+03 0.  0.
          5    1    3    3  502    0 -0.57052139202E+02 -0.30159013284E+02  0.55813312516E+03  0.56187114899E+03  0.47000000000E+01 0. -1.
         -5    1    3    3    0  502  0.58646371225E+02 -0.13251369079E+02  0.26038542927E+03  0.26727823969E+03  0.47000000000E+01 0. -1.
        -11    1    1    2    0    0 -0.44918702010E+02  0.28667335716E+02  0.17927992133E+03  0.18703153777E+03  0.00000000000E+00 0. -1.
         11    1    1    2    0    0  0.43324469988E+02  0.14743046647E+02  0.22778600425E+03  0.23233775168E+03  0.00000000000E+00 0.  1.
<mgrwt>
<rscale>  0 0.12364967E+03</rscale>
<asrwt>0</asrwt>
<pdfrwt beam="1">  1        2 0.19031552E+00 0.13234835E+03</pdfrwt>
<pdfrwt beam="2">  1       -2 0.17641701E-02 0.13234835E+03</pdfrwt>
<totfact> 0.16993497E+04</totfact>
</mgrwt>
</event>
<event>
 7    1  0.6419647E-006  0.1326840E+03  0.7546771E-02  0.1238988E+00
         -3   -1    0    0    0  501 -0.00000000000E+00  0.00000000000E+00  0.56935099662E+03  0.56935099662E+03  0.00000000000E+00 0.  1.
          3   -1    0    0  501    0  0.00000000000E+00 -0.00000000000E+00 -0.23589228263E+02  0.23589228263E+02  0.00000000000E+00 0. -1.
         23    2    1    2    0    0 -0.29283317741E+02 -0.33719260193E+02  0.27117510568E+03  0.30189562537E+03  0.12494210447E+03 0.  0.
          5    1    3    3  502    0 -0.24898419583E+02 -0.19309594126E+02  0.28133255157E+03  0.28313051106E+03  0.47000000000E+01 0. -1.
         -5    1    3    3    0  502 -0.43848981582E+01 -0.14409666067E+02 -0.10157445887E+02  0.18765114307E+02  0.47000000000E+01 0. -1.
        -11    1    1    2    0    0 -0.29843993589E+02  0.10309442499E+02  0.11495272398E+03  0.11921022317E+03  0.00000000000E+00 0.  1.
         11    1    1    2    0    0  0.59127311330E+02  0.23409817694E+02  0.15963393869E+03  0.17183437634E+03  0.00000000000E+00 0. -1.
<mgrwt>
<rscale>  0 0.12252576E+03</rscale>
<asrwt>0</asrwt>
<pdfrwt beam="2">  1        3 0.36291125E-02 0.13268395E+03</pdfrwt>
<pdfrwt beam="1">  1       -3 0.87592451E-01 0.13268395E+03</pdfrwt>
<totfact> 0.10615123E+03</totfact>
</mgrwt>
</event>
<event>
 7    1  0.6419647E-006  0.1359282E+03  0.7546771E-02  0.1231370E+00
         -2   -1    0    0    0  501 -0.00000000000E+00  0.00000000000E+00  0.77436674540E+02  0.77436674540E+02  0.00000000000E+00 0.  1.
          2   -1    0    0  501    0  0.00000000000E+00 -0.00000000000E+00 -0.22436555574E+03  0.22436555574E+03  0.00000000000E+00 0. -1.
         23    2    1    2    0    0 -0.45582374479E+02 -0.27836400767E+02 -0.14234061683E+03  0.19681798549E+03  0.12499540048E+03 0.  0.
          5    1    3    3  502    0 -0.67631614005E+02 -0.39212641242E+02 -0.33665247573E+02  0.85247318669E+02  0.47000000000E+01 0.  1.
         -5    1    3    3    0  502  0.22049239527E+02  0.11376240475E+02 -0.10867536926E+03  0.11157066682E+03  0.47000000000E+01 0.  1.
        -11    1    1    2    0    0  0.35874085310E+02  0.35575838853E+01 -0.44499920583E+02  0.57269968847E+02  0.00000000000E+00 0. -1.
         11    1    1    2    0    0  0.97082891691E+01  0.24278816882E+02  0.39911656211E+02  0.47714275948E+02  0.00000000000E+00 0.  1.
<mgrwt>
<rscale>  0 0.12739704E+03</rscale>
<asrwt>0</asrwt>
<pdfrwt beam="2">  1        2 0.34517778E-01 0.13592817E+03</pdfrwt>
<pdfrwt beam="1">  1       -2 0.11913334E-01 0.13592817E+03</pdfrwt>
<totfact> 0.71382434E+03</totfact>
</mgrwt>
</event>
<event>
 6    1  0.6419647E-006  0.1548447E+03  0.7546771E-02  0.1219177E+00
         -1   -1    0    0    0  501 -0.00000000000E+00  0.00000000000E+00  0.37740487654E+02  0.37740487654E+02  0.00000000000E+00 0.  1.
          1   -1    0    0  501    0  0.00000000000E+00 -0.00000000000E+00 -0.43587112917E+03  0.43587112917E+03  0.00000000000E+00 0. -1.
          5    1    1    2  502    0  0.64466672113E+02  0.53636342644E+02 -0.14560941020E+03  0.16809818382E+03  0.47000000000E+01 0. -1.
         -5    1    1    2    0  502 -0.54254128814E+02 -0.42902101757E+02 -0.16483676735E+03  0.17882212028E+03  0.47000000000E+01 0.  1.
        -11    1    1    2    0    0 -0.35442867238E+02 -0.39506439307E+02 -0.47981149743E+02  0.71548209729E+02  0.00000000000E+00 0.  1.
         11    1    1    2    0    0  0.25230323939E+02  0.28772198420E+02 -0.39703314220E+02  0.55143102996E+02  0.00000000000E+00 0. -1.
<mgrwt>
<rscale>  0 0.13574122E+03</rscale>
<asrwt>0</asrwt>
<pdfrwt beam="2">  1        1 0.67057104E-01 0.15484466E+03</pdfrwt>
<pdfrwt beam="1">  1       -1 0.58062283E-02 0.15484466E+03</pdfrwt>
<totfact> 0.73302676E+03</totfact>
</mgrwt>
</event>
<event>
 7    1  0.6419647E-006  0.1390924E+03  0.7546771E-02  0.1224459E+00
         -3   -1    0    0    0  501 -0.00000000000E+00  0.00000000000E+00  0.49936005251E+03  0.49936005251E+03  0.00000000000E+00 0.  1.
          3   -1    0    0  501    0  0.00000000000E+00 -0.00000000000E+00 -0.32380683679E+02  0.32380683679E+02  0.00000000000E+00 0. -1.
         23    2    1    2    0    0 -0.58990874753E+02 -0.15520888209E+02  0.22202602845E+03  0.26199665194E+03  0.12500346812E+03 0.  0.
          5    1    3    3  502    0 -0.71923852561E+02 -0.34576073694E+02  0.64474398778E+02  0.10270142909E+03  0.47000000000E+01 0.  1.
         -5    1    3    3    0  502  0.12932977808E+02  0.19055185485E+02  0.15755162967E+03  0.15929522285E+03  0.47000000000E+01 0.  1.
        -11    1    1    2    0    0  0.65702071162E+02  0.38879430908E+02  0.22709716162E+03  0.23958608707E+03  0.00000000000E+00 0.  1.
         11    1    1    2    0    0 -0.67111964097E+01 -0.23358542698E+02  0.17856178767E+02  0.30157997188E+02  0.00000000000E+00 0. -1.
<mgrwt>
<rscale>  0 0.13204066E+03</rscale>
<asrwt>0</asrwt>
<pdfrwt beam="2">  1        3 0.49816440E-02 0.13909237E+03</pdfrwt>
<pdfrwt beam="1">  1       -3 0.76824618E-01 0.13909237E+03</pdfrwt>
<totfact> 0.86583406E+02</totfact>
</mgrwt>
</event>
<event>
 7    1  0.6419647E-006  0.1570473E+03  0.7546771E-02  0.1200451E+00
         -2   -1    0    0    0  501 -0.00000000000E+00  0.00000000000E+00  0.13985046642E+02  0.13985046642E+02  0.00000000000E+00 0. -1.
          2   -1    0    0  501    0  0.00000000000E+00 -0.00000000000E+00 -0.15160244804E+04  0.15160244804E+04  0.00000000000E+00 0.  1.
         23    2    1    2    0    0  0.94847097779E+02  0.66136260625E+01 -0.93419430452E+03  0.94730294100E+03  0.12499660563E+03 0.  0.
          5    1    3    3  502    0  0.76902514137E+02  0.50224865038E+02 -0.79412997348E+03  0.79943795165E+03  0.47000000000E+01 0. -1.
         -5    1    3    3    0  502  0.17944583643E+02 -0.43611238976E+02 -0.14006433104E+03  0.14786498935E+03  0.47000000000E+01 0. -1.
        -11    1    1    2    0    0 -0.78701379400E+02  0.24474311819E+02 -0.49571523769E+03  0.50252014481E+03  0.00000000000E+00 0.  1.
         11    1    1    2    0    0 -0.16145718379E+02 -0.31087937881E+02 -0.72129891555E+02  0.80186441244E+02  0.00000000000E+00 0. -1.
<mgrwt>
<rscale>  0 0.15001817E+03</rscale>
<asrwt>0</asrwt>
<pdfrwt beam="2">  1        2 0.23323444E+00 0.15704733E+03</pdfrwt>
<pdfrwt beam="1">  1       -2 0.21515465E-02 0.15704733E+03</pdfrwt>
<totfact> 0.91196864E+03</totfact>
</mgrwt>
</event>
<event>
 7    1  0.6419647E-006  0.1487089E+03  0.7546771E-02  0.1211272E+00
          2   -1    0    0  501    0  0.00000000000E+00  0.00000000000E+00  0.39907178899E+03  0.39907178899E+03  0.00000000000E+00 0.  1.
         -2   -1    0    0    0  501 -0.00000000000E+00 -0.00000000000E+00 -0.46024595458E+02  0.46024595458E+02  0.00000000000E+00 0. -1.
         23    2    1    2    0    0 -0.64900054556E+02 -0.47718999600E+02  0.18343350563E+03  0.23614020446E+03  0.12500090068E+03 0.  0.
          5    1    3    3  502    0 -0.22912210242E+02 -0.87032463173E+02  0.12408276868E+03  0.15335658612E+03  0.47000000000E+01 0.  1.
         -5    1    3    3    0  502 -0.41987844314E+02  0.39313463573E+02  0.59350736954E+02  0.82783618339E+02  0.47000000000E+01 0.  1.
        -11    1    1    2    0    0  0.92081170780E+01  0.41515216643E+02  0.13845797227E+03  0.14484099115E+03  0.00000000000E+00 0.  1.
         11    1    1    2    0    0  0.55691937478E+02  0.62037829572E+01  0.31155715633E+02  0.64115188837E+02  0.00000000000E+00 0. -1.
<mgrwt>
<rscale>  0 0.14153986E+03</rscale>
<asrwt>0</asrwt>
<pdfrwt beam="1">  1        2 0.61395657E-01 0.14870893E+03</pdfrwt>
<pdfrwt beam="2">  1       -2 0.70807073E-02 0.14870893E+03</pdfrwt>
<totfact> 0.87720997E+03</totfact>
</mgrwt>
</event>
<event>
 7    1  0.6419647E-006  0.1429750E+03  0.7546771E-02  0.1220649E+00
          2   -1    0    0  501    0  0.00000000000E+00  0.00000000000E+00  0.41403019707E+03  0.41403019707E+03  0.00000000000E+00 0. -1.
         -2   -1    0    0    0  501 -0.00000000000E+00 -0.00000000000E+00 -0.41954476102E+02  0.41954476102E+02  0.00000000000E+00 0.  1.
         23    2    1    2    0    0 -0.69192854154E+02  0.54502498033E+01  0.26214662920E+03  0.29860123550E+03  0.12499794539E+03 0.  0.
          5    1    3    3  502    0  0.31213730094E+02  0.69400519916E+01  0.24466066240E+02  0.40535659182E+02  0.47000000000E+01 0.  1.
         -5    1    3    3    0  502 -0.10040658425E+03 -0.14898021883E+01  0.23768056296E+03  0.25806557631E+03  0.47000000000E+01 0.  1.
        -11    1    1    2    0    0  0.20409125244E+01  0.33671016783E+02  0.44179020911E+02  0.55584967246E+02  0.00000000000E+00 0. -1.
         11    1    1    2    0    0  0.67151941630E+02 -0.39121266586E+02  0.65750070859E+02  0.10179847043E+03  0.00000000000E+00 0.  1.
<mgrwt>
<rscale>  0 0.13469669E+03</rscale>
<asrwt>0</asrwt>
<pdfrwt beam="1">  1        2 0.63696951E-01 0.14297497E+03</pdfrwt>
<pdfrwt beam="2">  1       -2 0.64545351E-02 0.14297497E+03</pdfrwt>
<totfact> 0.96899965E+03</totfact>
</mgrwt>
</event>
<event>
 7    1  0.6419647E-006  0.1346344E+03  0.7546771E-02  0.1234053E+00
         -1   -1    0    0    0  501 -0.00000000000E+00  0.00000000000E+00  0.25490606344E+02  0.25490606344E+02  0.00000000000E+00 0.  1.
          1   -1    0    0  501    0  0.00000000000E+00 -0.00000000000E+00 -0.57306912270E+03  0.57306912270E+03  0.00000000000E+00 0. -1.
         23    2    1    2    0    0  0.28559180871E+02  0.41044674463E+02 -0.36952144815E+03  0.39328429202E+03  0.12500456629E+03 0.  0.
          5    1    3    3  502    0  0.71522777014E+02  0.36898479225E+02 -0.30528977466E+03  0.31575455960E+03  0.47000000000E+01 0. -1.
         -5    1    3    3    0  502 -0.42963596143E+02  0.41461952373E+01 -0.64231673492E+02  0.77529732413E+02  0.47000000000E+01 0. -1.
        -11    1    1    2    0    0 -0.31765666648E+02 -0.67786954550E+02 -0.12315146833E+03  0.14411943983E+03  0.00000000000E+00 0.  1.
         11    1    1    2    0    0  0.32064857769E+01  0.26742280088E+02 -0.54905599870E+02  0.61155997191E+02  0.00000000000E+00 0. -1.
<mgrwt>
<rscale>  0 0.12565271E+03</rscale>
<asrwt>0</asrwt>
<pdfrwt beam="2">  1        1 0.88164472E-01 0.13463444E+03</pdfrwt>
<pdfrwt beam="1">  1       -1 0.39216321E-02 0.13463444E+03</pdfrwt>
<totfact> 0.90759036E+03</totfact>
</mgrwt>
</event>
<event>
 7    1  0.6419647E-006  0.1792379E+03  0.7546771E-02  0.1174371E+00
         -1   -1    0    0    0  501 -0.00000000000E+00  0.00000000000E+00  0.44812876955E+03  0.44812876955E+03  0.00000000000E+00 0.  1.
          1   -1    0    0  501    0  0.00000000000E+00 -0.00000000000E+00 -0.71009224859E+02  0.71009224859E+02  0.00000000000E+00 0. -1.
         23    2    1    2    0    0 -0.12810493936E+03  0.96976413781E+01  0.11289516987E+03  0.21182908625E+03  0.12498528979E+03 0.  0.
          5    1    3    3  502    0 -0.61724722116E+02 -0.34640649337E+02 -0.30279854831E+01  0.71001229587E+02  0.47000000000E+01 0.  1.
         -5    1    3    3    0  502 -0.66380217241E+02  0.44338290715E+02  0.11592315536E+03  0.14082785666E+03  0.47000000000E+01 0.  1.
        -11    1    1    2    0    0  0.64172082933E+02  0.16060646408E+02  0.20828933501E+03  0.21854163829E+03  0.00000000000E+00 0.  1.
         11    1    1    2    0    0  0.63932856424E+02 -0.25758287786E+02  0.55935039806E+02  0.88767269860E+02  0.00000000000E+00 0. -1.
<mgrwt>
<rscale>  0 0.17337754E+03</rscale>
<asrwt>0</asrwt>
<pdfrwt beam="2">  1        1 0.10924496E-01 0.17923795E+03</pdfrwt>
<pdfrwt beam="1">  1       -1 0.68942886E-01 0.17923795E+03</pdfrwt>
<totfact> 0.12452474E+03</totfact>
</mgrwt>
</event>
<event>
 7    1  0.6419647E-006  0.3317214E+03  0.7546771E-02  0.1071638E+00
          3   -1    0    0  501    0  0.00000000000E+00  0.00000000000E+00  0.65026994666E+03  0.65026994666E+03  0.00000000000E+00 0. -1.
         -3   -1    0    0    0  501 -0.00000000000E+00 -0.00000000000E+00 -0.17832954747E+03  0.17832954747E+03  0.00000000000E+00 0.  1.
         23    2    1    2    0    0 -0.23021696157E+03  0.20350111676E+03  0.35905744255E+03  0.48883672703E+03  0.12500617875E+03 0.  0.
          5    1    3    3  502    0 -0.20901174898E+03  0.22056988397E+03  0.33355627727E+03  0.45124147087E+03  0.47000000000E+01 0.  1.
         -5    1    3    3    0  502 -0.21205212592E+02 -0.17068767212E+02  0.25501165279E+02  0.37595256161E+02  0.47000000000E+01 0.  1.
        -11    1    1    2    0    0  0.21060458345E+03 -0.13762524516E+03  0.92815104136E+02  0.26815973269E+03  0.00000000000E+00 0.  1.
         11    1    1    2    0    0  0.19612378116E+02 -0.65875871593E+02  0.20067852499E+02  0.71603034415E+02  0.00000000000E+00 0. -1.
<mgrwt>
<rscale>  0 0.32887012E+03</rscale>
<asrwt>0</asrwt>
<pdfrwt beam="1">  1        3 0.10004153E+00 0.33172142E+03</pdfrwt>
<pdfrwt beam="2">  1       -3 0.27435315E-01 0.33172142E+03</pdfrwt>
<totfact> 0.28818078E+01</totfact>
</mgrwt>
</event>
<event>
 7    1  0.6419647E-006  0.1340907E+03  0.7546771E-02  0.1233464E+00
          2   -1    0    0  501    0  0.00000000000E+00  0.00000000000E+00  0.13251615364E+03  0.13251615364E+03  0.00000000000E+00 0. -1.
         -2   -1    0    0    0  501 -0.00000000000E+00 -0.00000000000E+00 -0.10821533162E+03  0.10821533162E+03  0.00000000000E+00 0.  1.
         23    2    1    2    0    0  0.48169102388E+02 -0.58459430867E+01  0.23155856807E+02  0.13607537079E+03  0.12500350137E+03 0.  0.
          5    1    3    3  502    0  0.84065612851E+02  0.23567776301E+02  0.15962221325E+02  0.88878286738E+02  0.47000000000E+01 0. -1.
         -5    1    3    3    0  502 -0.35896510463E+02 -0.29413719387E+02  0.71936354816E+01  0.47197084053E+02  0.47000000000E+01 0. -1.
        -11    1    1    2    0    0 -0.60509442105E+02  0.33859576938E+02 -0.13630031874E+02  0.70665701038E+02  0.00000000000E+00 0.  1.
         11    1    1    2    0    0  0.12340339718E+02 -0.28013633852E+02  0.14774997090E+02  0.33990413427E+02  0.00000000000E+00 0. -1.
<mgrwt>
<rscale>  0 0.12603281E+03</rscale>
<asrwt>0</asrwt>
<pdfrwt beam="1">  1        2 0.20387101E-01 0.13409069E+03</pdfrwt>
<pdfrwt beam="2">  1       -2 0.16648513E-01 0.13409069E+03</pdfrwt>
<totfact> 0.73820393E+03</totfact>
</mgrwt>
</event>
<event>
 7    1  0.6419647E-006  0.1818513E+03  0.7546771E-02  0.1171458E+00
          3   -1    0    0  501    0  0.00000000000E+00  0.00000000000E+00  0.61943859059E+02  0.61943859059E+02  0.00000000000E+00 0. -1.
         -3   -1    0    0    0  501 -0.00000000000E+00 -0.00000000000E+00 -0.62935362988E+03  0.62935362988E+03  0.00000000000E+00 0.  1.
         23    2    1    2    0    0  0.11724841961E+03  0.60839459321E+02 -0.12503394319E+03  0.22068842256E+03  0.12498504386E+03 0.  0.
          5    1    3    3  502    0  0.12341919159E+02  0.42694109740E+02 -0.10242293112E+03  0.11174818474E+03  0.47000000000E+01 0. -1.
         -5    1    3    3    0  502  0.10490650045E+03  0.18145349581E+02 -0.22611012077E+02  0.10894023782E+03  0.47000000000E+01 0. -1.
        -11    1    1    2    0    0 -0.86240399150E+02 -0.53197843189E+02 -0.41887929325E+03  0.43096087906E+03  0.00000000000E+00 0.  1.
         11    1    1    2    0    0 -0.31008020459E+02 -0.76416161320E+01 -0.23496534376E+02  0.39648187318E+02  0.00000000000E+00 0. -1.
<mgrwt>
<rscale>  0 0.17627484E+03</rscale>
<asrwt>0</asrwt>
<pdfrwt beam="1">  1        3 0.95298249E-02 0.18185129E+03</pdfrwt>
<pdfrwt beam="2">  1       -3 0.96823631E-01 0.18185129E+03</pdfrwt>
<totfact> 0.18827841E+02</totfact>
</mgrwt>
</event>
<event>
 7    1  0.6419647E-006  0.1360649E+03  0.7546771E-02  0.1230728E+00
         -1   -1    0    0    0  501 -0.00000000000E+00  0.00000000000E+00  0.32240966767E+03  0.32240966767E+03  0.00000000000E+00 0.  1.
          1   -1    0    0  501    0  0.00000000000E+00 -0.00000000000E+00 -0.70649889230E+02  0.70649889230E+02  0.00000000000E+00 0. -1.
         23    2    1    2    0    0 -0.37691673418E+02 -0.38323751464E+02  0.19089468374E+02  0.13739746414E+03  0.12499713268E+03 0.  0.
          5    1    3    3  502    0 -0.56359841215E+02 -0.19479098078E+02 -0.40339869073E+02  0.72147501693E+02  0.47000000000E+01 0. -1.
         -5    1    3    3    0  502  0.18668167797E+02 -0.18844653386E+02  0.59429337447E+02  0.65249962448E+02  0.47000000000E+01 0. -1.
        -11    1    1    2    0    0  0.48796990567E+01  0.48871631885E+02  0.51202500314E+02  0.70950291786E+02  0.00000000000E+00 0. -1.
         11    1    1    2    0    0  0.32811974361E+02 -0.10547880422E+02  0.18146780976E+03  0.18471180098E+03  0.00000000000E+00 0.  1.
<mgrwt>
<rscale>  0 0.12781905E+03</rscale>
<asrwt>0</asrwt>
<pdfrwt beam="2">  1        1 0.10869214E-01 0.13606489E+03</pdfrwt>
<pdfrwt beam="1">  1       -1 0.49601487E-01 0.13606489E+03</pdfrwt>
<totfact> 0.23179324E+03</totfact>
</mgrwt>
</event>
<event>
 7    1  0.6419647E-006  0.1348508E+03  0.7546771E-02  0.1232293E+00
          2   -1    0    0  501    0  0.00000000000E+00  0.00000000000E+00  0.35803714163E+03  0.35803714163E+03  0.00000000000E+00 0. -1.
         -2   -1    0    0    0  501 -0.00000000000E+00 -0.00000000000E+00 -0.42654151135E+02  0.42654151135E+02  0.00000000000E+00 0.  1.
         23    2    1    2    0    0  0.10454972832E+02 -0.49496820913E+02  0.22267183244E+03  0.26032190363E+03  0.12500202723E+03 0.  0.
          5    1    3    3  502    0 -0.45837437124E+02  0.19825573735E+01  0.35668372780E+02  0.58303721944E+02  0.47000000000E+01 0. -1.
         -5    1    3    3    0  502  0.56292409955E+02 -0.51479378286E+02  0.18700345966E+03  0.20201818168E+03  0.47000000000E+01 0. -1.
        -11    1    1    2    0    0  0.28435985071E+02  0.29499342617E+01 -0.11537765585E+01  0.28611860468E+02  0.00000000000E+00 0.  1.
         11    1    1    2    0    0 -0.38890957903E+02  0.46546886651E+02  0.93864934615E+02  0.11175752867E+03  0.00000000000E+00 0. -1.
<mgrwt>
<rscale>  0 0.12679313E+03</rscale>
<asrwt>0</asrwt>
<pdfrwt beam="1">  1        2 0.55082635E-01 0.13485084E+03</pdfrwt>
<pdfrwt beam="2">  1       -2 0.65621773E-02 0.13485084E+03</pdfrwt>
<totfact> 0.10988033E+04</totfact>
</mgrwt>
</event>
<event>
 7    1  0.6419647E-006  0.1269144E+03  0.7546771E-02  0.1247213E+00
         -1   -1    0    0    0  501 -0.00000000000E+00  0.00000000000E+00  0.11276966488E+03  0.11276966488E+03  0.00000000000E+00 0.  1.
          1   -1    0    0  501    0  0.00000000000E+00 -0.00000000000E+00 -0.11930694366E+03  0.11930694366E+03  0.00000000000E+00 0. -1.
         23    2    1    2    0    0 -0.20562883028E+02 -0.77428590221E+01 -0.39725944910E+02  0.13298655619E+03  0.12499795760E+03 0.  0.
          5    1    3    3  502    0 -0.38219264222E+02 -0.60138496042E+02 -0.23336248485E+02  0.75126702025E+02  0.47000000000E+01 0.  1.
         -5    1    3    3    0  502  0.17656381195E+02  0.52395637019E+02 -0.16389696426E+02  0.57859854169E+02  0.47000000000E+01 0.  1.
        -11    1    1    2    0    0  0.10039225415E+02  0.30617882056E+02 -0.21600406909E+02  0.38791987925E+02  0.00000000000E+00 0. -1.
         11    1    1    2    0    0  0.10523657612E+02 -0.22875023034E+02  0.54789073041E+02  0.60298064422E+02  0.00000000000E+00 0.  1.
<mgrwt>
<rscale>  0 0.11753882E+03</rscale>
<asrwt>0</asrwt>
<pdfrwt beam="2">  1        1 0.18354914E-01 0.12691443E+03</pdfrwt>
<pdfrwt beam="1">  1       -1 0.17349179E-01 0.12691443E+03</pdfrwt>
<totfact> 0.68512875E+03</totfact>
</mgrwt>
</event>
<event>
 7    1  0.6419647E-006  0.1279376E+03  0.7546771E-02  0.1244523E+00
         -3   -1    0    0    0  501 -0.00000000000E+00  0.00000000000E+00  0.11573285552E+03  0.11573285552E+03  0.00000000000E+00 0. -1.
          3   -1    0    0  501    0  0.00000000000E+00 -0.00000000000E+00 -0.12187532431E+03  0.12187532431E+03  0.00000000000E+00 0.  1.
         23    2    1    2    0    0  0.98749924103E+01  0.25398517860E+02 -0.42415453036E+02  0.13478541156E+03  0.12500174531E+03 0.  0.
          5    1    3    3  502    0  0.32720768354E+02 -0.40129812425E+02  0.23919988914E+01  0.52046730787E+02  0.47000000000E+01 0. -1.
         -5    1    3    3    0  502 -0.22845775944E+02  0.65528330284E+02 -0.44807451927E+02  0.82738680776E+02  0.47000000000E+01 0. -1.
        -11    1    1    2    0    0  0.63537903121E+01 -0.36044106661E+02  0.61152399721E+02  0.71268255682E+02  0.00000000000E+00 0. -1.
         11    1    1    2    0    0 -0.16228782722E+02  0.10645588801E+02 -0.24879415479E+02  0.31554512580E+02  0.00000000000E+00 0.  1.
<mgrwt>
<rscale>  0 0.11913964E+03</rscale>
<asrwt>0</asrwt>
<pdfrwt beam="2">  1        3 0.18750050E-01 0.12793763E+03</pdfrwt>
<pdfrwt beam="1">  1       -3 0.17805055E-01 0.12793763E+03</pdfrwt>
<totfact> 0.15759637E+03</totfact>
</mgrwt>
</event>
<event>
 7    1  0.6419647E-006  0.1250776E+03  0.7546771E-02  0.1249658E+00
         -3   -1    0    0    0  501 -0.00000000000E+00  0.00000000000E+00  0.22444342562E+03  0.22444342562E+03  0.00000000000E+00 0.  1.
          3   -1    0    0  501    0  0.00000000000E+00 -0.00000000000E+00 -0.53053797138E+02  0.53053797138E+02  0.00000000000E+00 0. -1.
         23    2    1    2    0    0 -0.42892619908E+01  0.11945654197E+01  0.91298385533E+02  0.15485416859E+03  0.12499837429E+03 0.  0.
          5    1    3    3  502    0  0.31615532919E+02 -0.25690322315E+02 -0.11506694346E+02  0.42591414595E+02  0.47000000000E+01 0.  1.
         -5    1    3    3    0  502 -0.35904794910E+02  0.26884887735E+02  0.10280507988E+03  0.11226275400E+03  0.47000000000E+01 0.  1.
        -11    1    1    2    0    0  0.15729186499E+02 -0.41170192714E+02  0.64743642528E+02  0.78320695373E+02  0.00000000000E+00 0.  1.
         11    1    1    2    0    0 -0.11439924508E+02  0.39975627294E+02  0.15347600422E+02  0.44322358793E+02  0.00000000000E+00 0. -1.
<mgrwt>
<rscale>  0 0.11610888E+03</rscale>
<asrwt>0</asrwt>
<pdfrwt beam="2">  1        3 0.81621227E-02 0.12507765E+03</pdfrwt>
<pdfrwt beam="1">  1       -3 0.34529757E-01 0.12507765E+03</pdfrwt>
<totfact> 0.19223732E+03</totfact>
</mgrwt>
</event>
<event>
 7    1  0.6419647E-006  0.1337663E+03  0.7546771E-02  0.1236159E+00
         -2   -1    0    0    0  501 -0.00000000000E+00  0.00000000000E+00  0.48144533333E+02  0.48144533333E+02  0.00000000000E+00 0.  1.
          2   -1    0    0  501    0  0.00000000000E+00 -0.00000000000E+00 -0.37869815064E+03  0.37869815064E+03  0.00000000000E+00 0. -1.
         23    2    1    2    0    0  0.15003423111E+02 -0.38560242471E+02 -0.28962093142E+03  0.31901991111E+03  0.12720622925E+03 0.  0.
          5    1    3    3  502    0  0.10476722330E+02  0.17549314475E+02 -0.24792421333E+03  0.24880965758E+03  0.47000000000E+01 0. -1.
         -5    1    3    3    0  502  0.45267007817E+01 -0.56109556946E+02 -0.41696718089E+02  0.70210253525E+02  0.47000000000E+01 0.  1.
        -11    1    1    2    0    0 -0.45302388598E+02  0.99480439909E+01 -0.46620612372E+02  0.65762842775E+02  0.00000000000E+00 0.  1.
         11    1    1    2    0    0  0.30298965487E+02  0.28612198480E+02  0.56879264884E+01  0.42059930090E+02  0.00000000000E+00 0. -1.
<mgrwt>
<rscale>  0 0.12430521E+03</rscale>
<asrwt>0</asrwt>
<pdfrwt beam="2">  1        2 0.58261251E-01 0.13376629E+03</pdfrwt>
<pdfrwt beam="1">  1       -2 0.74068516E-02 0.13376629E+03</pdfrwt>
<totfact> 0.85961302E+03</totfact>
</mgrwt>
</event>
<event>
 7    1  0.6419647E-006  0.4107407E+03  0.7546771E-02  0.1040882E+00
         -2   -1    0    0    0  501 -0.00000000000E+00  0.00000000000E+00  0.16609157702E+03  0.16609157702E+03  0.00000000000E+00 0. -1.
          2   -1    0    0  501    0  0.00000000000E+00 -0.00000000000E+00 -0.11348656232E+04  0.11348656232E+04  0.00000000000E+00 0.  1.
         23    2    1    2    0    0  0.32367794546E+03  0.21980680232E+03 -0.71845909196E+03  0.82758164629E+03  0.12500188693E+03 0.  0.
          5    1    3    3  502    0  0.24622909343E+03  0.95484207227E+02 -0.45554002498E+03  0.52657839363E+03  0.47000000000E+01 0. -1.
         -5    1    3    3    0  502  0.77448852035E+02  0.12432259509E+03 -0.26291906698E+03  0.30100325266E+03  0.47000000000E+01 0. -1.
        -11    1    1    2    0    0 -0.21629123011E+03 -0.14001221772E+03 -0.21349917872E+03  0.33461502753E+03  0.00000000000E+00 0.  1.
         11    1    1    2    0    0 -0.10738671535E+03 -0.79794584598E+02 -0.36815775535E+02  0.13876052642E+03  0.00000000000E+00 0. -1.
<mgrwt>
<rscale>  0 0.40848185E+03</rscale>
<asrwt>0</asrwt>
<pdfrwt beam="2">  1        2 0.17459471E+00 0.41074069E+03</pdfrwt>
<pdfrwt beam="1">  1       -2 0.25552551E-01 0.41074069E+03</pdfrwt>
<totfact> 0.29544910E+02</totfact>
</mgrwt>
</event>
<event>
 7    1  0.6419647E-006  0.1668742E+03  0.7546771E-02  0.1188107E+00
         -2   -1    0    0    0  501 -0.00000000000E+00  0.00000000000E+00  0.53659545979E+02  0.53659545979E+02  0.00000000000E+00 0. -1.
          2   -1    0    0  501    0  0.00000000000E+00 -0.00000000000E+00 -0.59658918072E+03  0.59658918072E+03  0.00000000000E+00 0.  1.
         23    2    1    2    0    0  0.14034442686E+02 -0.10967003169E+03 -0.44963638954E+03  0.47960387778E+03  0.12499006100E+03 0.  0.
          5    1    3    3  502    0  0.32413390580E+02 -0.94091404980E+02 -0.44315394947E+03  0.45421507384E+03  0.47000000000E+01 0.  1.
         -5    1    3    3    0  502 -0.18378947893E+02 -0.15578626708E+02 -0.64824400720E+01  0.25388803931E+02  0.47000000000E+01 0.  1.
        -11    1    1    2    0    0 -0.33315148040E+02  0.47409029482E+02 -0.87851893826E+02  0.10524006088E+03  0.00000000000E+00 0. -1.
         11    1    1    2    0    0  0.19280705353E+02  0.62261002205E+02 -0.54413513799E+01  0.65404788046E+02  0.00000000000E+00 0.  1.
<mgrwt>
<rscale>  0 0.16052339E+03</rscale>
<asrwt>0</asrwt>
<pdfrwt beam="2">  1        2 0.91782950E-01 0.16687419E+03</pdfrwt>
<pdfrwt beam="1">  1       -2 0.82553148E-02 0.16687419E+03</pdfrwt>
<totfact> 0.44694286E+03</totfact>
</mgrwt>
</event>
<event>
 7    1  0.6419647E-006  0.1794899E+03  0.7546771E-02  0.1171749E+00
         -2   -1    0    0    0  501 -0.00000000000E+00  0.00000000000E+00  0.36775494826E+02  0.36775494826E+02  0.00000000000E+00 0.  1.
          2   -1    0    0  501    0  0.00000000000E+00 -0.00000000000E+00 -0.95342700966E+03  0.95342700966E+03  0.00000000000E+00 0. -1.
         23    2    1    2    0    0 -0.11376118796E+03  0.76183503447E+02 -0.66506435790E+03  0.68885936556E+03  0.11606503042E+03 0.  0.
          5    1    3    3  502    0 -0.49076151601E+02  0.99091277720E+02 -0.41620679190E+03  0.43067125931E+03  0.47000000000E+01 0. -1.
         -5    1    3    3    0  502 -0.64685036361E+02 -0.22907774273E+02 -0.24885756601E+03  0.25818810625E+03  0.47000000000E+01 0.  1.
        -11    1    1    2    0    0  0.31843167882E+02 -0.73093861140E+02 -0.15766594705E+03  0.17667838220E+03  0.00000000000E+00 0.  1.
         11    1    1    2    0    0  0.81918020080E+02 -0.30896423077E+01 -0.93921209875E+02  0.12466475672E+03  0.00000000000E+00 0. -1.
<mgrwt>
<rscale>  0 0.17598250E+03</rscale>
<asrwt>0</asrwt>
<pdfrwt beam="2">  1        2 0.14668107E+00 0.17948990E+03</pdfrwt>
<pdfrwt beam="1">  1       -2 0.56577687E-02 0.17948990E+03</pdfrwt>
<totfact> 0.44862328E+03</totfact>
</mgrwt>
</event>
<event>
 7    1  0.6419647E-006  0.1601128E+03  0.7546771E-02  0.1196288E+00
         -3   -1    0    0    0  501 -0.00000000000E+00  0.00000000000E+00  0.58641122961E+03  0.58641122961E+03  0.00000000000E+00 0.  1.
          3   -1    0    0  501    0  0.00000000000E+00 -0.00000000000E+00 -0.38194978971E+02  0.38194978971E+02  0.00000000000E+00 0. -1.
         23    2    1    2    0    0  0.64841026411E+02  0.76205343476E+02  0.34804758197E+03  0.38310995485E+03  0.12499802041E+03 0.  0.
          5    1    3    3  502    0  0.37809856517E+02 -0.84651274440E+01  0.21313929590E+02  0.44470408443E+02  0.47000000000E+01 0. -1.
         -5    1    3    3    0  502  0.27031169894E+02  0.84670470920E+02  0.32673365238E+03  0.33863954640E+03  0.47000000000E+01 0. -1.
        -11    1    1    2    0    0  0.15698194728E+02 -0.41983475330E+02  0.92202746053E+02  0.10252020239E+03  0.00000000000E+00 0.  1.
         11    1    1    2    0    0 -0.80539221139E+02 -0.34221868147E+02  0.10796592262E+03  0.13897605135E+03  0.00000000000E+00 0. -1.
<mgrwt>
<rscale>  0 0.15345683E+03</rscale>
<asrwt>0</asrwt>
<pdfrwt beam="2">  1        3 0.58761510E-02 0.16011283E+03</pdfrwt>
<pdfrwt beam="1">  1       -3 0.90217106E-01 0.16011283E+03</pdfrwt>
<totfact> 0.47767588E+02</totfact>
</mgrwt>
</event>
<event>
 7    1  0.6419647E-006  0.1449812E+03  0.7546771E-02  0.1216870E+00
          2   -1    0    0  501    0  0.00000000000E+00  0.00000000000E+00  0.14370413603E+03  0.14370413603E+03  0.00000000000E+00 0. -1.
         -2   -1    0    0    0  501 -0.00000000000E+00 -0.00000000000E+00 -0.15369173482E+03  0.15369173482E+03  0.00000000000E+00 0.  1.
         23    2    1    2    0    0  0.72615037294E+02  0.11030293640E+02  0.64556733196E+02  0.15870449950E+03  0.12499974137E+03 0.  0.
          5    1    3    3  502    0  0.10043277958E+03  0.31724777515E+02  0.64732553620E+02  0.12371579616E+03  0.47000000000E+01 0.  1.
         -5    1    3    3    0  502 -0.27817742285E+02 -0.20694483875E+02 -0.17582042380E+00  0.34988703341E+02  0.47000000000E+01 0.  1.
        -11    1    1    2    0    0 -0.56358613228E+02 -0.15220952256E+01 -0.95260646966E+02  0.11069417744E+03  0.00000000000E+00 0.  1.
         11    1    1    2    0    0 -0.16256424066E+02 -0.95081984143E+01  0.20716314981E+02  0.27997193911E+02  0.00000000000E+00 0. -1.
<mgrwt>
<rscale>  0 0.13740050E+03</rscale>
<asrwt>0</asrwt>
<pdfrwt beam="1">  1        2 0.22108329E-01 0.14498119E+03</pdfrwt>
<pdfrwt beam="2">  1       -2 0.23644882E-01 0.14498119E+03</pdfrwt>
<totfact> 0.37408374E+03</totfact>
</mgrwt>
</event>
<event>
 7    1  0.6419647E-006  0.1687849E+03  0.7546771E-02  0.1185447E+00
          1   -1    0    0  501    0  0.00000000000E+00  0.00000000000E+00  0.61004110371E+03  0.61004110371E+03  0.00000000000E+00 0. -1.
         -1   -1    0    0    0  501 -0.00000000000E+00 -0.00000000000E+00 -0.41287615309E+02  0.41287615309E+02  0.00000000000E+00 0.  1.
         23    2    1    2    0    0 -0.35023309788E+02 -0.10787173243E+03  0.34179800127E+03  0.38120099663E+03  0.12500153309E+03 0.  0.
          5    1    3    3  502    0  0.21846772039E+02  0.18688666096E+02  0.46078439228E+02  0.54514770941E+02  0.47000000000E+01 0. -1.
         -5    1    3    3    0  502 -0.56870081827E+02 -0.12656039852E+03  0.29571956205E+03  0.32668622569E+03  0.47000000000E+01 0. -1.
        -11    1    1    2    0    0 -0.17914289128E+02  0.71055972185E+02  0.74034514644E+02  0.10416804835E+03  0.00000000000E+00 0.  1.
         11    1    1    2    0    0  0.52937598917E+02  0.36815760241E+02  0.15292097249E+03  0.16595967404E+03  0.00000000000E+00 0. -1.
<mgrwt>
<rscale>  0 0.16291246E+03</rscale>
<asrwt>0</asrwt>
<pdfrwt beam="1">  1        1 0.93852471E-01 0.16878485E+03</pdfrwt>
<pdfrwt beam="2">  1       -1 0.63519412E-02 0.16878485E+03</pdfrwt>
<totfact> 0.41245852E+03</totfact>
</mgrwt>
</event>
<event>
 7    1  0.6419647E-006  0.1820727E+03  0.7546771E-02  0.1171367E+00
         -1   -1    0    0    0  501 -0.00000000000E+00  0.00000000000E+00  0.71586237921E+02  0.71586237921E+02  0.00000000000E+00 0.  1.
          1   -1    0    0  501    0  0.00000000000E+00 -0.00000000000E+00 -0.71056666874E+03  0.71056666874E+03  0.00000000000E+00 0. -1.
         23    2    1    2    0    0  0.96801488163E+02  0.90301185630E+02 -0.58552103595E+03  0.61317643074E+03  0.12500247776E+03 0.  0.
          5    1    3    3  502    0  0.96553141714E+02  0.59561778782E+02 -0.56410302688E+03  0.57541674428E+03  0.47000000000E+01 0.  1.
         -5    1    3    3    0  502  0.24834644867E+00  0.30739406848E+02 -0.21418009072E+02  0.37759686465E+02  0.47000000000E+01 0.  1.
        -11    1    1    2    0    0 -0.68614703402E+02 -0.77509654955E+02 -0.77886520724E+02  0.12954549102E+03  0.00000000000E+00 0. -1.
         11    1    1    2    0    0 -0.28186784761E+02 -0.12791530675E+02  0.24427125853E+02  0.39430984893E+02  0.00000000000E+00 0.  1.
<mgrwt>
<rscale>  0 0.17636602E+03</rscale>
<asrwt>0</asrwt>
<pdfrwt beam="2">  1        1 0.10931795E+00 0.18207265E+03</pdfrwt>
<pdfrwt beam="1">  1       -1 0.11013267E-01 0.18207265E+03</pdfrwt>
<totfact> 0.14410805E+03</totfact>
</mgrwt>
</event>
<event>
 7    1  0.6419647E-006  0.1363532E+03  0.7546771E-02  0.1226811E+00
          1   -1    0    0  501    0  0.00000000000E+00  0.00000000000E+00  0.75130600458E+03  0.75130600458E+03  0.00000000000E+00 0. -1.
         -1   -1    0    0    0  501 -0.00000000000E+00 -0.00000000000E+00 -0.21875401310E+02  0.21875401310E+02  0.00000000000E+00 0.  1.
         23    2    1    2    0    0 -0.53198830214E+02  0.11789077868E+02  0.47744836267E+03  0.49653714491E+03  0.12499239720E+03 0.  0.
          5    1    3    3  502    0 -0.20971563690E+02 -0.28977519456E+02  0.40840160867E+03  0.40999203295E+03  0.47000000000E+01 0. -1.
         -5    1    3    3    0  502 -0.32227266524E+02  0.40766597325E+02  0.69046754002E+02  0.86545111955E+02  0.47000000000E+01 0. -1.
        -11    1    1    2    0    0 -0.85345511430E+01 -0.38349221434E+02  0.48877603377E+02  0.62709819484E+02  0.00000000000E+00 0. -1.
         11    1    1    2    0    0  0.61733381357E+02  0.26560143565E+02  0.20310463722E+03  0.21393444150E+03  0.00000000000E+00 0.  1.
<mgrwt>
<rscale>  0 0.13043562E+03</rscale>
<asrwt>0</asrwt>
<pdfrwt beam="1">  1        1 0.11558552E+00 0.13635321E+03</pdfrwt>
<pdfrwt beam="2">  1       -1 0.33654469E-02 0.13635321E+03</pdfrwt>
<totfact> 0.77752911E+03</totfact>
</mgrwt>
</event>
<event>
 7    1  0.6419647E-006  0.1342968E+03  0.7546771E-02  0.1232038E+00
          2   -1    0    0  501    0  0.00000000000E+00  0.00000000000E+00  0.53221089212E+03  0.53221089212E+03  0.00000000000E+00 0. -1.
         -2   -1    0    0    0  501 -0.00000000000E+00 -0.00000000000E+00 -0.34852443852E+02  0.34852443852E+02  0.00000000000E+00 0.  1.
         23    2    1    2    0    0 -0.54271012442E+02 -0.20110254267E+02  0.40093373126E+03  0.42282795964E+03  0.12118523620E+03 0.  0.
          5    1    3    3  502    0 -0.79378571640E+02 -0.28672728357E+02  0.37833847060E+03  0.38766631440E+03  0.47000000000E+01 0. -1.
         -5    1    3    3    0  502  0.25107559197E+02  0.85624740901E+01  0.22595260656E+02  0.35161645233E+02  0.47000000000E+01 0.  1.
        -11    1    1    2    0    0  0.73279745749E+02 -0.74930951821E+01  0.68971574592E+02  0.10091157374E+03  0.00000000000E+00 0.  1.
         11    1    1    2    0    0 -0.19008733307E+02  0.27603349449E+02  0.27453142421E+02  0.43323802598E+02  0.00000000000E+00 0. -1.
<mgrwt>
<rscale>  0 0.12695953E+03</rscale>
<asrwt>0</asrwt>
<pdfrwt beam="1">  1        2 0.81878593E-01 0.13429679E+03</pdfrwt>
<pdfrwt beam="2">  1       -2 0.53619148E-02 0.13429679E+03</pdfrwt>
<totfact> 0.97210703E+03</totfact>
</mgrwt>
</event>
<event>
 7    1  0.6419647E-006  0.1262710E+03  0.7546771E-02  0.1248548E+00
         -1   -1    0    0    0  501 -0.00000000000E+00  0.00000000000E+00  0.23918249865E+03  0.23918249865E+03  0.00000000000E+00 0.  1.
          1   -1    0    0  501    0  0.00000000000E+00 -0.00000000000E+00 -0.54806510003E+02  0.54806510003E+02  0.00000000000E+00 0. -1.
         23    2    1    2    0    0 -0.11621616184E+02  0.13657108370E+02  0.61895588373E+02  0.14062515348E+03  0.12499116512E+03 0.  0.
          5    1    3    3  502    0  0.42323037451E+02 -0.23945525557E+02  0.56183546080E+02  0.74453398468E+02  0.47000000000E+01 0.  1.
         -5    1    3    3    0  502 -0.53944653635E+02  0.37602633927E+02  0.57120422926E+01  0.66171755010E+02  0.47000000000E+01 0.  1.
        -11    1    1    2    0    0  0.60477208430E+01 -0.34844530720E+02  0.72905679105E+01  0.36109121132E+02  0.00000000000E+00 0. -1.
         11    1    1    2    0    0  0.55738953408E+01  0.21187422350E+02  0.11518983236E+03  0.11725473404E+03  0.00000000000E+00 0.  1.
<mgrwt>
<rscale>  0 0.11675527E+03</rscale>
<asrwt>0</asrwt>
<pdfrwt beam="2">  1        1 0.84317709E-02 0.12627102E+03</pdfrwt>
<pdfrwt beam="1">  1       -1 0.36797307E-01 0.12627102E+03</pdfrwt>
<totfact> 0.54877737E+03</totfact>
</mgrwt>
</event>
<event>
 7    1  0.6419647E-006  0.1197475E+03  0.7546771E-02  0.1253522E+00
         -1   -1    0    0    0  501 -0.00000000000E+00  0.00000000000E+00  0.71634505056E+02  0.71634505056E+02  0.00000000000E+00 0.  1.
          1   -1    0    0  501    0  0.00000000000E+00 -0.00000000000E+00 -0.17515021082E+03  0.17515021082E+03  0.00000000000E+00 0. -1.
         23    2    1    2    0    0  0.34700791174E+02 -0.15014066182E+02 -0.85513613144E+02  0.14714631430E+03  0.11362170870E+03 0.  0.
          5    1    3    3  502    0 -0.36872134004E+02  0.15186329110E+02 -0.41463069263E+02  0.57718757528E+02  0.47000000000E+01 0. -1.
         -5    1    3    3    0  502  0.71572925178E+02 -0.30200395293E+02 -0.44050543881E+02  0.89427556774E+02  0.47000000000E+01 0.  1.
        -11    1    1    2    0    0  0.20191735082E+02  0.30193181072E+02 -0.22135494961E+02  0.42536037498E+02  0.00000000000E+00 0.  1.
         11    1    1    2    0    0 -0.54892526257E+02 -0.15179114890E+02  0.41334023432E+01  0.57102364072E+02  0.00000000000E+00 0. -1.
<mgrwt>
<rscale>  0 0.11389504E+03</rscale>
<asrwt>0</asrwt>
<pdfrwt beam="2">  1        1 0.26946186E-01 0.11974748E+03</pdfrwt>
<pdfrwt beam="1">  1       -1 0.11020693E-01 0.11974748E+03</pdfrwt>
<totfact> 0.85141941E+03</totfact>
</mgrwt>
</event>
<event>
 6    1  0.6419647E-006  0.2858836E+03  0.7546771E-02  0.1131490E+00
         -1   -1    0    0    0  501 -0.00000000000E+00  0.00000000000E+00  0.20818957108E+03  0.20818957108E+03  0.00000000000E+00 0.  1.
          1   -1    0    0  501    0  0.00000000000E+00 -0.00000000000E+00 -0.33009228626E+03  0.33009228626E+03  0.00000000000E+00 0. -1.
          5    1    1    2  502    0  0.66423923984E+02 -0.12026297590E+03 -0.12371969147E+03  0.18494316182E+03  0.47000000000E+01 0. -1.
         -5    1    1    2    0  502 -0.21391345851E+02  0.14663663590E+03 -0.12066726363E+03  0.19116111314E+03  0.47000000000E+01 0.  1.
        -11    1    1    2    0    0  0.79164167113E+01 -0.44044759133E+02  0.29093516864E+02  0.53376429106E+02  0.00000000000E+00 0. -1.
         11    1    1    2    0    0 -0.52948994844E+02  0.17671099126E+02  0.93390723056E+02  0.10880115327E+03  0.00000000000E+00 0.  1.
<mgrwt>
<rscale>  0 0.22324041E+03</rscale>
<asrwt>0</asrwt>
<pdfrwt beam="2">  1        1 0.50783428E-01 0.28588362E+03</pdfrwt>
<pdfrwt beam="1">  1       -1 0.32029165E-01 0.28588362E+03</pdfrwt>
<totfact> 0.71025461E+02</totfact>
</mgrwt>
</event>
<event>
 7    1  0.6419647E-006  0.1910238E+03  0.7546771E-02  0.1162264E+00
         -2   -1    0    0    0  501 -0.00000000000E+00  0.00000000000E+00  0.72192761844E+02  0.72192761844E+02  0.00000000000E+00 0.  1.
          2   -1    0    0  501    0  0.00000000000E+00 -0.00000000000E+00 -0.46232723585E+03  0.46232723585E+03  0.00000000000E+00 0. -1.
         23    2    1    2    0    0 -0.55657298834E+02 -0.13328889910E+03 -0.17019004193E+03  0.25584127864E+03  0.12500577567E+03 0.  0.
          5    1    3    3  502    0 -0.47082197972E+02 -0.10588424081E+03 -0.18860293605E+03  0.22140768574E+03  0.47000000000E+01 0.  1.
         -5    1    3    3    0  502 -0.85751008619E+01 -0.27404658286E+02  0.18412894121E+02  0.34433592906E+02  0.47000000000E+01 0.  1.
        -11    1    1    2    0    0  0.26977499817E+02  0.12929156782E+03 -0.13469161018E+03  0.18864231991E+03  0.00000000000E+00 0.  1.
         11    1    1    2    0    0  0.28679799017E+02  0.39973312708E+01 -0.85252821903E+02  0.90036399147E+02  0.00000000000E+00 0. -1.
<mgrwt>
<rscale>  0 0.18584407E+03</rscale>
<asrwt>0</asrwt>
<pdfrwt beam="2">  1        2 0.71127265E-01 0.19102385E+03</pdfrwt>
<pdfrwt beam="1">  1       -2 0.11106579E-01 0.19102385E+03</pdfrwt>
<totfact> 0.37456802E+03</totfact>
</mgrwt>
</event>
<event>
 7    1  0.6419647E-006  0.1296112E+03  0.7546771E-02  0.1239620E+00
         -2   -1    0    0    0  501 -0.00000000000E+00  0.00000000000E+00  0.30838345996E+02  0.30838345996E+02  0.00000000000E+00 0.  1.
          2   -1    0    0  501    0  0.00000000000E+00 -0.00000000000E+00 -0.43557983440E+03  0.43557983440E+03  0.00000000000E+00 0. -1.
         23    2    1    2    0    0 -0.14787575540E+02 -0.30903826063E+02 -0.22621391511E+03  0.26071402394E+03  0.12500139212E+03 0.  0.
          5    1    3    3  502    0  0.41923739102E+02  0.25650569584E+02 -0.84615391889E+02  0.97966352207E+02  0.47000000000E+01 0. -1.
         -5    1    3    3    0  502 -0.56711314643E+02 -0.56554395647E+02 -0.14159852322E+03  0.16274767173E+03  0.47000000000E+01 0. -1.
        -11    1    1    2    0    0 -0.18945165047E+02  0.50963378696E+02 -0.14214257266E+03  0.15218638641E+03  0.00000000000E+00 0. -1.
         11    1    1    2    0    0  0.33732740587E+02 -0.20059552633E+02 -0.36385000626E+02  0.53517770039E+02  0.00000000000E+00 0.  1.
<mgrwt>
<rscale>  0 0.12213227E+03</rscale>
<asrwt>0</asrwt>
<pdfrwt beam="2">  1        2 0.67012278E-01 0.12961121E+03</pdfrwt>
<pdfrwt beam="1">  1       -2 0.47443612E-02 0.12961121E+03</pdfrwt>
<totfact> 0.14497292E+04</totfact>
</mgrwt>
</event>
<event>
 7    1  0.6419647E-006  0.1213256E+03  0.7546771E-02  0.1249249E+00
          1   -1    0    0  501    0  0.00000000000E+00  0.00000000000E+00  0.51149421908E+02  0.51149421908E+02  0.00000000000E+00 0. -1.
         -1   -1    0    0    0  501 -0.00000000000E+00 -0.00000000000E+00 -0.24711367351E+03  0.24711367351E+03  0.00000000000E+00 0.  1.
         23    2    1    2    0    0 -0.20358895921E+02  0.46019432787E+02 -0.92631304762E+02  0.15264488683E+03  0.11039759968E+03 0.  0.
          5    1    3    3  502    0 -0.95923364834E+01  0.69547982688E+02 -0.16741679688E+02  0.72327786182E+02  0.47000000000E+01 0. -1.
         -5    1    3    3    0  502 -0.10766559438E+02 -0.23528549901E+02 -0.75889625074E+02  0.80317100648E+02  0.47000000000E+01 0.  1.
        -11    1    1    2    0    0 -0.62901011986E+00 -0.70124472131E+02 -0.64045581932E+02  0.94971963286E+02  0.00000000000E+00 0.  1.
         11    1    1    2    0    0  0.20987906041E+02  0.24105039344E+02 -0.39287364907E+02  0.50646245302E+02  0.00000000000E+00 0. -1.
<mgrwt>
<rscale>  0 0.11634621E+03</rscale>
<asrwt>0</asrwt>
<pdfrwt beam="1">  1        1 0.78691420E-02 0.12132561E+03</pdfrwt>
<pdfrwt beam="2">  1       -1 0.38017487E-01 0.12132561E+03</pdfrwt>
<totfact> 0.56717293E+03</totfact>
</mgrwt>
</event>
<event>
 7    1  0.6419647E-006  0.1277019E+03  0.7546771E-02  0.1245613E+00
          1   -1    0    0  501    0  0.00000000000E+00  0.00000000000E+00  0.68634025834E+02  0.68634025834E+02  0.00000000000E+00 0. -1.
         -1   -1    0    0    0  501 -0.00000000000E+00 -0.00000000000E+00 -0.18235255933E+03  0.18235255933E+03  0.00000000000E+00 0.  1.
         23    2    1    2    0    0 -0.20175986166E+02  0.16577861517E+02 -0.51354204095E+02  0.13764098666E+03  0.12500356403E+03 0.  0.
          5    1    3    3  502    0 -0.70907195428E+02 -0.31315705882E+01 -0.17088045870E+02  0.73155508401E+02  0.47000000000E+01 0.  1.
         -5    1    3    3    0  502  0.50731209261E+02  0.19709432105E+02 -0.34266158225E+02  0.64485478261E+02  0.47000000000E+01 0.  1.
        -11    1    1    2    0    0 -0.27290439484E+02 -0.39530731569E+01 -0.57770885677E+02  0.64014608540E+02  0.00000000000E+00 0.  1.
         11    1    1    2    0    0  0.47466425651E+02 -0.12624788360E+02 -0.45934437214E+01  0.49330989960E+02  0.00000000000E+00 0. -1.
<mgrwt>
<rscale>  0 0.11848790E+03</rscale>
<asrwt>0</asrwt>
<pdfrwt beam="1">  1        1 0.10559081E-01 0.12770195E+03</pdfrwt>
<pdfrwt beam="2">  1       -1 0.28054239E-01 0.12770195E+03</pdfrwt>
<totfact> 0.64497300E+03</totfact>
</mgrwt>
</event>
<event>
 7    1  0.6419647E-006  0.1250239E+03  0.7546771E-02  0.1249789E+00
         -2   -1    0    0    0  501 -0.00000000000E+00  0.00000000000E+00  0.81067141016E+02  0.81067141016E+02  0.00000000000E+00 0. -1.
          2   -1    0    0  501    0  0.00000000000E+00 -0.00000000000E+00 -0.14754905732E+03  0.14754905732E+03  0.00000000000E+00 0.  1.
         23    2    1    2    0    0 -0.20412768848E+01 -0.15018012551E+01 -0.48685995993E+02  0.13416893587E+03  0.12499821970E+03 0.  0.
          5    1    3    3  502    0  0.36866772497E+02  0.46884090064E+02 -0.94448352139E+01  0.60568735563E+02  0.47000000000E+01 0. -1.
         -5    1    3    3    0  502 -0.38908049382E+02 -0.48385891319E+02 -0.39241160779E+02  0.73600200303E+02  0.47000000000E+01 0. -1.
        -11    1    1    2    0    0  0.12239793229E+02 -0.28939733691E+02 -0.43262082272E+02  0.53468948810E+02  0.00000000000E+00 0.  1.
         11    1    1    2    0    0 -0.10198516344E+02  0.30441534946E+02  0.25466161959E+02  0.40978313660E+02  0.00000000000E+00 0. -1.
<mgrwt>
<rscale>  0 0.11603253E+03</rscale>
<asrwt>0</asrwt>
<pdfrwt beam="2">  1        2 0.22699855E-01 0.12502391E+03</pdfrwt>
<pdfrwt beam="1">  1       -2 0.12471868E-01 0.12502391E+03</pdfrwt>
<totfact> 0.10409160E+04</totfact>
</mgrwt>
</event>
<event>
 7    1  0.6419647E-006  0.1372258E+03  0.7546771E-02  0.1231242E+00
         -2   -1    0    0    0  501 -0.00000000000E+00  0.00000000000E+00  0.41513273516E+02  0.41513273516E+02  0.00000000000E+00 0.  1.
          2   -1    0    0  501    0  0.00000000000E+00 -0.00000000000E+00 -0.35273650211E+03  0.35273650211E+03  0.00000000000E+00 0. -1.
         23    2    1    2    0    0 -0.10899740106E+02 -0.55561825539E+02 -0.20633518698E+03  0.24780057039E+03  0.12499997004E+03 0.  0.
          5    1    3    3  502    0 -0.10997055954E+02 -0.95882550887E+02 -0.14419667237E+03  0.17357755940E+03  0.47000000000E+01 0.  1.
         -5    1    3    3    0  502  0.97315847352E-01  0.40320725349E+02 -0.62138514615E+02  0.74223010997E+02  0.47000000000E+01 0.  1.
        -11    1    1    2    0    0 -0.35024525288E+02  0.13997268128E+02 -0.24543688786E+02  0.45000372731E+02  0.00000000000E+00 0.  1.
         11    1    1    2    0    0  0.45924265395E+02  0.41564557411E+02 -0.80344352825E+02  0.10144883250E+03  0.00000000000E+00 0. -1.
<mgrwt>
<rscale>  0 0.12748082E+03</rscale>
<asrwt>0</asrwt>
<pdfrwt beam="2">  1        2 0.54267154E-01 0.13722577E+03</pdfrwt>
<pdfrwt beam="1">  1       -2 0.63866574E-02 0.13722577E+03</pdfrwt>
<totfact> 0.11649546E+04</totfact>
</mgrwt>
</event>
<event>
 7    1  0.6419647E-006  0.1390760E+03  0.7546771E-02  0.1225227E+00
          2   -1    0    0  501    0  0.00000000000E+00  0.00000000000E+00  0.49512473979E+03  0.49512473979E+03  0.00000000000E+00 0. -1.
         -2   -1    0    0    0  501 -0.00000000000E+00 -0.00000000000E+00 -0.38197275790E+02  0.38197275790E+02  0.00000000000E+00 0.  1.
         23    2    1    2    0    0  0.17718142100E+02  0.58443983096E+02  0.35953837812E+03  0.38549964775E+03  0.12494999542E+03 0.  0.
          5    1    3    3  502    0  0.39245717945E+02 -0.22438901908E+02  0.20194765408E+03  0.20699921663E+03  0.47000000000E+01 0. -1.
         -5    1    3    3    0  502 -0.21527575845E+02  0.80882885004E+02  0.15759072404E+03  0.17850043112E+03  0.47000000000E+01 0. -1.
        -11    1    1    2    0    0 -0.31543074159E+01 -0.50458860959E+02  0.15776659154E+01  0.50581966493E+02  0.00000000000E+00 0.  1.
         11    1    1    2    0    0 -0.14563834684E+02 -0.79851221366E+01  0.95811419962E+02  0.97240401333E+02  0.00000000000E+00 0. -1.
<mgrwt>
<rscale>  0 0.13151382E+03</rscale>
<asrwt>0</asrwt>
<pdfrwt beam="1">  1        2 0.76173032E-01 0.13907600E+03</pdfrwt>
<pdfrwt beam="2">  1       -2 0.58765043E-02 0.13907600E+03</pdfrwt>
<totfact> 0.91874674E+03</totfact>
</mgrwt>
</event>
<event>
 7    1  0.6419647E-006  0.2372855E+03  0.7546771E-02  0.1124454E+00
         -2   -1    0    0    0  501 -0.00000000000E+00  0.00000000000E+00  0.81793295587E+02  0.81793295587E+02  0.00000000000E+00 0. -1.
          2   -1    0    0  501    0  0.00000000000E+00 -0.00000000000E+00 -0.75683063094E+03  0.75683063094E+03  0.00000000000E+00 0.  1.
         23    2    1    2    0    0 -0.21284962355E+02 -0.20056696130E+03 -0.51070389862E+03  0.56313663312E+03  0.12499695961E+03 0.  0.
          5    1    3    3  502    0  0.11431057358E+02 -0.85826043792E+02 -0.86622960338E+02  0.12256592562E+03  0.47000000000E+01 0. -1.
         -5    1    3    3    0  502 -0.32716019713E+02 -0.11474091751E+03 -0.42408093828E+03  0.44057070750E+03  0.47000000000E+01 0. -1.
        -11    1    1    2    0    0  0.11345947017E+02  0.26801542445E+02 -0.73732403017E+02  0.79268659922E+02  0.00000000000E+00 0.  1.
         11    1    1    2    0    0  0.99390153371E+01  0.17376541885E+03 -0.90601033714E+02  0.19621863348E+03  0.00000000000E+00 0. -1.
<mgrwt>
<rscale>  0 0.23313281E+03</rscale>
<asrwt>0</asrwt>
<pdfrwt beam="2">  1        2 0.11643547E+00 0.23728547E+03</pdfrwt>
<pdfrwt beam="1">  1       -2 0.12583585E-01 0.23728547E+03</pdfrwt>
<totfact> 0.17384918E+03</totfact>
</mgrwt>
</event>
<event>
 7    1  0.6419647E-006  0.1334951E+03  0.7546771E-02  0.1235409E+00
         -2   -1    0    0    0  501 -0.00000000000E+00  0.00000000000E+00  0.18273140417E+03  0.18273140417E+03  0.00000000000E+00 0.  1.
          2   -1    0    0  501    0  0.00000000000E+00 -0.00000000000E+00 -0.76806145592E+02  0.76806145592E+02  0.00000000000E+00 0. -1.
         23    2    1    2    0    0  0.46072342637E+02  0.84662506761E+01  0.45378908792E+02  0.14099709472E+03  0.12500638863E+03 0.  0.
          5    1    3    3  502    0  0.38605720324E+02  0.15125644404E+02 -0.38270350970E+02  0.56620636907E+02  0.47000000000E+01 0. -1.
         -5    1    3    3    0  502  0.74666223129E+01 -0.66593937280E+01  0.83649259762E+02  0.84376457809E+02  0.47000000000E+01 0. -1.
        -11    1    1    2    0    0 -0.30603082223E+02  0.32357992812E+02  0.60197705785E+02  0.74882255055E+02  0.00000000000E+00 0.  1.
         11    1    1    2    0    0 -0.15469260414E+02 -0.40824243488E+02  0.34864400407E+00  0.43658199995E+02  0.00000000000E+00 0. -1.
<mgrwt>
<rscale>  0 0.12478284E+03</rscale>
<asrwt>0</asrwt>
<pdfrwt beam="2">  1        2 0.11816330E-01 0.13349508E+03</pdfrwt>
<pdfrwt beam="1">  1       -2 0.28112524E-01 0.13349508E+03</pdfrwt>
<totfact> 0.56844998E+03</totfact>
</mgrwt>
</event>
<event>
 7    1  0.6419647E-006  0.1329323E+03  0.7546771E-02  0.1235251E+00
          2   -1    0    0  501    0  0.00000000000E+00  0.00000000000E+00  0.82755026282E+03  0.82755026282E+03  0.00000000000E+00 0.  1.
         -2   -1    0    0    0  501 -0.00000000000E+00 -0.00000000000E+00 -0.22969604437E+02  0.22969604437E+02  0.00000000000E+00 0. -1.
         23    2    1    2    0    0 -0.39435187820E+02  0.22152800137E+02  0.65653006936E+03  0.66985276759E+03  0.12500047068E+03 0.  0.
          5    1    3    3  502    0  0.24389523288E+02 -0.35106354520E+02  0.30332962102E+03  0.30636294482E+03  0.47000000000E+01 0. -1.
         -5    1    3    3    0  502 -0.63824711108E+02  0.57259154657E+02  0.35320044835E+03  0.36348982276E+03  0.47000000000E+01 0. -1.
        -11    1    1    2    0    0  0.44179077621E+00 -0.41513450072E+02  0.21325975853E+02  0.46672893225E+02  0.00000000000E+00 0. -1.
         11    1    1    2    0    0  0.38993397044E+02  0.19360649935E+02  0.12672461317E+03  0.13399420645E+03  0.00000000000E+00 0.  1.
<mgrwt>
<rscale>  0 0.12488362E+03</rscale>
<asrwt>0</asrwt>
<pdfrwt beam="1">  1        2 0.12731540E+00 0.13293231E+03</pdfrwt>
<pdfrwt beam="2">  1       -2 0.35337859E-02 0.13293231E+03</pdfrwt>
<totfact> 0.10779343E+04</totfact>
</mgrwt>
</event>
<event>
 7    1  0.6419647E-006  0.1510104E+03  0.7546771E-02  0.1208086E+00
         -1   -1    0    0    0  501 -0.00000000000E+00  0.00000000000E+00  0.11987397435E+04  0.11987397435E+04  0.00000000000E+00 0.  1.
          1   -1    0    0  501    0  0.00000000000E+00 -0.00000000000E+00 -0.15927044162E+02  0.15927044162E+02  0.00000000000E+00 0. -1.
         23    2    1    2    0    0  0.79414125806E+02 -0.29500946740E+02  0.60809659704E+03  0.62656651633E+03  0.12500887495E+03 0.  0.
          5    1    3    3  502    0 -0.10562623745E+02 -0.42812522091E+02  0.87855374945E+02  0.98413098594E+02  0.47000000000E+01 0. -1.
         -5    1    3    3    0  502  0.89976749550E+02  0.13311575351E+02  0.52024122209E+03  0.52815341773E+03  0.47000000000E+01 0. -1.
        -11    1    1    2    0    0 -0.30754857804E+02  0.59867376563E+02  0.32144314960E+03  0.32841385854E+03  0.00000000000E+00 0.  1.
         11    1    1    2    0    0 -0.48659268002E+02 -0.30366429823E+02  0.25327295272E+03  0.25968641282E+03  0.00000000000E+00 0. -1.
<mgrwt>
<rscale>  0 0.14396863E+03</rscale>
<asrwt>0</asrwt>
<pdfrwt beam="2">  1        1 0.24503154E-02 0.15101036E+03</pdfrwt>
<pdfrwt beam="1">  1       -1 0.18442143E+00 0.15101036E+03</pdfrwt>
<totfact> 0.95248296E+02</totfact>
</mgrwt>
</event>
<event>
 7    1  0.6419647E-006  0.1450741E+03  0.7546771E-02  0.1215240E+00
         -3   -1    0    0    0  501 -0.00000000000E+00  0.00000000000E+00  0.22453221680E+02  0.22453221680E+02  0.00000000000E+00 0.  1.
          3   -1    0    0  501    0  0.00000000000E+00 -0.00000000000E+00 -0.79933675924E+03  0.79933675924E+03  0.00000000000E+00 0. -1.
         23    2    1    2    0    0 -0.15928581057E+02  0.71888413753E+02 -0.37290347601E+03  0.40012935937E+03  0.12499935234E+03 0.  0.
          5    1    3    3  502    0  0.36328842451E+02  0.55520474189E+02 -0.30790630676E+03  0.31500903414E+03  0.47000000000E+01 0. -1.
         -5    1    3    3    0  502 -0.52257423508E+02  0.16367939563E+02 -0.64997169250E+02  0.85120325233E+02  0.47000000000E+01 0. -1.
        -11    1    1    2    0    0 -0.36023511139E+02 -0.22335986807E+02 -0.22238680477E+03  0.22639010711E+03  0.00000000000E+00 0. -1.
         11    1    1    2    0    0  0.51952092196E+02 -0.49552426946E+02 -0.18159325677E+03  0.19527051443E+03  0.00000000000E+00 0.  1.
<mgrwt>
<rscale>  0 0.13858887E+03</rscale>
<asrwt>0</asrwt>
<pdfrwt beam="2">  1        3 0.12297489E+00 0.14507413E+03</pdfrwt>
<pdfrwt beam="1">  1       -3 0.34543416E-02 0.14507413E+03</pdfrwt>
<totfact> 0.53582483E+02</totfact>
</mgrwt>
</event>
<event>
 7    1  0.6419647E-006  0.1833825E+03  0.7546771E-02  0.1169279E+00
         -1   -1    0    0    0  501 -0.00000000000E+00  0.00000000000E+00  0.18019560169E+02  0.18019560169E+02  0.00000000000E+00 0.  1.
          1   -1    0    0  501    0  0.00000000000E+00 -0.00000000000E+00 -0.18522142441E+04  0.18522142441E+04  0.00000000000E+00 0. -1.
         23    2    1    2    0    0  0.13000186309E+03 -0.33217893557E+02 -0.12471968923E+04  0.12606066950E+04  0.12500095387E+03 0.  0.
          5    1    3    3  502    0  0.43108690260E+01 -0.15926745553E+02 -0.17985176491E+02  0.24855610817E+02  0.47000000000E+01 0.  1.
         -5    1    3    3    0  502  0.12569099407E+03 -0.17291148003E+02 -0.12292117158E+04  0.12357510841E+04  0.47000000000E+01 0.  1.
        -11    1    1    2    0    0 -0.11080240079E+03  0.23243875371E+01 -0.53379745859E+03  0.54518098059E+03  0.00000000000E+00 0. -1.
         11    1    1    2    0    0 -0.19199462303E+02  0.30893506020E+02 -0.53200333096E+02  0.64446128731E+02  0.00000000000E+00 0.  1.
<mgrwt>
<rscale>  0 0.17848312E+03</rscale>
<asrwt>0</asrwt>
<pdfrwt beam="2">  1        1 0.28495588E+00 0.18338253E+03</pdfrwt>
<pdfrwt beam="1">  1       -1 0.27722415E-02 0.18338253E+03</pdfrwt>
<totfact> 0.17888411E+03</totfact>
</mgrwt>
</event>
<event>
 7    1  0.6419647E-006  0.1692696E+03  0.7546771E-02  0.1185008E+00
          2   -1    0    0  501    0  0.00000000000E+00  0.00000000000E+00  0.27877904620E+02  0.27877904620E+02  0.00000000000E+00 0. -1.
         -2   -1    0    0    0  501 -0.00000000000E+00 -0.00000000000E+00 -0.89512789937E+03  0.89512789937E+03  0.00000000000E+00 0.  1.
         23    2    1    2    0    0 -0.11948429058E+02  0.11350669815E+03 -0.46304305870E+03  0.49301225642E+03  0.12500270114E+03 0.  0.
          5    1    3    3  502    0  0.12418559246E+02 -0.92166228865E+01 -0.32638586031E+01  0.16489679322E+02  0.47000000000E+01 0.  1.
         -5    1    3    3    0  502 -0.24366988304E+02  0.12272332104E+03 -0.45977920009E+03  0.47652257710E+03  0.47000000000E+01 0.  1.
        -11    1    1    2    0    0  0.35280598766E+02 -0.11531926729E+03 -0.36417333641E+03  0.38362152313E+03  0.00000000000E+00 0.  1.
         11    1    1    2    0    0 -0.23332169708E+02  0.18125691362E+01 -0.40033599640E+02  0.46372024436E+02  0.00000000000E+00 0. -1.
<mgrwt>
<rscale>  0 0.16331173E+03</rscale>
<asrwt>0</asrwt>
<pdfrwt beam="1">  1        2 0.42889087E-02 0.16926964E+03</pdfrwt>
<pdfrwt beam="2">  1       -2 0.13771198E+00 0.16926964E+03</pdfrwt>
<totfact> 0.74861137E+02</totfact>
</mgrwt>
</event>
<event>
 7    1  0.6419647E-006  0.1445731E+03  0.7546771E-02  0.1217234E+00
         -2   -1    0    0    0  501 -0.00000000000E+00  0.00000000000E+00  0.24993085631E+02  0.24993085631E+02  0.00000000000E+00 0.  1.
          2   -1    0    0  501    0  0.00000000000E+00 -0.00000000000E+00 -0.71903788111E+03  0.71903788111E+03  0.00000000000E+00 0. -1.
         23    2    1    2    0    0 -0.69755151742E+02 -0.20246054765E+02 -0.46272242053E+03  0.48478181889E+03  0.12500275811E+03 0.  0.
          5    1    3    3  502    0  0.31379426028E+02 -0.87449435889E+01 -0.20538784208E+03  0.20800816833E+03  0.47000000000E+01 0.  1.
         -5    1    3    3    0  502 -0.10113457777E+03 -0.11501111176E+02 -0.25733457845E+03  0.27677365056E+03  0.47000000000E+01 0.  1.
        -11    1    1    2    0    0 -0.13391828260E+02 -0.10473504724E+02 -0.76303218393E+01  0.18634837716E+02  0.00000000000E+00 0.  1.
         11    1    1    2    0    0  0.83146980002E+02  0.30719559489E+02 -0.22369205311E+03  0.24061431014E+03  0.00000000000E+00 0. -1.
<mgrwt>
<rscale>  0 0.13713741E+03</rscale>
<asrwt>0</asrwt>
<pdfrwt beam="2">  1        2 0.11062121E+00 0.14457307E+03</pdfrwt>
<pdfrwt beam="1">  1       -2 0.38450901E-02 0.14457307E+03</pdfrwt>
<totfact> 0.11364252E+04</totfact>
</mgrwt>
</event>
<event>
 7    1  0.6419647E-006  0.1408301E+03  0.7546771E-02  0.1223350E+00
          2   -1    0    0  501    0  0.00000000000E+00  0.00000000000E+00  0.34699623412E+03  0.34699623412E+03  0.00000000000E+00 0. -1.
         -2   -1    0    0    0  501 -0.00000000000E+00 -0.00000000000E+00 -0.46010924226E+02  0.46010924226E+02  0.00000000000E+00 0.  1.
         23    2    1    2    0    0 -0.64196640041E+02 -0.90965981992E+01  0.18032640484E+03  0.22880281712E+03  0.12501663948E+03 0.  0.
          5    1    3    3  502    0  0.22003631258E+02  0.36725873793E+02  0.53217029186E+02  0.68462338477E+02  0.47000000000E+01 0.  1.
         -5    1    3    3    0  502 -0.86200271299E+02 -0.45822471992E+02  0.12710937565E+03  0.16034047864E+03  0.47000000000E+01 0.  1.
        -11    1    1    2    0    0  0.49876525388E+02 -0.17501970911E+02  0.15931036725E+02  0.55206745074E+02  0.00000000000E+00 0.  1.
         11    1    1    2    0    0  0.14320114654E+02  0.26598569110E+02  0.10472786833E+03  0.10899759615E+03  0.00000000000E+00 0. -1.
<mgrwt>
<rscale>  0 0.13280640E+03</rscale>
<asrwt>0</asrwt>
<pdfrwt beam="1">  1        2 0.53384034E-01 0.14083010E+03</pdfrwt>
<pdfrwt beam="2">  1       -2 0.70786040E-02 0.14083010E+03</pdfrwt>
<totfact> 0.10150083E+04</totfact>
</mgrwt>
</event>
<event>
 7    1  0.6419647E-006  0.1416263E+03  0.7546771E-02  0.1217627E+00
         -2   -1    0    0    0  501 -0.00000000000E+00  0.00000000000E+00  0.68805893520E+02  0.68805893520E+02  0.00000000000E+00 0.  1.
          2   -1    0    0  501    0  0.00000000000E+00 -0.00000000000E+00 -0.28159207134E+03  0.28159207134E+03  0.00000000000E+00 0. -1.
         23    2    1    2    0    0  0.66544630738E+02 -0.20226144952E+01 -0.16635979660E+03  0.21848021270E+03  0.12500297023E+03 0.  0.
          5    1    3    3  502    0  0.68094876281E+02  0.20690929577E+02 -0.25546664139E+02  0.75761129817E+02  0.47000000000E+01 0.  1.
         -5    1    3    3    0  502 -0.15502455432E+01 -0.22713544072E+02 -0.14081313246E+03  0.14271908289E+03  0.47000000000E+01 0.  1.
        -11    1    1    2    0    0 -0.36089037159E+02  0.14938064734E+01 -0.79277401700E+02  0.87118060591E+02  0.00000000000E+00 0. -1.
         11    1    1    2    0    0 -0.30455593579E+02  0.52880802183E+00  0.32851020480E+02  0.44799691570E+02  0.00000000000E+00 0.  1.
<mgrwt>
<rscale>  0 0.13685343E+03</rscale>
<asrwt>0</asrwt>
<pdfrwt beam="2">  1        2 0.43321858E-01 0.14162634E+03</pdfrwt>
<pdfrwt beam="1">  1       -2 0.10585522E-01 0.14162634E+03</pdfrwt>
<totfact> 0.67776116E+03</totfact>
</mgrwt>
</event>
<event>
 7    1  0.6419647E-006  0.2060013E+03  0.7546771E-02  0.1148585E+00
         -2   -1    0    0    0  501 -0.00000000000E+00  0.00000000000E+00  0.24754174811E+02  0.24754174811E+02  0.00000000000E+00 0.  1.
          2   -1    0    0  501    0  0.00000000000E+00 -0.00000000000E+00 -0.25407693351E+04  0.25407693351E+04  0.00000000000E+00 0. -1.
         23    2    1    2    0    0 -0.11494059018E+03 -0.11662163530E+03 -0.20862368430E+04  0.20963827656E+04  0.12499835793E+03 0.  0.
          5    1    3    3  502    0 -0.67640628769E+02 -0.61002553353E+02 -0.17454206518E+04  0.17478020219E+04  0.47000000000E+01 0.  1.
         -5    1    3    3    0  502 -0.47299961407E+02 -0.55619081948E+02 -0.34081619126E+03  0.34858074366E+03  0.47000000000E+01 0.  1.
        -11    1    1    2    0    0  0.22657366500E+02  0.63706988193E+02 -0.26115873826E+03  0.26976994490E+03  0.00000000000E+00 0. -1.
         11    1    1    2    0    0  0.92283223676E+02  0.52914647108E+02 -0.16861957905E+03  0.19937079949E+03  0.00000000000E+00 0.  1.
<mgrwt>
<rscale>  0 0.20137371E+03</rscale>
<asrwt>0</asrwt>
<pdfrwt beam="2">  1        2 0.39088743E+00 0.20600130E+03</pdfrwt>
<pdfrwt beam="1">  1       -2 0.38083362E-02 0.20600130E+03</pdfrwt>
<totfact> 0.11392112E+03</totfact>
</mgrwt>
</event>
<event>
 7    1  0.6419647E-006  0.1376216E+03  0.7546771E-02  0.1228126E+00
         -1   -1    0    0    0  501 -0.00000000000E+00  0.00000000000E+00  0.99798206434E+02  0.99798206434E+02  0.00000000000E+00 0.  1.
          1   -1    0    0  501    0  0.00000000000E+00 -0.00000000000E+00 -0.16591688919E+03  0.16591688919E+03  0.00000000000E+00 0. -1.
         23    2    1    2    0    0  0.55833395515E+02 -0.13890131861E+02 -0.75980767839E+02  0.15720301587E+03  0.12501762796E+03 0.  0.
          5    1    3    3  502    0 -0.38141026735E+02  0.10254095118E+02 -0.29470446281E+02  0.49502339249E+02  0.47000000000E+01 0.  1.
         -5    1    3    3    0  502  0.93974422250E+02 -0.24144226979E+02 -0.46510321557E+02  0.10770067662E+03  0.47000000000E+01 0.  1.
        -11    1    1    2    0    0  0.22644855006E+01  0.12056297886E+02  0.40842316867E+02  0.42644777644E+02  0.00000000000E+00 0.  1.
         11    1    1    2    0    0 -0.58097881015E+02  0.18338339757E+01 -0.30980231783E+02  0.65867302107E+02  0.00000000000E+00 0. -1.
<mgrwt>
<rscale>  0 0.12954906E+03</rscale>
<asrwt>0</asrwt>
<pdfrwt beam="2">  1        1 0.25525675E-01 0.13762162E+03</pdfrwt>
<pdfrwt beam="1">  1       -1 0.15353570E-01 0.13762162E+03</pdfrwt>
<totfact> 0.55047348E+03</totfact>
</mgrwt>
</event>
<event>
 7    1  0.6419647E-006  0.1590316E+03  0.7546771E-02  0.1197658E+00
         -1   -1    0    0    0  501 -0.00000000000E+00  0.00000000000E+00  0.32091159125E+02  0.32091159125E+02  0.00000000000E+00 0.  1.
          1   -1    0    0  501    0  0.00000000000E+00 -0.00000000000E+00 -0.79739486567E+03  0.79739486567E+03  0.00000000000E+00 0. -1.
         23    2    1    2    0    0 -0.65737437209E+02  0.73102673940E+02 -0.57674887569E+03  0.59827277063E+03  0.12500252350E+03 0.  0.
          5    1    3    3  502    0 -0.64712854899E+02  0.12803197795E+02 -0.47738474617E+03  0.48194394004E+03  0.47000000000E+01 0. -1.
         -5    1    3    3    0  502 -0.10245823099E+01  0.60299476145E+02 -0.99364129520E+02  0.11632883059E+03  0.47000000000E+01 0. -1.
        -11    1    1    2    0    0 -0.18093994634E+01 -0.50721767596E+02 -0.12828882205E+03  0.13796373979E+03  0.00000000000E+00 0.  1.
         11    1    1    2    0    0  0.67546836672E+02 -0.22380906345E+02 -0.60266008809E+02  0.93249514374E+02  0.00000000000E+00 0. -1.
<mgrwt>
<rscale>  0 0.15231382E+03</rscale>
<asrwt>0</asrwt>
<pdfrwt beam="2">  1        1 0.12267612E+00 0.15903158E+03</pdfrwt>
<pdfrwt beam="1">  1       -1 0.49371018E-02 0.15903158E+03</pdfrwt>
<totfact> 0.40759874E+03</totfact>
</mgrwt>
</event>
<event>
 7    1  0.6419647E-006  0.1281326E+03  0.7546771E-02  0.1243304E+00
          3   -1    0    0  501    0  0.00000000000E+00  0.00000000000E+00  0.24327683348E+03  0.24327683348E+03  0.00000000000E+00 0. -1.
         -3   -1    0    0    0  501 -0.00000000000E+00 -0.00000000000E+00 -0.52990023297E+02  0.52990023297E+02  0.00000000000E+00 0.  1.
         23    2    1    2    0    0 -0.26021791168E+02  0.10769346638E+02  0.11987862844E+03  0.17546754438E+03  0.12499944453E+03 0.  0.
          5    1    3    3  502    0 -0.55299126166E+02  0.21521230839E+02  0.12947164452E+03  0.14249966128E+03  0.47000000000E+01 0. -1.
         -5    1    3    3    0  502  0.29277334998E+02 -0.10751884201E+02 -0.95930160809E+01  0.32967883098E+02  0.47000000000E+01 0. -1.
        -11    1    1    2    0    0  0.19751630372E+02  0.38615686622E+02  0.52020227109E+02  0.67730363827E+02  0.00000000000E+00 0. -1.
         11    1    1    2    0    0  0.62701607958E+01 -0.49385033260E+02  0.18387954636E+02  0.53068948569E+02  0.00000000000E+00 0.  1.
<mgrwt>
<rscale>  0 0.11987461E+03</rscale>
<asrwt>0</asrwt>
<pdfrwt beam="1">  1        3 0.37427205E-01 0.12813264E+03</pdfrwt>
<pdfrwt beam="2">  1       -3 0.81523114E-02 0.12813264E+03</pdfrwt>
<totfact> 0.16611649E+03</totfact>
</mgrwt>
</event>
<event>
 6    1  0.6419647E-006  0.7547367E+03  0.7546771E-02  0.1012501E+00
         -1   -1    0    0    0  501 -0.00000000000E+00  0.00000000000E+00  0.44565295562E+03  0.44565295562E+03  0.00000000000E+00 0.  1.
          1   -1    0    0  501    0  0.00000000000E+00 -0.00000000000E+00 -0.62142595210E+03  0.62142595210E+03  0.00000000000E+00 0. -1.
          5    1    1    2  502    0  0.60162744407E+02  0.30311421457E+03 -0.44706405884E+03  0.54349438414E+03  0.47000000000E+01 0. -1.
         -5    1    1    2    0  502 -0.15348116081E+03 -0.22768799669E+03  0.93292717933E+02  0.29004122427E+03  0.47000000000E+01 0.  1.
        -11    1    1    2    0    0  0.10134338988E+03 -0.63733307465E+02  0.18284910714E+03  0.21855482867E+03  0.00000000000E+00 0. -1.
         11    1    1    2    0    0 -0.80249734722E+01 -0.11692910413E+02 -0.48507627165E+01  0.14988470639E+02  0.00000000000E+00 0.  1.
<mgrwt>
<rscale>  0 0.50492735E+03</rscale>
<asrwt>0</asrwt>
<pdfrwt beam="2">  1        1 0.95603992E-01 0.75473668E+03</pdfrwt>
<pdfrwt beam="1">  1       -1 0.68561993E-01 0.75473668E+03</pdfrwt>
<totfact> 0.71443914E+01</totfact>
</mgrwt>
</event>
<event>
 7    1  0.6419647E-006  0.1964805E+03  0.7546771E-02  0.1156635E+00
         -2   -1    0    0    0  501 -0.00000000000E+00  0.00000000000E+00  0.35060182602E+02  0.35060182602E+02  0.00000000000E+00 0.  1.
          2   -1    0    0  501    0  0.00000000000E+00 -0.00000000000E+00 -0.16987793011E+04  0.16987793011E+04  0.00000000000E+00 0. -1.
         23    2    1    2    0    0 -0.13969662713E+03 -0.58837623968E+02 -0.14072790742E+04  0.14209289138E+04  0.12501028656E+03 0.  0.
          5    1    3    3  502    0 -0.81110276408E+02 -0.34669561726E+02 -0.32514936818E+03  0.33693479647E+03  0.47000000000E+01 0. -1.
         -5    1    3    3    0  502 -0.58586350717E+02 -0.24168062243E+02 -0.10821297060E+04  0.10839941173E+04  0.47000000000E+01 0. -1.
        -11    1    1    2    0    0  0.52455057534E+02 -0.10975900755E+02 -0.32588880859E+02  0.62721914941E+02  0.00000000000E+00 0.  1.
         11    1    1    2    0    0  0.87241569591E+02  0.69813524723E+02 -0.22385116339E+03  0.25018865492E+03  0.00000000000E+00 0. -1.
<mgrwt>
<rscale>  0 0.19203916E+03</rscale>
<asrwt>0</asrwt>
<pdfrwt beam="2">  1        2 0.26135060E+00 0.19648050E+03</pdfrwt>
<pdfrwt beam="1">  1       -2 0.53938755E-02 0.19648050E+03</pdfrwt>
<totfact> 0.18719282E+03</totfact>
</mgrwt>
</event>
<event>
 7    1  0.6419647E-006  0.1255188E+03  0.7546771E-02  0.1249475E+00
         -2   -1    0    0    0  501 -0.00000000000E+00  0.00000000000E+00  0.46268934277E+02  0.46268934277E+02  0.00000000000E+00 0.  1.
          2   -1    0    0  501    0  0.00000000000E+00 -0.00000000000E+00 -0.30770775485E+03  0.30770775485E+03  0.00000000000E+00 0. -1.
         23    2    1    2    0    0  0.11384593491E+02 -0.93407843662E+00 -0.21904637120E+03  0.25246044469E+03  0.12499792768E+03 0.  0.
          5    1    3    3  502    0 -0.26808814252E+02  0.52127500099E+02 -0.12084212444E+03  0.13439083982E+03  0.47000000000E+01 0.  1.
         -5    1    3    3    0  502  0.38193407743E+02 -0.53061578535E+02 -0.98204246761E+02  0.11806960487E+03  0.47000000000E+01 0.  1.
        -11    1    1    2    0    0 -0.47352077062E+02 -0.13662898617E+02 -0.85535106026E+01  0.50020561216E+02  0.00000000000E+00 0.  1.
         11    1    1    2    0    0  0.35967483571E+02  0.14596977053E+02 -0.33838938767E+02  0.51495683221E+02  0.00000000000E+00 0. -1.
<mgrwt>
<rscale>  0 0.11621514E+03</rscale>
<asrwt>0</asrwt>
<pdfrwt beam="2">  1        2 0.47339654E-01 0.12551878E+03</pdfrwt>
<pdfrwt beam="1">  1       -2 0.71182976E-02 0.12551878E+03</pdfrwt>
<totfact> 0.11330522E+04</totfact>
</mgrwt>
</event>
<event>
 7    1  0.6419647E-006  0.1288653E+03  0.7546771E-02  0.1243383E+00
          2   -1    0    0  501    0  0.00000000000E+00  0.00000000000E+00  0.56245467025E+03  0.56245467025E+03  0.00000000000E+00 0. -1.
         -2   -1    0    0    0  501 -0.00000000000E+00 -0.00000000000E+00 -0.25103630167E+02  0.25103630167E+02  0.00000000000E+00 0.  1.
         23    2    1    2    0    0  0.28083531365E+02  0.13836305800E+02  0.39646615559E+03  0.41688328856E+03  0.12500454257E+03 0.  0.
          5    1    3    3  502    0  0.65268377756E+02 -0.18546223134E+02  0.30870690919E+03  0.31611069154E+03  0.47000000000E+01 0.  1.
         -5    1    3    3    0  502 -0.37184846392E+02  0.32382528934E+02  0.87759246400E+02  0.10077259702E+03  0.47000000000E+01 0.  1.
        -11    1    1    2    0    0 -0.61338214282E+02 -0.12874926720E+02  0.84489030891E+02  0.10519760744E+03  0.00000000000E+00 0.  1.
         11    1    1    2    0    0  0.33254682918E+02 -0.96137907937E+00  0.56395853609E+02  0.65477404423E+02  0.00000000000E+00 0. -1.
<mgrwt>
<rscale>  0 0.11982673E+03</rscale>
<asrwt>0</asrwt>
<pdfrwt beam="1">  1        2 0.86531478E-01 0.12886529E+03</pdfrwt>
<pdfrwt beam="2">  1       -2 0.38620974E-02 0.12886529E+03</pdfrwt>
<totfact> 0.14876596E+04</totfact>
</mgrwt>
</event>
<event>
 7    1  0.6419647E-006  0.1622799E+03  0.7546771E-02  0.1194175E+00
          2   -1    0    0  501    0  0.00000000000E+00  0.00000000000E+00  0.44026155514E+03  0.44026155514E+03  0.00000000000E+00 0. -1.
         -2   -1    0    0    0  501 -0.00000000000E+00 -0.00000000000E+00 -0.52939512040E+02  0.52939512040E+02  0.00000000000E+00 0.  1.
         23    2    1    2    0    0 -0.76251391214E+02  0.67267879488E+02  0.26282637407E+03  0.30888909085E+03  0.12647341725E+03 0.  0.
          5    1    3    3  502    0 -0.91855576254E+02  0.84620507679E+02  0.25474057445E+03  0.28374799996E+03  0.47000000000E+01 0. -1.
         -5    1    3    3    0  502  0.15604185040E+02 -0.17352628191E+02  0.80857996144E+01  0.25141090893E+02  0.47000000000E+01 0.  1.
        -11    1    1    2    0    0  0.91562408512E+02 -0.75310171620E+02  0.11044689881E+03  0.16203028747E+03  0.00000000000E+00 0.  1.
         11    1    1    2    0    0 -0.15311017298E+02  0.80422921320E+01  0.14048770230E+02  0.22281688859E+02  0.00000000000E+00 0. -1.
<mgrwt>
<rscale>  0 0.15524300E+03</rscale>
<asrwt>0</asrwt>
<pdfrwt beam="1">  1        2 0.67732545E-01 0.16227990E+03</pdfrwt>
<pdfrwt beam="2">  1       -2 0.81445406E-02 0.16227990E+03</pdfrwt>
<totfact> 0.63908495E+03</totfact>
</mgrwt>
</event>
<event>
 7    1  0.6419647E-006  0.1263287E+03  0.7546771E-02  0.1242511E+00
         -1   -1    0    0    0  501 -0.00000000000E+00  0.00000000000E+00  0.10453511841E+03  0.10453511841E+03  0.00000000000E+00 0.  1.
          1   -1    0    0  501    0  0.00000000000E+00 -0.00000000000E+00 -0.12857324655E+03  0.12857324655E+03  0.00000000000E+00 0. -1.
         23    2    1    2    0    0  0.23528390550E+02 -0.46743357066E+02 -0.26156033926E+02  0.12900806963E+03  0.11498007361E+03 0.  0.
          5    1    3    3  502    0  0.25255933343E+02 -0.75766568873E+02 -0.47127819236E+02  0.92852336932E+02  0.47000000000E+01 0. -1.
         -5    1    3    3    0  502 -0.17275427921E+01  0.29023211807E+02  0.20971785310E+02  0.36155732696E+02  0.47000000000E+01 0.  1.
        -11    1    1    2    0    0 -0.47646185976E+02  0.14526408994E+02 -0.24839893104E+02  0.55661439847E+02  0.00000000000E+00 0.  1.
         11    1    1    2    0    0  0.24117795426E+02  0.32216948072E+02  0.26957798899E+02  0.48438855485E+02  0.00000000000E+00 0. -1.
<mgrwt>
<rscale>  0 0.12035581E+03</rscale>
<asrwt>0</asrwt>
<pdfrwt beam="2">  1        1 0.19780499E-01 0.12632871E+03</pdfrwt>
<pdfrwt beam="1">  1       -1 0.16082326E-01 0.12632871E+03</pdfrwt>
<totfact> 0.70183887E+03</totfact>
</mgrwt>
</event>
<event>
 7    1  0.6419647E-006  0.1418711E+03  0.7546771E-02  0.1224501E+00
         -1   -1    0    0    0  501 -0.00000000000E+00  0.00000000000E+00  0.41626612773E+02  0.41626612773E+02  0.00000000000E+00 0.  1.
          1   -1    0    0  501    0  0.00000000000E+00 -0.00000000000E+00 -0.60658508711E+03  0.60658508711E+03  0.00000000000E+00 0. -1.
         23    2    1    2    0    0  0.13534426439E+02  0.65723572957E+02 -0.50825462712E+03  0.52768377118E+03  0.12499851057E+03 0.  0.
          5    1    3    3  502    0  0.53619349562E+02  0.44112433156E+01 -0.10795643876E+03  0.12071112784E+03  0.47000000000E+01 0. -1.
         -5    1    3    3    0  502 -0.40084923123E+02  0.61312329641E+02 -0.40029818836E+03  0.40697264335E+03  0.47000000000E+01 0. -1.
        -11    1    1    2    0    0  0.37230920222E+01 -0.10990761138E+02  0.20961847631E+02  0.23959492914E+02  0.00000000000E+00 0.  1.
         11    1    1    2    0    0 -0.17257518461E+02 -0.54732811819E+02 -0.77665694854E+02  0.96568435787E+02  0.00000000000E+00 0. -1.
<mgrwt>
<rscale>  0 0.13201130E+03</rscale>
<asrwt>0</asrwt>
<pdfrwt beam="2">  1        1 0.93320769E-01 0.14187106E+03</pdfrwt>
<pdfrwt beam="1">  1       -1 0.64040952E-02 0.14187106E+03</pdfrwt>
<totfact> 0.40768296E+03</totfact>
</mgrwt>
</event>
<event>
 7    1  0.6419647E-006  0.1467286E+03  0.7546771E-02  0.1214335E+00
          2   -1    0    0  501    0  0.00000000000E+00  0.00000000000E+00  0.20987796558E+03  0.20987796558E+03  0.00000000000E+00 0. -1.
         -2   -1    0    0    0  501 -0.00000000000E+00 -0.00000000000E+00 -0.84697208303E+02  0.84697208303E+02  0.00000000000E+00 0.  1.
         23    2    1    2    0    0  0.66816469624E+02 -0.37946919768E+02  0.57157837711E+02  0.15746836801E+03  0.12499943672E+03 0.  0.
          5    1    3    3  502    0  0.53821889277E+02 -0.62414894135E+02 -0.11439227882E+02  0.83338830744E+02  0.47000000000E+01 0. -1.
         -5    1    3    3    0  502  0.12994580347E+02  0.24467974368E+02  0.68597065593E+02  0.74129537271E+02  0.47000000000E+01 0. -1.
        -11    1    1    2    0    0 -0.33085445872E+02  0.39342973966E+02 -0.97506742769E+01  0.52322002809E+02  0.00000000000E+00 0.  1.
         11    1    1    2    0    0 -0.33731023752E+02 -0.13960541987E+01  0.77773593846E+02  0.84784803063E+02  0.00000000000E+00 0. -1.
<mgrwt>
<rscale>  0 0.13925527E+03</rscale>
<asrwt>0</asrwt>
<pdfrwt beam="1">  1        2 0.32288918E-01 0.14672855E+03</pdfrwt>
<pdfrwt beam="2">  1       -2 0.13030340E-01 0.14672855E+03</pdfrwt>
<totfact> 0.66765531E+03</totfact>
</mgrwt>
</event>
<event>
 7    1  0.6419647E-006  0.1849554E+03  0.7546771E-02  0.1169090E+00
         -1   -1    0    0    0  501 -0.00000000000E+00  0.00000000000E+00  0.21906421909E+02  0.21906421909E+02  0.00000000000E+00 0.  1.
          1   -1    0    0  501    0  0.00000000000E+00 -0.00000000000E+00 -0.14755733341E+04  0.14755733341E+04  0.00000000000E+00 0. -1.
         23    2    1    2    0    0 -0.59503618769E+02  0.12255952865E+03 -0.97628428958E+03  0.99364958855E+03  0.12508785730E+03 0.  0.
          5    1    3    3  502    0 -0.17012637477E+02  0.12906770783E+03 -0.85542559840E+03  0.86528778302E+03  0.47000000000E+01 0. -1.
         -5    1    3    3    0  502 -0.42490981292E+02 -0.65081791768E+01 -0.12085869118E+03  0.12836180553E+03  0.47000000000E+01 0.  1.
        -11    1    1    2    0    0  0.77425572163E+02 -0.11968590990E+03 -0.41135508953E+03  0.43535324270E+03  0.00000000000E+00 0.  1.
         11    1    1    2    0    0 -0.17921953395E+02 -0.28736187535E+01 -0.66027533118E+02  0.68476924784E+02  0.00000000000E+00 0. -1.
<mgrwt>
<rscale>  0 0.17867706E+03</rscale>
<asrwt>0</asrwt>
<pdfrwt beam="2">  1        1 0.22701132E+00 0.18495538E+03</pdfrwt>
<pdfrwt beam="1">  1       -1 0.33702182E-02 0.18495538E+03</pdfrwt>
<totfact> 0.23544339E+03</totfact>
</mgrwt>
</event>
<event>
 7    1  0.6419647E-006  0.1271323E+03  0.7546771E-02  0.1245284E+00
          3   -1    0    0  501    0  0.00000000000E+00  0.00000000000E+00  0.26762204577E+02  0.26762204577E+02  0.00000000000E+00 0. -1.
         -3   -1    0    0    0  501 -0.00000000000E+00 -0.00000000000E+00 -0.46752020524E+03  0.46752020524E+03  0.00000000000E+00 0.  1.
         23    2    1    2    0    0 -0.11192952017E+02  0.20314814909E+02 -0.24729391025E+03  0.27805916514E+03  0.12499858956E+03 0.  0.
          5    1    3    3  502    0 -0.52349063413E+02  0.37674160583E+02 -0.20983836711E+03  0.21957685927E+03  0.47000000000E+01 0.  1.
         -5    1    3    3    0  502  0.41156111397E+02 -0.17359345674E+02 -0.37455543136E+02  0.58482305864E+02  0.47000000000E+01 0.  1.
        -11    1    1    2    0    0  0.50424826142E+02  0.35981461535E+01 -0.97437149424E+02  0.10977070572E+03  0.00000000000E+00 0. -1.
         11    1    1    2    0    0 -0.39231874125E+02 -0.23912961062E+02 -0.96026940988E+02  0.10645253895E+03  0.00000000000E+00 0.  1.
<mgrwt>
<rscale>  0 0.11868423E+03</rscale>
<asrwt>0</asrwt>
<pdfrwt beam="1">  1        3 0.41172623E-02 0.12713230E+03</pdfrwt>
<pdfrwt beam="2">  1       -3 0.71926185E-01 0.12713230E+03</pdfrwt>
<totfact> 0.13261448E+03</totfact>
</mgrwt>
</event>
<event>
 7    1  0.6419647E-006  0.1438458E+03  0.7546771E-02  0.1218393E+00
         -1   -1    0    0    0  501 -0.00000000000E+00  0.00000000000E+00  0.14077642908E+02  0.14077642908E+02  0.00000000000E+00 0.  1.
          1   -1    0    0  501    0  0.00000000000E+00 -0.00000000000E+00 -0.15177621630E+04  0.15177621630E+04  0.00000000000E+00 0. -1.
         23    2    1    2    0    0 -0.45118467849E+02 -0.55069965396E+02 -0.11651331868E+04  0.11739791080E+04  0.12499290331E+03 0.  0.
          5    1    3    3  502    0  0.22131493044E+02  0.28443345342E+02 -0.32055558236E+03  0.32260935860E+03  0.47000000000E+01 0.  1.
         -5    1    3    3    0  502 -0.67249960893E+02 -0.83513310738E+02 -0.84457760446E+03  0.85136974944E+03  0.47000000000E+01 0.  1.
        -11    1    1    2    0    0  0.69291681317E+01 -0.73902451820E+01  0.12997726786E+01  0.10213643026E+02  0.00000000000E+00 0.  1.
         11    1    1    2    0    0  0.38189299717E+02  0.62460210578E+02 -0.33985110599E+03  0.34764705487E+03  0.00000000000E+00 0. -1.
<mgrwt>
<rscale>  0 0.13630195E+03</rscale>
<asrwt>0</asrwt>
<pdfrwt beam="2">  1        1 0.23350172E+00 0.14384576E+03</pdfrwt>
<pdfrwt beam="1">  1       -1 0.21657926E-02 0.14384576E+03</pdfrwt>
<totfact> 0.41970085E+03</totfact>
</mgrwt>
</event>
<event>
 6    1  0.6419647E-006  0.1780573E+03  0.7546771E-02  0.1194217E+00
          2   -1    0    0  501    0  0.00000000000E+00  0.00000000000E+00  0.12725033846E+04  0.12725033846E+04  0.00000000000E+00 0. -1.
         -2   -1    0    0    0  501 -0.00000000000E+00 -0.00000000000E+00 -0.20386924281E+02  0.20386924281E+02  0.00000000000E+00 0.  1.
          5    1    1    2  502    0 -0.51705229544E+02 -0.91624797851E+02  0.83299184448E+03  0.83962255646E+03  0.47000000000E+01 0. -1.
         -5    1    1    2    0  502  0.15938851273E+02  0.59479344188E+02  0.22844849908E+03  0.23664878215E+03  0.47000000000E+01 0.  1.
        -11    1    1    2    0    0  0.36384304626E+02 -0.22769599510E+02  0.11773490694E+03  0.12531472618E+03  0.00000000000E+00 0. -1.
         11    1    1    2    0    0 -0.61792635445E+00  0.54915053173E+02  0.72941209809E+02  0.91304244077E+02  0.00000000000E+00 0.  1.
<mgrwt>
<rscale>  0 0.15520677E+03</rscale>
<asrwt>0</asrwt>
<pdfrwt beam="1">  1        2 0.19576969E+00 0.17805727E+03</pdfrwt>
<pdfrwt beam="2">  1       -2 0.31364509E-02 0.17805727E+03</pdfrwt>
<totfact> 0.71023145E+03</totfact>
</mgrwt>
</event>
<event>
 7    1  0.6419647E-006  0.1633269E+03  0.7546771E-02  0.1192222E+00
         -2   -1    0    0    0  501 -0.00000000000E+00  0.00000000000E+00  0.39897930444E+02  0.39897930444E+02  0.00000000000E+00 0.  1.
          2   -1    0    0  501    0  0.00000000000E+00 -0.00000000000E+00 -0.73905480386E+03  0.73905480386E+03  0.00000000000E+00 0. -1.
         23    2    1    2    0    0  0.53853171042E+01 -0.10498658862E+03 -0.55522850876E+03  0.57875243395E+03  0.12499798971E+03 0.  0.
          5    1    3    3  502    0 -0.38348550204E+01  0.24800762220E+02 -0.41022343914E+02  0.48318801930E+02  0.47000000000E+01 0. -1.
         -5    1    3    3    0  502  0.92201721246E+01 -0.12978735084E+03 -0.51420616485E+03  0.53043363202E+03  0.47000000000E+01 0. -1.
        -11    1    1    2    0    0  0.49647747665E+01  0.52076275375E+02 -0.13599144680E+03  0.14570607759E+03  0.00000000000E+00 0. -1.
         11    1    1    2    0    0 -0.10350091871E+02  0.52910313241E+02 -0.79369178529E+01  0.54494222758E+02  0.00000000000E+00 0.  1.
<mgrwt>
<rscale>  0 0.15691697E+03</rscale>
<asrwt>0</asrwt>
<pdfrwt beam="2">  1        2 0.11370074E+00 0.16332692E+03</pdfrwt>
<pdfrwt beam="1">  1       -2 0.61381428E-02 0.16332692E+03</pdfrwt>
<totfact> 0.54748852E+03</totfact>
</mgrwt>
</event>
<event>
 7    1  0.6419647E-006  0.1269689E+03  0.7546771E-02  0.1241965E+00
          2   -1    0    0  501    0  0.00000000000E+00  0.00000000000E+00  0.55594934143E+03  0.55594934143E+03  0.00000000000E+00 0. -1.
         -2   -1    0    0    0  501 -0.00000000000E+00 -0.00000000000E+00 -0.54580352942E+02  0.54580352942E+02  0.00000000000E+00 0.  1.
         23    2    1    2    0    0  0.43178126853E+02 -0.24377468731E+02  0.49008448089E+03  0.50626464230E+03  0.11688660321E+03 0.  0.
          5    1    3    3  502    0  0.53949433722E+02 -0.63897187131E+02  0.36779970653E+03  0.37721625899E+03  0.47000000000E+01 0. -1.
         -5    1    3    3    0  502 -0.10771306869E+02  0.39519718401E+02  0.12228477436E+03  0.12904838331E+03  0.47000000000E+01 0.  1.
        -11    1    1    2    0    0 -0.61815707984E+02  0.16966259648E+02 -0.19959456745E+02  0.67137289441E+02  0.00000000000E+00 0.  1.
         11    1    1    2    0    0  0.18637581130E+02  0.74112090825E+01  0.31243964347E+02  0.37127762639E+02  0.00000000000E+00 0. -1.
<mgrwt>
<rscale>  0 0.12068907E+03</rscale>
<asrwt>0</asrwt>
<pdfrwt beam="1">  1        2 0.85530664E-01 0.12696885E+03</pdfrwt>
<pdfrwt beam="2">  1       -2 0.83969778E-02 0.12696885E+03</pdfrwt>
<totfact> 0.46560167E+03</totfact>
</mgrwt>
</event>
<event>
 7    1  0.6419647E-006  0.1709473E+03  0.7546771E-02  0.1182945E+00
          3   -1    0    0  501    0  0.00000000000E+00  0.00000000000E+00  0.16073727004E+04  0.16073727004E+04  0.00000000000E+00 0. -1.
         -3   -1    0    0    0  501 -0.00000000000E+00 -0.00000000000E+00 -0.24269214869E+02  0.24269214869E+02  0.00000000000E+00 0.  1.
         23    2    1    2    0    0 -0.97233241933E+02  0.64360166820E+02  0.13044718857E+04  0.13156252808E+04  0.12500577746E+03 0.  0.
          5    1    3    3  502    0 -0.64323000717E+02 -0.27091320554E+02  0.68426460624E+03  0.68783103261E+03  0.47000000000E+01 0.  1.
         -5    1    3    3    0  502 -0.32910241216E+02  0.91451487374E+02  0.62020727946E+03  0.62779424816E+03  0.47000000000E+01 0.  1.
        -11    1    1    2    0    0  0.91272688031E+02 -0.17138854095E+02  0.12867238460E+03  0.15868530638E+03  0.00000000000E+00 0.  1.
         11    1    1    2    0    0  0.59605539021E+01 -0.47221312725E+02  0.14995921520E+03  0.15733132810E+03  0.00000000000E+00 0. -1.
<mgrwt>
<rscale>  0 0.16520243E+03</rscale>
<asrwt>0</asrwt>
<pdfrwt beam="1">  1        3 0.24728802E+00 0.17094730E+03</pdfrwt>
<pdfrwt beam="2">  1       -3 0.37337266E-02 0.17094730E+03</pdfrwt>
<totfact> 0.75587116E+01</totfact>
</mgrwt>
</event>
<event>
 7    1  0.6419647E-006  0.1471136E+03  0.7546771E-02  0.1214418E+00
          2   -1    0    0  501    0  0.00000000000E+00  0.00000000000E+00  0.73293381391E+03  0.73293381391E+03  0.00000000000E+00 0. -1.
         -2   -1    0    0    0  501 -0.00000000000E+00 -0.00000000000E+00 -0.26568756526E+02  0.26568756526E+02  0.00000000000E+00 0.  1.
         23    2    1    2    0    0  0.73932909873E+02 -0.23500521772E+02  0.50670967189E+03  0.52763349867E+03  0.12499627054E+03 0.  0.
          5    1    3    3  502    0  0.39864107374E+02 -0.27888559346E+02  0.48337967408E+03  0.48584454110E+03  0.47000000000E+01 0.  1.
         -5    1    3    3    0  502  0.34068802499E+02  0.43880375741E+01  0.23329997808E+02  0.41788957575E+02  0.47000000000E+01 0.  1.
        -11    1    1    2    0    0  0.16859440054E+02  0.20913075552E+02  0.39944454903E+02  0.48136856206E+02  0.00000000000E+00 0.  1.
         11    1    1    2    0    0 -0.90792349927E+02  0.25874462194E+01  0.15971093059E+03  0.18373221555E+03  0.00000000000E+00 0. -1.
<mgrwt>
<rscale>  0 0.13919396E+03</rscale>
<asrwt>0</asrwt>
<pdfrwt beam="1">  1        2 0.11275903E+00 0.14711362E+03</pdfrwt>
<pdfrwt beam="2">  1       -2 0.40875016E-02 0.14711362E+03</pdfrwt>
<totfact> 0.10150528E+04</totfact>
</mgrwt>
</event>
<event>
 7    1  0.6419647E-006  0.1659840E+03  0.7546771E-02  0.1188998E+00
          1   -1    0    0  501    0  0.00000000000E+00  0.00000000000E+00  0.41189775982E+02  0.41189775982E+02  0.00000000000E+00 0. -1.
         -1   -1    0    0    0  501 -0.00000000000E+00 -0.00000000000E+00 -0.58010500089E+03  0.58010500089E+03  0.00000000000E+00 0.  1.
         23    2    1    2    0    0  0.10780769844E+03 -0.17453845993E+02 -0.26755269512E+03  0.31485730657E+03  0.12499416888E+03 0.  0.
          5    1    3    3  502    0  0.68015663069E+02 -0.58292974018E+02 -0.85104946733E+02  0.12364927497E+03  0.47000000000E+01 0. -1.
         -5    1    3    3    0  502  0.39792035366E+02  0.40839128025E+02 -0.18244774838E+03  0.19120803159E+03  0.47000000000E+01 0. -1.
        -11    1    1    2    0    0 -0.94814418894E+02  0.37363089215E+02 -0.14128110591E+03  0.17420139309E+03  0.00000000000E+00 0.  1.
         11    1    1    2    0    0 -0.12993279541E+02 -0.19909243223E+02 -0.13008142388E+03  0.13223607722E+03  0.00000000000E+00 0. -1.
<mgrwt>
<rscale>  0 0.15973365E+03</rscale>
<asrwt>0</asrwt>
<pdfrwt beam="1">  1        1 0.63368891E-02 0.16598397E+03</pdfrwt>
<pdfrwt beam="2">  1       -1 0.89246916E-01 0.16598397E+03</pdfrwt>
<totfact> 0.15247942E+03</totfact>
</mgrwt>
</event>
<event>
 7    1  0.6419647E-006  0.1691690E+03  0.7546771E-02  0.1185627E+00
         -2   -1    0    0    0  501 -0.00000000000E+00  0.00000000000E+00  0.79228289197E+02  0.79228289197E+02  0.00000000000E+00 0.  1.
          2   -1    0    0  501    0  0.00000000000E+00 -0.00000000000E+00 -0.32909321672E+03  0.32909321672E+03  0.00000000000E+00 0. -1.
         23    2    1    2    0    0 -0.10293691517E+02 -0.11352214405E+03 -0.18141978857E+03  0.24805502755E+03  0.12499967893E+03 0.  0.
          5    1    3    3  502    0  0.45629064695E+02 -0.86157485177E+01 -0.75511290036E+02  0.88770983944E+02  0.47000000000E+01 0.  1.
         -5    1    3    3    0  502 -0.55922756213E+02 -0.10490639553E+03 -0.10590849853E+03  0.15928404360E+03  0.47000000000E+01 0.  1.
        -11    1    1    2    0    0 -0.42036292615E+00  0.96000786934E+02 -0.89216019994E+02  0.13105657565E+03  0.00000000000E+00 0. -1.
         11    1    1    2    0    0  0.10714054444E+02  0.17521357113E+02  0.20770881040E+02  0.29209902720E+02  0.00000000000E+00 0.  1.
<mgrwt>
<rscale>  0 0.16274948E+03</rscale>
<asrwt>0</asrwt>
<pdfrwt beam="2">  1        2 0.50629726E-01 0.16916902E+03</pdfrwt>
<pdfrwt beam="1">  1       -2 0.12188967E-01 0.16916902E+03</pdfrwt>
<totfact> 0.46326448E+03</totfact>
</mgrwt>
</event>
<event>
 7    1  0.6419647E-006  0.1747542E+03  0.7546771E-02  0.1179184E+00
         -1   -1    0    0    0  501 -0.00000000000E+00  0.00000000000E+00  0.35218998150E+03  0.35218998150E+03  0.00000000000E+00 0.  1.
          1   -1    0    0  501    0  0.00000000000E+00 -0.00000000000E+00 -0.84133561100E+02  0.84133561100E+02  0.00000000000E+00 0. -1.
         23    2    1    2    0    0  0.45371881237E+02  0.11337090699E+03  0.73657725247E+02  0.18964309747E+03  0.12500989469E+03 0.  0.
          5    1    3    3  502    0  0.53700550670E+02  0.48044889010E+02  0.95836645603E+02  0.11999505466E+03  0.47000000000E+01 0.  1.
         -5    1    3    3    0  502 -0.83286694324E+01  0.65326017977E+02 -0.22178920356E+02  0.69648042811E+02  0.47000000000E+01 0.  1.
        -11    1    1    2    0    0 -0.21080980105E+02 -0.11530945591E+03  0.18789129904E+03  0.22145839022E+03  0.00000000000E+00 0.  1.
         11    1    1    2    0    0 -0.24290901132E+02  0.19385489247E+01  0.65073961163E+01  0.25222054912E+02  0.00000000000E+00 0. -1.
<mgrwt>
<rscale>  0 0.16872488E+03</rscale>
<asrwt>0</asrwt>
<pdfrwt beam="2">  1        1 0.12943625E-01 0.17475424E+03</pdfrwt>
<pdfrwt beam="1">  1       -1 0.54183073E-01 0.17475424E+03</pdfrwt>
<totfact> 0.15794365E+03</totfact>
</mgrwt>
</event>
<event>
 7    1  0.6419647E-006  0.1463943E+03  0.7546771E-02  0.1215526E+00
         -2   -1    0    0    0  501 -0.00000000000E+00  0.00000000000E+00  0.79510705633E+02  0.79510705633E+02  0.00000000000E+00 0.  1.
          2   -1    0    0  501    0  0.00000000000E+00 -0.00000000000E+00 -0.23434726225E+03  0.23434726225E+03  0.00000000000E+00 0. -1.
         23    2    1    2    0    0 -0.70144983006E+02 -0.29762151442E+02 -0.12678939528E+03  0.19366684070E+03  0.12500076052E+03 0.  0.
          5    1    3    3  502    0 -0.70704344220E+02 -0.73574383154E+02 -0.92901631301E+02  0.13807641814E+03  0.47000000000E+01 0.  1.
         -5    1    3    3    0  502  0.55936121433E+00  0.43812231712E+02 -0.33887763975E+02  0.55590422555E+02  0.47000000000E+01 0.  1.
        -11    1    1    2    0    0 -0.16867348660E+02  0.97513711494E+01  0.11408856520E+02  0.22577836416E+02  0.00000000000E+00 0.  1.
         11    1    1    2    0    0  0.87012331666E+02  0.20010780293E+02 -0.39456017860E+02  0.97613290771E+02  0.00000000000E+00 0. -1.
<mgrwt>
<rscale>  0 0.13837944E+03</rscale>
<asrwt>0</asrwt>
<pdfrwt beam="2">  1        2 0.36053425E-01 0.14639431E+03</pdfrwt>
<pdfrwt beam="1">  1       -2 0.12232416E-01 0.14639431E+03</pdfrwt>
<totfact> 0.65628929E+03</totfact>
</mgrwt>
</event>
<event>
 7    1  0.6419647E-006  0.2768079E+03  0.7546771E-02  0.1099163E+00
         -2   -1    0    0    0  501 -0.00000000000E+00  0.00000000000E+00  0.62394147105E+02  0.62394147105E+02  0.00000000000E+00 0.  1.
          2   -1    0    0  501    0  0.00000000000E+00 -0.00000000000E+00 -0.11875962513E+04  0.11875962513E+04  0.00000000000E+00 0. -1.
         23    2    1    2    0    0  0.15516419217E+03 -0.19215024174E+03 -0.63958308584E+03  0.69691399711E+03  0.12499981494E+03 0.  0.
          5    1    3    3  502    0  0.18370080837E+02  0.93743483047E+01 -0.13446861806E+03  0.13612214191E+03  0.47000000000E+01 0. -1.
         -5    1    3    3    0  502  0.13679411134E+03 -0.20152459005E+03 -0.50511446778E+03  0.56079185519E+03  0.47000000000E+01 0. -1.
        -11    1    1    2    0    0 -0.81563633486E+02  0.11244360204E+03 -0.17120350157E+03  0.22046956456E+03  0.00000000000E+00 0.  1.
         11    1    1    2    0    0 -0.73600558688E+02  0.79706639707E+02 -0.31441551680E+03  0.33260683676E+03  0.00000000000E+00 0. -1.
<mgrwt>
<rscale>  0 0.27373072E+03</rscale>
<asrwt>0</asrwt>
<pdfrwt beam="2">  1        2 0.18270712E+00 0.27680787E+03</pdfrwt>
<pdfrwt beam="1">  1       -2 0.95990994E-02 0.27680787E+03</pdfrwt>
<totfact> 0.14396248E+03</totfact>
</mgrwt>
</event>
<event>
 7    1  0.6419647E-006  0.1554309E+03  0.7546771E-02  0.1202021E+00
          2   -1    0    0  501    0  0.00000000000E+00  0.00000000000E+00  0.78396020103E+03  0.78396020103E+03  0.00000000000E+00 0.  1.
         -2   -1    0    0    0  501 -0.00000000000E+00 -0.00000000000E+00 -0.26511294757E+02  0.26511294757E+02  0.00000000000E+00 0. -1.
         23    2    1    2    0    0  0.67358134638E+02  0.63233358079E+02  0.46472062845E+03  0.49002450460E+03  0.12499270671E+03 0.  0.
          5    1    3    3  502    0  0.82908937449E+02  0.67726950731E+01  0.36406531943E+03  0.37347745330E+03  0.47000000000E+01 0. -1.
         -5    1    3    3    0  502 -0.15550802812E+02  0.56460663005E+02  0.10065530902E+03  0.11654705131E+03  0.47000000000E+01 0. -1.
        -11    1    1    2    0    0 -0.35562102536E+02 -0.76713408072E+02  0.13745918237E+03  0.16138350887E+03  0.00000000000E+00 0. -1.
         11    1    1    2    0    0 -0.31796032102E+02  0.13480049994E+02  0.15526909545E+03  0.15906348232E+03  0.00000000000E+00 0.  1.
<mgrwt>
<rscale>  0 0.14874681E+03</rscale>
<asrwt>0</asrwt>
<pdfrwt beam="1">  1        2 0.12060924E+00 0.15543086E+03</pdfrwt>
<pdfrwt beam="2">  1       -2 0.40786613E-02 0.15543086E+03</pdfrwt>
<totfact> 0.94080464E+03</totfact>
</mgrwt>
</event>
<event>
 7    1  0.6419647E-006  0.1258237E+03  0.7546771E-02  0.1249440E+00
          2   -1    0    0  501    0  0.00000000000E+00  0.00000000000E+00  0.99008347828E+02  0.99008347828E+02  0.00000000000E+00 0. -1.
         -2   -1    0    0    0  501 -0.00000000000E+00 -0.00000000000E+00 -0.11974957928E+03  0.11974957928E+03  0.00000000000E+00 0.  1.
         23    2    1    2    0    0  0.11820189461E+02 -0.83978405391E+01 -0.62054745024E+01  0.12597664321E+03  0.12498546362E+03 0.  0.
          5    1    3    3  502    0  0.22045902294E+01  0.56890297999E+02  0.96691828564E+01  0.57939186408E+02  0.47000000000E+01 0. -1.
         -5    1    3    3    0  502  0.96155992319E+01 -0.65288138538E+02 -0.15874657359E+02  0.68037456806E+02  0.47000000000E+01 0. -1.
        -11    1    1    2    0    0  0.17585990604E+02 -0.30207123361E+02 -0.25204999008E+02  0.43093263305E+02  0.00000000000E+00 0.  1.
         11    1    1    2    0    0 -0.29406180065E+02  0.38604963900E+02  0.10669242060E+02  0.49688020587E+02  0.00000000000E+00 0. -1.
<mgrwt>
<rscale>  0 0.11623526E+03</rscale>
<asrwt>0</asrwt>
<pdfrwt beam="1">  1        2 0.15232054E-01 0.12582371E+03</pdfrwt>
<pdfrwt beam="2">  1       -2 0.18423012E-01 0.12582371E+03</pdfrwt>
<totfact> 0.86716715E+03</totfact>
</mgrwt>
</event>
<event>
 7    1  0.6419647E-006  0.1374281E+03  0.7546771E-02  0.1234568E+00
          1   -1    0    0  501    0  0.00000000000E+00  0.00000000000E+00  0.22620674282E+03  0.22620674282E+03  0.00000000000E+00 0. -1.
         -1   -1    0    0    0  501 -0.00000000000E+00 -0.00000000000E+00 -0.84416921328E+02  0.84416921328E+02  0.00000000000E+00 0.  1.
         23    2    1    2    0    0  0.56404823575E+02  0.87850767262E+01  0.16305089254E+03  0.21324183663E+03  0.12501122204E+03 0.  0.
          5    1    3    3  502    0  0.77634985493E+02 -0.31399890677E+02  0.13702609910E+03  0.16065922302E+03  0.47000000000E+01 0. -1.
         -5    1    3    3    0  502 -0.21230161918E+02  0.40184967404E+02  0.26024793438E+02  0.52582613607E+02  0.47000000000E+01 0. -1.
        -11    1    1    2    0    0  0.12197111664E+02  0.17421916291E+02 -0.81938533482E+01  0.22791049403E+02  0.00000000000E+00 0.  1.
         11    1    1    2    0    0 -0.68601935239E+02 -0.26206993018E+02 -0.13067217698E+02  0.74590778116E+02  0.00000000000E+00 0. -1.
<mgrwt>
<rscale>  0 0.12532127E+03</rscale>
<asrwt>0</asrwt>
<pdfrwt beam="1">  1        1 0.34801037E-01 0.13742812E+03</pdfrwt>
<pdfrwt beam="2">  1       -1 0.12987219E-01 0.13742812E+03</pdfrwt>
<totfact> 0.48586884E+03</totfact>
</mgrwt>
</event>
<event>
 7    1  0.6419647E-006  0.1466830E+03  0.7546771E-02  0.1213861E+00
         -3   -1    0    0    0  501 -0.00000000000E+00  0.00000000000E+00  0.19211271043E+03  0.19211271043E+03  0.00000000000E+00 0.  1.
          3   -1    0    0  501    0  0.00000000000E+00 -0.00000000000E+00 -0.93541375685E+02  0.93541375685E+02  0.00000000000E+00 0. -1.
         23    2    1    2    0    0  0.76218826220E+02 -0.99109557877E+01  0.66779392633E+02  0.16116886061E+03  0.12493349365E+03 0.  0.
          5    1    3    3  502    0  0.88533670401E+02  0.30279161259E+02  0.15935491310E+02  0.95031932973E+02  0.47000000000E+01 0.  1.
         -5    1    3    3    0  502 -0.12314844181E+02 -0.40190117047E+02  0.50843901324E+02  0.66136927637E+02  0.47000000000E+01 0.  1.
        -11    1    1    2    0    0 -0.84757457104E+02 -0.16549936052E+02  0.60100949881E+01  0.86567015426E+02  0.00000000000E+00 0.  1.
         11    1    1    2    0    0  0.85386308840E+01  0.26460891840E+02  0.25781847120E+02  0.37918210074E+02  0.00000000000E+00 0. -1.
<mgrwt>
<rscale>  0 0.13960562E+03</rscale>
<asrwt>0</asrwt>
<pdfrwt beam="2">  1        3 0.14390981E-01 0.14668304E+03</pdfrwt>
<pdfrwt beam="1">  1       -3 0.29555802E-01 0.14668304E+03</pdfrwt>
<totfact> 0.10268177E+03</totfact>
</mgrwt>
</event>
<event>
 7    1  0.6419647E-006  0.1257459E+03  0.7546771E-02  0.1250186E+00
          2   -1    0    0  501    0  0.00000000000E+00  0.00000000000E+00  0.59785965110E+03  0.59785965110E+03  0.00000000000E+00 0. -1.
         -2   -1    0    0    0  501 -0.00000000000E+00 -0.00000000000E+00 -0.45183814392E+02  0.45183814392E+02  0.00000000000E+00 0.  1.
         23    2    1    2    0    0 -0.94747336167E+01  0.98862209075E+01  0.53665231824E+03  0.55118756638E+03  0.12499805885E+03 0.  0.
          5    1    3    3  502    0  0.69376521616E+01 -0.44223889393E+02  0.86850008697E+02  0.97820741263E+02  0.47000000000E+01 0.  1.
         -5    1    3    3    0  502 -0.16412385778E+02  0.54110110300E+02  0.44980230954E+03  0.45336682511E+03  0.47000000000E+01 0.  1.
        -11    1    1    2    0    0  0.20300443502E+01 -0.26587876790E+02  0.48063650297E+02  0.54964995699E+02  0.00000000000E+00 0. -1.
         11    1    1    2    0    0  0.74446892665E+01  0.16701655883E+02 -0.32040131828E+02  0.36890903419E+02  0.00000000000E+00 0.  1.
<mgrwt>
<rscale>  0 0.11580290E+03</rscale>
<asrwt>0</asrwt>
<pdfrwt beam="1">  1        2 0.91978402E-01 0.12574587E+03</pdfrwt>
<pdfrwt beam="2">  1       -2 0.69513565E-02 0.12574587E+03</pdfrwt>
<totfact> 0.57332464E+03</totfact>
</mgrwt>
</event>
<event>
 7    1  0.6419647E-006  0.1230210E+03  0.7546771E-02  0.1247958E+00
         -2   -1    0    0    0  501 -0.00000000000E+00  0.00000000000E+00  0.18701453886E+03  0.18701453886E+03  0.00000000000E+00 0.  1.
          2   -1    0    0  501    0  0.00000000000E+00 -0.00000000000E+00 -0.68798752912E+02  0.68798752912E+02  0.00000000000E+00 0. -1.
         23    2    1    2    0    0 -0.18727955835E+02  0.36029755564E+02  0.44682272569E+02  0.13088423446E+03  0.11612621467E+03 0.  0.
          5    1    3    3  502    0 -0.20344909299E+02  0.42126724046E+02 -0.30010105142E+02  0.55778782918E+02  0.47000000000E+01 0. -1.
         -5    1    3    3    0  502  0.16169534649E+01 -0.60969684820E+01  0.74692377711E+02  0.75105451542E+02  0.47000000000E+01 0.  1.
        -11    1    1    2    0    0  0.50601359185E+02 -0.26332943253E+02  0.17372792762E+02  0.59629987255E+02  0.00000000000E+00 0.  1.
         11    1    1    2    0    0 -0.31873403350E+02 -0.96968123107E+01  0.56160720621E+02  0.65299070060E+02  0.00000000000E+00 0. -1.
<mgrwt>
<rscale>  0 0.11710086E+03</rscale>
<asrwt>0</asrwt>
<pdfrwt beam="2">  1        2 0.10584424E-01 0.12302104E+03</pdfrwt>
<pdfrwt beam="1">  1       -2 0.28771467E-01 0.12302104E+03</pdfrwt>
<totfact> 0.61936572E+03</totfact>
</mgrwt>
</event>
<event>
 7    1  0.6419647E-006  0.3379780E+03  0.7546771E-02  0.1069501E+00
         -2   -1    0    0    0  501 -0.00000000000E+00  0.00000000000E+00  0.14915932728E+03  0.14915932728E+03  0.00000000000E+00 0.  1.
          2   -1    0    0  501    0  0.00000000000E+00 -0.00000000000E+00 -0.74961444252E+03  0.74961444252E+03  0.00000000000E+00 0. -1.
         23    2    1    2    0    0 -0.13278912809E+03 -0.28455354495E+03 -0.38309205044E+03  0.51087048352E+03  0.12500183735E+03 0.  0.
          5    1    3    3  502    0 -0.12926592833E+03 -0.22799250484E+03 -0.36839571641E+03  0.45213687791E+03  0.47000000000E+01 0. -1.
         -5    1    3    3    0  502 -0.35231997626E+01 -0.56561040111E+02 -0.14696334028E+02  0.58733605618E+02  0.47000000000E+01 0. -1.
        -11    1    1    2    0    0  0.11882420760E+03  0.24864922483E+03 -0.15956872330E+03  0.31844592442E+03  0.00000000000E+00 0. -1.
         11    1    1    2    0    0  0.13964920494E+02  0.35904320117E+02 -0.57794341497E+02  0.69457361860E+02  0.00000000000E+00 0.  1.
<mgrwt>
<rscale>  0 0.33372443E+03</rscale>
<asrwt>0</asrwt>
<pdfrwt beam="2">  1        2 0.11532530E+00 0.33797800E+03</pdfrwt>
<pdfrwt beam="1">  1       -2 0.22947589E-01 0.33797800E+03</pdfrwt>
<totfact> 0.63826006E+02</totfact>
</mgrwt>
</event>
<event>
 7    1  0.6419647E-006  0.1239589E+03  0.7546771E-02  0.1250715E+00
         -2   -1    0    0    0  501 -0.00000000000E+00  0.00000000000E+00  0.19939508105E+02  0.19939508105E+02  0.00000000000E+00 0.  1.
          2   -1    0    0  501    0  0.00000000000E+00 -0.00000000000E+00 -0.60189898451E+03  0.60189898451E+03  0.00000000000E+00 0. -1.
         23    2    1    2    0    0 -0.19558160575E+02  0.12673556797E+01 -0.36971515471E+03  0.38994242289E+03  0.12239963117E+03 0.  0.
          5    1    3    3  502    0 -0.66349452514E+02 -0.23458314579E+02 -0.22410047704E+03  0.23493755805E+03  0.47000000000E+01 0. -1.
         -5    1    3    3    0  502  0.46791291939E+02  0.24725670259E+02 -0.14561467767E+03  0.15500486484E+03  0.47000000000E+01 0.  1.
        -11    1    1    2    0    0 -0.51195030647E+01 -0.41412909926E+02 -0.13606332005E+03  0.14231818396E+03  0.00000000000E+00 0. -1.
         11    1    1    2    0    0  0.24677663639E+02  0.40145554246E+02 -0.76181001644E+02  0.89577885775E+02  0.00000000000E+00 0.  1.
<mgrwt>
<rscale>  0 0.11549770E+03</rscale>
<asrwt>0</asrwt>
<pdfrwt beam="2">  1        2 0.92599836E-01 0.12395885E+03</pdfrwt>
<pdfrwt beam="1">  1       -2 0.30676169E-02 0.12395885E+03</pdfrwt>
<totfact> 0.19294161E+04</totfact>
</mgrwt>
</event>
<event>
 7    1  0.6419647E-006  0.1309963E+03  0.7546771E-02  0.1238879E+00
         -1   -1    0    0    0  501 -0.00000000000E+00  0.00000000000E+00  0.18356234074E+03  0.18356234074E+03  0.00000000000E+00 0.  1.
          1   -1    0    0  501    0  0.00000000000E+00 -0.00000000000E+00 -0.75891708260E+02  0.75891708260E+02  0.00000000000E+00 0. -1.
         23    2    1    2    0    0  0.17717647738E+02 -0.34897005154E+02  0.35443024898E+02  0.13570639756E+03  0.12501320856E+03 0.  0.
          5    1    3    3  502    0  0.59511925990E+02 -0.41552085072E+02  0.52639073570E+02  0.89784225647E+02  0.47000000000E+01 0. -1.
         -5    1    3    3    0  502 -0.41794278252E+02  0.66550799181E+01 -0.17196048671E+02  0.45922171913E+02  0.47000000000E+01 0. -1.
        -11    1    1    2    0    0  0.59369896753E+01  0.19072422600E+02  0.88661500391E+02  0.90883809350E+02  0.00000000000E+00 0.  1.
         11    1    1    2    0    0 -0.23654637413E+02  0.15824582553E+02 -0.16433892809E+02  0.32863842091E+02  0.00000000000E+00 0. -1.
<mgrwt>
<rscale>  0 0.12259319E+03</rscale>
<asrwt>0</asrwt>
<pdfrwt beam="2">  1        1 0.11675648E-01 0.13099625E+03</pdfrwt>
<pdfrwt beam="1">  1       -1 0.28240360E-01 0.13099625E+03</pdfrwt>
<totfact> 0.55989743E+03</totfact>
</mgrwt>
</event>
<event>
 6    1  0.6419647E-006  0.1906538E+03  0.7546771E-02  0.1169495E+00
          1   -1    0    0  501    0  0.00000000000E+00  0.00000000000E+00  0.15751069637E+04  0.15751069637E+04  0.00000000000E+00 0. -1.
         -1   -1    0    0    0  501 -0.00000000000E+00 -0.00000000000E+00 -0.20134551328E+02  0.20134551328E+02  0.00000000000E+00 0.  1.
          5    1    1    2  502    0 -0.84202157415E+02  0.26970622942E+01  0.58998461685E+03  0.59598759683E+03  0.47000000000E+01 0. -1.
         -5    1    1    2    0  502  0.36937202857E+02  0.97362964353E+02  0.54027083531E+03  0.55023501276E+03  0.47000000000E+01 0.  1.
        -11    1    1    2    0    0  0.49586342458E+01 -0.10315874990E+03  0.30438454374E+03  0.32142847759E+03  0.00000000000E+00 0.  1.
         11    1    1    2    0    0  0.42306320313E+02  0.30987232525E+01  0.12033241644E+03  0.12759042782E+03  0.00000000000E+00 0. -1.
<mgrwt>
<rscale>  0 0.17826324E+03</rscale>
<asrwt>0</asrwt>
<pdfrwt beam="1">  1        1 0.24232405E+00 0.19065383E+03</pdfrwt>
<pdfrwt beam="2">  1       -1 0.30976245E-02 0.19065383E+03</pdfrwt>
<totfact> 0.22947061E+03</totfact>
</mgrwt>
</event>
<event>
 7    1  0.6419647E-006  0.1329971E+03  0.7546771E-02  0.1235299E+00
         -2   -1    0    0    0  501 -0.00000000000E+00  0.00000000000E+00  0.51241650380E+02  0.51241650380E+02  0.00000000000E+00 0.  1.
          2   -1    0    0  501    0  0.00000000000E+00 -0.00000000000E+00 -0.27350428962E+03  0.27350428962E+03  0.00000000000E+00 0. -1.
         23    2    1    2    0    0  0.91256924461E+01  0.44504884171E+02 -0.11480859693E+03  0.17569645539E+03  0.12499707009E+03 0.  0.
          5    1    3    3  502    0 -0.23466616544E+02 -0.20199191691E+02  0.86348018722E+01  0.32485985291E+02  0.47000000000E+01 0.  1.
         -5    1    3    3    0  502  0.32592308990E+02  0.64704075861E+02 -0.12344339880E+03  0.14321047010E+03  0.47000000000E+01 0.  1.
        -11    1    1    2    0    0 -0.14719064789E+02 -0.17577780496E+02  0.12410689304E+02  0.26070183053E+02  0.00000000000E+00 0.  1.
         11    1    1    2    0    0  0.55933723429E+01 -0.26927103675E+02 -0.11986473161E+03  0.12297930155E+03  0.00000000000E+00 0. -1.
<mgrwt>
<rscale>  0 0.12485301E+03</rscale>
<asrwt>0</asrwt>
<pdfrwt beam="2">  1        2 0.42077582E-01 0.13299711E+03</pdfrwt>
<pdfrwt beam="1">  1       -2 0.78833310E-02 0.13299711E+03</pdfrwt>
<totfact> 0.11023780E+04</totfact>
</mgrwt>
</event>
<event>
 7    1  0.6419647E-006  0.1378502E+03  0.7546771E-02  0.1227683E+00
         -2   -1    0    0    0  501 -0.00000000000E+00  0.00000000000E+00  0.29930353168E+02  0.29930353168E+02  0.00000000000E+00 0.  1.
          2   -1    0    0  501    0  0.00000000000E+00 -0.00000000000E+00 -0.57399972900E+03  0.57399972900E+03  0.00000000000E+00 0. -1.
         23    2    1    2    0    0 -0.54210496200E+02  0.20950450115E+02 -0.40316949825E+03  0.42608486713E+03  0.12499988170E+03 0.  0.
          5    1    3    3  502    0 -0.19417732235E+02 -0.51188264312E+02 -0.20637446059E+03  0.21356449778E+03  0.47000000000E+01 0.  1.
         -5    1    3    3    0  502 -0.34792763966E+02  0.72138714427E+02 -0.19679503765E+03  0.21252036935E+03  0.47000000000E+01 0.  1.
        -11    1    1    2    0    0  0.15698266861E+02 -0.50594211998E+02 -0.41833951735E+02  0.67500291762E+02  0.00000000000E+00 0.  1.
         11    1    1    2    0    0  0.38512229339E+02  0.29643761884E+02 -0.99065925849E+02  0.11034492327E+03  0.00000000000E+00 0. -1.
<mgrwt>
<rscale>  0 0.12984669E+03</rscale>
<asrwt>0</asrwt>
<pdfrwt beam="2">  1        2 0.88307648E-01 0.13785017E+03</pdfrwt>
<pdfrwt beam="1">  1       -2 0.46046698E-02 0.13785017E+03</pdfrwt>
<totfact> 0.11247204E+04</totfact>
</mgrwt>
</event>
<event>
 6    1  0.6419647E-006  0.1245507E+04  0.7546771E-02  0.9450887E-01
         -1   -1    0    0    0  501 -0.00000000000E+00  0.00000000000E+00  0.50744005673E+03  0.50744005673E+03  0.00000000000E+00 0.  1.
          1   -1    0    0  501    0  0.00000000000E+00 -0.00000000000E+00 -0.19878341188E+04  0.19878341188E+04  0.00000000000E+00 0. -1.
          5    1    1    2  502    0  0.53076110396E+03 -0.12509985032E+03 -0.16663990583E+04  0.17533582730E+04  0.47000000000E+01 0. -1.
         -5    1    1    2    0  502 -0.34077770831E+03 -0.10408204349E+03 -0.39058847799E+02  0.35848319605E+03  0.47000000000E+01 0.  1.
        -11    1    1    2    0    0 -0.14546248911E+03  0.12352900289E+03  0.17274460702E+03  0.25740910930E+03  0.00000000000E+00 0.  1.
         11    1    1    2    0    0 -0.44520906542E+02  0.10565289091E+03  0.52319237027E+02  0.12602359716E+03  0.00000000000E+00 0. -1.
<mgrwt>
<rscale>  0 0.88003637E+03</rscale>
<asrwt>0</asrwt>
<pdfrwt beam="2">  1        1 0.30582064E+00 0.12455070E+04</pdfrwt>
<pdfrwt beam="1">  1       -1 0.78067700E-01 0.12455070E+04</pdfrwt>
<totfact> 0.49077639E+00</totfact>
</mgrwt>
</event>
<event>
 7    1  0.6419647E-006  0.1256927E+03  0.7546771E-02  0.1249811E+00
          1   -1    0    0  501    0  0.00000000000E+00  0.00000000000E+00  0.52398897995E+03  0.52398897995E+03  0.00000000000E+00 0. -1.
         -1   -1    0    0    0  501 -0.00000000000E+00 -0.00000000000E+00 -0.29434697891E+02  0.29434697891E+02  0.00000000000E+00 0.  1.
         23    2    1    2    0    0  0.11942680183E+02  0.54650746271E+01  0.41069096659E+03  0.42949473709E+03  0.12500465792E+03 0.  0.
          5    1    3    3  502    0 -0.44957802584E+02 -0.29637078906E+02  0.12756438084E+03  0.13854357336E+03  0.47000000000E+01 0. -1.
         -5    1    3    3    0  502  0.56900482767E+02  0.35102153533E+02  0.28312658575E+03  0.29095116373E+03  0.47000000000E+01 0. -1.
        -11    1    1    2    0    0 -0.16390944888E+02  0.34917976375E+02  0.71871792216E+02  0.81568882944E+02  0.00000000000E+00 0. -1.
         11    1    1    2    0    0  0.44482647058E+01 -0.40383051002E+02  0.11991523253E+02  0.42360057803E+02  0.00000000000E+00 0.  1.
<mgrwt>
<rscale>  0 0.11601997E+03</rscale>
<asrwt>0</asrwt>
<pdfrwt beam="1">  1        1 0.80613682E-01 0.12569272E+03</pdfrwt>
<pdfrwt beam="2">  1       -1 0.45284154E-02 0.12569272E+03</pdfrwt>
<totfact> 0.82368999E+03</totfact>
</mgrwt>
</event>
<event>
 7    1  0.6419647E-006  0.2616391E+03  0.7546771E-02  0.1107819E+00
         -1   -1    0    0    0  501 -0.00000000000E+00  0.00000000000E+00  0.17521674934E+03  0.17521674934E+03  0.00000000000E+00 0.  1.
          1   -1    0    0  501    0  0.00000000000E+00 -0.00000000000E+00 -0.41249365861E+03  0.41249365861E+03  0.00000000000E+00 0. -1.
         23    2    1    2    0    0  0.20970403047E+03  0.10176851884E+03 -0.20994128226E+03  0.33545546400E+03  0.11883776550E+03 0.  0.
          5    1    3    3  502    0  0.16017386618E+03  0.10296454065E+03 -0.21281683317E+03  0.28560542452E+03  0.47000000000E+01 0. -1.
         -5    1    3    3    0  502  0.49530164289E+02 -0.11960218074E+01  0.28755509106E+01  0.49850039475E+02  0.47000000000E+01 0.  1.
        -11    1    1    2    0    0 -0.83892612121E+02 -0.13895049907E+01 -0.35486854546E+02  0.91100043568E+02  0.00000000000E+00 0. -1.
         11    1    1    2    0    0 -0.12581141835E+03 -0.10037901385E+03  0.81512275341E+01  0.16115490038E+03  0.00000000000E+00 0.  1.
<mgrwt>
<rscale>  0 0.25887831E+03</rscale>
<asrwt>0</asrwt>
<pdfrwt beam="2">  1        1 0.63460562E-01 0.26163911E+03</pdfrwt>
<pdfrwt beam="1">  1       -1 0.26956423E-01 0.26163911E+03</pdfrwt>
<totfact> 0.71637832E+02</totfact>
</mgrwt>
</event>
<event>
 7    1  0.6419647E-006  0.1549399E+03  0.7546771E-02  0.1202693E+00
         -1   -1    0    0    0  501 -0.00000000000E+00  0.00000000000E+00  0.26204869497E+02  0.26204869497E+02  0.00000000000E+00 0.  1.
          1   -1    0    0  501    0  0.00000000000E+00 -0.00000000000E+00 -0.99159533340E+03  0.99159533340E+03  0.00000000000E+00 0. -1.
         23    2    1    2    0    0  0.82893518472E+02  0.38873392332E+02 -0.75423447561E+03  0.76998443616E+03  0.12499564667E+03 0.  0.
          5    1    3    3  502    0  0.19933746280E+02  0.45873701250E+02 -0.92963875419E+02  0.10566987669E+03  0.47000000000E+01 0.  1.
         -5    1    3    3    0  502  0.62959772192E+02 -0.70003089172E+01 -0.66127060019E+03  0.66431455946E+03  0.47000000000E+01 0.  1.
        -11    1    1    2    0    0 -0.26925367124E+01 -0.43462324337E+02 -0.41742653400E+02  0.60321409993E+02  0.00000000000E+00 0.  1.
         11    1    1    2    0    0 -0.80200981760E+02  0.45889320045E+01 -0.16941333489E+03  0.18749435674E+03  0.00000000000E+00 0. -1.
<mgrwt>
<rscale>  0 0.14820728E+03</rscale>
<asrwt>0</asrwt>
<pdfrwt beam="2">  1        1 0.15255313E+00 0.15493995E+03</pdfrwt>
<pdfrwt beam="1">  1       -1 0.40315183E-02 0.15493995E+03</pdfrwt>
<totfact> 0.38822686E+03</totfact>
</mgrwt>
</event>
<event>
 7    1  0.6419647E-006  0.1423629E+03  0.7546771E-02  0.1221546E+00
         -1   -1    0    0    0  501 -0.00000000000E+00  0.00000000000E+00  0.77425192918E+01  0.77425192918E+01  0.00000000000E+00 0.  1.
          1   -1    0    0  501    0  0.00000000000E+00 -0.00000000000E+00 -0.24201191875E+04  0.24201191875E+04  0.00000000000E+00 0. -1.
         23    2    1    2    0    0  0.42690150638E+02  0.53235095531E+02 -0.17772022756E+04  0.17828951505E+04  0.12494304714E+03 0.  0.
          5    1    3    3  502    0 -0.43901587663E+02  0.11040371249E+02 -0.50840280761E+03  0.51043583728E+03  0.47000000000E+01 0.  1.
         -5    1    3    3    0  502  0.86591738300E+02  0.42194724282E+02 -0.12687994680E+04  0.12724593133E+04  0.47000000000E+01 0.  1.
        -11    1    1    2    0    0  0.19448803749E+02 -0.45287081427E+02 -0.27235380615E+03  0.27677747638E+03  0.00000000000E+00 0. -1.
         11    1    1    2    0    0 -0.62138954387E+02 -0.79480141036E+01 -0.36282058650E+03  0.36818907991E+03  0.00000000000E+00 0.  1.
<mgrwt>
<rscale>  0 0.13406476E+03</rscale>
<asrwt>0</asrwt>
<pdfrwt beam="2">  1        1 0.37232572E+00 0.14236288E+03</pdfrwt>
<pdfrwt beam="1">  1       -1 0.11911578E-02 0.14236288E+03</pdfrwt>
<totfact> 0.26208122E+03</totfact>
</mgrwt>
</event>
<event>
 6    1  0.6419647E-006  0.2311618E+03  0.7546771E-02  0.1156641E+00
         -2   -1    0    0    0  501 -0.00000000000E+00  0.00000000000E+00  0.14778487699E+02  0.14778487699E+02  0.00000000000E+00 0.  1.
          2   -1    0    0  501    0  0.00000000000E+00 -0.00000000000E+00 -0.19990828380E+04  0.19990828380E+04  0.00000000000E+00 0. -1.
          5    1    1    2  502    0  0.53485441163E+01 -0.63333663192E+02 -0.11347021284E+04  0.11364905499E+04  0.47000000000E+01 0. -1.
         -5    1    1    2    0  502  0.42123624544E+02  0.94677813450E+02 -0.31807504985E+03  0.33456257328E+03  0.47000000000E+01 0.  1.
        -11    1    1    2    0    0 -0.65320821638E+01 -0.59669248518E+02 -0.30968102933E+03  0.31544480856E+03  0.00000000000E+00 0.  1.
         11    1    1    2    0    0 -0.40940086497E+02  0.28325098259E+02 -0.22184614270E+03  0.22736339395E+03  0.00000000000E+00 0. -1.
<mgrwt>
<rscale>  0 0.19203177E+03</rscale>
<asrwt>0</asrwt>
<pdfrwt beam="2">  1        2 0.30755127E+00 0.23116176E+03</pdfrwt>
<pdfrwt beam="1">  1       -2 0.22736130E-02 0.23116176E+03</pdfrwt>
<totfact> 0.47517483E+03</totfact>
</mgrwt>
</event>
<event>
 7    1  0.6419647E-006  0.1731248E+03  0.7546771E-02  0.1180830E+00
         -1   -1    0    0    0  501 -0.00000000000E+00  0.00000000000E+00  0.17901696695E+02  0.17901696695E+02  0.00000000000E+00 0. -1.
          1   -1    0    0  501    0  0.00000000000E+00 -0.00000000000E+00 -0.15854122101E+04  0.15854122101E+04  0.00000000000E+00 0.  1.
         23    2    1    2    0    0 -0.85781034205E+02  0.83596972529E+02 -0.10567875998E+04  0.10708745141E+04  0.12500141674E+03 0.  0.
          5    1    3    3  502    0  0.11637028636E+02  0.58170032940E+01 -0.50383006632E+03  0.50401992390E+03  0.47000000000E+01 0. -1.
         -5    1    3    3    0  502 -0.97418062841E+02  0.77779969235E+02 -0.55295753346E+03  0.56685459016E+03  0.47000000000E+01 0. -1.
        -11    1    1    2    0    0  0.71112943762E+02 -0.95656738898E+02 -0.49018251067E+03  0.50446620921E+03  0.00000000000E+00 0.  1.
         11    1    1    2    0    0  0.14668090443E+02  0.12059766368E+02 -0.20540402928E+02  0.27973183489E+02  0.00000000000E+00 0. -1.
<mgrwt>
<rscale>  0 0.16717145E+03</rscale>
<asrwt>0</asrwt>
<pdfrwt beam="2">  1        1 0.24390964E+00 0.17312479E+03</pdfrwt>
<pdfrwt beam="1">  1       -1 0.27541065E-02 0.17312479E+03</pdfrwt>
<totfact> 0.26828918E+03</totfact>
</mgrwt>
</event>
<event>
 7    1  0.6419647E-006  0.1273684E+03  0.7546771E-02  0.1244710E+00
         -2   -1    0    0    0  501 -0.00000000000E+00  0.00000000000E+00  0.29008732358E+03  0.29008732358E+03  0.00000000000E+00 0.  1.
          2   -1    0    0  501    0  0.00000000000E+00 -0.00000000000E+00 -0.43588518986E+02  0.43588518986E+02  0.00000000000E+00 0. -1.
         23    2    1    2    0    0 -0.12269555326E+01 -0.24435007063E+02  0.13010269010E+03  0.18206982539E+03  0.12499654538E+03 0.  0.
          5    1    3    3  502    0 -0.19549103512E+00 -0.71002905831E+02  0.11024749201E+03  0.13121756875E+03  0.47000000000E+01 0.  1.
         -5    1    3    3    0  502 -0.10314644975E+01  0.46567898768E+02  0.19855198091E+02  0.50852256645E+02  0.47000000000E+01 0.  1.
        -11    1    1    2    0    0  0.42806473995E+02  0.68933796773E+01  0.88503802400E+02  0.98553721079E+02  0.00000000000E+00 0.  1.
         11    1    1    2    0    0 -0.41579518463E+02  0.17541627385E+02  0.27892312089E+02  0.53052296092E+02  0.00000000000E+00 0. -1.
<mgrwt>
<rscale>  0 0.11902733E+03</rscale>
<asrwt>0</asrwt>
<pdfrwt beam="2">  1        2 0.67059262E-02 0.12736841E+03</pdfrwt>
<pdfrwt beam="1">  1       -2 0.44628818E-01 0.12736841E+03</pdfrwt>
<totfact> 0.48609061E+03</totfact>
</mgrwt>
</event>
<event>
 6    1  0.6419647E-006  0.1603052E+03  0.7546771E-02  0.1207085E+00
          1   -1    0    0  501    0  0.00000000000E+00  0.00000000000E+00  0.19524681407E+03  0.19524681407E+03  0.00000000000E+00 0. -1.
         -1   -1    0    0    0  501 -0.00000000000E+00 -0.00000000000E+00 -0.93073783916E+02  0.93073783916E+02  0.00000000000E+00 0.  1.
          5    1    1    2  502    0 -0.63536145530E+02  0.47188056363E+02  0.72950790379E+02  0.10773793329E+03  0.47000000000E+01 0. -1.
         -5    1    1    2    0  502  0.68593508283E+02 -0.19704144618E+02  0.83580662781E+01  0.72008818666E+02  0.47000000000E+01 0.  1.
        -11    1    1    2    0    0 -0.47066414441E+02 -0.40323864812E+02  0.18066205004E+02  0.64557332697E+02  0.00000000000E+00 0.  1.
         11    1    1    2    0    0  0.42009051687E+02  0.12839953066E+02  0.27979684909E+01  0.44016513334E+02  0.00000000000E+00 0. -1.
<mgrwt>
<rscale>  0 0.14474362E+03</rscale>
<asrwt>0</asrwt>
<pdfrwt beam="1">  1        1 0.30037971E-01 0.16030522E+03</pdfrwt>
<pdfrwt beam="2">  1       -1 0.14319044E-01 0.16030522E+03</pdfrwt>
<totfact> 0.50557838E+03</totfact>
</mgrwt>
</event>
<event>
 7    1  0.6419647E-006  0.1434512E+03  0.7546771E-02  0.1218402E+00
         -2   -1    0    0    0  501 -0.00000000000E+00  0.00000000000E+00  0.70555619881E+02  0.70555619881E+02  0.00000000000E+00 0.  1.
          2   -1    0    0  501    0  0.00000000000E+00 -0.00000000000E+00 -0.24019806146E+03  0.24019806146E+03  0.00000000000E+00 0. -1.
         23    2    1    2    0    0 -0.45440728989E+02 -0.53738335667E+02 -0.94939682670E+02  0.17202265250E+03  0.12500232421E+03 0.  0.
          5    1    3    3  502    0 -0.40577527234E+02 -0.38639859737E+02 -0.12536099246E+03  0.13739375134E+03  0.47000000000E+01 0. -1.
         -5    1    3    3    0  502 -0.48632017551E+01 -0.15098475929E+02  0.30421309788E+02  0.34628901165E+02  0.47000000000E+01 0. -1.
        -11    1    1    2    0    0  0.19028033513E+02  0.23737705720E+02  0.19680082670E+02  0.36233277330E+02  0.00000000000E+00 0.  1.
         11    1    1    2    0    0  0.26412695476E+02  0.30000629947E+02 -0.94382841574E+02  0.10249775150E+03  0.00000000000E+00 0. -1.
<mgrwt>
<rscale>  0 0.13629582E+03</rscale>
<asrwt>0</asrwt>
<pdfrwt beam="2">  1        2 0.36953549E-01 0.14345121E+03</pdfrwt>
<pdfrwt beam="1">  1       -2 0.10854711E-01 0.14345121E+03</pdfrwt>
<totfact> 0.77218447E+03</totfact>
</mgrwt>
</event>
<event>
 7    1  0.6419647E-006  0.1362897E+03  0.7546771E-02  0.1229726E+00
          1   -1    0    0  501    0  0.00000000000E+00  0.00000000000E+00  0.12885278490E+03  0.12885278490E+03  0.00000000000E+00 0. -1.
         -1   -1    0    0    0  501 -0.00000000000E+00 -0.00000000000E+00 -0.11557684224E+03  0.11557684224E+03  0.00000000000E+00 0.  1.
         23    2    1    2    0    0 -0.53164482826E+02 -0.11166109439E+02  0.11508954179E+02  0.13677480249E+03  0.12499498524E+03 0.  0.
          5    1    3    3  502    0 -0.46531624763E+02 -0.21945411764E+02 -0.51137153258E+02  0.72690382059E+02  0.47000000000E+01 0. -1.
         -5    1    3    3    0  502 -0.66328580624E+01  0.10779302324E+02  0.62646107437E+02  0.64084420428E+02  0.47000000000E+01 0. -1.
        -11    1    1    2    0    0  0.20543296907E+02 -0.87249082894E+01  0.44834167139E+02  0.50082468145E+02  0.00000000000E+00 0. -1.
         11    1    1    2    0    0  0.32621185918E+02  0.19891017729E+02 -0.43067178650E+02  0.57572356508E+02  0.00000000000E+00 0.  1.
<mgrwt>
<rscale>  0 0.12848165E+03</rscale>
<asrwt>0</asrwt>
<pdfrwt beam="1">  1        1 0.19823505E-01 0.13628973E+03</pdfrwt>
<pdfrwt beam="2">  1       -1 0.17781053E-01 0.13628973E+03</pdfrwt>
<totfact> 0.60040033E+03</totfact>
</mgrwt>
</event>
<event>
 7    1  0.6419647E-006  0.1648501E+03  0.7546771E-02  0.1189834E+00
          2   -1    0    0  501    0  0.00000000000E+00  0.00000000000E+00  0.57705161001E+03  0.57705161001E+03  0.00000000000E+00 0. -1.
         -2   -1    0    0    0  501 -0.00000000000E+00 -0.00000000000E+00 -0.41073734808E+02  0.41073734808E+02  0.00000000000E+00 0.  1.
         23    2    1    2    0    0  0.90773962451E+02  0.57584845129E+02  0.30305175048E+03  0.34498684507E+03  0.12497853079E+03 0.  0.
          5    1    3    3  502    0 -0.10061289912E+02 -0.24251615023E+02  0.10327556912E+03  0.10666444376E+03  0.47000000000E+01 0.  1.
         -5    1    3    3    0  502  0.10083525236E+03  0.81836460151E+02  0.19977618136E+03  0.23832240131E+03  0.47000000000E+01 0.  1.
        -11    1    1    2    0    0 -0.86544272830E+02 -0.27130169763E+02  0.22314587403E+03  0.24087349038E+03  0.00000000000E+00 0. -1.
         11    1    1    2    0    0 -0.42296896209E+01 -0.30454675366E+02  0.97802506995E+01  0.32265009371E+02  0.00000000000E+00 0.  1.
<mgrwt>
<rscale>  0 0.15899653E+03</rscale>
<asrwt>0</asrwt>
<pdfrwt beam="1">  1        2 0.88777165E-01 0.16485011E+03</pdfrwt>
<pdfrwt beam="2">  1       -2 0.63190365E-02 0.16485011E+03</pdfrwt>
<totfact> 0.70054239E+03</totfact>
</mgrwt>
</event>
<event>
 7    1  0.6419647E-006  0.1257707E+03  0.7546771E-02  0.1248286E+00
         -2   -1    0    0    0  501 -0.00000000000E+00  0.00000000000E+00  0.25082742453E+02  0.25082742453E+02  0.00000000000E+00 0. -1.
          2   -1    0    0  501    0  0.00000000000E+00 -0.00000000000E+00 -0.51396045380E+03  0.51396045380E+03  0.00000000000E+00 0.  1.
         23    2    1    2    0    0 -0.66178940733E+01  0.12253383880E+02 -0.34526326915E+03  0.36745747459E+03  0.12499731466E+03 0.  0.
          5    1    3    3  502    0  0.79813951444E+00  0.65846994793E+02 -0.13477627805E+03  0.15007730966E+03  0.47000000000E+01 0.  1.
         -5    1    3    3    0  502 -0.74160335878E+01 -0.53593610913E+02 -0.21048699110E+03  0.21738016493E+03  0.47000000000E+01 0.  1.
        -11    1    1    2    0    0  0.49145889177E+02 -0.26300524530E+01 -0.88984739751E+02  0.10168834499E+03  0.00000000000E+00 0.  1.
         11    1    1    2    0    0 -0.42527995103E+02 -0.96233314271E+01 -0.54629702443E+02  0.69897376662E+02  0.00000000000E+00 0. -1.
<mgrwt>
<rscale>  0 0.11690874E+03</rscale>
<asrwt>0</asrwt>
<pdfrwt beam="2">  1        2 0.79070833E-01 0.12577071E+03</pdfrwt>
<pdfrwt beam="1">  1       -2 0.38588837E-02 0.12577071E+03</pdfrwt>
<totfact> 0.16428824E+04</totfact>
</mgrwt>
</event>
<event>
 7    1  0.6419647E-006  0.1397720E+03  0.7546771E-02  0.1222254E+00
          1   -1    0    0  501    0  0.00000000000E+00  0.00000000000E+00  0.43570071077E+03  0.43570071077E+03  0.00000000000E+00 0. -1.
         -1   -1    0    0    0  501 -0.00000000000E+00 -0.00000000000E+00 -0.39671053441E+02  0.39671053441E+02  0.00000000000E+00 0.  1.
         23    2    1    2    0    0 -0.58173076373E+02  0.22890889155E+02  0.26779462897E+03  0.30207642065E+03  0.12501240333E+03 0.  0.
          5    1    3    3  502    0 -0.16706341811E+02 -0.45670522952E+02  0.16245567816E+03  0.16964326067E+03  0.47000000000E+01 0.  1.
         -5    1    3    3    0  502 -0.41466734562E+02  0.68561412107E+02  0.10533895081E+03  0.13243315998E+03  0.47000000000E+01 0.  1.
        -11    1    1    2    0    0  0.18987623584E+02  0.26924812379E+02  0.31846401504E+01  0.33100110330E+02  0.00000000000E+00 0.  1.
         11    1    1    2    0    0  0.39185452789E+02 -0.49815701533E+02  0.12505038821E+03  0.14019523323E+03  0.00000000000E+00 0. -1.
<mgrwt>
<rscale>  0 0.13356901E+03</rscale>
<asrwt>0</asrwt>
<pdfrwt beam="1">  1        1 0.67030875E-01 0.13977196E+03</pdfrwt>
<pdfrwt beam="2">  1       -1 0.61032393E-02 0.13977196E+03</pdfrwt>
<totfact> 0.67655747E+03</totfact>
</mgrwt>
</event>
<event>
 7    1  0.6419647E-006  0.1703944E+03  0.7546771E-02  0.1184154E+00
         -2   -1    0    0    0  501 -0.00000000000E+00  0.00000000000E+00  0.90784163764E+02  0.90784163764E+02  0.00000000000E+00 0.  1.
          2   -1    0    0  501    0  0.00000000000E+00 -0.00000000000E+00 -0.28972182963E+03  0.28972182963E+03  0.00000000000E+00 0. -1.
         23    2    1    2    0    0  0.69134260366E+02 -0.92874870506E+02 -0.14696510533E+03  0.22501778339E+03  0.12501589152E+03 0.  0.
          5    1    3    3  502    0  0.22272422737E+02 -0.91849146523E+02 -0.15050024035E+03  0.17777721698E+03  0.47000000000E+01 0. -1.
         -5    1    3    3    0  502  0.46861837629E+02 -0.10257239835E+01  0.35351350217E+01  0.47240566416E+02  0.47000000000E+01 0. -1.
        -11    1    1    2    0    0 -0.67948735839E+02  0.26563725806E+02 -0.29516586296E+01  0.73016262021E+02  0.00000000000E+00 0.  1.
         11    1    1    2    0    0 -0.11855245273E+01  0.66311144700E+02 -0.49020901913E+02  0.82471947984E+02  0.00000000000E+00 0. -1.
<mgrwt>
<rscale>  0 0.16409082E+03</rscale>
<asrwt>0</asrwt>
<pdfrwt beam="2">  1        2 0.44572589E-01 0.17039443E+03</pdfrwt>
<pdfrwt beam="1">  1       -2 0.13966794E-01 0.17039443E+03</pdfrwt>
<totfact> 0.42593584E+03</totfact>
</mgrwt>
</event>
<event>
 7    1  0.6419647E-006  0.1472856E+03  0.7546771E-02  0.1205601E+00
         -1   -1    0    0    0  501 -0.00000000000E+00  0.00000000000E+00  0.10801745064E+04  0.10801745064E+04  0.00000000000E+00 0.  1.
          1   -1    0    0  501    0  0.00000000000E+00 -0.00000000000E+00 -0.19349955663E+02  0.19349955663E+02  0.00000000000E+00 0. -1.
         23    2    1    2    0    0  0.40825154802E+02  0.66263950391E+02  0.53230491218E+03  0.55230569132E+03  0.12504180402E+03 0.  0.
          5    1    3    3  502    0  0.72639069111E+02  0.48139043762E+02  0.20333905830E+03  0.22127508790E+03  0.47000000000E+01 0. -1.
         -5    1    3    3    0  502 -0.31813914309E+02  0.18124906629E+02  0.32896585387E+03  0.33103060342E+03  0.47000000000E+01 0. -1.
        -11    1    1    2    0    0 -0.70093362647E+02 -0.73348521980E+02  0.47587718827E+03  0.48657186878E+03  0.00000000000E+00 0.  1.
         11    1    1    2    0    0  0.29268207846E+02  0.70845715888E+01  0.52642450241E+02  0.60646901919E+02  0.00000000000E+00 0. -1.
<mgrwt>
<rscale>  0 0.14590202E+03</rscale>
<asrwt>0</asrwt>
<pdfrwt beam="2">  1        1 0.29769171E-02 0.14728563E+03</pdfrwt>
<pdfrwt beam="1">  1       -1 0.16618065E+00 0.14728563E+03</pdfrwt>
<totfact> 0.97263278E+02</totfact>
</mgrwt>
</event>
<event>
 7    1  0.6419647E-006  0.1272058E+03  0.7546771E-02  0.1246159E+00
          1   -1    0    0  501    0  0.00000000000E+00  0.00000000000E+00  0.67474570663E+02  0.67474570663E+02  0.00000000000E+00 0. -1.
         -1   -1    0    0    0  501 -0.00000000000E+00 -0.00000000000E+00 -0.21593809787E+03  0.21593809787E+03  0.00000000000E+00 0.  1.
         23    2    1    2    0    0 -0.17710765646E+02 -0.15544402502E+02 -0.28132318122E+02  0.13027950222E+03  0.12500408676E+03 0.  0.
          5    1    3    3  502    0 -0.38717631830E+02  0.11803881796E+02 -0.66804828448E+02  0.78251912078E+02  0.47000000000E+01 0.  1.
         -5    1    3    3    0  502  0.21006866185E+02 -0.27348284298E+02  0.38672510326E+02  0.52027590140E+02  0.47000000000E+01 0.  1.
        -11    1    1    2    0    0  0.10634568567E+01 -0.33073436247E+02 -0.83760042590E+02  0.90059579504E+02  0.00000000000E+00 0.  1.
         11    1    1    2    0    0  0.16647308789E+02  0.48617838749E+02 -0.36571166498E+02  0.63073586814E+02  0.00000000000E+00 0. -1.
<mgrwt>
<rscale>  0 0.11816267E+03</rscale>
<asrwt>0</asrwt>
<pdfrwt beam="1">  1        1 0.10380703E-01 0.12720582E+03</pdfrwt>
<pdfrwt beam="2">  1       -1 0.33221246E-01 0.12720582E+03</pdfrwt>
<totfact> 0.49631796E+03</totfact>
</mgrwt>
</event>
<event>
 7    1  0.6419647E-006  0.1293572E+03  0.7546771E-02  0.1243574E+00
          2   -1    0    0  501    0  0.00000000000E+00  0.00000000000E+00  0.56188231293E+02  0.56188231293E+02  0.00000000000E+00 0. -1.
         -2   -1    0    0    0  501 -0.00000000000E+00 -0.00000000000E+00 -0.27341014118E+03  0.27341014118E+03  0.00000000000E+00 0.  1.
         23    2    1    2    0    0  0.90578407093E+01  0.31990708105E+02 -0.52702821000E+02  0.13968128970E+03  0.12501130136E+03 0.  0.
          5    1    3    3  502    0  0.54784885166E+02  0.15876024031E+02 -0.67760639505E+02  0.88696257237E+02  0.47000000000E+01 0.  1.
         -5    1    3    3    0  502 -0.45727044457E+02  0.16114684074E+02  0.15057818504E+02  0.50985032467E+02  0.47000000000E+01 0.  1.
        -11    1    1    2    0    0 -0.41822458508E+01  0.23603706892E+02 -0.10746773816E+03  0.11010876851E+03  0.00000000000E+00 0.  1.
         11    1    1    2    0    0 -0.48755948585E+01 -0.55594414997E+02 -0.57051350732E+02  0.79808314256E+02  0.00000000000E+00 0. -1.
<mgrwt>
<rscale>  0 0.11971127E+03</rscale>
<asrwt>0</asrwt>
<pdfrwt beam="1">  1        2 0.86443434E-02 0.12935716E+03</pdfrwt>
<pdfrwt beam="2">  1       -2 0.42063098E-01 0.12935716E+03</pdfrwt>
<totfact> 0.39604385E+03</totfact>
</mgrwt>
</event>
<event>
 7    1  0.6419647E-006  0.1253169E+03  0.7546771E-02  0.1245059E+00
          2   -1    0    0  501    0  0.00000000000E+00  0.00000000000E+00  0.23239978819E+03  0.23239978819E+03  0.00000000000E+00 0. -1.
         -2   -1    0    0    0  501 -0.00000000000E+00 -0.00000000000E+00 -0.55246565324E+02  0.55246565324E+02  0.00000000000E+00 0.  1.
         23    2    1    2    0    0 -0.47913427837E+02 -0.15758632077E+01  0.95741875326E+02  0.15770485369E+03  0.11578486202E+03 0.  0.
          5    1    3    3  502    0 -0.61446577061E+02  0.72530667258E+01  0.11588804942E+03  0.13145500678E+03  0.47000000000E+01 0. -1.
         -5    1    3    3    0  502  0.13533149225E+02 -0.88289299335E+01 -0.20146174097E+02  0.26249846903E+02  0.47000000000E+01 0.  1.
        -11    1    1    2    0    0 -0.18291021080E+02 -0.17947876058E+02  0.35174196023E+01  0.25866193145E+02  0.00000000000E+00 0.  1.
         11    1    1    2    0    0  0.66204448917E+02  0.19523739266E+02  0.77893927940E+02  0.10407530668E+03  0.00000000000E+00 0. -1.
<mgrwt>
<rscale>  0 0.11881864E+03</rscale>
<asrwt>0</asrwt>
<pdfrwt beam="1">  1        2 0.35753813E-01 0.12531686E+03</pdfrwt>
<pdfrwt beam="2">  1       -2 0.84994717E-02 0.12531686E+03</pdfrwt>
<totfact> 0.11612679E+04</totfact>
</mgrwt>
</event>
<event>
 6    1  0.6419647E-006  0.2279980E+03  0.7546771E-02  0.1154402E+00
          2   -1    0    0  501    0  0.00000000000E+00  0.00000000000E+00  0.65232768061E+03  0.65232768061E+03  0.00000000000E+00 0. -1.
         -2   -1    0    0    0  501 -0.00000000000E+00 -0.00000000000E+00 -0.46658867396E+02  0.46658867396E+02  0.00000000000E+00 0.  1.
          5    1    1    2  502    0  0.13822765008E+02 -0.73774917612E+02  0.25597354688E+03  0.26679271730E+03  0.47000000000E+01 0. -1.
         -5    1    1    2    0  502  0.49419018253E+02  0.11874348227E+03  0.14030373624E+03  0.19039296823E+03  0.47000000000E+01 0.  1.
        -11    1    1    2    0    0 -0.87505216048E+02 -0.36615994156E+02  0.15627718255E+03  0.18281261349E+03  0.00000000000E+00 0.  1.
         11    1    1    2    0    0  0.24263432787E+02 -0.83525705045E+01  0.53114347547E+02  0.58988248999E+02  0.00000000000E+00 0. -1.
<mgrwt>
<rscale>  0 0.19457059E+03</rscale>
<asrwt>0</asrwt>
<pdfrwt beam="1">  1        2 0.10035810E+00 0.22799795E+03</pdfrwt>
<pdfrwt beam="2">  1       -2 0.71782878E-02 0.22799795E+03</pdfrwt>
<totfact> 0.50667144E+03</totfact>
</mgrwt>
</event>
<event>
 7    1  0.6419647E-006  0.2303167E+03  0.7546771E-02  0.1128515E+00
         -1   -1    0    0    0  501 -0.00000000000E+00  0.00000000000E+00  0.58021668910E+03  0.58021668910E+03  0.00000000000E+00 0.  1.
          1   -1    0    0  501    0  0.00000000000E+00 -0.00000000000E+00 -0.88111881375E+02  0.88111881375E+02  0.00000000000E+00 0. -1.
         23    2    1    2    0    0  0.15510283352E+03 -0.11561870495E+03  0.29198304305E+03  0.37188688827E+03  0.12498474443E+03 0.  0.
          5    1    3    3  502    0  0.45300499570E+02 -0.15535417793E+02  0.17850514595E+03  0.18487742317E+03  0.47000000000E+01 0.  1.
         -5    1    3    3    0  502  0.10980233395E+03 -0.10008328716E+03  0.11347789711E+03  0.18700946511E+03  0.47000000000E+01 0.  1.
        -11    1    1    2    0    0 -0.42702111478E+02  0.58958263529E+02  0.13810975678E+03  0.15612127363E+03  0.00000000000E+00 0.  1.
         11    1    1    2    0    0 -0.11240072204E+03  0.56660441423E+02  0.62012007894E+02  0.14032040857E+03  0.00000000000E+00 0. -1.
<mgrwt>
<rscale>  0 0.22735545E+03</rscale>
<asrwt>0</asrwt>
<pdfrwt beam="2">  1        1 0.13555674E-01 0.23031665E+03</pdfrwt>
<pdfrwt beam="1">  1       -1 0.89264104E-01 0.23031665E+03</pdfrwt>
<totfact> 0.55185453E+02</totfact>
</mgrwt>
</event>
<event>
 7    1  0.6419647E-006  0.1303151E+03  0.7546771E-02  0.1241142E+00
         -2   -1    0    0    0  501 -0.00000000000E+00  0.00000000000E+00  0.48013430901E+02  0.48013430901E+02  0.00000000000E+00 0.  1.
          2   -1    0    0  501    0  0.00000000000E+00 -0.00000000000E+00 -0.53089011485E+03  0.53089011485E+03  0.00000000000E+00 0. -1.
         23    2    1    2    0    0 -0.13340191345E+02  0.34345721995E+02 -0.46090875239E+03  0.47897693061E+03  0.12499773079E+03 0.  0.
          5    1    3    3  502    0 -0.38627569875E+02  0.56901641249E+02 -0.13798345274E+03  0.15424464063E+03  0.47000000000E+01 0.  1.
         -5    1    3    3    0  502  0.25287378531E+02 -0.22555919254E+02 -0.32292529965E+03  0.32473228998E+03  0.47000000000E+01 0.  1.
        -11    1    1    2    0    0 -0.21914823425E+02 -0.14373109786E+02 -0.45909007022E+02  0.52862866895E+02  0.00000000000E+00 0. -1.
         11    1    1    2    0    0  0.35255014770E+02 -0.19972612209E+02  0.23941075460E+02  0.47063748247E+02  0.00000000000E+00 0.  1.
<mgrwt>
<rscale>  0 0.12119288E+03</rscale>
<asrwt>0</asrwt>
<pdfrwt beam="2">  1        2 0.81675409E-01 0.13031509E+03</pdfrwt>
<pdfrwt beam="1">  1       -2 0.73866811E-02 0.13031509E+03</pdfrwt>
<totfact> 0.59793439E+03</totfact>
</mgrwt>
</event>
<event>
 6    1  0.6419647E-006  0.2028053E+03  0.7546771E-02  0.1168676E+00
         -2   -1    0    0    0  501 -0.00000000000E+00  0.00000000000E+00  0.15167290625E+03  0.15167290625E+03  0.00000000000E+00 0.  1.
          2   -1    0    0  501    0  0.00000000000E+00 -0.00000000000E+00 -0.29810834185E+03  0.29810834185E+03  0.00000000000E+00 0. -1.
          5    1    1    2  502    0 -0.75089447991E+02 -0.83315924628E+02 -0.17916565674E+03  0.21142939968E+03  0.47000000000E+01 0. -1.
         -5    1    1    2    0  502 -0.71483387032E+01  0.78843428098E+02 -0.46319784534E+02  0.91842241587E+02  0.47000000000E+01 0.  1.
        -11    1    1    2    0    0  0.37368837728E+02 -0.37038128032E+02  0.87252537555E+01  0.53332757424E+02  0.00000000000E+00 0.  1.
         11    1    1    2    0    0  0.44868948966E+02  0.41510624561E+02  0.70324751914E+02  0.93176849402E+02  0.00000000000E+00 0. -1.
<mgrwt>
<rscale>  0 0.17910086E+03</rscale>
<asrwt>0</asrwt>
<pdfrwt beam="2">  1        2 0.45862822E-01 0.20280534E+03</pdfrwt>
<pdfrwt beam="1">  1       -2 0.23334293E-01 0.20280534E+03</pdfrwt>
<totfact> 0.17527397E+03</totfact>
</mgrwt>
</event>
<event>
 7    1  0.6419647E-006  0.1303065E+03  0.7546771E-02  0.1240572E+00
          1   -1    0    0  501    0  0.00000000000E+00  0.00000000000E+00  0.87446964828E+02  0.87446964828E+02  0.00000000000E+00 0. -1.
         -1   -1    0    0    0  501 -0.00000000000E+00 -0.00000000000E+00 -0.15212499700E+03  0.15212499700E+03  0.00000000000E+00 0.  1.
         23    2    1    2    0    0  0.21802415896E+02 -0.29646959792E+02 -0.22226191116E+02  0.13218844954E+03  0.12500198021E+03 0.  0.
          5    1    3    3  502    0  0.10015163008E+02 -0.35519466822E+02  0.47917907972E+02  0.60664255685E+02  0.47000000000E+01 0. -1.
         -5    1    3    3    0  502  0.11787252887E+02  0.58725070301E+01 -0.70144099088E+02  0.71524193853E+02  0.47000000000E+01 0. -1.
        -11    1    1    2    0    0  0.34779174263E+02  0.21020684321E+02 -0.24249908115E+02  0.47323547788E+02  0.00000000000E+00 0. -1.
         11    1    1    2    0    0 -0.56581590158E+02  0.86262754708E+01 -0.18201932943E+02  0.60059964504E+02  0.00000000000E+00 0.  1.
<mgrwt>
<rscale>  0 0.12154397E+03</rscale>
<asrwt>0</asrwt>
<pdfrwt beam="1">  1        1 0.13453379E-01 0.13030649E+03</pdfrwt>
<pdfrwt beam="2">  1       -1 0.23403846E-01 0.13030649E+03</pdfrwt>
<totfact> 0.63360476E+03</totfact>
</mgrwt>
</event>
<event>
 7    1  0.6419647E-006  0.1656151E+03  0.7546771E-02  0.1189382E+00
          1   -1    0    0  501    0  0.00000000000E+00  0.00000000000E+00  0.22542659397E+03  0.22542659397E+03  0.00000000000E+00 0. -1.
         -1   -1    0    0    0  501 -0.00000000000E+00 -0.00000000000E+00 -0.22357053857E+03  0.22357053857E+03  0.00000000000E+00 0.  1.
         23    2    1    2    0    0 -0.37475888033E+01  0.10857809903E+03  0.16422136648E+03  0.23323164943E+03  0.12500038831E+03 0.  0.
          5    1    3    3  502    0  0.26338618662E+01  0.11936782138E+03  0.70870397713E+02  0.13892558181E+03  0.47000000000E+01 0.  1.
         -5    1    3    3    0  502 -0.63814506694E+01 -0.10789722349E+02  0.93350968765E+02  0.94306067622E+02  0.47000000000E+01 0.  1.
        -11    1    1    2    0    0 -0.22603929955E+02 -0.58879765626E+02 -0.25935888546E+02  0.68194096257E+02  0.00000000000E+00 0. -1.
         11    1    1    2    0    0  0.26351518758E+02 -0.49698333408E+02 -0.13642942253E+03  0.14757138685E+03  0.00000000000E+00 0.  1.
<mgrwt>
<rscale>  0 0.15939436E+03</rscale>
<asrwt>0</asrwt>
<pdfrwt beam="1">  1        1 0.34681014E-01 0.16561505E+03</pdfrwt>
<pdfrwt beam="2">  1       -1 0.34395467E-01 0.16561505E+03</pdfrwt>
<totfact> 0.10101962E+03</totfact>
</mgrwt>
</event>
<event>
 7    1  0.6419647E-006  0.3081857E+03  0.7546771E-02  0.1082654E+00
          1   -1    0    0  501    0  0.00000000000E+00  0.00000000000E+00  0.15630312611E+04  0.15630312611E+04  0.00000000000E+00 0. -1.
         -1   -1    0    0    0  501 -0.00000000000E+00 -0.00000000000E+00 -0.59023960747E+02  0.59023960747E+02  0.00000000000E+00 0.  1.
         23    2    1    2    0    0  0.18863298468E+03 -0.20921652529E+03  0.84343121655E+03  0.89797253233E+03  0.12499797753E+03 0.  0.
          5    1    3    3  502    0  0.16862339950E+03 -0.12712844995E+03  0.47337639643E+03  0.51836550459E+03  0.47000000000E+01 0.  1.
         -5    1    3    3    0  502  0.20009585177E+02 -0.82088075346E+02  0.37005482012E+03  0.37960702774E+03  0.47000000000E+01 0.  1.
        -11    1    1    2    0    0 -0.14658475653E+02  0.33889692409E+01  0.60004971231E+01  0.16197592003E+02  0.00000000000E+00 0.  1.
         11    1    1    2    0    0 -0.17397450903E+03  0.20582755605E+03  0.65457558672E+03  0.70788509757E+03  0.00000000000E+00 0. -1.
<mgrwt>
<rscale>  0 0.30523169E+03</rscale>
<asrwt>0</asrwt>
<pdfrwt beam="1">  1        1 0.24046632E+00 0.30818574E+03</pdfrwt>
<pdfrwt beam="2">  1       -1 0.90806105E-02 0.30818574E+03</pdfrwt>
<totfact> 0.45907432E+02</totfact>
</mgrwt>
</event>
<event>
 7    1  0.6419647E-006  0.1322999E+03  0.7546771E-02  0.1237179E+00
          1   -1    0    0  501    0  0.00000000000E+00  0.00000000000E+00  0.24408852546E+03  0.24408852546E+03  0.00000000000E+00 0. -1.
         -1   -1    0    0    0  501 -0.00000000000E+00 -0.00000000000E+00 -0.55950191566E+02  0.55950191566E+02  0.00000000000E+00 0.  1.
         23    2    1    2    0    0 -0.30708618973E+02  0.30605448484E+02  0.97483727886E+02  0.16433603844E+03  0.12499417415E+03 0.  0.
          5    1    3    3  502    0 -0.43382411440E+02  0.69724892164E+02  0.90617454853E+02  0.12238140109E+03  0.47000000000E+01 0. -1.
         -5    1    3    3    0  502  0.12673792467E+02 -0.39119443680E+02  0.68662730330E+01  0.41954637345E+02  0.47000000000E+01 0. -1.
        -11    1    1    2    0    0  0.19991084056E+02  0.28190362921E+02  0.11299434393E+02  0.36359554741E+02  0.00000000000E+00 0.  1.
         11    1    1    2    0    0  0.10717534917E+02 -0.58795811405E+02  0.79355171617E+02  0.99343123848E+02  0.00000000000E+00 0. -1.
<mgrwt>
<rscale>  0 0.12365976E+03</rscale>
<asrwt>0</asrwt>
<pdfrwt beam="1">  1        1 0.37552080E-01 0.13229987E+03</pdfrwt>
<pdfrwt beam="2">  1       -1 0.86077219E-02 0.13229987E+03</pdfrwt>
<totfact> 0.82811996E+03</totfact>
</mgrwt>
</event>
<event>
 7    1  0.6419647E-006  0.1647392E+03  0.7546771E-02  0.1190430E+00
          1   -1    0    0  501    0  0.00000000000E+00  0.00000000000E+00  0.77700470085E+03  0.77700470085E+03  0.00000000000E+00 0. -1.
         -1   -1    0    0    0  501 -0.00000000000E+00 -0.00000000000E+00 -0.33407038483E+02  0.33407038483E+02  0.00000000000E+00 0.  1.
         23    2    1    2    0    0  0.36468259468E+02  0.10099660806E+03  0.52503795424E+03  0.55027615604E+03  0.12493496596E+03 0.  0.
          5    1    3    3  502    0 -0.23113378386E+02  0.96855253818E+02  0.25772866491E+03  0.27633552643E+03  0.47000000000E+01 0. -1.
         -5    1    3    3    0  502  0.59581637854E+02  0.41413542383E+01  0.26730928933E+03  0.27394062960E+03  0.47000000000E+01 0. -1.
        -11    1    1    2    0    0 -0.60992493600E+02 -0.57902323536E+02  0.94329377748E+02  0.12637561020E+03  0.00000000000E+00 0. -1.
         11    1    1    2    0    0  0.24524234132E+02 -0.43094284521E+02  0.12423033037E+03  0.13375997310E+03  0.00000000000E+00 0.  1.
<mgrwt>
<rscale>  0 0.15847481E+03</rscale>
<asrwt>0</asrwt>
<pdfrwt beam="1">  1        1 0.11953917E+00 0.16473917E+03</pdfrwt>
<pdfrwt beam="2">  1       -1 0.51395450E-02 0.16473917E+03</pdfrwt>
<totfact> 0.39974349E+03</totfact>
</mgrwt>
</event>
<event>
 7    1  0.6419647E-006  0.1280751E+03  0.7546771E-02  0.1244613E+00
         -1   -1    0    0    0  501 -0.00000000000E+00  0.00000000000E+00  0.70993681567E+02  0.70993681567E+02  0.00000000000E+00 0.  1.
          1   -1    0    0  501    0  0.00000000000E+00 -0.00000000000E+00 -0.25234029772E+03  0.25234029772E+03  0.00000000000E+00 0. -1.
         23    2    1    2    0    0 -0.10849559746E+01  0.27898157033E+02 -0.18788122208E+03  0.22738202967E+03  0.12499499795E+03 0.  0.
          5    1    3    3  502    0 -0.53527412581E+02  0.27182294782E+02 -0.15245541628E+03  0.16391706745E+03  0.47000000000E+01 0.  1.
         -5    1    3    3    0  502  0.52442456606E+02  0.71586225106E+00 -0.35425805799E+02  0.63464962224E+02  0.47000000000E+01 0.  1.
        -11    1    1    2    0    0  0.44132846187E+02 -0.10866449166E+02  0.16934898844E+02  0.48503387809E+02  0.00000000000E+00 0.  1.
         11    1    1    2    0    0 -0.43047890213E+02 -0.17031707867E+02 -0.10400292915E+02  0.47448561805E+02  0.00000000000E+00 0. -1.
<mgrwt>
<rscale>  0 0.11908571E+03</rscale>
<asrwt>0</asrwt>
<pdfrwt beam="2">  1        1 0.38821585E-01 0.12807511E+03</pdfrwt>
<pdfrwt beam="1">  1       -1 0.10922105E-01 0.12807511E+03</pdfrwt>
<totfact> 0.55191253E+03</totfact>
</mgrwt>
</event>
<event>
 7    1  0.6419647E-006  0.1363091E+03  0.7546771E-02  0.1231372E+00
          1   -1    0    0  501    0  0.00000000000E+00  0.00000000000E+00  0.15499899312E+03  0.15499899312E+03  0.00000000000E+00 0. -1.
         -1   -1    0    0    0  501 -0.00000000000E+00 -0.00000000000E+00 -0.97325208656E+02  0.97325208656E+02  0.00000000000E+00 0.  1.
         23    2    1    2    0    0  0.48336814353E+02  0.24868593896E+02  0.58464655281E+02  0.14831821536E+03  0.12500113001E+03 0.  0.
          5    1    3    3  502    0  0.89411575121E+02  0.34027550953E+01  0.35422493092E+02  0.96347555884E+02  0.47000000000E+01 0.  1.
         -5    1    3    3    0  502 -0.41074760768E+02  0.21465838800E+02  0.23042162189E+02  0.51970659472E+02  0.47000000000E+01 0.  1.
        -11    1    1    2    0    0 -0.20799920875E+02 -0.42565246896E+02  0.32395707988E+02  0.57392672423E+02  0.00000000000E+00 0. -1.
         11    1    1    2    0    0 -0.27536893478E+02  0.17696653001E+02 -0.33186578801E+02  0.46613314003E+02  0.00000000000E+00 0.  1.
<mgrwt>
<rscale>  0 0.12739581E+03</rscale>
<asrwt>0</asrwt>
<pdfrwt beam="1">  1        1 0.23845999E-01 0.13630912E+03</pdfrwt>
<pdfrwt beam="2">  1       -1 0.14973109E-01 0.13630912E+03</pdfrwt>
<totfact> 0.62331082E+03</totfact>
</mgrwt>
</event>
<event>
 7    1  0.6419647E-006  0.1565961E+03  0.7546771E-02  0.1196899E+00
          1   -1    0    0  501    0  0.00000000000E+00  0.00000000000E+00  0.34844222789E+04  0.34844222789E+04  0.00000000000E+00 0. -1.
         -1   -1    0    0    0  501 -0.00000000000E+00 -0.00000000000E+00 -0.10663527316E+02  0.10663527316E+02  0.00000000000E+00 0.  1.
         23    2    1    2    0    0 -0.10228425760E+03  0.39971961732E+02  0.28880403286E+04  0.28922827118E+04  0.11163565108E+03 0.  0.
          5    1    3    3  502    0 -0.10652395376E+03 -0.85061081808E+01  0.21074614709E+04  0.21101743170E+04  0.47000000000E+01 0. -1.
         -5    1    3    3    0  502  0.42396961576E+01  0.48478069913E+02  0.78057885764E+03  0.78210839484E+03  0.47000000000E+01 0.  1.
        -11    1    1    2    0    0 -0.31905365738E+01 -0.18761498689E+02  0.22813554010E+02  0.29709116500E+02  0.00000000000E+00 0. -1.
         11    1    1    2    0    0  0.10547479417E+03 -0.21210463043E+02  0.56290486907E+03  0.57309397795E+03  0.00000000000E+00 0.  1.
<mgrwt>
<rscale>  0 0.15294577E+03</rscale>
<asrwt>0</asrwt>
<pdfrwt beam="1">  1        1 0.53606406E+00 0.15659612E+03</pdfrwt>
<pdfrwt beam="2">  1       -1 0.16405454E-02 0.15659612E+03</pdfrwt>
<totfact> 0.30509410E+02</totfact>
</mgrwt>
</event>
<event>
 7    1  0.6419647E-006  0.1368191E+03  0.7546771E-02  0.1229152E+00
         -2   -1    0    0    0  501 -0.00000000000E+00  0.00000000000E+00  0.14338671597E+03  0.14338671597E+03  0.00000000000E+00 0.  1.
          2   -1    0    0  501    0  0.00000000000E+00 -0.00000000000E+00 -0.11618553522E+03  0.11618553522E+03  0.00000000000E+00 0. -1.
         23    2    1    2    0    0  0.42576796494E+02  0.35774606689E+02 -0.26334236853E+02  0.13933041141E+03  0.12500746150E+03 0.  0.
          5    1    3    3  502    0  0.35346072280E+02  0.79056961286E+02  0.22389277026E+01  0.86755119449E+02  0.47000000000E+01 0.  1.
         -5    1    3    3    0  502  0.72307242137E+01 -0.43282354596E+02 -0.28573164556E+02  0.52575291961E+02  0.47000000000E+01 0.  1.
        -11    1    1    2    0    0 -0.20049704927E+02 -0.50918423521E+02 -0.57627367435E+01  0.55026226986E+02  0.00000000000E+00 0. -1.
         11    1    1    2    0    0 -0.22527091566E+02  0.15143816831E+02  0.59298154354E+02  0.65215612796E+02  0.00000000000E+00 0.  1.
<mgrwt>
<rscale>  0 0.12886357E+03</rscale>
<asrwt>0</asrwt>
<pdfrwt beam="2">  1        2 0.17874698E-01 0.13681912E+03</pdfrwt>
<pdfrwt beam="1">  1       -2 0.22059495E-01 0.13681912E+03</pdfrwt>
<totfact> 0.53458707E+03</totfact>
</mgrwt>
</event>
<event>
 7    1  0.6419647E-006  0.1300603E+03  0.7546771E-02  0.1241283E+00
         -2   -1    0    0    0  501 -0.00000000000E+00  0.00000000000E+00  0.90177076964E+01  0.90177076964E+01  0.00000000000E+00 0.  1.
          2   -1    0    0  501    0  0.00000000000E+00 -0.00000000000E+00 -0.18147157028E+04  0.18147157028E+04  0.00000000000E+00 0. -1.
         23    2    1    2    0    0 -0.25359573379E+02  0.25471162818E+02 -0.14158388448E+04  0.14218000269E+04  0.12499517580E+03 0.  0.
          5    1    3    3  502    0 -0.40299813526E+02 -0.33856303800E+01 -0.13174197899E+04  0.13180487587E+04  0.47000000000E+01 0. -1.
         -5    1    3    3    0  502  0.14940240146E+02  0.28856793198E+02 -0.98419054887E+02  0.10375126820E+03  0.47000000000E+01 0. -1.
        -11    1    1    2    0    0 -0.34010015732E+02 -0.11951862145E+02 -0.17123060767E+03  0.17498413980E+03  0.00000000000E+00 0.  1.
         11    1    1    2    0    0  0.59369589111E+02 -0.13519300673E+02 -0.21862854264E+03  0.22694924380E+03  0.00000000000E+00 0. -1.
<mgrwt>
<rscale>  0 0.12110650E+03</rscale>
<asrwt>0</asrwt>
<pdfrwt beam="2">  1        2 0.27918667E+00 0.13006030E+03</pdfrwt>
<pdfrwt beam="1">  1       -2 0.13873414E-02 0.13006030E+03</pdfrwt>
<totfact> 0.11995394E+04</totfact>
</mgrwt>
</event>
<event>
 7    1  0.6419647E-006  0.1256791E+03  0.7546771E-02  0.1249126E+00
         -1   -1    0    0    0  501 -0.00000000000E+00  0.00000000000E+00  0.46179379374E+02  0.46179379374E+02  0.00000000000E+00 0.  1.
          1   -1    0    0  501    0  0.00000000000E+00 -0.00000000000E+00 -0.26998656261E+03  0.26998656261E+03  0.00000000000E+00 0. -1.
         23    2    1    2    0    0 -0.12869856710E+02 -0.21898927478E+01 -0.16138093096E+03  0.20454592757E+03  0.12499921107E+03 0.  0.
          5    1    3    3  502    0  0.49851803954E+02  0.49161604794E+01 -0.29659192586E+02  0.58404868771E+02  0.47000000000E+01 0.  1.
         -5    1    3    3    0  502 -0.62721660663E+02 -0.71060532272E+01 -0.13172173837E+03  0.14614105880E+03  0.47000000000E+01 0.  1.
        -11    1    1    2    0    0  0.20525681652E+02 -0.31026323198E+02  0.35378548734E+01  0.37369141756E+02  0.00000000000E+00 0.  1.
         11    1    1    2    0    0 -0.76558249420E+01  0.33216215946E+02 -0.65964107153E+02  0.74250872653E+02  0.00000000000E+00 0. -1.
<mgrwt>
<rscale>  0 0.11641772E+03</rscale>
<asrwt>0</asrwt>
<pdfrwt beam="2">  1        1 0.41536395E-01 0.12567908E+03</pdfrwt>
<pdfrwt beam="1">  1       -1 0.71045198E-02 0.12567908E+03</pdfrwt>
<totfact> 0.97227403E+03</totfact>
</mgrwt>
</event>
<event>
 7    1  0.6419647E-006  0.1671884E+03  0.7546771E-02  0.1187705E+00
         -1   -1    0    0    0  501 -0.00000000000E+00  0.00000000000E+00  0.71337758856E+02  0.71337758856E+02  0.00000000000E+00 0.  1.
          1   -1    0    0  501    0  0.00000000000E+00 -0.00000000000E+00 -0.37562717331E+03  0.37562717331E+03  0.00000000000E+00 0. -1.
         23    2    1    2    0    0  0.35825793247E+02 -0.10509356639E+03 -0.23323359541E+03  0.28696666678E+03  0.12499525052E+03 0.  0.
          5    1    3    3  502    0 -0.82461455235E+01 -0.11781991322E+03 -0.14213451847E+03  0.18486168399E+03  0.47000000000E+01 0.  1.
         -5    1    3    3    0  502  0.44071938770E+02  0.12726346824E+02 -0.91099076942E+02  0.10210498279E+03  0.47000000000E+01 0.  1.
        -11    1    1    2    0    0 -0.51007769754E+02  0.94224693567E+02 -0.24603240569E+02  0.10993363862E+03  0.00000000000E+00 0.  1.
         11    1    1    2    0    0  0.15181976507E+02  0.10868872824E+02 -0.46452578471E+02  0.50064626771E+02  0.00000000000E+00 0. -1.
<mgrwt>
<rscale>  0 0.16088199E+03</rscale>
<asrwt>0</asrwt>
<pdfrwt beam="2">  1        1 0.57788796E-01 0.16718839E+03</pdfrwt>
<pdfrwt beam="1">  1       -1 0.10975040E-01 0.16718839E+03</pdfrwt>
<totfact> 0.33862649E+03</totfact>
</mgrwt>
</event>
<event>
 7    1  0.6419647E-006  0.1177661E+03  0.7546771E-02  0.1255010E+00
         -1   -1    0    0    0  501 -0.00000000000E+00  0.00000000000E+00  0.61202876413E+02  0.61202876413E+02  0.00000000000E+00 0.  1.
          1   -1    0    0  501    0  0.00000000000E+00 -0.00000000000E+00 -0.19387864910E+03  0.19387864910E+03  0.00000000000E+00 0. -1.
         23    2    1    2    0    0  0.43694996923E+01  0.19319857752E+02 -0.74794061603E+02  0.13950988762E+03  0.11608836144E+03 0.  0.
          5    1    3    3  502    0 -0.33184805581E+02  0.23572924124E+02  0.13670076282E+02  0.43195775937E+02  0.47000000000E+01 0. -1.
         -5    1    3    3    0  502  0.37554305273E+02 -0.42530663726E+01 -0.88464137885E+02  0.96314111686E+02  0.47000000000E+01 0.  1.
        -11    1    1    2    0    0 -0.45227955300E+02 -0.18577010686E+02 -0.56003049757E+01  0.49214191880E+02  0.00000000000E+00 0.  1.
         11    1    1    2    0    0  0.40858455607E+02 -0.74284706537E+00 -0.52281406113E+02  0.66357446014E+02  0.00000000000E+00 0. -1.
<mgrwt>
<rscale>  0 0.11305781E+03</rscale>
<asrwt>0</asrwt>
<pdfrwt beam="2">  1        1 0.29827484E-01 0.11776611E+03</pdfrwt>
<pdfrwt beam="1">  1       -1 0.94158273E-02 0.11776611E+03</pdfrwt>
<totfact> 0.95247856E+03</totfact>
</mgrwt>
</event>
<event>
 7    1  0.6419647E-006  0.1397592E+03  0.7546771E-02  0.1238614E+00
          2   -1    0    0  501    0  0.00000000000E+00  0.00000000000E+00  0.51324739883E+03  0.51324739883E+03  0.00000000000E+00 0.  1.
         -2   -1    0    0    0  501 -0.00000000000E+00 -0.00000000000E+00 -0.30498195765E+02  0.30498195765E+02  0.00000000000E+00 0. -1.
         23    2    1    2    0    0 -0.34879009056E+02 -0.51880989744E+02  0.41023401720E+03  0.43338734054E+03  0.12499782281E+03 0.  0.
          5    1    3    3  502    0 -0.85473460341E+01 -0.86430738523E+02  0.33759331005E+03  0.34861821908E+03  0.47000000000E+01 0. -1.
         -5    1    3    3    0  502 -0.26331663022E+02  0.34549748779E+02  0.72640707146E+02  0.84769121459E+02  0.47000000000E+01 0. -1.
        -11    1    1    2    0    0  0.25550872998E+02  0.20096056078E+02  0.69949173747E+02  0.77133556178E+02  0.00000000000E+00 0.  1.
         11    1    1    2    0    0  0.93281360577E+01  0.31784933665E+02  0.25660121184E+01  0.33224697871E+02  0.00000000000E+00 0. -1.
<mgrwt>
<rscale>  0 0.12275875E+03</rscale>
<asrwt>0</asrwt>
<pdfrwt beam="1">  1        2 0.78961132E-01 0.13975921E+03</pdfrwt>
<pdfrwt beam="2">  1       -2 0.46920305E-02 0.13975921E+03</pdfrwt>
<totfact> 0.12399811E+04</totfact>
</mgrwt>
</event>
<event>
 6    1  0.6419647E-006  0.3274683E+03  0.7546771E-02  0.1112607E+00
         -1   -1    0    0    0  501 -0.00000000000E+00  0.00000000000E+00  0.32871991270E+03  0.32871991270E+03  0.00000000000E+00 0.  1.
          1   -1    0    0  501    0  0.00000000000E+00 -0.00000000000E+00 -0.30704165192E+03  0.30704165192E+03  0.00000000000E+00 0. -1.
          5    1    1    2  502    0 -0.10912301837E+03  0.47919430853E+02 -0.26911100952E+03  0.29435850664E+03  0.47000000000E+01 0. -1.
         -5    1    1    2    0  502  0.60775078219E+02  0.11905420561E+01  0.66898106435E+02  0.90512287384E+02  0.47000000000E+01 0.  1.
        -11    1    1    2    0    0  0.59528171133E+02 -0.14690298121E+02  0.19551155205E+03  0.20490040264E+03  0.00000000000E+00 0.  1.
         11    1    1    2    0    0 -0.11180230981E+02 -0.34419674788E+02  0.28379611807E+02  0.45990367944E+02  0.00000000000E+00 0. -1.
<mgrwt>
<rscale>  0 0.25110674E+03</rscale>
<asrwt>0</asrwt>
<pdfrwt beam="2">  1        1 0.47237177E-01 0.32746827E+03</pdfrwt>
<pdfrwt beam="1">  1       -1 0.50572294E-01 0.32746827E+03</pdfrwt>
<totfact> 0.34320999E+02</totfact>
</mgrwt>
</event>
<event>
 7    1  0.6419647E-006  0.1355915E+03  0.7546771E-02  0.1231662E+00
         -2   -1    0    0    0  501 -0.00000000000E+00  0.00000000000E+00  0.34610348745E+02  0.34610348745E+02  0.00000000000E+00 0.  1.
          2   -1    0    0  501    0  0.00000000000E+00 -0.00000000000E+00 -0.46176716551E+03  0.46176716551E+03  0.00000000000E+00 0. -1.
         23    2    1    2    0    0 -0.52418062807E+02  0.33537100776E+01 -0.31379349196E+03  0.34183534674E+03  0.12500459194E+03 0.  0.
          5    1    3    3  502    0 -0.23960357507E+02  0.58733069560E+02 -0.95160862103E+02  0.11446113693E+03  0.47000000000E+01 0. -1.
         -5    1    3    3    0  502 -0.28457705299E+02 -0.55379359482E+02 -0.21863262986E+03  0.22737420981E+03  0.47000000000E+01 0. -1.
        -11    1    1    2    0    0  0.37162891208E+02  0.37691666759E+02 -0.31210167023E+02  0.61447674908E+02  0.00000000000E+00 0.  1.
         11    1    1    2    0    0  0.15255171598E+02 -0.41045376836E+02 -0.82153157782E+02  0.93094492607E+02  0.00000000000E+00 0. -1.
<mgrwt>
<rscale>  0 0.12720561E+03</rscale>
<asrwt>0</asrwt>
<pdfrwt beam="2">  1        2 0.71041097E-01 0.13559148E+03</pdfrwt>
<pdfrwt beam="1">  1       -2 0.53246694E-02 0.13559148E+03</pdfrwt>
<totfact> 0.11486467E+04</totfact>
</mgrwt>
</event>
<event>
 7    1  0.6419647E-006  0.1306022E+03  0.7546771E-02  0.1240825E+00
          4   -1    0    0  501    0  0.00000000000E+00  0.00000000000E+00  0.60856138317E+02  0.60856138317E+02  0.00000000000E+00 0. -1.
         -4   -1    0    0    0  501 -0.00000000000E+00 -0.00000000000E+00 -0.21368312622E+03  0.21368312622E+03  0.00000000000E+00 0.  1.
         23    2    1    2    0    0 -0.36707790260E+02  0.91824129122E+01 -0.86976392951E+02  0.15691347402E+03  0.12500066730E+03 0.  0.
          5    1    3    3  502    0 -0.21357915887E+02  0.12664217986E+02  0.29751355810E+02  0.39035575578E+02  0.47000000000E+01 0.  1.
         -5    1    3    3    0  502 -0.15349874373E+02 -0.34818050737E+01 -0.11672774876E+03  0.11787789844E+03  0.47000000000E+01 0.  1.
        -11    1    1    2    0    0 -0.72268630443E+01 -0.41987701904E+02 -0.30229226094E+02  0.52239838924E+02  0.00000000000E+00 0. -1.
         11    1    1    2    0    0  0.43934653304E+02  0.32805288991E+02 -0.35621368862E+02  0.65385951598E+02  0.00000000000E+00 0.  1.
<mgrwt>
<rscale>  0 0.12138799E+03</rscale>
<asrwt>0</asrwt>
<pdfrwt beam="1">  1        4 0.93624827E-02 0.13060224E+03</pdfrwt>
<pdfrwt beam="2">  1       -4 0.32874327E-01 0.13060224E+03</pdfrwt>
<totfact> 0.12377705E+03</totfact>
</mgrwt>
</event>
<event>
 7    1  0.6419647E-006  0.1202731E+03  0.7546771E-02  0.1251564E+00
         -1   -1    0    0    0  501 -0.00000000000E+00  0.00000000000E+00  0.18249211885E+03  0.18249211885E+03  0.00000000000E+00 0.  1.
          1   -1    0    0  501    0  0.00000000000E+00 -0.00000000000E+00 -0.98929124108E+02  0.98929124108E+02  0.00000000000E+00 0. -1.
         23    2    1    2    0    0  0.12372568717E+01  0.43225352371E+02 -0.35661959444E+02  0.12544874197E+03  0.11223034179E+03 0.  0.
          5    1    3    3  502    0 -0.91076667800E+01  0.56365324438E+02 -0.67893037246E+02  0.88834418440E+02  0.47000000000E+01 0. -1.
         -5    1    3    3    0  502  0.10344923652E+02 -0.13139972066E+02  0.32231077801E+02  0.36614323529E+02  0.47000000000E+01 0.  1.
        -11    1    1    2    0    0  0.85160210979E+01 -0.22236361419E+02  0.12875832658E+03  0.13094153294E+03  0.00000000000E+00 0.  1.
         11    1    1    2    0    0 -0.97532779696E+01 -0.20988990953E+02 -0.95333723937E+01  0.25030968051E+02  0.00000000000E+00 0. -1.
<mgrwt>
<rscale>  0 0.11500994E+03</rscale>
<asrwt>0</asrwt>
<pdfrwt beam="2">  1        1 0.15219865E-01 0.12027307E+03</pdfrwt>
<pdfrwt beam="1">  1       -1 0.28075711E-01 0.12027307E+03</pdfrwt>
<totfact> 0.39823065E+03</totfact>
</mgrwt>
</event>
<event>
 7    1  0.6419647E-006  0.1486289E+03  0.7546771E-02  0.1210709E+00
          1   -1    0    0  501    0  0.00000000000E+00  0.00000000000E+00  0.48060922471E+02  0.48060922471E+02  0.00000000000E+00 0. -1.
         -1   -1    0    0    0  501 -0.00000000000E+00 -0.00000000000E+00 -0.40870860088E+03  0.40870860088E+03  0.00000000000E+00 0.  1.
         23    2    1    2    0    0  0.79908799055E+02 -0.83271856730E+01 -0.14205573498E+03  0.20559762720E+03  0.12504316967E+03 0.  0.
          5    1    3    3  502    0 -0.10000298853E+02  0.41664863519E+01 -0.10782703781E+03  0.10847177360E+03  0.47000000000E+01 0. -1.
         -5    1    3    3    0  502  0.89909097908E+02 -0.12493672025E+02 -0.34228697170E+02  0.97125853599E+02  0.47000000000E+01 0. -1.
        -11    1    1    2    0    0 -0.56305986804E+02 -0.33298939476E+02 -0.17349688090E+03  0.18541939273E+03  0.00000000000E+00 0.  1.
         11    1    1    2    0    0 -0.23602812252E+02  0.41626125149E+02 -0.45095062534E+02  0.65752503421E+02  0.00000000000E+00 0. -1.
<mgrwt>
<rscale>  0 0.14196498E+03</rscale>
<asrwt>0</asrwt>
<pdfrwt beam="1">  1        1 0.73939880E-02 0.14862891E+03</pdfrwt>
<pdfrwt beam="2">  1       -1 0.62878247E-01 0.14862891E+03</pdfrwt>
<totfact> 0.24973218E+03</totfact>
</mgrwt>
</event>
<event>
 6    1  0.6419647E-006  0.1424384E+03  0.7546771E-02  0.1226352E+00
         -1   -1    0    0    0  501 -0.00000000000E+00  0.00000000000E+00  0.25121450179E+02  0.25121450179E+02  0.00000000000E+00 0.  1.
          1   -1    0    0  501    0  0.00000000000E+00 -0.00000000000E+00 -0.59326920420E+03  0.59326920420E+03  0.00000000000E+00 0. -1.
          5    1    1    2  502    0 -0.69550164558E+01 -0.27884762048E+02 -0.21780326048E+03  0.21974139912E+03  0.47000000000E+01 0. -1.
         -5    1    1    2    0  502  0.45973796973E+02  0.74097992110E+02 -0.13560327639E+03  0.16128992842E+03  0.47000000000E+01 0.  1.
        -11    1    1    2    0    0 -0.46880097936E+02 -0.64214242895E+02 -0.18849597472E+03  0.20457747935E+03  0.00000000000E+00 0. -1.
         11    1    1    2    0    0  0.78613174190E+01  0.18001012833E+02 -0.26245242431E+02  0.32781847490E+02  0.00000000000E+00 0.  1.
<mgrwt>
<rscale>  0 0.13074699E+03</rscale>
<asrwt>0</asrwt>
<pdfrwt beam="2">  1        1 0.91272180E-01 0.14243838E+03</pdfrwt>
<pdfrwt beam="1">  1       -1 0.38648387E-02 0.14243838E+03</pdfrwt>
<totfact> 0.88800039E+03</totfact>
</mgrwt>
</event>
<event>
 7    1  0.6419647E-006  0.1512471E+03  0.7546771E-02  0.1208212E+00
          1   -1    0    0  501    0  0.00000000000E+00  0.00000000000E+00  0.47834728875E+03  0.47834728875E+03  0.00000000000E+00 0. -1.
         -1   -1    0    0    0  501 -0.00000000000E+00 -0.00000000000E+00 -0.42923394487E+02  0.42923394487E+02  0.00000000000E+00 0.  1.
         23    2    1    2    0    0 -0.69889972475E+01 -0.84896089507E+02  0.31045379240E+03  0.34533642369E+03  0.12497798292E+03 0.  0.
          5    1    3    3  502    0  0.51803723466E+01 -0.33713980827E+02  0.28433624259E+03  0.28641343825E+03  0.47000000000E+01 0.  1.
         -5    1    3    3    0  502 -0.12169369594E+02 -0.51182108681E+02  0.26117549818E+02  0.58922985445E+02  0.47000000000E+01 0.  1.
        -11    1    1    2    0    0  0.39685719918E+00  0.38921886270E+02 -0.37377840593E+01  0.39102963521E+02  0.00000000000E+00 0.  1.
         11    1    1    2    0    0  0.65921400483E+01  0.45974203237E+02  0.12870788592E+03  0.13683129602E+03  0.00000000000E+00 0. -1.
<mgrwt>
<rscale>  0 0.14387223E+03</rscale>
<asrwt>0</asrwt>
<pdfrwt beam="1">  1        1 0.73591887E-01 0.15124711E+03</pdfrwt>
<pdfrwt beam="2">  1       -1 0.66035995E-02 0.15124711E+03</pdfrwt>
<totfact> 0.53564410E+03</totfact>
</mgrwt>
</event>
<event>
 7    1  0.6419647E-006  0.2040241E+03  0.7546771E-02  0.1148651E+00
         -2   -1    0    0    0  501 -0.00000000000E+00  0.00000000000E+00  0.34755640316E+02  0.34755640316E+02  0.00000000000E+00 0. -1.
          2   -1    0    0  501    0  0.00000000000E+00 -0.00000000000E+00 -0.12761573885E+04  0.12761573885E+04  0.00000000000E+00 0.  1.
         23    2    1    2    0    0 -0.15968029857E+03 -0.22393963799E+02 -0.85297662616E+03  0.87703760816E+03  0.12500621581E+03 0.  0.
          5    1    3    3  502    0 -0.56580111421E+02 -0.29266643249E+02 -0.60486812026E+03  0.60823135264E+03  0.47000000000E+01 0. -1.
         -5    1    3    3    0  502 -0.10310018715E+03  0.68726794497E+01 -0.24810850590E+03  0.26880625553E+03  0.47000000000E+01 0. -1.
        -11    1    1    2    0    0  0.17255467851E+03  0.88796335408E+01 -0.36573391393E+03  0.40449383279E+03  0.00000000000E+00 0.  1.
         11    1    1    2    0    0 -0.12874379937E+02  0.13514330258E+02 -0.22691208140E+02  0.29381587907E+02  0.00000000000E+00 0. -1.
<mgrwt>
<rscale>  0 0.20129457E+03</rscale>
<asrwt>0</asrwt>
<pdfrwt beam="2">  1        2 0.19633195E+00 0.20402412E+03</pdfrwt>
<pdfrwt beam="1">  1       -2 0.53470204E-02 0.20402412E+03</pdfrwt>
<totfact> 0.31850037E+03</totfact>
</mgrwt>
</event>
<event>
 7    1  0.6419647E-006  0.1563629E+03  0.7546771E-02  0.1201699E+00
          2   -1    0    0  501    0  0.00000000000E+00  0.00000000000E+00  0.39849050442E+03  0.39849050442E+03  0.00000000000E+00 0. -1.
         -2   -1    0    0    0  501 -0.00000000000E+00 -0.00000000000E+00 -0.52349165243E+02  0.52349165243E+02  0.00000000000E+00 0.  1.
         23    2    1    2    0    0 -0.15636377810E+02 -0.92622952376E+02  0.22437891007E+03  0.27348721703E+03  0.12500341987E+03 0.  0.
          5    1    3    3  502    0  0.44027331832E+02 -0.71835935147E+02  0.82073114904E+02  0.11771530791E+03  0.47000000000E+01 0. -1.
         -5    1    3    3    0  502 -0.59663709641E+02 -0.20787017229E+02  0.14230579516E+03  0.15577190912E+03  0.47000000000E+01 0. -1.
        -11    1    1    2    0    0 -0.84384403102E+01  0.10249400482E+03  0.94493007447E+02  0.13966086336E+03  0.00000000000E+00 0.  1.
         11    1    1    2    0    0  0.24074818120E+02 -0.98710524443E+01  0.27269421660E+02  0.37691589267E+02  0.00000000000E+00 0. -1.
<mgrwt>
<rscale>  0 0.14900632E+03</rscale>
<asrwt>0</asrwt>
<pdfrwt beam="1">  1        2 0.61306230E-01 0.15636292E+03</pdfrwt>
<pdfrwt beam="2">  1       -2 0.80537180E-02 0.15636292E+03</pdfrwt>
<totfact> 0.72262609E+03</totfact>
</mgrwt>
</event>
<event>
 7    1  0.6419647E-006  0.1440673E+03  0.7546771E-02  0.1218286E+00
          1   -1    0    0  501    0  0.00000000000E+00  0.00000000000E+00  0.31817089813E+03  0.31817089813E+03  0.00000000000E+00 0. -1.
         -1   -1    0    0    0  501 -0.00000000000E+00 -0.00000000000E+00 -0.55184774964E+02  0.55184774964E+02  0.00000000000E+00 0.  1.
         23    2    1    2    0    0  0.52675458612E+02  0.48528831374E+02  0.18207923264E+03  0.23218144250E+03  0.12500249544E+03 0.  0.
          5    1    3    3  502    0 -0.38240972605E+02  0.28265960686E+02  0.85324335717E+02  0.97794012009E+02  0.47000000000E+01 0.  1.
         -5    1    3    3    0  502  0.90916431217E+02  0.20262870688E+02  0.96754896926E+02  0.13438743049E+03  0.47000000000E+01 0.  1.
        -11    1    1    2    0    0 -0.79486245281E+01  0.25808809657E+02  0.89160734209E+01  0.28438910898E+02  0.00000000000E+00 0.  1.
         11    1    1    2    0    0 -0.44726834084E+02 -0.74337641031E+02  0.71990817106E+02  0.11273531970E+03  0.00000000000E+00 0. -1.
<mgrwt>
<rscale>  0 0.13637921E+03</rscale>
<asrwt>0</asrwt>
<pdfrwt beam="1">  1        1 0.48949368E-01 0.14406726E+03</pdfrwt>
<pdfrwt beam="2">  1       -1 0.84899656E-02 0.14406726E+03</pdfrwt>
<totfact> 0.61253533E+03</totfact>
</mgrwt>
</event>
<event>
 7    1  0.6419647E-006  0.1858240E+03  0.7546771E-02  0.1167741E+00
          1   -1    0    0  501    0  0.00000000000E+00  0.00000000000E+00  0.10076741381E+04  0.10076741381E+04  0.00000000000E+00 0. -1.
         -1   -1    0    0    0  501 -0.00000000000E+00 -0.00000000000E+00 -0.74164473822E+02  0.74164473822E+02  0.00000000000E+00 0.  1.
         23    2    1    2    0    0 -0.13413275597E+03  0.30249841715E+02  0.89426717256E+03  0.91336977193E+03  0.12499566073E+03 0.  0.
          5    1    3    3  502    0 -0.82699726155E+02  0.33806307177E+02  0.22546339946E+03  0.24256534296E+03  0.47000000000E+01 0.  1.
         -5    1    3    3    0  502 -0.51433029815E+02 -0.35564654624E+01  0.66880377310E+03  0.67080442896E+03  0.47000000000E+01 0.  1.
        -11    1    1    2    0    0  0.10156191164E+03 -0.34443529621E+02  0.66158170296E+02  0.12600826213E+03  0.00000000000E+00 0. -1.
         11    1    1    2    0    0  0.32570844330E+02  0.41936879066E+01 -0.26915678582E+02  0.42460577859E+02  0.00000000000E+00 0.  1.
<mgrwt>
<rscale>  0 0.18006437E+03</rscale>
<asrwt>0</asrwt>
<pdfrwt beam="1">  1        1 0.15502678E+00 0.18582401E+03</pdfrwt>
<pdfrwt beam="2">  1       -1 0.11409920E-01 0.18582401E+03</pdfrwt>
<totfact> 0.78843545E+02</totfact>
</mgrwt>
</event>
<event>
 7    1  0.6419647E-006  0.1290796E+03  0.7546771E-02  0.1251044E+00
         -1   -1    0    0    0  501 -0.00000000000E+00  0.00000000000E+00  0.35699197832E+02  0.35699197832E+02  0.00000000000E+00 0.  1.
          1   -1    0    0  501    0  0.00000000000E+00 -0.00000000000E+00 -0.32991439122E+03  0.32991439122E+03  0.00000000000E+00 0. -1.
         23    2    1    2    0    0  0.76751114626E+01 -0.31279372350E+02 -0.21892209370E+03  0.25414254667E+03  0.12499697776E+03 0.  0.
          5    1    3    3  502    0 -0.16139206441E+02  0.43607170923E+02 -0.54136342762E+02  0.71518479767E+02  0.47000000000E+01 0. -1.
         -5    1    3    3    0  502  0.23814317904E+02 -0.74886543274E+02 -0.16478575094E+03  0.18262406690E+03  0.47000000000E+01 0. -1.
        -11    1    1    2    0    0 -0.10144761499E+02  0.67495576129E+01  0.14161036142E+02  0.18681746665E+02  0.00000000000E+00 0.  1.
         11    1    1    2    0    0  0.24696500360E+01  0.24529814737E+02 -0.89454135834E+02  0.92789295719E+02  0.00000000000E+00 0. -1.
<mgrwt>
<rscale>  0 0.11530827E+03</rscale>
<asrwt>0</asrwt>
<pdfrwt beam="2">  1        1 0.50756063E-01 0.12907963E+03</pdfrwt>
<pdfrwt beam="1">  1       -1 0.54921840E-02 0.12907963E+03</pdfrwt>
<totfact> 0.11160124E+04</totfact>
</mgrwt>
</event>
<event>
 7    1  0.6419647E-006  0.1420367E+03  0.7546771E-02  0.1221210E+00
          1   -1    0    0  501    0  0.00000000000E+00  0.00000000000E+00  0.27081248036E+03  0.27081248036E+03  0.00000000000E+00 0. -1.
         -1   -1    0    0    0  501 -0.00000000000E+00 -0.00000000000E+00 -0.63385794363E+02  0.63385794363E+02  0.00000000000E+00 0.  1.
         23    2    1    2    0    0 -0.49287411997E+02 -0.46043417631E+02  0.15139652837E+03  0.20759416893E+03  0.12500073953E+03 0.  0.
          5    1    3    3  502    0  0.36676702324E+02 -0.18224665011E+00  0.14993723687E+02  0.39901321497E+02  0.47000000000E+01 0.  1.
         -5    1    3    3    0  502 -0.85964114321E+02 -0.45861170981E+02  0.13640280468E+03  0.16769284743E+03  0.47000000000E+01 0.  1.
        -11    1    1    2    0    0  0.17414864809E+02  0.70869831789E+02  0.32907056204E+02  0.80054262361E+02  0.00000000000E+00 0. -1.
         11    1    1    2    0    0  0.31872547188E+02 -0.24826414158E+02  0.23123101423E+02  0.46549843432E+02  0.00000000000E+00 0.  1.
<mgrwt>
<rscale>  0 0.13430087E+03</rscale>
<asrwt>0</asrwt>
<pdfrwt beam="1">  1        1 0.41663458E-01 0.14203672E+03</pdfrwt>
<pdfrwt beam="2">  1       -1 0.97516608E-02 0.14203672E+03</pdfrwt>
<totfact> 0.60536152E+03</totfact>
</mgrwt>
</event>
<event>
 7    1  0.6419647E-006  0.1454266E+03  0.7546771E-02  0.1216282E+00
          2   -1    0    0  501    0  0.00000000000E+00  0.00000000000E+00  0.12305931124E+03  0.12305931124E+03  0.00000000000E+00 0. -1.
         -2   -1    0    0    0  501 -0.00000000000E+00 -0.00000000000E+00 -0.15265107502E+03  0.15265107502E+03  0.00000000000E+00 0.  1.
         23    2    1    2    0    0  0.61067163638E+02  0.42356420342E+02  0.22817856542E+02  0.14720582590E+03  0.12500254310E+03 0.  0.
          5    1    3    3  502    0  0.42611224752E+02  0.47141150696E+02  0.70865932672E+02  0.95299921182E+02  0.47000000000E+01 0. -1.
         -5    1    3    3    0  502  0.18455938886E+02 -0.47847303541E+01 -0.48048076130E+02  0.51905904717E+02  0.47000000000E+01 0. -1.
        -11    1    1    2    0    0 -0.42929633031E+02 -0.71142634789E+02 -0.40682806754E+02  0.92516585768E+02  0.00000000000E+00 0.  1.
         11    1    1    2    0    0 -0.18137530607E+02  0.28786214447E+02 -0.11726813563E+02  0.35987974589E+02  0.00000000000E+00 0. -1.
<mgrwt>
<rscale>  0 0.13782769E+03</rscale>
<asrwt>0</asrwt>
<pdfrwt beam="1">  1        2 0.18932202E-01 0.14542662E+03</pdfrwt>
<pdfrwt beam="2">  1       -2 0.23484781E-01 0.14542662E+03</pdfrwt>
<totfact> 0.45108859E+03</totfact>
</mgrwt>
</event>
<event>
 7    1  0.6419647E-006  0.1505031E+03  0.7546771E-02  0.1209760E+00
          2   -1    0    0  501    0  0.00000000000E+00  0.00000000000E+00  0.11886900197E+04  0.11886900197E+04  0.00000000000E+00 0. -1.
         -2   -1    0    0    0  501 -0.00000000000E+00 -0.00000000000E+00 -0.35071179886E+02  0.35071179886E+02  0.00000000000E+00 0.  1.
         23    2    1    2    0    0 -0.77855978492E+02  0.31097689762E+02  0.10591464078E+04  0.10697860979E+04  0.12499024862E+03 0.  0.
          5    1    3    3  502    0 -0.92303205544E+02  0.12234836215E+02  0.42182451241E+03  0.43200414609E+03  0.47000000000E+01 0.  1.
         -5    1    3    3    0  502  0.14447227052E+02  0.18862853547E+02  0.63732189544E+03  0.63778195178E+03  0.47000000000E+01 0.  1.
        -11    1    1    2    0    0 -0.17086023038E+02  0.28130306579E+01  0.28962439579E+02  0.33744158474E+02  0.00000000000E+00 0. -1.
         11    1    1    2    0    0  0.94942001531E+02 -0.33910720420E+02  0.65509992428E+02  0.12023094328E+03  0.00000000000E+00 0.  1.
<mgrwt>
<rscale>  0 0.14268571E+03</rscale>
<asrwt>0</asrwt>
<pdfrwt beam="1">  1        2 0.18287536E+00 0.15050310E+03</pdfrwt>
<pdfrwt beam="2">  1       -2 0.53955670E-02 0.15050310E+03</pdfrwt>
<totfact> 0.34947702E+03</totfact>
</mgrwt>
</event>
<event>
 6    1  0.6419647E-006  0.1416462E+03  0.7546771E-02  0.1233632E+00
          2   -1    0    0  501    0  0.00000000000E+00  0.00000000000E+00  0.22566621041E+04  0.22566621041E+04  0.00000000000E+00 0. -1.
         -2   -1    0    0    0  501 -0.00000000000E+00 -0.00000000000E+00 -0.14323866203E+02  0.14323866203E+02  0.00000000000E+00 0.  1.
          5    1    1    2  502    0 -0.13334563997E+02 -0.56734551611E+02  0.15426564499E+04  0.15437641116E+04  0.47000000000E+01 0. -1.
         -5    1    1    2    0  502  0.10454667824E+02  0.62601344369E+02  0.54752533675E+03  0.55121167693E+03  0.47000000000E+01 0.  1.
        -11    1    1    2    0    0  0.39120759983E+02 -0.25523627574E+02  0.71103062963E+02  0.85073703275E+02  0.00000000000E+00 0. -1.
         11    1    1    2    0    0 -0.36240863810E+02  0.19656834816E+02  0.81053388302E+02  0.90936478488E+02  0.00000000000E+00 0.  1.
<mgrwt>
<rscale>  0 0.12592446E+03</rscale>
<asrwt>0</asrwt>
<pdfrwt beam="1">  1        2 0.34717850E+00 0.14164623E+03</pdfrwt>
<pdfrwt beam="2">  1       -2 0.22036735E-02 0.14164623E+03</pdfrwt>
<totfact> 0.36474299E+03</totfact>
</mgrwt>
</event>
<event>
 7    1  0.6419647E-006  0.1880564E+03  0.7546771E-02  0.1165202E+00
         -2   -1    0    0    0  501 -0.00000000000E+00  0.00000000000E+00  0.40749771829E+02  0.40749771829E+02  0.00000000000E+00 0.  1.
          2   -1    0    0  501    0  0.00000000000E+00 -0.00000000000E+00 -0.84764019077E+03  0.84764019077E+03  0.00000000000E+00 0. -1.
         23    2    1    2    0    0 -0.13471528197E+03 -0.39887957817E+02 -0.55370190280E+03  0.58476576477E+03  0.12500378437E+03 0.  0.
          5    1    3    3  502    0 -0.14359277946E+02  0.29039131056E+02 -0.35436234490E+02  0.48241856416E+02  0.47000000000E+01 0.  1.
         -5    1    3    3    0  502 -0.12035600403E+03 -0.68927088872E+02 -0.51826566831E+03  0.53652390835E+03  0.47000000000E+01 0.  1.
        -11    1    1    2    0    0  0.56333221712E+02 -0.63924588789E+00 -0.18116535189E+03  0.18972275886E+03  0.00000000000E+00 0. -1.
         11    1    1    2    0    0  0.78382060260E+02  0.40527203704E+02 -0.72023164251E+02  0.11390143897E+03  0.00000000000E+00 0.  1.
<mgrwt>
<rscale>  0 0.18271405E+03</rscale>
<asrwt>0</asrwt>
<pdfrwt beam="2">  1        2 0.13040618E+00 0.18805638E+03</pdfrwt>
<pdfrwt beam="1">  1       -2 0.62691958E-02 0.18805638E+03</pdfrwt>
<totfact> 0.44884193E+03</totfact>
</mgrwt>
</event>
<event>
 7    1  0.6419647E-006  0.1366834E+03  0.7546771E-02  0.1228031E+00
         -1   -1    0    0    0  501 -0.00000000000E+00  0.00000000000E+00  0.25103689004E+02  0.25103689004E+02  0.00000000000E+00 0.  1.
          1   -1    0    0  501    0  0.00000000000E+00 -0.00000000000E+00 -0.71648892374E+03  0.71648892374E+03  0.00000000000E+00 0. -1.
         23    2    1    2    0    0 -0.34171825937E+02 -0.43422846938E+02 -0.51997732129E+03  0.53764185136E+03  0.12501635234E+03 0.  0.
          5    1    3    3  502    0 -0.53151748537E+02  0.16033880780E+02 -0.11420865651E+03  0.12707439132E+03  0.47000000000E+01 0. -1.
         -5    1    3    3    0  502  0.18979922601E+02 -0.59456727717E+02 -0.40576866477E+03  0.41056746004E+03  0.47000000000E+01 0. -1.
        -11    1    1    2    0    0 -0.29752732138E+02  0.33716368185E+02 -0.83327731565E+02  0.94686479505E+02  0.00000000000E+00 0. -1.
         11    1    1    2    0    0  0.63924558074E+02  0.97064787523E+01 -0.88080181886E+02  0.10926428188E+03  0.00000000000E+00 0.  1.
<mgrwt>
<rscale>  0 0.12961329E+03</rscale>
<asrwt>0</asrwt>
<pdfrwt beam="2">  1        1 0.11022904E+00 0.13668338E+03</pdfrwt>
<pdfrwt beam="1">  1       -1 0.38621067E-02 0.13668338E+03</pdfrwt>
<totfact> 0.68113360E+03</totfact>
</mgrwt>
</event>
<event>
 6    1  0.6419647E-006  0.2153274E+03  0.7546771E-02  0.1161640E+00
          2   -1    0    0  501    0  0.00000000000E+00  0.00000000000E+00  0.20846168081E+03  0.20846168081E+03  0.00000000000E+00 0. -1.
         -2   -1    0    0    0  501 -0.00000000000E+00 -0.00000000000E+00 -0.14325126363E+03  0.14325126363E+03  0.00000000000E+00 0.  1.
          5    1    1    2  502    0 -0.12927592339E+03  0.70755019712E+02  0.51439194030E+02  0.15616215248E+03  0.47000000000E+01 0. -1.
         -5    1    1    2    0  502  0.61686281231E+02 -0.27703223257E+02  0.28310252060E+02  0.73459010630E+02  0.47000000000E+01 0.  1.
        -11    1    1    2    0    0 -0.17362657542E+02 -0.34139323499E+01 -0.21786751099E+02  0.28067406978E+02  0.00000000000E+00 0. -1.
         11    1    1    2    0    0  0.84952299704E+02 -0.39637864105E+02  0.72477221834E+01  0.94024374354E+02  0.00000000000E+00 0.  1.
<mgrwt>
<rscale>  0 0.18651802E+03</rscale>
<asrwt>0</asrwt>
<pdfrwt beam="1">  1        2 0.32071028E-01 0.21532744E+03</pdfrwt>
<pdfrwt beam="2">  1       -2 0.22038656E-01 0.21532744E+03</pdfrwt>
<totfact> 0.28544398E+03</totfact>
</mgrwt>
</event>
<event>
 7    1  0.6419647E-006  0.1918664E+03  0.7546771E-02  0.1158114E+00
          1   -1    0    0  501    0  0.00000000000E+00  0.00000000000E+00  0.18473243996E+03  0.18473243996E+03  0.00000000000E+00 0. -1.
         -1   -1    0    0    0  501 -0.00000000000E+00 -0.00000000000E+00 -0.19324387049E+03  0.19324387049E+03  0.00000000000E+00 0.  1.
         23    2    1    2    0    0 -0.53917682705E+02 -0.13520265230E+03 -0.46877108838E+01  0.19192363526E+03  0.12500333372E+03 0.  0.
          5    1    3    3  502    0 -0.70122893165E+02 -0.20199630080E+02  0.13241685506E+02  0.74314718840E+02  0.47000000000E+01 0.  1.
         -5    1    3    3    0  502  0.16205210460E+02 -0.11500302222E+03 -0.17929396390E+02  0.11760891642E+03  0.47000000000E+01 0.  1.
        -11    1    1    2    0    0  0.14539629470E+01  0.94944068614E+02 -0.48125694736E+02  0.10645455682E+03  0.00000000000E+00 0.  1.
         11    1    1    2    0    0  0.52463719758E+02  0.40258583690E+02  0.44301975093E+02  0.79598118374E+02  0.00000000000E+00 0. -1.
<mgrwt>
<rscale>  0 0.19038609E+03</rscale>
<asrwt>0</asrwt>
<pdfrwt beam="1">  1        1 0.28420375E-01 0.19186638E+03</pdfrwt>
<pdfrwt beam="2">  1       -1 0.29729826E-01 0.19186638E+03</pdfrwt>
<totfact> 0.16673782E+03</totfact>
</mgrwt>
</event>
<event>
 7    1  0.6419647E-006  0.1282709E+03  0.7546771E-02  0.1247944E+00
         -1   -1    0    0    0  501 -0.00000000000E+00  0.00000000000E+00  0.23306921600E+03  0.23306921600E+03  0.00000000000E+00 0.  1.
          1   -1    0    0  501    0  0.00000000000E+00 -0.00000000000E+00 -0.52637771518E+02  0.52637771518E+02  0.00000000000E+00 0. -1.
         23    2    1    2    0    0 -0.85712280948E+01 -0.27483392987E+02  0.78830376437E+02  0.15055779506E+03  0.12499847424E+03 0.  0.
          5    1    3    3  502    0  0.51039402046E+02 -0.42029332661E+02  0.47145728327E+02  0.81340611410E+02  0.47000000000E+01 0. -1.
         -5    1    3    3    0  502 -0.59610630141E+02  0.14545939673E+02  0.31684648110E+02  0.69217183651E+02  0.47000000000E+01 0. -1.
        -11    1    1    2    0    0 -0.31285386393E+02 -0.10408980738E+02  0.48917183639E+02  0.58991636161E+02  0.00000000000E+00 0.  1.
         11    1    1    2    0    0  0.39856614487E+02  0.37892373726E+02  0.52683884408E+02  0.76157556298E+02  0.00000000000E+00 0. -1.
<mgrwt>
<rscale>  0 0.11710918E+03</rscale>
<asrwt>0</asrwt>
<pdfrwt beam="2">  1        1 0.80981188E-02 0.12827089E+03</pdfrwt>
<pdfrwt beam="1">  1       -1 0.35856802E-01 0.12827089E+03</pdfrwt>
<totfact> 0.60631583E+03</totfact>
</mgrwt>
</event>
<event>
 7    1  0.6419647E-006  0.1318557E+03  0.7546771E-02  0.1236446E+00
         -1   -1    0    0    0  501 -0.00000000000E+00  0.00000000000E+00  0.20411906534E+02  0.20411906534E+02  0.00000000000E+00 0.  1.
          1   -1    0    0  501    0  0.00000000000E+00 -0.00000000000E+00 -0.67937779605E+03  0.67937779605E+03  0.00000000000E+00 0. -1.
         23    2    1    2    0    0 -0.27058052011E+02  0.32071241088E+02 -0.38028032984E+03  0.40249106860E+03  0.12500091342E+03 0.  0.
          5    1    3    3  502    0 -0.38185550699E+02  0.71268893328E+02 -0.31620199142E+03  0.32640952929E+03  0.47000000000E+01 0. -1.
         -5    1    3    3    0  502  0.11127498688E+02 -0.39197652240E+02 -0.64078338421E+02  0.76081539305E+02  0.47000000000E+01 0. -1.
        -11    1    1    2    0    0 -0.28237427890E+02 -0.21600616323E+02 -0.47322171995E+02  0.59188908773E+02  0.00000000000E+00 0.  1.
         11    1    1    2    0    0  0.55295479901E+02 -0.10470624765E+02 -0.23136338768E+03  0.23810972521E+03  0.00000000000E+00 0. -1.
<mgrwt>
<rscale>  0 0.12412316E+03</rscale>
<asrwt>0</asrwt>
<pdfrwt beam="2">  1        1 0.10451965E+00 0.13185572E+03</pdfrwt>
<pdfrwt beam="1">  1       -1 0.31402936E-02 0.13185572E+03</pdfrwt>
<totfact> 0.99223309E+03</totfact>
</mgrwt>
</event>
<event>
 7    1  0.6419647E-006  0.1499576E+03  0.7546771E-02  0.1209289E+00
         -1   -1    0    0    0  501 -0.00000000000E+00  0.00000000000E+00  0.19492469934E+02  0.19492469934E+02  0.00000000000E+00 0.  1.
          1   -1    0    0  501    0  0.00000000000E+00 -0.00000000000E+00 -0.97773327443E+03  0.97773327443E+03  0.00000000000E+00 0. -1.
         23    2    1    2    0    0  0.80123057778E+02 -0.21038371669E+02 -0.58296252559E+03  0.60194068512E+03  0.12499985877E+03 0.  0.
          5    1    3    3  502    0  0.36902089581E+02  0.51659301049E+02 -0.20769853454E+03  0.21723539963E+03  0.47000000000E+01 0. -1.
         -5    1    3    3    0  502  0.43220968196E+02 -0.72697672717E+02 -0.37526399105E+03  0.38470528549E+03  0.47000000000E+01 0. -1.
        -11    1    1    2    0    0 -0.10044535833E+03  0.98098843121E+01 -0.30215232554E+03  0.31856166070E+03  0.00000000000E+00 0.  1.
         11    1    1    2    0    0  0.20322300550E+02  0.11228487356E+02 -0.73125953362E+02  0.76723398537E+02  0.00000000000E+00 0. -1.
<mgrwt>
<rscale>  0 0.14304562E+03</rscale>
<asrwt>0</asrwt>
<pdfrwt beam="2">  1        1 0.15042049E+00 0.14995760E+03</pdfrwt>
<pdfrwt beam="1">  1       -1 0.29988419E-02 0.14995760E+03</pdfrwt>
<totfact> 0.61275763E+03</totfact>
</mgrwt>
</event>
<event>
 7    1  0.6419647E-006  0.1416702E+03  0.7546771E-02  0.1222196E+00
         -2   -1    0    0    0  501 -0.00000000000E+00  0.00000000000E+00  0.18494982001E+02  0.18494982001E+02  0.00000000000E+00 0.  1.
          2   -1    0    0  501    0  0.00000000000E+00 -0.00000000000E+00 -0.12926649868E+04  0.12926649868E+04  0.00000000000E+00 0. -1.
         23    2    1    2    0    0 -0.35893317352E+02 -0.56187272042E+02 -0.10601092633E+04  0.10695335852E+04  0.12500040000E+03 0.  0.
          5    1    3    3  502    0 -0.76844705858E+02 -0.76470064314E+01 -0.63086157900E+03  0.63558792263E+03  0.47000000000E+01 0.  1.
         -5    1    3    3    0  502  0.40951388505E+02 -0.48540265611E+02 -0.42924768425E+03  0.43394566254E+03  0.47000000000E+01 0.  1.
        -11    1    1    2    0    0  0.11921113855E+02 -0.13727395589E+02 -0.35590818901E+01  0.18526235697E+02  0.00000000000E+00 0.  1.
         11    1    1    2    0    0  0.23972203497E+02  0.69914667631E+02 -0.21050165965E+03  0.22310014792E+03  0.00000000000E+00 0. -1.
<mgrwt>
<rscale>  0 0.13360976E+03</rscale>
<asrwt>0</asrwt>
<pdfrwt beam="2">  1        2 0.19887154E+00 0.14167018E+03</pdfrwt>
<pdfrwt beam="1">  1       -2 0.28453819E-02 0.14167018E+03</pdfrwt>
<totfact> 0.79269735E+03</totfact>
</mgrwt>
</event>
<event>
 7    1  0.6419647E-006  0.1481495E+03  0.7546771E-02  0.1212508E+00
         -2   -1    0    0    0  501 -0.00000000000E+00  0.00000000000E+00  0.41518857225E+02  0.41518857225E+02  0.00000000000E+00 0.  1.
          2   -1    0    0  501    0  0.00000000000E+00 -0.00000000000E+00 -0.47475507464E+03  0.47475507464E+03  0.00000000000E+00 0. -1.
         23    2    1    2    0    0  0.56209535072E+02  0.56291880231E+02 -0.31275683721E+03  0.34607097795E+03  0.12497997817E+03 0.  0.
          5    1    3    3  502    0  0.41159377557E+02  0.91220253357E+02 -0.27322099754E+03  0.29101036491E+03  0.47000000000E+01 0. -1.
         -5    1    3    3    0  502  0.15050157515E+02 -0.34928373126E+02 -0.39535839665E+02  0.55060613041E+02  0.47000000000E+01 0. -1.
        -11    1    1    2    0    0 -0.15230183712E+02 -0.17385399081E+02 -0.11041335360E+03  0.11280655677E+03  0.00000000000E+00 0. -1.
         11    1    1    2    0    0 -0.40979351360E+02 -0.38906481150E+02 -0.10066026601E+02  0.57396397142E+02  0.00000000000E+00 0.  1.
<mgrwt>
<rscale>  0 0.14061214E+03</rscale>
<asrwt>0</asrwt>
<pdfrwt beam="2">  1        2 0.73039249E-01 0.14814953E+03</pdfrwt>
<pdfrwt beam="1">  1       -2 0.63875159E-02 0.14814953E+03</pdfrwt>
<totfact> 0.85093664E+03</totfact>
</mgrwt>
</event>
<event>
 7    1  0.6419647E-006  0.1406501E+03  0.7546771E-02  0.1221404E+00
         -1   -1    0    0    0  501 -0.00000000000E+00  0.00000000000E+00  0.22380100207E+02  0.22380100207E+02  0.00000000000E+00 0.  1.
          1   -1    0    0  501    0  0.00000000000E+00 -0.00000000000E+00 -0.81308827687E+03  0.81308827687E+03  0.00000000000E+00 0. -1.
         23    2    1    2    0    0  0.31439190502E+02 -0.56282017687E+02 -0.55526796183E+03  0.57280447826E+03  0.12500549056E+03 0.  0.
          5    1    3    3  502    0  0.22545355748E+02 -0.15600522987E+02 -0.16362610492E+02  0.32272192448E+02  0.47000000000E+01 0. -1.
         -5    1    3    3    0  502  0.88938347535E+01 -0.40681494700E+02 -0.53890535134E+03  0.54053228582E+03  0.47000000000E+01 0. -1.
        -11    1    1    2    0    0 -0.12978920514E+02 -0.67628921673E+01  0.33404844438E+01  0.15011593003E+02  0.00000000000E+00 0.  1.
         11    1    1    2    0    0 -0.18460269988E+02  0.63044909855E+02 -0.23878069927E+03  0.24765230581E+03  0.00000000000E+00 0. -1.
<mgrwt>
<rscale>  0 0.13416477E+03</rscale>
<asrwt>0</asrwt>
<pdfrwt beam="2">  1        1 0.12509050E+00 0.14065014E+03</pdfrwt>
<pdfrwt beam="1">  1       -1 0.34430925E-02 0.14065014E+03</pdfrwt>
<totfact> 0.66943139E+03</totfact>
</mgrwt>
</event>
<event>
 7    1  0.6419647E-006  0.1268261E+03  0.7546771E-02  0.1247422E+00
         -2   -1    0    0    0  501 -0.00000000000E+00  0.00000000000E+00  0.34832478141E+02  0.34832478141E+02  0.00000000000E+00 0.  1.
          2   -1    0    0  501    0  0.00000000000E+00 -0.00000000000E+00 -0.40788456163E+03  0.40788456163E+03  0.00000000000E+00 0. -1.
         23    2    1    2    0    0 -0.17988623038E+02 -0.11652639490E+02 -0.29523968659E+03  0.32132746130E+03  0.12500196112E+03 0.  0.
          5    1    3    3  502    0  0.29728039175E+02 -0.44526431396E+02 -0.21873529343E+03  0.22524115521E+03  0.47000000000E+01 0. -1.
         -5    1    3    3    0  502 -0.47716662213E+02  0.32873791906E+02 -0.76504393155E+02  0.96086306095E+02  0.47000000000E+01 0. -1.
        -11    1    1    2    0    0  0.12025527053E+02 -0.21926073620E+02  0.10194754955E+02  0.27005537097E+02  0.00000000000E+00 0.  1.
         11    1    1    2    0    0  0.59630959849E+01  0.33578713110E+02 -0.88007151859E+02  0.94384041375E+02  0.00000000000E+00 0. -1.
<mgrwt>
<rscale>  0 0.11741555E+03</rscale>
<asrwt>0</asrwt>
<pdfrwt beam="2">  1        2 0.62751471E-01 0.12682612E+03</pdfrwt>
<pdfrwt beam="1">  1       -2 0.53588428E-02 0.12682612E+03</pdfrwt>
<totfact> 0.12934641E+04</totfact>
</mgrwt>
</event>
<event>
 7    1  0.6419647E-006  0.1256288E+03  0.7546771E-02  0.1249632E+00
         -4   -1    0    0    0  501 -0.00000000000E+00  0.00000000000E+00  0.30271221420E+03  0.30271221420E+03  0.00000000000E+00 0.  1.
          4   -1    0    0  501    0  0.00000000000E+00 -0.00000000000E+00 -0.39726647124E+02  0.39726647124E+02  0.00000000000E+00 0. -1.
         23    2    1    2    0    0  0.64855027217E+01  0.10711540919E+02  0.17435376474E+03  0.21489958782E+03  0.12500319480E+03 0.  0.
          5    1    3    3  502    0  0.13228958147E+02 -0.65514615923E+01  0.18973144464E+03  0.19036291148E+03  0.47000000000E+01 0.  1.
         -5    1    3    3    0  502 -0.67434554248E+01  0.17263002511E+02 -0.15377679896E+02  0.24536676339E+02  0.47000000000E+01 0.  1.
        -11    1    1    2    0    0 -0.20059686431E+02 -0.47979511813E+02  0.52200964556E+02  0.73684226766E+02  0.00000000000E+00 0.  1.
         11    1    1    2    0    0  0.13574183710E+02  0.37267970895E+02  0.36430837777E+02  0.53855046738E+02  0.00000000000E+00 0. -1.
<mgrwt>
<rscale>  0 0.11612367E+03</rscale>
<asrwt>0</asrwt>
<pdfrwt beam="2">  1        4 0.61117921E-02 0.12562881E+03</pdfrwt>
<pdfrwt beam="1">  1       -4 0.46571108E-01 0.12562881E+03</pdfrwt>
<totfact> 0.12526745E+03</totfact>
</mgrwt>
</event>
<event>
 7    1  0.6419647E-006  0.2257692E+03  0.7546771E-02  0.1132887E+00
          2   -1    0    0  501    0  0.00000000000E+00  0.00000000000E+00  0.11045353507E+04  0.11045353507E+04  0.00000000000E+00 0. -1.
         -2   -1    0    0    0  501 -0.00000000000E+00 -0.00000000000E+00 -0.58692795164E+02  0.58692795164E+02  0.00000000000E+00 0.  1.
         23    2    1    2    0    0 -0.18175100084E+03  0.48106946705E+02  0.84142479245E+03  0.87118735944E+03  0.12499611703E+03 0.  0.
          5    1    3    3  502    0 -0.56940439407E+02  0.18616229123E+02  0.54331353338E+03  0.54662643842E+03  0.47000000000E+01 0.  1.
         -5    1    3    3    0  502 -0.12481056144E+03  0.29490717582E+02  0.29811125906E+03  0.32456092101E+03  0.47000000000E+01 0.  1.
        -11    1    1    2    0    0  0.97176500993E+02  0.12746492408E+02  0.63479191304E+02  0.11677051487E+03  0.00000000000E+00 0.  1.
         11    1    1    2    0    0  0.84574499850E+02 -0.60853439114E+02  0.14093857182E+03  0.17527027159E+03  0.00000000000E+00 0. -1.
<mgrwt>
<rscale>  0 0.22134065E+03</rscale>
<asrwt>0</asrwt>
<pdfrwt beam="1">  1        2 0.16992850E+00 0.22576920E+03</pdfrwt>
<pdfrwt beam="2">  1       -2 0.90296616E-02 0.22576920E+03</pdfrwt>
<totfact> 0.17724055E+03</totfact>
</mgrwt>
</event>
<event>
 7    1  0.6419647E-006  0.1602052E+03  0.7546771E-02  0.1195901E+00
          1   -1    0    0  501    0  0.00000000000E+00  0.00000000000E+00  0.91875841143E+03  0.91875841143E+03  0.00000000000E+00 0. -1.
         -1   -1    0    0    0  501 -0.00000000000E+00 -0.00000000000E+00 -0.25619169139E+02  0.25619169139E+02  0.00000000000E+00 0.  1.
         23    2    1    2    0    0 -0.91753827434E+02  0.40277129232E+02  0.60331050751E+03  0.62421893725E+03  0.12499880464E+03 0.  0.
          5    1    3    3  502    0 -0.89127398856E+01 -0.42035535014E+02  0.15315511974E+03  0.15913831669E+03  0.47000000000E+01 0. -1.
         -5    1    3    3    0  502 -0.82841087549E+02  0.82312664247E+02  0.45015538777E+03  0.46508062056E+03  0.47000000000E+01 0. -1.
        -11    1    1    2    0    0  0.86140521527E+02 -0.13230354267E+01  0.24885411811E+03  0.26334447397E+03  0.00000000000E+00 0. -1.
         11    1    1    2    0    0  0.56133059072E+01 -0.38954093805E+02  0.40974616676E+02  0.56814169352E+02  0.00000000000E+00 0.  1.
<mgrwt>
<rscale>  0 0.15378235E+03</rscale>
<asrwt>0</asrwt>
<pdfrwt beam="1">  1        1 0.14134742E+00 0.16020522E+03</pdfrwt>
<pdfrwt beam="2">  1       -1 0.39414114E-02 0.16020522E+03</pdfrwt>
<totfact> 0.45580187E+03</totfact>
</mgrwt>
</event>
<event>
 7    1  0.6419647E-006  0.1268563E+03  0.7546771E-02  0.1247759E+00
          1   -1    0    0  501    0  0.00000000000E+00  0.00000000000E+00  0.41741070581E+03  0.41741070581E+03  0.00000000000E+00 0. -1.
         -1   -1    0    0    0  501 -0.00000000000E+00 -0.00000000000E+00 -0.42508653093E+02  0.42508653093E+02  0.00000000000E+00 0.  1.
         23    2    1    2    0    0  0.40351663281E+01 -0.21252221124E+02  0.33680303785E+03  0.35990112295E+03  0.12499837011E+03 0.  0.
          5    1    3    3  502    0 -0.33945412574E+02 -0.25963122348E+02  0.30993863044E+03  0.31290640676E+03  0.47000000000E+01 0.  1.
         -5    1    3    3    0  502  0.37980578902E+02  0.47109012239E+01  0.26864407408E+02  0.46994716186E+02  0.47000000000E+01 0.  1.
        -11    1    1    2    0    0 -0.18462414018E+02  0.47328410134E+02 -0.10551715380E+01  0.50812916903E+02  0.00000000000E+00 0.  1.
         11    1    1    2    0    0  0.14427247689E+02 -0.26076189010E+02  0.39154186406E+02  0.49205319045E+02  0.00000000000E+00 0. -1.
<mgrwt>
<rscale>  0 0.11721773E+03</rscale>
<asrwt>0</asrwt>
<pdfrwt beam="1">  1        1 0.64217029E-01 0.12685634E+03</pdfrwt>
<pdfrwt beam="2">  1       -1 0.65397931E-02 0.12685634E+03</pdfrwt>
<totfact> 0.64061403E+03</totfact>
</mgrwt>
</event>
<event>
 7    1  0.6419647E-006  0.2225903E+03  0.7546771E-02  0.1135248E+00
          3   -1    0    0  501    0  0.00000000000E+00  0.00000000000E+00  0.11745772553E+03  0.11745772553E+03  0.00000000000E+00 0. -1.
         -3   -1    0    0    0  501 -0.00000000000E+00 -0.00000000000E+00 -0.40864164765E+03  0.40864164765E+03  0.00000000000E+00 0.  1.
         23    2    1    2    0    0  0.27679107335E+02 -0.18209011913E+03 -0.94993570816E+02  0.24201281043E+03  0.12499390965E+03 0.  0.
          5    1    3    3  502    0  0.27097582863E+02 -0.12682442505E+03 -0.12393733325E+03  0.17944711299E+03  0.47000000000E+01 0. -1.
         -5    1    3    3    0  502  0.58152447256E+00 -0.55265694082E+02  0.28943762435E+02  0.62565697446E+02  0.47000000000E+01 0. -1.
        -11    1    1    2    0    0  0.76482056196E+01  0.12630829818E+03 -0.17250402492E+03  0.21393905640E+03  0.00000000000E+00 0.  1.
         11    1    1    2    0    0 -0.35327312955E+02  0.55781820953E+02 -0.23686326375E+02  0.70147506346E+02  0.00000000000E+00 0. -1.
<mgrwt>
<rscale>  0 0.21817870E+03</rscale>
<asrwt>0</asrwt>
<pdfrwt beam="1">  1        3 0.18070419E-01 0.22259026E+03</pdfrwt>
<pdfrwt beam="2">  1       -3 0.62867946E-01 0.22259026E+03</pdfrwt>
<totfact> 0.16541617E+02</totfact>
</mgrwt>
</event>
<event>
 7    1  0.6419647E-006  0.1471030E+03  0.7546771E-02  0.1213710E+00
          2   -1    0    0  501    0  0.00000000000E+00  0.00000000000E+00  0.18466771420E+04  0.18466771420E+04  0.00000000000E+00 0. -1.
         -2   -1    0    0    0  501 -0.00000000000E+00 -0.00000000000E+00 -0.44319427898E+02  0.44319427898E+02  0.00000000000E+00 0.  1.
         23    2    1    2    0    0  0.51249739317E+02  0.58203812455E+02  0.17567388754E+04  0.17628870581E+04  0.12500033551E+03 0.  0.
          5    1    3    3  502    0  0.59647479613E+02 -0.19725783254E+02  0.10283598323E+04  0.10302878060E+04  0.47000000000E+01 0.  1.
         -5    1    3    3    0  502 -0.83977402956E+01  0.77929595710E+02  0.72837904305E+03  0.73259925218E+03  0.47000000000E+01 0.  1.
        -11    1    1    2    0    0 -0.31199530183E+02 -0.57854050703E+02 -0.12252082695E+02  0.66862660706E+02  0.00000000000E+00 0.  1.
         11    1    1    2    0    0 -0.20050209135E+02 -0.34976175210E+00  0.57870921411E+02  0.61246851058E+02  0.00000000000E+00 0. -1.
<mgrwt>
<rscale>  0 0.13971746E+03</rscale>
<asrwt>0</asrwt>
<pdfrwt beam="1">  1        2 0.28410412E+00 0.14710304E+03</pdfrwt>
<pdfrwt beam="2">  1       -2 0.68183750E-02 0.14710304E+03</pdfrwt>
<totfact> 0.11031120E+03</totfact>
</mgrwt>
</event>
<event>
 7    1  0.6419647E-006  0.1531642E+03  0.7546771E-02  0.1205226E+00
          2   -1    0    0  501    0  0.00000000000E+00  0.00000000000E+00  0.49245879715E+03  0.49245879715E+03  0.00000000000E+00 0. -1.
         -2   -1    0    0    0  501 -0.00000000000E+00 -0.00000000000E+00 -0.47122055344E+02  0.47122055344E+02  0.00000000000E+00 0.  1.
         23    2    1    2    0    0 -0.19529229647E+02  0.86332478770E+02  0.34550148224E+03  0.37792929747E+03  0.12499836779E+03 0.  0.
          5    1    3    3  502    0 -0.72182867367E+02  0.56067458055E+02  0.18905106845E+03  0.21003885992E+03  0.47000000000E+01 0.  1.
         -5    1    3    3    0  502  0.52653637720E+02  0.30265020716E+02  0.15645041379E+03  0.16789043754E+03  0.47000000000E+01 0.  1.
        -11    1    1    2    0    0  0.26878143073E+02 -0.58089308752E+02  0.70599309576E+01  0.64394448452E+02  0.00000000000E+00 0.  1.
         11    1    1    2    0    0 -0.73489134261E+01 -0.28243170018E+02  0.92775328611E+02  0.97257106579E+02  0.00000000000E+00 0. -1.
<mgrwt>
<rscale>  0 0.14619654E+03</rscale>
<asrwt>0</asrwt>
<pdfrwt beam="1">  1        2 0.75762888E-01 0.15316422E+03</pdfrwt>
<pdfrwt beam="2">  1       -2 0.72495473E-02 0.15316422E+03</pdfrwt>
<totfact> 0.67470584E+03</totfact>
</mgrwt>
</event>
<event>
 7    1  0.6419647E-006  0.1745421E+03  0.7546771E-02  0.1181696E+00
          3   -1    0    0  501    0  0.00000000000E+00  0.00000000000E+00  0.53305508501E+03  0.53305508501E+03  0.00000000000E+00 0. -1.
         -3   -1    0    0    0  501 -0.00000000000E+00 -0.00000000000E+00 -0.87559705887E+02  0.87559705887E+02  0.00000000000E+00 0.  1.
         23    2    1    2    0    0  0.88862458198E+02  0.83332149140E+02  0.44343484297E+03  0.47654946931E+03  0.12499661269E+03 0.  0.
          5    1    3    3  502    0  0.71903654651E+02  0.36214373021E+02  0.95490335087E+02  0.12498844131E+03  0.47000000000E+01 0.  1.
         -5    1    3    3    0  502  0.16958803547E+02  0.47117776119E+02  0.34794450789E+03  0.35156102800E+03  0.47000000000E+01 0.  1.
        -11    1    1    2    0    0 -0.35979372710E+02 -0.39366317401E+01  0.27360702916E+02  0.45372022152E+02  0.00000000000E+00 0.  1.
         11    1    1    2    0    0 -0.52883085488E+02 -0.79395517400E+02 -0.25300166767E+02  0.98693299430E+02  0.00000000000E+00 0. -1.
<mgrwt>
<rscale>  0 0.16636190E+03</rscale>
<asrwt>0</asrwt>
<pdfrwt beam="1">  1        3 0.82008472E-01 0.17454208E+03</pdfrwt>
<pdfrwt beam="2">  1       -3 0.13470724E-01 0.17454208E+03</pdfrwt>
<totfact> 0.15203508E+02</totfact>
</mgrwt>
</event>
<event>
 7    1  0.6419647E-006  0.2045763E+03  0.7546771E-02  0.1149958E+00
          1   -1    0    0  501    0  0.00000000000E+00  0.00000000000E+00  0.31367143656E+03  0.31367143656E+03  0.00000000000E+00 0. -1.
         -1   -1    0    0    0  501 -0.00000000000E+00 -0.00000000000E+00 -0.15510785200E+03  0.15510785200E+03  0.00000000000E+00 0.  1.
         23    2    1    2    0    0  0.10218298067E+03 -0.12563632227E+03  0.19121268231E+03  0.28002455750E+03  0.12500246365E+03 0.  0.
          5    1    3    3  502    0  0.31815047071E+02 -0.12971830347E+03  0.11794242496E+03  0.17824573229E+03  0.47000000000E+01 0.  1.
         -5    1    3    3    0  502  0.70367933597E+02  0.40819812051E+01  0.73270257352E+02  0.10177882521E+03  0.47000000000E+01 0.  1.
        -11    1    1    2    0    0 -0.52182896855E+02  0.80208885731E+02  0.26145898841E+02  0.99197419828E+02  0.00000000000E+00 0. -1.
         11    1    1    2    0    0 -0.50000083813E+02  0.45427436537E+02 -0.58794996589E+02  0.89557311234E+02  0.00000000000E+00 0.  1.
<mgrwt>
<rscale>  0 0.19974088E+03</rscale>
<asrwt>0</asrwt>
<pdfrwt beam="1">  1        1 0.48257144E-01 0.20457630E+03</pdfrwt>
<pdfrwt beam="2">  1       -1 0.23862746E-01 0.20457630E+03</pdfrwt>
<totfact> 0.12416542E+03</totfact>
</mgrwt>
</event>
<event>
 6    1  0.6419647E-006  0.1446279E+03  0.7546771E-02  0.1218856E+00
          1   -1    0    0  501    0  0.00000000000E+00  0.00000000000E+00  0.12786194827E+04  0.12786194827E+04  0.00000000000E+00 0. -1.
         -1   -1    0    0    0  501 -0.00000000000E+00 -0.00000000000E+00 -0.14353838128E+03  0.14353838128E+03  0.00000000000E+00 0.  1.
          5    1    1    2  502    0  0.71831361885E+02 -0.71953917056E+02  0.10645216694E+04  0.10693762600E+04  0.47000000000E+01 0. -1.
         -5    1    1    2    0  502 -0.28249570136E+02  0.22170402238E+02  0.18703472992E+03  0.19050891093E+03  0.47000000000E+01 0.  1.
        -11    1    1    2    0    0  0.87933395880E+01  0.54111984984E+01  0.12472709572E+02  0.16191737843E+02  0.00000000000E+00 0. -1.
         11    1    1    2    0    0 -0.52375131337E+02  0.44372316319E+02 -0.12894800750E+03  0.14608095522E+03  0.00000000000E+00 0.  1.
<mgrwt>
<rscale>  0 0.13597078E+03</rscale>
<asrwt>0</asrwt>
<pdfrwt beam="1">  1        1 0.19671068E+00 0.14462788E+03</pdfrwt>
<pdfrwt beam="2">  1       -1 0.22082829E-01 0.14462788E+03</pdfrwt>
<totfact> 0.18030750E+02</totfact>
</mgrwt>
</event>
<event>
 7    1  0.6419647E-006  0.1420330E+03  0.7546771E-02  0.1218174E+00
         -1   -1    0    0    0  501 -0.00000000000E+00  0.00000000000E+00  0.85579605769E+02  0.85579605769E+02  0.00000000000E+00 0.  1.
          1   -1    0    0  501    0  0.00000000000E+00 -0.00000000000E+00 -0.20221386394E+03  0.20221386394E+03  0.00000000000E+00 0. -1.
         23    2    1    2    0    0 -0.45250642620E+02 -0.49991871366E+02 -0.60202134707E+02  0.15426496672E+03  0.12500630014E+03 0.  0.
          5    1    3    3  502    0  0.13314776573E+02 -0.20971957015E+02 -0.81523440181E+02  0.85353778799E+02  0.47000000000E+01 0.  1.
         -5    1    3    3    0  502 -0.58565419193E+02 -0.29019914351E+02  0.21321305474E+02  0.68911187925E+02  0.47000000000E+01 0.  1.
        -11    1    1    2    0    0  0.22966054619E+02 -0.14419830040E+02  0.18043940428E+02  0.32572303408E+02  0.00000000000E+00 0.  1.
         11    1    1    2    0    0  0.22284588001E+02  0.64411701407E+02 -0.74476063895E+02  0.10095619958E+03  0.00000000000E+00 0. -1.
<mgrwt>
<rscale>  0 0.13645964E+03</rscale>
<asrwt>0</asrwt>
<pdfrwt beam="2">  1        1 0.31109825E-01 0.14203303E+03</pdfrwt>
<pdfrwt beam="1">  1       -1 0.13166093E-01 0.14203303E+03</pdfrwt>
<totfact> 0.54774971E+03</totfact>
</mgrwt>
</event>
<event>
 7    1  0.6419647E-006  0.1324064E+03  0.7546771E-02  0.1238684E+00
          1   -1    0    0  501    0  0.00000000000E+00  0.00000000000E+00  0.87580954500E+03  0.87580954500E+03  0.00000000000E+00 0. -1.
         -1   -1    0    0    0  501 -0.00000000000E+00 -0.00000000000E+00 -0.16665392891E+02  0.16665392891E+02  0.00000000000E+00 0.  1.
         23    2    1    2    0    0 -0.34139743443E+02 -0.27227263470E+02  0.62311230394E+03  0.63702465281E+03  0.12499847603E+03 0.  0.
          5    1    3    3  502    0 -0.26474139664E+02 -0.43629248615E+02  0.89880674288E+02  0.10346505215E+03  0.47000000000E+01 0.  1.
         -5    1    3    3    0  502 -0.76656037791E+01  0.16401985145E+02  0.53323162965E+03  0.53355960066E+03  0.47000000000E+01 0.  1.
        -11    1    1    2    0    0 -0.10569591087E+02  0.39076639264E+02  0.17049934694E+03  0.17523905757E+03  0.00000000000E+00 0. -1.
         11    1    1    2    0    0  0.44709334529E+02 -0.11849375794E+02  0.65532501228E+02  0.80211227506E+02  0.00000000000E+00 0.  1.
<mgrwt>
<rscale>  0 0.12271484E+03</rscale>
<asrwt>0</asrwt>
<pdfrwt beam="1">  1        1 0.13473989E+00 0.13240644E+03</pdfrwt>
<pdfrwt beam="2">  1       -1 0.25639073E-02 0.13240644E+03</pdfrwt>
<totfact> 0.91391002E+03</totfact>
</mgrwt>
</event>
<event>
 7    1  0.6419647E-006  0.1786528E+03  0.7546771E-02  0.1175574E+00
          1   -1    0    0  501    0  0.00000000000E+00  0.00000000000E+00  0.15180626587E+03  0.15180626587E+03  0.00000000000E+00 0. -1.
         -1   -1    0    0    0  501 -0.00000000000E+00 -0.00000000000E+00 -0.24174963332E+03  0.24174963332E+03  0.00000000000E+00 0.  1.
         23    2    1    2    0    0  0.12684312247E+03 -0.14131686195E+02  0.49788562903E+02  0.18546080644E+03  0.12501170928E+03 0.  0.
          5    1    3    3  502    0  0.89041146810E+02  0.22045787716E+02  0.82594477323E+02  0.12352441162E+03  0.47000000000E+01 0. -1.
         -5    1    3    3    0  502  0.37801975662E+02 -0.36177473912E+02 -0.32805914420E+02  0.61936394822E+02  0.47000000000E+01 0. -1.
        -11    1    1    2    0    0 -0.32714500980E+02 -0.31557504486E+02 -0.21716154495E+02  0.50375649175E+02  0.00000000000E+00 0. -1.
         11    1    1    2    0    0 -0.94128621492E+02  0.45689190681E+02 -0.11801577586E+03  0.15771944357E+03  0.00000000000E+00 0.  1.
<mgrwt>
<rscale>  0 0.17219894E+03</rscale>
<asrwt>0</asrwt>
<pdfrwt beam="1">  1        1 0.23354811E-01 0.17865276E+03</pdfrwt>
<pdfrwt beam="2">  1       -1 0.37192251E-01 0.17865276E+03</pdfrwt>
<totfact> 0.14521357E+03</totfact>
</mgrwt>
</event>
<event>
 6    1  0.6419647E-006  0.2163737E+03  0.7546771E-02  0.1145420E+00
         -2   -1    0    0    0  501 -0.00000000000E+00  0.00000000000E+00  0.15945600668E+02  0.15945600668E+02  0.00000000000E+00 0.  1.
          2   -1    0    0  501    0  0.00000000000E+00 -0.00000000000E+00 -0.25869062478E+04  0.25869062478E+04  0.00000000000E+00 0. -1.
          5    1    1    2  502    0 -0.39071302386E+02  0.10392854138E+03 -0.13738164754E+04  0.13783038513E+04  0.47000000000E+01 0. -1.
         -5    1    1    2    0  502  0.70990767891E+02  0.41905331692E+02 -0.38383523735E+03  0.39261600246E+03  0.47000000000E+01 0.  1.
        -11    1    1    2    0    0 -0.79729434473E+00 -0.14243276739E+03 -0.70198692172E+03  0.71629139823E+03  0.00000000000E+00 0.  1.
         11    1    1    2    0    0 -0.31122171160E+02 -0.34011056858E+01 -0.11132201265E+03  0.11564059650E+03  0.00000000000E+00 0. -1.
<mgrwt>
<rscale>  0 0.20520524E+03</rscale>
<asrwt>0</asrwt>
<pdfrwt beam="2">  1        2 0.39798492E+00 0.21637372E+03</pdfrwt>
<pdfrwt beam="1">  1       -2 0.24531734E-02 0.21637372E+03</pdfrwt>
<totfact> 0.20638492E+03</totfact>
</mgrwt>
</event>
<event>
 7    1  0.6419647E-006  0.1883541E+03  0.7546771E-02  0.1165697E+00
         -3   -1    0    0    0  501 -0.00000000000E+00  0.00000000000E+00  0.53136295330E+02  0.53136295330E+02  0.00000000000E+00 0.  1.
          3   -1    0    0  501    0  0.00000000000E+00 -0.00000000000E+00 -0.59000169350E+03  0.59000169350E+03  0.00000000000E+00 0. -1.
         23    2    1    2    0    0  0.84448872769E+02  0.11278601156E+03 -0.26366679897E+03  0.32403308807E+03  0.12499985907E+03 0.  0.
          5    1    3    3  502    0  0.35575103710E+02 -0.23200825430E+02 -0.46615484015E+02  0.63237328016E+02  0.47000000000E+01 0.  1.
         -5    1    3    3    0  502  0.48873769058E+02  0.13598683699E+03 -0.21705131496E+03  0.26079576005E+03  0.47000000000E+01 0.  1.
        -11    1    1    2    0    0 -0.90355000555E+02 -0.90392546884E+02 -0.26556584820E+03  0.29472030535E+03  0.00000000000E+00 0. -1.
         11    1    1    2    0    0  0.59061277863E+01 -0.22393464674E+02 -0.76327509976E+01  0.24384595410E+02  0.00000000000E+00 0.  1.
<mgrwt>
<rscale>  0 0.18219370E+03</rscale>
<asrwt>0</asrwt>
<pdfrwt beam="2">  1        3 0.90769496E-01 0.18835408E+03</pdfrwt>
<pdfrwt beam="1">  1       -3 0.81748142E-02 0.18835408E+03</pdfrwt>
<totfact> 0.28201743E+02</totfact>
</mgrwt>
</event>
<event>
 7    1  0.6419647E-006  0.1989565E+03  0.7546771E-02  0.1155681E+00
         -2   -1    0    0    0  501 -0.00000000000E+00  0.00000000000E+00  0.39044358407E+03  0.39044358407E+03  0.00000000000E+00 0. -1.
          2   -1    0    0  501    0  0.00000000000E+00 -0.00000000000E+00 -0.90310062853E+02  0.90310062853E+02  0.00000000000E+00 0.  1.
         23    2    1    2    0    0  0.14805211586E+03 -0.45124076946E+02  0.15885765415E+03  0.25459663660E+03  0.12501232643E+03 0.  0.
          5    1    3    3  502    0  0.13908761021E+03 -0.14853712185E+02  0.62848560990E+02  0.15342107971E+03  0.47000000000E+01 0. -1.
         -5    1    3    3    0  502  0.89645056414E+01 -0.30270364761E+02  0.96009093157E+02  0.10117555689E+03  0.47000000000E+01 0. -1.
        -11    1    1    2    0    0 -0.30008783594E+02 -0.25187463509E+02  0.32980264093E+02  0.51211651315E+02  0.00000000000E+00 0.  1.
         11    1    1    2    0    0 -0.11804333226E+03  0.70311540455E+02  0.10829560297E+03  0.17494535900E+03  0.00000000000E+00 0. -1.
<mgrwt>
<rscale>  0 0.19311556E+03</rscale>
<asrwt>0</asrwt>
<pdfrwt beam="2">  1        2 0.13893856E-01 0.19895651E+03</pdfrwt>
<pdfrwt beam="1">  1       -2 0.60068243E-01 0.19895651E+03</pdfrwt>
<totfact> 0.11167942E+03</totfact>
</mgrwt>
</event>
<event>
 7    1  0.6419647E-006  0.1255053E+03  0.7546771E-02  0.1243969E+00
          2   -1    0    0  501    0  0.00000000000E+00  0.00000000000E+00  0.24416891186E+03  0.24416891186E+03  0.00000000000E+00 0. -1.
         -2   -1    0    0    0  501 -0.00000000000E+00 -0.00000000000E+00 -0.12179388671E+03  0.12179388671E+03  0.00000000000E+00 0.  1.
         23    2    1    2    0    0  0.26551080748E+02  0.38432160599E+02  0.20056577009E+03  0.23659716288E+03  0.11648861957E+03 0.  0.
          5    1    3    3  502    0  0.12305257717E+02  0.79549026937E+02  0.11450552695E+03  0.14004668063E+03  0.47000000000E+01 0. -1.
         -5    1    3    3    0  502  0.14245823032E+02 -0.41116866338E+02  0.86060243147E+02  0.96550482245E+02  0.47000000000E+01 0.  1.
        -11    1    1    2    0    0 -0.22134736349E+02  0.16762125267E+02  0.61831753567E+01  0.28445510264E+02  0.00000000000E+00 0. -1.
         11    1    1    2    0    0 -0.44163443994E+01 -0.55194285866E+02 -0.84373920296E+02  0.10092012543E+03  0.00000000000E+00 0.  1.
<mgrwt>
<rscale>  0 0.11947328E+03</rscale>
<asrwt>0</asrwt>
<pdfrwt beam="1">  1        2 0.37564448E-01 0.12550534E+03</pdfrwt>
<pdfrwt beam="2">  1       -2 0.18737521E-01 0.12550534E+03</pdfrwt>
<totfact> 0.30986012E+03</totfact>
</mgrwt>
</event>
<event>
 7    1  0.6419647E-006  0.1709538E+03  0.7546771E-02  0.1183514E+00
         -2   -1    0    0    0  501 -0.00000000000E+00  0.00000000000E+00  0.63240651230E+02  0.63240651230E+02  0.00000000000E+00 0. -1.
          2   -1    0    0  501    0  0.00000000000E+00 -0.00000000000E+00 -0.42956710709E+03  0.42956710709E+03  0.00000000000E+00 0.  1.
         23    2    1    2    0    0  0.11444700527E+03  0.22338281677E+02 -0.26022291719E+03  0.31135376349E+03  0.12501233365E+03 0.  0.
          5    1    3    3  502    0  0.51904300329E+01  0.18448636869E+02 -0.16535794693E+03  0.16653117840E+03  0.47000000000E+01 0. -1.
         -5    1    3    3    0  502  0.10925657524E+03  0.38896448083E+01 -0.94864970255E+02  0.14482258509E+03  0.47000000000E+01 0. -1.
        -11    1    1    2    0    0 -0.60278320764E+02  0.32479050353E+02 -0.36419635789E+02  0.77554848571E+02  0.00000000000E+00 0.  1.
         11    1    1    2    0    0 -0.54168684511E+02 -0.54817332030E+02 -0.69683902889E+02  0.10389914626E+03  0.00000000000E+00 0. -1.
<mgrwt>
<rscale>  0 0.16467792E+03</rscale>
<asrwt>0</asrwt>
<pdfrwt beam="2">  1        2 0.66087245E-01 0.17095379E+03</pdfrwt>
<pdfrwt beam="1">  1       -2 0.97293313E-02 0.17095379E+03</pdfrwt>
<totfact> 0.49831635E+03</totfact>
</mgrwt>
</event>
<event>
 7    1  0.6419647E-006  0.1417189E+03  0.7546771E-02  0.1221396E+00
         -1   -1    0    0    0  501 -0.00000000000E+00  0.00000000000E+00  0.86884481421E+02  0.86884481421E+02  0.00000000000E+00 0.  1.
          1   -1    0    0  501    0  0.00000000000E+00 -0.00000000000E+00 -0.23813369202E+03  0.23813369202E+03  0.00000000000E+00 0. -1.
         23    2    1    2    0    0 -0.36950758533E+02  0.55619971012E+02 -0.15639086489E+03  0.21105057791E+03  0.12500121632E+03 0.  0.
          5    1    3    3  502    0 -0.15962246614E+02  0.51584567158E+02 -0.17445079311E+03  0.18267711981E+03  0.47000000000E+01 0.  1.
         -5    1    3    3    0  502 -0.20988511918E+02  0.40354038541E+01  0.18059928223E+02  0.28373458094E+02  0.47000000000E+01 0.  1.
        -11    1    1    2    0    0 -0.85775666632E+01 -0.40034363197E+02  0.37869305922E+02  0.55771042822E+02  0.00000000000E+00 0.  1.
         11    1    1    2    0    0  0.45528325196E+02 -0.15585607815E+02 -0.32727651629E+02  0.58196552709E+02  0.00000000000E+00 0. -1.
<mgrwt>
<rscale>  0 0.13417004E+03</rscale>
<asrwt>0</asrwt>
<pdfrwt beam="2">  1        1 0.36635952E-01 0.14171889E+03</pdfrwt>
<pdfrwt beam="1">  1       -1 0.13366844E-01 0.14171889E+03</pdfrwt>
<totfact> 0.43669088E+03</totfact>
</mgrwt>
</event>
<event>
 7    1  0.6419647E-006  0.1399296E+03  0.7546771E-02  0.1223167E+00
         -2   -1    0    0    0  501 -0.00000000000E+00  0.00000000000E+00  0.20287124337E+03  0.20287124337E+03  0.00000000000E+00 0.  1.
          2   -1    0    0  501    0  0.00000000000E+00 -0.00000000000E+00 -0.81769864941E+02  0.81769864941E+02  0.00000000000E+00 0. -1.
         23    2    1    2    0    0  0.16130930717E+02  0.60787513602E+02  0.42679745800E+02  0.14629374961E+03  0.12499988695E+03 0.  0.
          5    1    3    3  502    0 -0.37259608811E+02 -0.15153691521E+02 -0.66903730059E+01  0.41045875632E+02  0.47000000000E+01 0.  1.
         -5    1    3    3    0  502  0.53390539528E+02  0.75941205123E+02  0.49370118806E+02  0.10524787398E+03  0.47000000000E+01 0.  1.
        -11    1    1    2    0    0 -0.27797170318E+02 -0.61827715527E+02  0.95819505062E+02  0.11737430143E+03  0.00000000000E+00 0.  1.
         11    1    1    2    0    0  0.11666239601E+02  0.10402019258E+01 -0.17397872429E+02  0.20973057276E+02  0.00000000000E+00 0. -1.
<mgrwt>
<rscale>  0 0.13293323E+03</rscale>
<asrwt>0</asrwt>
<pdfrwt beam="2">  1        2 0.12579979E-01 0.13992963E+03</pdfrwt>
<pdfrwt beam="1">  1       -2 0.31210960E-01 0.13992963E+03</pdfrwt>
<totfact> 0.43845186E+03</totfact>
</mgrwt>
</event>
<event>
 7    1  0.6419647E-006  0.1658046E+03  0.7546771E-02  0.1189370E+00
         -2   -1    0    0    0  501 -0.00000000000E+00  0.00000000000E+00  0.90009117212E+03  0.90009117212E+03  0.00000000000E+00 0.  1.
          2   -1    0    0  501    0  0.00000000000E+00 -0.00000000000E+00 -0.26258100484E+02  0.26258100484E+02  0.00000000000E+00 0. -1.
         23    2    1    2    0    0  0.53463835355E+02  0.94921839822E+02  0.46632031018E+03  0.49492000231E+03  0.12499055818E+03 0.  0.
          5    1    3    3  502    0  0.54024135375E+01  0.11936772756E+02 -0.43287196496E+01  0.14577394475E+02  0.47000000000E+01 0.  1.
         -5    1    3    3    0  502  0.48061421817E+02  0.82985067065E+02  0.47064902983E+03  0.48034260783E+03  0.47000000000E+01 0.  1.
        -11    1    1    2    0    0  0.17002832951E+02 -0.45882719096E+02  0.21727978863E+03  0.22272141070E+03  0.00000000000E+00 0.  1.
         11    1    1    2    0    0 -0.70466668306E+02 -0.49039120725E+02  0.19023297284E+03  0.20870785960E+03  0.00000000000E+00 0. -1.
<mgrwt>
<rscale>  0 0.15940473E+03</rscale>
<asrwt>0</asrwt>
<pdfrwt beam="2">  1        2 0.40397085E-02 0.16580464E+03</pdfrwt>
<pdfrwt beam="1">  1       -2 0.13847554E+00 0.16580464E+03</pdfrwt>
<totfact> 0.79875739E+02</totfact>
</mgrwt>
</event>
<event>
 7    1  0.6419647E-006  0.1584312E+03  0.7546771E-02  0.1198231E+00
          2   -1    0    0  501    0  0.00000000000E+00  0.00000000000E+00  0.10684216127E+04  0.10684216127E+04  0.00000000000E+00 0. -1.
         -2   -1    0    0    0  501 -0.00000000000E+00 -0.00000000000E+00 -0.22011140525E+02  0.22011140525E+02  0.00000000000E+00 0.  1.
         23    2    1    2    0    0 -0.45365270951E+02 -0.86131134011E+02  0.72917673015E+03  0.74618975785E+03  0.12499548343E+03 0.  0.
          5    1    3    3  502    0 -0.64095443250E+02 -0.10801858988E+03  0.51938846869E+03  0.53438068174E+03  0.47000000000E+01 0.  1.
         -5    1    3    3    0  502  0.18730172300E+02  0.21887455870E+02  0.20978826146E+03  0.21180907611E+03  0.47000000000E+01 0.  1.
        -11    1    1    2    0    0  0.10049062942E+02  0.95543761186E+02  0.20947532715E+03  0.23045499919E+03  0.00000000000E+00 0.  1.
         11    1    1    2    0    0  0.35316208008E+02 -0.94126271746E+01  0.10775841488E+03  0.11378799619E+03  0.00000000000E+00 0. -1.
<mgrwt>
<rscale>  0 0.15183922E+03</rscale>
<asrwt>0</asrwt>
<pdfrwt beam="1">  1        2 0.16437252E+00 0.15843122E+03</pdfrwt>
<pdfrwt beam="2">  1       -2 0.33863302E-02 0.15843122E+03</pdfrwt>
<totfact> 0.82282473E+03</totfact>
</mgrwt>
</event>
<event>
 7    1  0.6419647E-006  0.1313962E+03  0.7546771E-02  0.1240235E+00
         -1   -1    0    0    0  501 -0.00000000000E+00  0.00000000000E+00  0.45856373452E+02  0.45856373452E+02  0.00000000000E+00 0.  1.
          1   -1    0    0  501    0  0.00000000000E+00 -0.00000000000E+00 -0.38168048190E+03  0.38168048190E+03  0.00000000000E+00 0. -1.
         23    2    1    2    0    0  0.25425485795E+02 -0.31431411516E+02 -0.29401096972E+03  0.32203636962E+03  0.12502233436E+03 0.  0.
          5    1    3    3  502    0 -0.17483945137E+02 -0.10456574350E+02  0.30455496760E+01  0.21128030138E+02  0.47000000000E+01 0. -1.
         -5    1    3    3    0  502  0.42909430931E+02 -0.20974837166E+02 -0.29705651940E+03  0.30090833949E+03  0.47000000000E+01 0. -1.
        -11    1    1    2    0    0  0.29679436092E+02 -0.52361257177E+01 -0.80366770908E+01  0.31190930059E+02  0.00000000000E+00 0.  1.
         11    1    1    2    0    0 -0.55104921886E+02  0.36667537234E+02 -0.33776461637E+02  0.74309555668E+02  0.00000000000E+00 0. -1.
<mgrwt>
<rscale>  0 0.12175147E+03</rscale>
<asrwt>0</asrwt>
<pdfrwt beam="2">  1        1 0.58720073E-01 0.13139624E+03</pdfrwt>
<pdfrwt beam="1">  1       -1 0.70548268E-02 0.13139624E+03</pdfrwt>
<totfact> 0.64156184E+03</totfact>
</mgrwt>
</event>
<event>
 7    1  0.6419647E-006  0.1536878E+03  0.7546771E-02  0.1204524E+00
         -2   -1    0    0    0  501 -0.00000000000E+00  0.00000000000E+00  0.11262881474E+02  0.11262881474E+02  0.00000000000E+00 0.  1.
          2   -1    0    0  501    0  0.00000000000E+00 -0.00000000000E+00 -0.18045238869E+04  0.18045238869E+04  0.00000000000E+00 0. -1.
         23    2    1    2    0    0  0.85325699872E+02 -0.26776040810E+02 -0.11218348774E+04  0.11323133165E+04  0.12499009213E+03 0.  0.
          5    1    3    3  502    0  0.75922307273E+02 -0.73410263825E+02 -0.79668539640E+03  0.80366844806E+03  0.47000000000E+01 0. -1.
         -5    1    3    3    0  502  0.94033925992E+01  0.46634223016E+02 -0.32514948102E+03  0.32864486845E+03  0.47000000000E+01 0. -1.
        -11    1    1    2    0    0 -0.10109376960E+03  0.38430304275E+02 -0.56966083663E+03  0.57983644877E+03  0.00000000000E+00 0.  1.
         11    1    1    2    0    0  0.15768069730E+02 -0.11654263465E+02 -0.10176529136E+03  0.10363700307E+03  0.00000000000E+00 0. -1.
<mgrwt>
<rscale>  0 0.14675042E+03</rscale>
<asrwt>0</asrwt>
<pdfrwt beam="2">  1        2 0.27761877E+00 0.15368785E+03</pdfrwt>
<pdfrwt beam="1">  1       -2 0.17327528E-02 0.15368785E+03</pdfrwt>
<totfact> 0.88577958E+03</totfact>
</mgrwt>
</event>
<event>
 7    1  0.6419647E-006  0.2042645E+03  0.7546771E-02  0.1150213E+00
          1   -1    0    0  501    0  0.00000000000E+00  0.00000000000E+00  0.88545471087E+03  0.88545471087E+03  0.00000000000E+00 0. -1.
         -1   -1    0    0    0  501 -0.00000000000E+00 -0.00000000000E+00 -0.43600614430E+02  0.43600614430E+02  0.00000000000E+00 0.  1.
         23    2    1    2    0    0 -0.10458014904E+03 -0.12313773626E+03  0.49861108288E+03  0.53882926629E+03  0.12499622627E+03 0.  0.
          5    1    3    3  502    0 -0.64187858516E+02  0.70585761676E+01  0.11926177992E+03  0.13570323072E+03  0.47000000000E+01 0. -1.
         -5    1    3    3    0  502 -0.40392290526E+02 -0.13019631243E+03  0.37934930295E+03  0.40312603557E+03  0.47000000000E+01 0. -1.
        -11    1    1    2    0    0  0.98824995544E+02  0.75839998992E+02  0.30388204120E+03  0.32842408584E+03  0.00000000000E+00 0. -1.
         11    1    1    2    0    0  0.57551534991E+01  0.47297737267E+02  0.39360972358E+02  0.61801973167E+02  0.00000000000E+00 0.  1.
<mgrwt>
<rscale>  0 0.19943894E+03</rscale>
<asrwt>0</asrwt>
<pdfrwt beam="1">  1        1 0.13622379E+00 0.20426445E+03</pdfrwt>
<pdfrwt beam="2">  1       -1 0.67077875E-02 0.20426445E+03</pdfrwt>
<totfact> 0.22015901E+03</totfact>
</mgrwt>
</event>
<event>
 7    1  0.6419647E-006  0.1548719E+03  0.7546771E-02  0.1203050E+00
         -1   -1    0    0    0  501 -0.00000000000E+00  0.00000000000E+00  0.22297060714E+02  0.22297060714E+02  0.00000000000E+00 0.  1.
          1   -1    0    0  501    0  0.00000000000E+00 -0.00000000000E+00 -0.17919441040E+04  0.17919441040E+04  0.00000000000E+00 0. -1.
         23    2    1    2    0    0 -0.90036573760E+02  0.15943553822E+02 -0.15632700239E+04  0.15709228046E+04  0.12499803599E+03 0.  0.
          5    1    3    3  502    0  0.37834332232E+01  0.47393871336E+02 -0.77181119704E+03  0.77328850198E+03  0.47000000000E+01 0.  1.
         -5    1    3    3    0  502 -0.93820006983E+02 -0.31450317514E+02 -0.79145882686E+03  0.79763430267E+03  0.47000000000E+01 0.  1.
        -11    1    1    2    0    0  0.61695033007E+02 -0.30624536254E+02 -0.53691199124E+02  0.87332034110E+02  0.00000000000E+00 0.  1.
         11    1    1    2    0    0  0.28341540753E+02  0.14680982432E+02 -0.15268582027E+03  0.15598632596E+03  0.00000000000E+00 0. -1.
<mgrwt>
<rscale>  0 0.14792216E+03</rscale>
<asrwt>0</asrwt>
<pdfrwt beam="2">  1        1 0.27568365E+00 0.15487185E+03</pdfrwt>
<pdfrwt beam="1">  1       -1 0.34303178E-02 0.15487185E+03</pdfrwt>
<totfact> 0.14326511E+03</totfact>
</mgrwt>
</event>
<event>
 7    1  0.6419647E-006  0.1288077E+03  0.7546771E-02  0.1246789E+00
          1   -1    0    0  501    0  0.00000000000E+00  0.00000000000E+00  0.49226210596E+03  0.49226210596E+03  0.00000000000E+00 0. -1.
         -1   -1    0    0    0  501 -0.00000000000E+00 -0.00000000000E+00 -0.30929728425E+02  0.30929728425E+02  0.00000000000E+00 0.  1.
         23    2    1    2    0    0  0.26994625656E+02  0.15415563044E+02  0.38210748228E+03  0.40323385915E+03  0.12500027101E+03 0.  0.
          5    1    3    3  502    0  0.30567306042E+02  0.67585075724E+02  0.18821587700E+03  0.20235960321E+03  0.47000000000E+01 0.  1.
         -5    1    3    3    0  502 -0.35726803857E+01 -0.52169512679E+02  0.19389160528E+03  0.20087425594E+03  0.47000000000E+01 0.  1.
        -11    1    1    2    0    0 -0.27810993488E+02  0.26643971337E+02  0.11434765278E+02  0.40175943353E+02  0.00000000000E+00 0.  1.
         11    1    1    2    0    0  0.81636783118E+00 -0.42059534382E+02  0.67790129980E+02  0.79782031884E+02  0.00000000000E+00 0. -1.
<mgrwt>
<rscale>  0 0.11778940E+03</rscale>
<asrwt>0</asrwt>
<pdfrwt beam="1">  1        1 0.75732626E-01 0.12880768E+03</pdfrwt>
<pdfrwt beam="2">  1       -1 0.47584201E-02 0.12880768E+03</pdfrwt>
<totfact> 0.83212311E+03</totfact>
</mgrwt>
</event>
<event>
 7    1  0.6419647E-006  0.1226527E+03  0.7546771E-02  0.1257601E+00
          2   -1    0    0  501    0  0.00000000000E+00  0.00000000000E+00  0.98984339409E+03  0.98984339409E+03  0.00000000000E+00 0. -1.
         -2   -1    0    0    0  501 -0.00000000000E+00 -0.00000000000E+00 -0.10816855073E+02  0.10816855073E+02  0.00000000000E+00 0.  1.
         23    2    1    2    0    0 -0.70608613661E+01  0.35671917831E+02  0.60068108321E+03  0.61307540233E+03  0.11713813955E+03 0.  0.
          5    1    3    3  502    0  0.12509797810E+02  0.75917702586E+02  0.40703112098E+03  0.41426611743E+03  0.47000000000E+01 0. -1.
         -5    1    3    3    0  502 -0.19570659176E+02 -0.40245784756E+02  0.19364996223E+03  0.19880928490E+03  0.47000000000E+01 0.  1.
        -11    1    1    2    0    0 -0.40730965474E+01  0.23084026533E+02  0.13348928693E+03  0.13553173842E+03  0.00000000000E+00 0. -1.
         11    1    1    2    0    0  0.11133957913E+02 -0.58755944364E+02  0.24485616889E+03  0.25205310841E+03  0.00000000000E+00 0.  1.
<mgrwt>
<rscale>  0 0.11161869E+03</rscale>
<asrwt>0</asrwt>
<pdfrwt beam="1">  1        2 0.15228353E+00 0.12265270E+03</pdfrwt>
<pdfrwt beam="2">  1       -2 0.16641323E-02 0.12265270E+03</pdfrwt>
<totfact> 0.25422475E+04</totfact>
</mgrwt>
</event>
<event>
 7    1  0.6419647E-006  0.1299084E+03  0.7546771E-02  0.1238694E+00
         -1   -1    0    0    0  501 -0.00000000000E+00  0.00000000000E+00  0.12618196765E+03  0.12618196765E+03  0.00000000000E+00 0.  1.
          1   -1    0    0  501    0  0.00000000000E+00 -0.00000000000E+00 -0.10896542551E+03  0.10896542551E+03  0.00000000000E+00 0. -1.
         23    2    1    2    0    0 -0.22438679956E+02 -0.27380750516E+02 -0.21819634055E+01  0.12992675716E+03  0.12499200537E+03 0.  0.
          5    1    3    3  502    0  0.43916019471E+02 -0.40162601821E+02  0.11567802167E+02  0.60807527480E+02  0.47000000000E+01 0.  1.
         -5    1    3    3    0  502 -0.66354699427E+02  0.12781851305E+02 -0.13749765572E+02  0.69119229684E+02  0.47000000000E+01 0.  1.
        -11    1    1    2    0    0 -0.54445892269E+01  0.13843243837E+02 -0.37546808171E+02  0.40386157971E+02  0.00000000000E+00 0. -1.
         11    1    1    2    0    0  0.27883269183E+02  0.13537506679E+02  0.56945313713E+02  0.64834478029E+02  0.00000000000E+00 0.  1.
<mgrwt>
<rscale>  0 0.12270889E+03</rscale>
<asrwt>0</asrwt>
<pdfrwt beam="2">  1        1 0.16763912E-01 0.12990843E+03</pdfrwt>
<pdfrwt beam="1">  1       -1 0.19412610E-01 0.12990843E+03</pdfrwt>
<totfact> 0.64457421E+03</totfact>
</mgrwt>
</event>
<event>
 7    1  0.6419647E-006  0.1633504E+03  0.7546771E-02  0.1191984E+00
         -1   -1    0    0    0  501 -0.00000000000E+00  0.00000000000E+00  0.80108577348E+02  0.80108577348E+02  0.00000000000E+00 0.  1.
          1   -1    0    0  501    0  0.00000000000E+00 -0.00000000000E+00 -0.30527558754E+03  0.30527558754E+03  0.00000000000E+00 0. -1.
         23    2    1    2    0    0 -0.71201390010E+02 -0.77386854742E+02 -0.16799177548E+03  0.23431726734E+03  0.12499992768E+03 0.  0.
          5    1    3    3  502    0  0.34584783265E+02 -0.34044487671E+02 -0.55248796702E+02  0.73686185349E+02  0.47000000000E+01 0.  1.
         -5    1    3    3    0  502 -0.10578617327E+03 -0.43342367071E+02 -0.11274297877E+03  0.16063108199E+03  0.47000000000E+01 0.  1.
        -11    1    1    2    0    0  0.89986491287E+02  0.80495543901E+02 -0.50797217590E+02  0.13098648219E+03  0.00000000000E+00 0. -1.
         11    1    1    2    0    0 -0.18785101276E+02 -0.31086891585E+01 -0.63780171223E+01  0.20080415351E+02  0.00000000000E+00 0.  1.
<mgrwt>
<rscale>  0 0.15712293E+03</rscale>
<asrwt>0</asrwt>
<pdfrwt beam="2">  1        1 0.46965474E-01 0.16335038E+03</pdfrwt>
<pdfrwt beam="1">  1       -1 0.12324397E-01 0.16335038E+03</pdfrwt>
<totfact> 0.36663376E+03</totfact>
</mgrwt>
</event>
<event>
 7    1  0.6419647E-006  0.1894621E+03  0.7546771E-02  0.1163792E+00
         -2   -1    0    0    0  501 -0.00000000000E+00  0.00000000000E+00  0.33692491607E+03  0.33692491607E+03  0.00000000000E+00 0.  1.
          2   -1    0    0  501    0  0.00000000000E+00 -0.00000000000E+00 -0.11764035653E+03  0.11764035653E+03  0.00000000000E+00 0. -1.
         23    2    1    2    0    0 -0.12228405239E+03 -0.72922129120E+02  0.16179593743E+02  0.19015172380E+03  0.12499948971E+03 0.  0.
          5    1    3    3  502    0 -0.12529556398E+03 -0.19682920377E+02  0.37786191871E+02  0.13242462763E+03  0.47000000000E+01 0.  1.
         -5    1    3    3    0  502  0.30115115878E+01 -0.53239208743E+02 -0.21606598128E+02  0.57727096171E+02  0.47000000000E+01 0.  1.
        -11    1    1    2    0    0  0.10366960160E+03  0.34720670559E+02  0.83754290950E+02  0.13772324608E+03  0.00000000000E+00 0. -1.
         11    1    1    2    0    0  0.18614450793E+02  0.38201458561E+02  0.11935067485E+03  0.12669030271E+03  0.00000000000E+00 0.  1.
<mgrwt>
<rscale>  0 0.18420729E+03</rscale>
<asrwt>0</asrwt>
<pdfrwt beam="2">  1        2 0.18098517E-01 0.18946213E+03</pdfrwt>
<pdfrwt beam="1">  1       -2 0.51834602E-01 0.18946213E+03</pdfrwt>
<totfact> 0.11037289E+03</totfact>
</mgrwt>
</event>
<event>
 7    1  0.6419647E-006  0.1686589E+03  0.7546771E-02  0.1185883E+00
          2   -1    0    0  501    0  0.00000000000E+00  0.00000000000E+00  0.52089425668E+03  0.52089425668E+03  0.00000000000E+00 0. -1.
         -2   -1    0    0    0  501 -0.00000000000E+00 -0.00000000000E+00 -0.50952003520E+02  0.50952003520E+02  0.00000000000E+00 0.  1.
         23    2    1    2    0    0  0.81762258137E+02  0.78336242015E+02  0.32706963203E+03  0.36799508702E+03  0.12499682477E+03 0.  0.
          5    1    3    3  502    0  0.37069991994E+02 -0.18203856214E+02  0.26934220359E+02  0.49528849309E+02  0.47000000000E+01 0.  1.
         -5    1    3    3    0  502  0.44692266143E+02  0.96540098230E+02  0.30013541167E+03  0.31846623771E+03  0.47000000000E+01 0.  1.
        -11    1    1    2    0    0 -0.15895359712E+02 -0.46473257203E+02  0.71123049432E+01  0.49628731367E+02  0.00000000000E+00 0.  1.
         11    1    1    2    0    0 -0.65866898425E+02 -0.31862984812E+02  0.13576031618E+03  0.15422244181E+03  0.00000000000E+00 0. -1.
<mgrwt>
<rscale>  0 0.16251825E+03</rscale>
<asrwt>0</asrwt>
<pdfrwt beam="1">  1        2 0.80137574E-01 0.16865895E+03</pdfrwt>
<pdfrwt beam="2">  1       -2 0.78387701E-02 0.16865895E+03</pdfrwt>
<totfact> 0.56482135E+03</totfact>
</mgrwt>
</event>
<event>
 7    1  0.6419647E-006  0.1274037E+03  0.7546771E-02  0.1247569E+00
         -2   -1    0    0    0  501 -0.00000000000E+00  0.00000000000E+00  0.95393085818E+02  0.95393085818E+02  0.00000000000E+00 0.  1.
          2   -1    0    0  501    0  0.00000000000E+00 -0.00000000000E+00 -0.12659560127E+03  0.12659560127E+03  0.00000000000E+00 0. -1.
         23    2    1    2    0    0 -0.59906351095E+01  0.23864090829E+02 -0.91411674264E+01  0.12773118790E+03  0.12500525141E+03 0.  0.
          5    1    3    3  502    0 -0.57654329677E+02  0.49101908390E+01 -0.33875687174E+02  0.67214461882E+02  0.47000000000E+01 0. -1.
         -5    1    3    3    0  502  0.51663694568E+02  0.18953899990E+02  0.24734519748E+02  0.60516726022E+02  0.47000000000E+01 0. -1.
        -11    1    1    2    0    0  0.10310263967E+02  0.27840877077E+02 -0.29486980037E+02  0.41843732759E+02  0.00000000000E+00 0. -1.
         11    1    1    2    0    0 -0.43196288580E+01 -0.51704967906E+02  0.74256320145E+01  0.52413766421E+02  0.00000000000E+00 0.  1.
<mgrwt>
<rscale>  0 0.11732943E+03</rscale>
<asrwt>0</asrwt>
<pdfrwt beam="2">  1        2 0.19476246E-01 0.12740367E+03</pdfrwt>
<pdfrwt beam="1">  1       -2 0.14675859E-01 0.12740367E+03</pdfrwt>
<totfact> 0.95211495E+03</totfact>
</mgrwt>
</event>
<event>
 7    1  0.6419647E-006  0.1459538E+03  0.7546771E-02  0.1215921E+00
         -1   -1    0    0    0  501 -0.00000000000E+00  0.00000000000E+00  0.27190608141E+03  0.27190608141E+03  0.00000000000E+00 0.  1.
          1   -1    0    0  501    0  0.00000000000E+00 -0.00000000000E+00 -0.63611050276E+02  0.63611050276E+02  0.00000000000E+00 0. -1.
         23    2    1    2    0    0 -0.68307468795E+02 -0.31793084896E+02  0.12073017684E+03  0.18941567425E+03  0.12500324600E+03 0.  0.
          5    1    3    3  502    0 -0.80643914349E+02  0.33823587816E+00  0.13036693200E+03  0.15336617060E+03  0.47000000000E+01 0. -1.
         -5    1    3    3    0  502  0.12336445553E+02 -0.32131320774E+02 -0.96367551570E+01  0.36049503651E+02  0.47000000000E+01 0. -1.
        -11    1    1    2    0    0 -0.82991663831E+01 -0.17402027354E+02  0.37587150799E+02  0.42243350055E+02  0.00000000000E+00 0.  1.
         11    1    1    2    0    0  0.76606635179E+02  0.49195112250E+02  0.49977703494E+02  0.10385810738E+03  0.00000000000E+00 0. -1.
<mgrwt>
<rscale>  0 0.13809075E+03</rscale>
<asrwt>0</asrwt>
<pdfrwt beam="2">  1        1 0.97863156E-02 0.14595384E+03</pdfrwt>
<pdfrwt beam="1">  1       -1 0.41831704E-01 0.14595384E+03</pdfrwt>
<totfact> 0.36296274E+03</totfact>
</mgrwt>
</event>
<event>
 6    1  0.6419647E-006  0.2444263E+03  0.7546771E-02  0.1143086E+00
         -1   -1    0    0    0  501 -0.00000000000E+00  0.00000000000E+00  0.18211171395E+03  0.18211171395E+03  0.00000000000E+00 0.  1.
          1   -1    0    0  501    0  0.00000000000E+00 -0.00000000000E+00 -0.27868678630E+03  0.27868678630E+03  0.00000000000E+00 0. -1.
          5    1    1    2  502    0 -0.33354861242E+02  0.47363575542E+02 -0.14972467959E+03  0.16060954123E+03  0.47000000000E+01 0. -1.
         -5    1    1    2    0  502  0.28412398783E+02 -0.13810515813E+03 -0.33859918068E+02  0.14508233235E+03  0.47000000000E+01 0.  1.
        -11    1    1    2    0    0 -0.14305875915E+02  0.10403142124E+03  0.71515847274E+02  0.12705003386E+03  0.00000000000E+00 0.  1.
         11    1    1    2    0    0  0.19248338374E+02 -0.13289838652E+02  0.15493678031E+02  0.28056592817E+02  0.00000000000E+00 0. -1.
<mgrwt>
<rscale>  0 0.20809182E+03</rscale>
<asrwt>0</asrwt>
<pdfrwt beam="2">  1        1 0.42874890E-01 0.24442630E+03</pdfrwt>
<pdfrwt beam="1">  1       -1 0.28017187E-01 0.24442630E+03</pdfrwt>
<totfact> 0.11045991E+03</totfact>
</mgrwt>
</event>
<event>
 7    1  0.6419647E-006  0.1264428E+03  0.7546771E-02  0.1247839E+00
         -2   -1    0    0    0  501 -0.00000000000E+00  0.00000000000E+00  0.13410777855E+03  0.13410777855E+03  0.00000000000E+00 0.  1.
          2   -1    0    0  501    0  0.00000000000E+00 -0.00000000000E+00 -0.90005480375E+02  0.90005480375E+02  0.00000000000E+00 0. -1.
         23    2    1    2    0    0  0.74653769331E+01  0.17523442403E+02  0.23006503891E+02  0.12851878354E+03  0.12499990246E+03 0.  0.
          5    1    3    3  502    0  0.31625873698E+02 -0.40306793745E+02 -0.16801633196E+02  0.54122254084E+02  0.47000000000E+01 0. -1.
         -5    1    3    3    0  502 -0.24160496765E+02  0.57830236148E+02  0.39808137087E+02  0.74396529457E+02  0.47000000000E+01 0. -1.
        -11    1    1    2    0    0 -0.18779255882E+02 -0.23819538888E+02 -0.30132595714E+02  0.42755165872E+02  0.00000000000E+00 0. -1.
         11    1    1    2    0    0  0.11313878948E+02  0.62960964847E+01  0.51228389995E+02  0.52839309508E+02  0.00000000000E+00 0.  1.
<mgrwt>
<rscale>  0 0.11717054E+03</rscale>
<asrwt>0</asrwt>
<pdfrwt beam="2">  1        2 0.13846997E-01 0.12644279E+03</pdfrwt>
<pdfrwt beam="1">  1       -2 0.20631966E-01 0.12644279E+03</pdfrwt>
<totfact> 0.80171504E+03</totfact>
</mgrwt>
</event>
<event>
 7    1  0.6419647E-006  0.1606670E+03  0.7546771E-02  0.1197018E+00
          1   -1    0    0  501    0  0.00000000000E+00  0.00000000000E+00  0.96646100585E+02  0.96646100585E+02  0.00000000000E+00 0. -1.
         -1   -1    0    0    0  501 -0.00000000000E+00 -0.00000000000E+00 -0.27228511241E+03  0.27228511241E+03  0.00000000000E+00 0.  1.
         23    2    1    2    0    0  0.97454469152E+02  0.26706242131E+02 -0.15137372756E+02  0.16137853746E+03  0.12491315131E+03 0.  0.
          5    1    3    3  502    0  0.37459823754E+02 -0.25805387927E+02  0.42858658882E+02  0.62674644658E+02  0.47000000000E+01 0.  1.
         -5    1    3    3    0  502  0.59994645398E+02  0.52511630059E+02 -0.57996031638E+02  0.98703892799E+02  0.47000000000E+01 0.  1.
        -11    1    1    2    0    0 -0.56086948560E+02 -0.45975977650E+02 -0.50252442984E+02  0.88231764947E+02  0.00000000000E+00 0.  1.
         11    1    1    2    0    0 -0.41367520592E+02  0.19269735519E+02 -0.11024919608E+03  0.11932091059E+03  0.00000000000E+00 0. -1.
<mgrwt>
<rscale>  0 0.15284639E+03</rscale>
<asrwt>0</asrwt>
<pdfrwt beam="1">  1        1 0.14868631E-01 0.16066702E+03</pdfrwt>
<pdfrwt beam="2">  1       -1 0.41890017E-01 0.16066702E+03</pdfrwt>
<totfact> 0.20976215E+03</totfact>
</mgrwt>
</event>
<event>
 6    1  0.6419647E-006  0.1454560E+03  0.7546771E-02  0.1223879E+00
         -1   -1    0    0    0  501 -0.00000000000E+00  0.00000000000E+00  0.22938697495E+02  0.22938697495E+02  0.00000000000E+00 0.  1.
          1   -1    0    0  501    0  0.00000000000E+00 -0.00000000000E+00 -0.66635928286E+03  0.66635928286E+03  0.00000000000E+00 0. -1.
          5    1    1    2  502    0  0.57758806401E+02  0.60211866746E+02 -0.25022717686E+03  0.26381296149E+03  0.47000000000E+01 0. -1.
         -5    1    1    2    0  502 -0.15659301306E+02 -0.59593566527E+02 -0.17144582330E+03  0.18224260538E+03  0.47000000000E+01 0.  1.
        -11    1    1    2    0    0 -0.63340690392E+02  0.23005723649E+02 -0.13556529589E+03  0.15139106919E+03  0.00000000000E+00 0.  1.
         11    1    1    2    0    0  0.21241185297E+02 -0.23624023869E+02 -0.86182289324E+02  0.91851344300E+02  0.00000000000E+00 0. -1.
<mgrwt>
<rscale>  0 0.13244054E+03</rscale>
<asrwt>0</asrwt>
<pdfrwt beam="2">  1        1 0.10251681E+00 0.14545601E+03</pdfrwt>
<pdfrwt beam="1">  1       -1 0.35290304E-02 0.14545601E+03</pdfrwt>
<totfact> 0.86513466E+03</totfact>
</mgrwt>
</event>
<event>
 7    1  0.6419647E-006  0.1484461E+03  0.7546771E-02  0.1212728E+00
         -2   -1    0    0    0  501 -0.00000000000E+00  0.00000000000E+00  0.67397914124E+03  0.67397914124E+03  0.00000000000E+00 0.  1.
          2   -1    0    0  501    0  0.00000000000E+00 -0.00000000000E+00 -0.45032061125E+02  0.45032061125E+02  0.00000000000E+00 0. -1.
         23    2    1    2    0    0 -0.13127440115E+02 -0.76731560133E+02  0.10523970154E+03  0.18196605037E+03  0.12639694103E+03 0.  0.
          5    1    3    3  502    0 -0.67491526336E+02 -0.28535055124E+02  0.68497252708E+02  0.10041573147E+03  0.47000000000E+01 0. -1.
         -5    1    3    3    0  502  0.54364086222E+02 -0.48196505008E+02  0.36742448835E+02  0.81550318897E+02  0.47000000000E+01 0.  1.
        -11    1    1    2    0    0 -0.20155599350E+02 -0.16485877361E+01  0.30863006557E+02  0.36898390215E+02  0.00000000000E+00 0. -1.
         11    1    1    2    0    0  0.33283039465E+02  0.78380147869E+02  0.49284437201E+03  0.50014676178E+03  0.00000000000E+00 0.  1.
<mgrwt>
<rscale>  0 0.14044743E+03</rscale>
<asrwt>0</asrwt>
<pdfrwt beam="2">  1        2 0.69280099E-02 0.14844611E+03</pdfrwt>
<pdfrwt beam="1">  1       -2 0.10368909E+00 0.14844611E+03</pdfrwt>
<totfact> 0.79001180E+02</totfact>
</mgrwt>
</event>
<event>
 7    1  0.6419647E-006  0.1270143E+03  0.7546771E-02  0.1247021E+00
         -1   -1    0    0    0  501 -0.00000000000E+00  0.00000000000E+00  0.33304554985E+02  0.33304554985E+02  0.00000000000E+00 0.  1.
          1   -1    0    0  501    0  0.00000000000E+00 -0.00000000000E+00 -0.42213894719E+03  0.42213894719E+03  0.00000000000E+00 0. -1.
         23    2    1    2    0    0 -0.17440120330E+02  0.14205726682E+02 -0.30287768534E+03  0.32843193286E+03  0.12500672692E+03 0.  0.
          5    1    3    3  502    0 -0.22027320830E+02 -0.48574758970E+02 -0.20568741850E+03  0.21254202926E+03  0.47000000000E+01 0.  1.
         -5    1    3    3    0  502  0.45872005003E+01  0.62780485652E+02 -0.97190266839E+02  0.11588990360E+03  0.47000000000E+01 0.  1.
        -11    1    1    2    0    0 -0.28152865877E+02  0.62399057657E+01 -0.14931287031E+01  0.28874724490E+02  0.00000000000E+00 0.  1.
         11    1    1    2    0    0  0.45592986207E+02 -0.20445632448E+02 -0.84463578157E+02  0.98136844826E+02  0.00000000000E+00 0. -1.
<mgrwt>
<rscale>  0 0.11765205E+03</rscale>
<asrwt>0</asrwt>
<pdfrwt beam="2">  1        1 0.64944451E-01 0.12701434E+03</pdfrwt>
<pdfrwt beam="1">  1       -1 0.51237779E-02 0.12701434E+03</pdfrwt>
<totfact> 0.90741908E+03</totfact>
</mgrwt>
</event>
<event>
 7    1  0.6419647E-006  0.1342798E+03  0.7546771E-02  0.1230548E+00
          2   -1    0    0  501    0  0.00000000000E+00  0.00000000000E+00  0.15144824477E+03  0.15144824477E+03  0.00000000000E+00 0. -1.
         -2   -1    0    0    0  501 -0.00000000000E+00 -0.00000000000E+00 -0.99047785595E+02  0.99047785595E+02  0.00000000000E+00 0.  1.
         23    2    1    2    0    0  0.48983773475E+02 -0.26317843739E+01  0.30327607545E+02  0.13766205572E+03  0.12499896581E+03 0.  0.
          5    1    3    3  502    0  0.35168666246E+01 -0.25594210933E+02 -0.41723836627E+02  0.49299092557E+02  0.47000000000E+01 0. -1.
         -5    1    3    3    0  502  0.45466906850E+02  0.22962426559E+02  0.72051444171E+02  0.88362963164E+02  0.47000000000E+01 0. -1.
        -11    1    1    2    0    0 -0.29012934624E+02  0.48061649551E+02  0.28212292747E+02  0.62829976883E+02  0.00000000000E+00 0. -1.
         11    1    1    2    0    0 -0.19970838851E+02 -0.45429865177E+02 -0.61394411215E+01  0.50003997757E+02  0.00000000000E+00 0.  1.
<mgrwt>
<rscale>  0 0.12793809E+03</rscale>
<asrwt>0</asrwt>
<pdfrwt beam="1">  1        2 0.23299730E-01 0.13427985E+03</pdfrwt>
<pdfrwt beam="2">  1       -2 0.15238121E-01 0.13427985E+03</pdfrwt>
<totfact> 0.73541331E+03</totfact>
</mgrwt>
</event>
<event>
 7    1  0.6419647E-006  0.1466403E+03  0.7546771E-02  0.1223091E+00
          2   -1    0    0  501    0  0.00000000000E+00  0.00000000000E+00  0.49654022488E+02  0.49654022488E+02  0.00000000000E+00 0. -1.
         -2   -1    0    0    0  501 -0.00000000000E+00 -0.00000000000E+00 -0.30626080770E+03  0.30626080770E+03  0.00000000000E+00 0.  1.
         23    2    1    2    0    0 -0.23023510535E+02 -0.73131547680E+02 -0.13881786048E+03  0.20192518987E+03  0.12500031445E+03 0.  0.
          5    1    3    3  502    0 -0.38470939698E+02 -0.99930650030E+02 -0.13176324999E+03  0.16985226541E+03  0.47000000000E+01 0.  1.
         -5    1    3    3    0  502  0.15447429163E+02  0.26799102350E+02 -0.70546104879E+01  0.32072924463E+02  0.47000000000E+01 0.  1.
        -11    1    1    2    0    0 -0.10451546734E+02  0.85819219386E+01  0.21868619303E+01  0.13699145170E+02  0.00000000000E+00 0. -1.
         11    1    1    2    0    0  0.33475057269E+02  0.64549625742E+02 -0.11997578666E+03  0.14029049515E+03  0.00000000000E+00 0.  1.
<mgrwt>
<rscale>  0 0.13298621E+03</rscale>
<asrwt>0</asrwt>
<pdfrwt beam="1">  1        2 0.76390804E-02 0.14664032E+03</pdfrwt>
<pdfrwt beam="2">  1       -2 0.47117047E-01 0.14664032E+03</pdfrwt>
<totfact> 0.37449932E+03</totfact>
</mgrwt>
</event>
<event>
 7    1  0.6419647E-006  0.1319824E+03  0.7546771E-02  0.1237904E+00
         -1   -1    0    0    0  501 -0.00000000000E+00  0.00000000000E+00  0.72850448934E+02  0.72850448934E+02  0.00000000000E+00 0.  1.
          1   -1    0    0  501    0  0.00000000000E+00 -0.00000000000E+00 -0.18736709363E+03  0.18736709363E+03  0.00000000000E+00 0. -1.
         23    2    1    2    0    0  0.42020124504E+02 -0.52464185181E+01 -0.79405184837E+02  0.15402770720E+03  0.12500454166E+03 0.  0.
          5    1    3    3  502    0 -0.36146436832E+02  0.28901250802E+02 -0.26306950741E+02  0.53441489976E+02  0.47000000000E+01 0. -1.
         -5    1    3    3    0  502  0.78166561336E+02 -0.34147669321E+02 -0.53098234096E+02  0.10058621722E+03  0.47000000000E+01 0. -1.
        -11    1    1    2    0    0 -0.48915446850E+02 -0.14503326051E+02 -0.56599557063E+02  0.76200900696E+02  0.00000000000E+00 0. -1.
         11    1    1    2    0    0  0.68953223455E+01  0.19749744569E+02  0.21488097208E+02  0.29988934666E+02  0.00000000000E+00 0.  1.
<mgrwt>
<rscale>  0 0.12320333E+03</rscale>
<asrwt>0</asrwt>
<pdfrwt beam="2">  1        1 0.28825707E-01 0.13198239E+03</pdfrwt>
<pdfrwt beam="1">  1       -1 0.11207761E-01 0.13198239E+03</pdfrwt>
<totfact> 0.76861075E+03</totfact>
</mgrwt>
</event>
<event>
 7    1  0.6419647E-006  0.1663556E+03  0.7546771E-02  0.1187989E+00
          2   -1    0    0  501    0  0.00000000000E+00  0.00000000000E+00  0.15765461899E+03  0.15765461899E+03  0.00000000000E+00 0. -1.
         -2   -1    0    0    0  501 -0.00000000000E+00 -0.00000000000E+00 -0.17390134922E+03  0.17390134922E+03  0.00000000000E+00 0.  1.
         23    2    1    2    0    0 -0.45343487853E+02 -0.99967177234E+02  0.48265124191E+02  0.17321582566E+03  0.12499892652E+03 0.  0.
          5    1    3    3  502    0  0.27438703224E+02 -0.42588828167E+02 -0.23364071151E+02  0.55988039258E+02  0.47000000000E+01 0.  1.
         -5    1    3    3    0  502 -0.72782191076E+02 -0.57378349067E+02  0.71629195342E+02  0.11722778640E+03  0.47000000000E+01 0.  1.
        -11    1    1    2    0    0  0.68542034527E+02  0.38742533810E+02 -0.41038204317E+02  0.88786984613E+02  0.00000000000E+00 0. -1.
         11    1    1    2    0    0 -0.23198546675E+02  0.61224643424E+02 -0.23473650105E+02  0.69553157940E+02  0.00000000000E+00 0.  1.
<mgrwt>
<rscale>  0 0.16062826E+03</rscale>
<asrwt>0</asrwt>
<pdfrwt beam="1">  1        2 0.24254557E-01 0.16635564E+03</pdfrwt>
<pdfrwt beam="2">  1       -2 0.26754054E-01 0.16635564E+03</pdfrwt>
<totfact> 0.27352847E+03</totfact>
</mgrwt>
</event>
<event>
 7    1  0.1131118E-005  0.1610916E+03  0.7546771E-02  0.1194837E+00
          1   -1    0    0  501    0  0.00000000000E+00  0.00000000000E+00  0.44863751889E+03  0.44863751889E+03  0.00000000000E+00 0. -1.
         -1   -1    0    0    0  501 -0.00000000000E+00 -0.00000000000E+00 -0.50154590450E+02  0.50154590450E+02  0.00000000000E+00 0.  1.
         23    2    1    2    0    0  0.97757652808E+02 -0.27743865777E+02  0.24368285321E+03  0.29211611113E+03  0.12499683460E+03 0.  0.
          5    1    3    3  502    0  0.88435099446E+02 -0.60164523074E+02  0.10742821059E+03  0.15166887315E+03  0.47000000000E+01 0. -1.
         -5    1    3    3    0  502  0.93225533613E+01  0.32420657297E+02  0.13625464262E+03  0.14044723798E+03  0.47000000000E+01 0. -1.
        -11    1    1    2    0    0 -0.41262839383E+02 -0.84104871621E+00  0.20482651386E+01  0.41322205495E+02  0.00000000000E+00 0.  1.
         11    1    1    2    0    0 -0.56494813425E+02  0.28584914493E+02  0.15275181009E+03  0.16535379272E+03  0.00000000000E+00 0. -1.
<mgrwt>
<rscale>  0 0.15468039E+03</rscale>
<asrwt>0</asrwt>
<pdfrwt beam="1">  1        1 0.69021154E-01 0.16109156E+03</pdfrwt>
<pdfrwt beam="2">  1       -1 0.77160911E-02 0.16109156E+03</pdfrwt>
<totfact> 0.46177174E+03</totfact>
</mgrwt>
</event>
<event>
 7    1  0.6419647E-006  0.1399223E+03  0.7546771E-02  0.1224614E+00
          2   -1    0    0  501    0  0.00000000000E+00  0.00000000000E+00  0.29096950529E+03  0.29096950529E+03  0.00000000000E+00 0. -1.
         -2   -1    0    0    0  501 -0.00000000000E+00 -0.00000000000E+00 -0.68498124891E+02  0.68498124891E+02  0.00000000000E+00 0.  1.
         23    2    1    2    0    0 -0.28512547838E+02 -0.56061135678E+02  0.20393569301E+03  0.24732170398E+03  0.12498976780E+03 0.  0.
          5    1    3    3  502    0 -0.60771113633E+02 -0.61286883029E+02  0.19472248152E+03  0.21304493679E+03  0.47000000000E+01 0.  1.
         -5    1    3    3    0  502  0.32258565795E+02  0.52257473503E+01  0.92132114919E+01  0.34276767183E+02  0.47000000000E+01 0.  1.
        -11    1    1    2    0    0  0.42889888733E+02  0.36733020867E+02  0.47981621679E+02  0.74101912232E+02  0.00000000000E+00 0. -1.
         11    1    1    2    0    0 -0.14377340895E+02  0.19328114811E+02 -0.29445934288E+02  0.38044013977E+02  0.00000000000E+00 0.  1.
<mgrwt>
<rscale>  0 0.13193423E+03</rscale>
<asrwt>0</asrwt>
<pdfrwt beam="1">  1        2 0.44764538E-01 0.13992233E+03</pdfrwt>
<pdfrwt beam="2">  1       -2 0.10538173E-01 0.13992233E+03</pdfrwt>
<totfact> 0.65875606E+03</totfact>
</mgrwt>
</event>
<event>
 6    1  0.6419647E-006  0.3537455E+03  0.7546771E-02  0.1099344E+00
         -2   -1    0    0    0  501 -0.00000000000E+00  0.00000000000E+00  0.11749902450E+03  0.11749902450E+03  0.00000000000E+00 0.  1.
          2   -1    0    0  501    0  0.00000000000E+00 -0.00000000000E+00 -0.52653266730E+03  0.52653266730E+03  0.00000000000E+00 0. -1.
          5    1    1    2  502    0 -0.47859457215E+02 -0.10604214973E+03 -0.26257214595E+03  0.28723106899E+03  0.47000000000E+01 0. -1.
         -5    1    1    2    0  502  0.10422658131E+03  0.16747784634E+03 -0.10743903058E+03  0.22467141465E+03  0.47000000000E+01 0.  1.
        -11    1    1    2    0    0 -0.79749619306E+02 -0.44246294635E+02 -0.46197029269E+02  0.10223454348E+03  0.00000000000E+00 0.  1.
         11    1    1    2    0    0  0.23382495207E+02 -0.17189401977E+02  0.71745630053E+01  0.29894664687E+02  0.00000000000E+00 0. -1.
<mgrwt>
<rscale>  0 0.27340943E+03</rscale>
<asrwt>0</asrwt>
<pdfrwt beam="2">  1        2 0.81005027E-01 0.35374550E+03</pdfrwt>
<pdfrwt beam="1">  1       -2 0.18076773E-01 0.35374550E+03</pdfrwt>
<totfact> 0.14709346E+03</totfact>
</mgrwt>
</event>
<event>
 7    1  0.6419647E-006  0.1503267E+03  0.7546771E-02  0.1208973E+00
          1   -1    0    0  501    0  0.00000000000E+00  0.00000000000E+00  0.16533683150E+03  0.16533683150E+03  0.00000000000E+00 0. -1.
         -1   -1    0    0    0  501 -0.00000000000E+00 -0.00000000000E+00 -0.11393651372E+03  0.11393651372E+03  0.00000000000E+00 0.  1.
         23    2    1    2    0    0  0.13990832990E+02  0.82328931132E+02  0.31694969207E+02  0.15363170496E+03  0.12499733352E+03 0.  0.
          5    1    3    3  502    0  0.28492821355E+02  0.36224642734E+02  0.75272414681E+02  0.88386039745E+02  0.47000000000E+01 0. -1.
         -5    1    3    3    0  502 -0.14501988365E+02  0.46104288398E+02 -0.43577445474E+02  0.65245665214E+02  0.47000000000E+01 0. -1.
        -11    1    1    2    0    0  0.25456128815E+02 -0.14841151379E+01 -0.14580927033E+02  0.29373806786E+02  0.00000000000E+00 0.  1.
         11    1    1    2    0    0 -0.39446961805E+02 -0.80844815994E+02  0.34286275606E+02  0.96267833484E+02  0.00000000000E+00 0. -1.
<mgrwt>
<rscale>  0 0.14328758E+03</rscale>
<asrwt>0</asrwt>
<pdfrwt beam="1">  1        1 0.25436436E-01 0.15032674E+03</pdfrwt>
<pdfrwt beam="2">  1       -1 0.17528694E-01 0.15032674E+03</pdfrwt>
<totfact> 0.45081647E+03</totfact>
</mgrwt>
</event>
<event>
 7    1  0.6419647E-006  0.1554541E+03  0.7546771E-02  0.1202351E+00
         -2   -1    0    0    0  501 -0.00000000000E+00  0.00000000000E+00  0.35171217690E+02  0.35171217690E+02  0.00000000000E+00 0.  1.
          2   -1    0    0  501    0  0.00000000000E+00 -0.00000000000E+00 -0.61724723708E+03  0.61724723708E+03  0.00000000000E+00 0. -1.
         23    2    1    2    0    0 -0.81838874327E+02 -0.42941810488E+02 -0.39919127170E+03  0.42839192114E+03  0.12499746498E+03 0.  0.
          5    1    3    3  502    0 -0.65765096202E+02 -0.58658785656E+02 -0.12374345518E+03  0.15198826834E+03  0.47000000000E+01 0. -1.
         -5    1    3    3    0  502 -0.16073778125E+02  0.15716975168E+02 -0.27544781653E+03  0.27640365280E+03  0.47000000000E+01 0. -1.
        -11    1    1    2    0    0  0.11830698101E+02 -0.14859729441E+02  0.92724550539E+00  0.19016749482E+02  0.00000000000E+00 0.  1.
         11    1    1    2    0    0  0.70008176227E+02  0.57801539929E+02 -0.18381199319E+03  0.20500978415E+03  0.00000000000E+00 0. -1.
<mgrwt>
<rscale>  0 0.14848221E+03</rscale>
<asrwt>0</asrwt>
<pdfrwt beam="2">  1        2 0.94961109E-01 0.15545407E+03</pdfrwt>
<pdfrwt beam="1">  1       -2 0.54109568E-02 0.15545407E+03</pdfrwt>
<totfact> 0.81845879E+03</totfact>
</mgrwt>
</event>
<event>
 7    1  0.6419647E-006  0.1274240E+03  0.7546771E-02  0.1246124E+00
          2   -1    0    0  501    0  0.00000000000E+00  0.00000000000E+00  0.79332330211E+03  0.79332330211E+03  0.00000000000E+00 0.  1.
         -2   -1    0    0    0  501 -0.00000000000E+00 -0.00000000000E+00 -0.15722944380E+02  0.15722944380E+02  0.00000000000E+00 0. -1.
         23    2    1    2    0    0  0.18102121419E+02  0.16846786888E+02  0.49461032604E+03  0.51076047106E+03  0.12500153254E+03 0.  0.
          5    1    3    3  502    0  0.74473092878E+01  0.43481177829E+01  0.49354659069E+03  0.49364430081E+03  0.47000000000E+01 0.  1.
         -5    1    3    3    0  502  0.10654812131E+02  0.12498669105E+02  0.10637353537E+01  0.17116170245E+02  0.47000000000E+01 0.  1.
        -11    1    1    2    0    0  0.29178882645E+02 -0.32552305095E+02  0.15120783961E+03  0.15740035108E+03  0.00000000000E+00 0.  1.
         11    1    1    2    0    0 -0.47281004063E+02  0.15705518207E+02  0.13178219207E+03  0.14088542435E+03  0.00000000000E+00 0. -1.
<mgrwt>
<rscale>  0 0.11818371E+03</rscale>
<asrwt>0</asrwt>
<pdfrwt beam="1">  1        2 0.12204971E+00 0.12742403E+03</pdfrwt>
<pdfrwt beam="2">  1       -2 0.24189151E-02 0.12742403E+03</pdfrwt>
<totfact> 0.19754430E+04</totfact>
</mgrwt>
</event>
<event>
 7    1  0.6419647E-006  0.1384911E+03  0.7546771E-02  0.1227188E+00
         -2   -1    0    0    0  501 -0.00000000000E+00  0.00000000000E+00  0.23723110363E+02  0.23723110363E+02  0.00000000000E+00 0.  1.
          2   -1    0    0  501    0  0.00000000000E+00 -0.00000000000E+00 -0.97599741499E+03  0.97599741499E+03  0.00000000000E+00 0. -1.
         23    2    1    2    0    0  0.53146699180E+02 -0.27041471011E+02 -0.80605871859E+03  0.81786946024E+03  0.12499593351E+03 0.  0.
          5    1    3    3  502    0  0.41713733907E+02 -0.64081757016E+02 -0.71082503600E+03  0.71494113672E+03  0.47000000000E+01 0. -1.
         -5    1    3    3    0  502  0.11432965273E+02  0.37040286006E+02 -0.95233682591E+02  0.10292832352E+03  0.47000000000E+01 0. -1.
        -11    1    1    2    0    0  0.71253120111E+00  0.49046227504E+02 -0.55374128972E+02  0.73975227559E+02  0.00000000000E+00 0. -1.
         11    1    1    2    0    0 -0.53859230381E+02 -0.22004756493E+02 -0.90841457063E+02  0.10787583755E+03  0.00000000000E+00 0.  1.
<mgrwt>
<rscale>  0 0.13018084E+03</rscale>
<asrwt>0</asrwt>
<pdfrwt beam="2">  1        2 0.15015343E+00 0.13849114E+03</pdfrwt>
<pdfrwt beam="1">  1       -2 0.36497096E-02 0.13849114E+03</pdfrwt>
<totfact> 0.83021775E+03</totfact>
</mgrwt>
</event>
<event>
 6    1  0.6419647E-006  0.2483969E+03  0.7546771E-02  0.1140379E+00
         -1   -1    0    0    0  501 -0.00000000000E+00  0.00000000000E+00  0.31935315132E+02  0.31935315132E+02  0.00000000000E+00 0.  1.
          1   -1    0    0  501    0  0.00000000000E+00 -0.00000000000E+00 -0.11245647287E+04  0.11245647287E+04  0.00000000000E+00 0. -1.
          5    1    1    2  502    0 -0.59926175527E+02  0.76923473715E+02 -0.22877864543E+03  0.24873706182E+03  0.47000000000E+01 0. -1.
         -5    1    1    2    0  502  0.40940984160E+01 -0.14722860771E+03 -0.49585057213E+03  0.51728416219E+03  0.47000000000E+01 0.  1.
        -11    1    1    2    0    0  0.78510795685E+02  0.70192177855E+02 -0.26823115040E+03  0.28816460039E+03  0.00000000000E+00 0.  1.
         11    1    1    2    0    0 -0.22678718574E+02  0.11295614476E+00 -0.99769045571E+02  0.10231421939E+03  0.00000000000E+00 0. -1.
<mgrwt>
<rscale>  0 0.21150653E+03</rscale>
<asrwt>0</asrwt>
<pdfrwt beam="2">  1        1 0.17300995E+00 0.24839689E+03</pdfrwt>
<pdfrwt beam="1">  1       -1 0.49131255E-02 0.24839689E+03</pdfrwt>
<totfact> 0.23380217E+03</totfact>
</mgrwt>
</event>
<event>
 7    1  0.6419647E-006  0.1617200E+03  0.7546771E-02  0.1194023E+00
          2   -1    0    0  501    0  0.00000000000E+00  0.00000000000E+00  0.29894973824E+03  0.29894973824E+03  0.00000000000E+00 0. -1.
         -2   -1    0    0    0  501 -0.00000000000E+00 -0.00000000000E+00 -0.75015787857E+02  0.75015787857E+02  0.00000000000E+00 0.  1.
         23    2    1    2    0    0  0.34977063701E+02  0.96460019355E+02  0.12098065629E+03  0.20196455886E+03  0.12500173406E+03 0.  0.
          5    1    3    3  502    0  0.51800400540E+02  0.30643748184E+02  0.11946633465E+03  0.13385296379E+03  0.47000000000E+01 0.  1.
         -5    1    3    3    0  502 -0.16823336839E+02  0.65816271171E+02  0.15143216402E+01  0.68111595072E+02  0.47000000000E+01 0.  1.
        -11    1    1    2    0    0 -0.87795226744E+01 -0.92257832830E+02  0.35020791308E+02  0.99070901685E+02  0.00000000000E+00 0.  1.
         11    1    1    2    0    0 -0.26197541027E+02 -0.42021865244E+01  0.67932502787E+02  0.72930065558E+02  0.00000000000E+00 0. -1.
<mgrwt>
<rscale>  0 0.15537245E+03</rscale>
<asrwt>0</asrwt>
<pdfrwt beam="1">  1        2 0.45992267E-01 0.16172002E+03</pdfrwt>
<pdfrwt beam="2">  1       -2 0.11540891E-01 0.16172002E+03</pdfrwt>
<totfact> 0.55889319E+03</totfact>
</mgrwt>
</event>
<event>
 7    1  0.6419647E-006  0.1479844E+03  0.7546771E-02  0.1213413E+00
         -1   -1    0    0    0  501 -0.00000000000E+00  0.00000000000E+00  0.30926079970E+02  0.30926079970E+02  0.00000000000E+00 0.  1.
          1   -1    0    0  501    0  0.00000000000E+00 -0.00000000000E+00 -0.80889144955E+03  0.80889144955E+03  0.00000000000E+00 0. -1.
         23    2    1    2    0    0  0.91114912575E+00 -0.79231673814E+02 -0.64529182746E+03  0.66204299716E+03  0.12498359561E+03 0.  0.
          5    1    3    3  502    0  0.20396254949E+02  0.83787763250E+01 -0.40282559167E+03  0.40345601794E+03  0.47000000000E+01 0.  1.
         -5    1    3    3    0  502 -0.19485105823E+02 -0.87610450138E+02 -0.24246623579E+03  0.25858697922E+03  0.47000000000E+01 0.  1.
        -11    1    1    2    0    0  0.20908546582E+02  0.34169547777E+02 -0.46730688224E+01  0.40330669319E+02  0.00000000000E+00 0.  1.
         11    1    1    2    0    0 -0.21819695708E+02  0.45062126036E+02 -0.12800047330E+03  0.13744386304E+03  0.00000000000E+00 0. -1.
<mgrwt>
<rscale>  0 0.13993742E+03</rscale>
<asrwt>0</asrwt>
<pdfrwt beam="2">  1        1 0.12444484E+00 0.14798442E+03</pdfrwt>
<pdfrwt beam="1">  1       -1 0.47578584E-02 0.14798442E+03</pdfrwt>
<totfact> 0.42018787E+03</totfact>
</mgrwt>
</event>
<event>
 7    1  0.1143268E-005  0.1668695E+03  0.7546771E-02  0.1188025E+00
         -1   -1    0    0    0  501 -0.00000000000E+00  0.00000000000E+00  0.41089373392E+03  0.41089373392E+03  0.00000000000E+00 0.  1.
          1   -1    0    0  501    0  0.00000000000E+00 -0.00000000000E+00 -0.60407162867E+02  0.60407162867E+02  0.00000000000E+00 0. -1.
         23    2    1    2    0    0  0.11008286049E+03  0.10102602418E+02  0.14624525204E+03  0.22188535949E+03  0.12500056104E+03 0.  0.
          5    1    3    3  502    0 -0.19632689383E+02 -0.21359299471E+02  0.98706285451E+01  0.31002926865E+02  0.47000000000E+01 0. -1.
         -5    1    3    3    0  502  0.12971554987E+03  0.31461901888E+02  0.13637462350E+03  0.19088243262E+03  0.47000000000E+01 0. -1.
        -11    1    1    2    0    0 -0.48912930342E+02 -0.41230486898E+02  0.14600003881E+03  0.15940024824E+03  0.00000000000E+00 0.  1.
         11    1    1    2    0    0 -0.61169930147E+02  0.31127884481E+02  0.58241280197E+02  0.90015289065E+02  0.00000000000E+00 0. -1.
<mgrwt>
<rscale>  0 0.16059612E+03</rscale>
<asrwt>0</asrwt>
<pdfrwt beam="2">  1        1 0.92934099E-02 0.16686953E+03</pdfrwt>
<pdfrwt beam="1">  1       -1 0.63214419E-01 0.16686953E+03</pdfrwt>
<totfact> 0.18266613E+03</totfact>
</mgrwt>
</event>
<event>
 7    1  0.6419647E-006  0.1299133E+03  0.7546771E-02  0.1241815E+00
          1   -1    0    0  501    0  0.00000000000E+00  0.00000000000E+00  0.26859688554E+03  0.26859688554E+03  0.00000000000E+00 0. -1.
         -1   -1    0    0    0  501 -0.00000000000E+00 -0.00000000000E+00 -0.54575603056E+02  0.54575603056E+02  0.00000000000E+00 0.  1.
         23    2    1    2    0    0  0.26278814039E+02  0.23710488869E+02  0.17640779987E+03  0.21908255975E+03  0.12499877113E+03 0.  0.
          5    1    3    3  502    0  0.13419551224E+02 -0.47276006454E+02  0.35814436260E+02  0.60990728689E+02  0.47000000000E+01 0. -1.
         -5    1    3    3    0  502  0.12859262815E+02  0.70986495323E+02  0.14059336361E+03  0.15809183107E+03  0.47000000000E+01 0. -1.
        -11    1    1    2    0    0  0.22645504638E+02 -0.66782659631E+01 -0.16787039976E+02  0.28969342895E+02  0.00000000000E+00 0.  1.
         11    1    1    2    0    0 -0.48924318677E+02 -0.17032222905E+02  0.54400522593E+02  0.75120585950E+02  0.00000000000E+00 0. -1.
<mgrwt>
<rscale>  0 0.12078031E+03</rscale>
<asrwt>0</asrwt>
<pdfrwt beam="1">  1        1 0.41322597E-01 0.12991326E+03</pdfrwt>
<pdfrwt beam="2">  1       -1 0.83962468E-02 0.12991326E+03</pdfrwt>
<totfact> 0.76302499E+03</totfact>
</mgrwt>
</event>
<event>
 7    1  0.6419647E-006  0.1686311E+03  0.7546771E-02  0.1185203E+00
          4   -1    0    0  501    0  0.00000000000E+00  0.00000000000E+00  0.11396720062E+04  0.11396720062E+04  0.00000000000E+00 0. -1.
         -4   -1    0    0    0  501 -0.00000000000E+00 -0.00000000000E+00 -0.22286581585E+02  0.22286581585E+02  0.00000000000E+00 0.  1.
         23    2    1    2    0    0  0.77972361018E+02  0.82046938958E+02  0.66637777400E+03  0.68738329374E+03  0.12500026226E+03 0.  0.
          5    1    3    3  502    0  0.88245249238E+02  0.74760896084E+02  0.31247569159E+03  0.33322599453E+03  0.47000000000E+01 0. -1.
         -5    1    3    3    0  502 -0.10272888220E+02  0.72860428733E+01  0.35390208241E+03  0.35415729921E+03  0.47000000000E+01 0. -1.
        -11    1    1    2    0    0 -0.65684917911E+02 -0.29592336692E+02  0.37222837594E+03  0.37913609521E+03  0.00000000000E+00 0. -1.
         11    1    1    2    0    0 -0.12287443107E+02 -0.52454602265E+02  0.78779274699E+02  0.95439198860E+02  0.00000000000E+00 0.  1.
<mgrwt>
<rscale>  0 0.16313409E+03</rscale>
<asrwt>0</asrwt>
<pdfrwt beam="1">  1        4 0.17533411E+00 0.16863112E+03</pdfrwt>
<pdfrwt beam="2">  1       -4 0.34287058E-02 0.16863112E+03</pdfrwt>
<totfact> 0.15971292E+02</totfact>
</mgrwt>
</event>
<event>
 7    1  0.6419647E-006  0.1336806E+03  0.7546771E-02  0.1234219E+00
          1   -1    0    0  501    0  0.00000000000E+00  0.00000000000E+00  0.12359152049E+04  0.12359152049E+04  0.00000000000E+00 0. -1.
         -1   -1    0    0    0  501 -0.00000000000E+00 -0.00000000000E+00 -0.27880627129E+02  0.27880627129E+02  0.00000000000E+00 0.  1.
         23    2    1    2    0    0 -0.29463285613E+02  0.37116748440E+02  0.11188214480E+04  0.11267794549E+04  0.12499907696E+03 0.  0.
          5    1    3    3  502    0  0.17135894377E+02 -0.24165540746E+02  0.71671703179E+03  0.71734441232E+03  0.47000000000E+01 0. -1.
         -5    1    3    3    0  502 -0.46599179990E+02  0.61282289186E+02  0.40210441618E+03  0.40943504253E+03  0.47000000000E+01 0. -1.
        -11    1    1    2    0    0 -0.10020993053E+02  0.12323158014E+02 -0.10415987211E+02  0.18994033663E+02  0.00000000000E+00 0.  1.
         11    1    1    2    0    0  0.39484278667E+02 -0.49439906453E+02  0.99629117055E+02  0.11802234355E+03  0.00000000000E+00 0. -1.
<mgrwt>
<rscale>  0 0.12554579E+03</rscale>
<asrwt>0</asrwt>
<pdfrwt beam="1">  1        1 0.19014076E+00 0.13368062E+03</pdfrwt>
<pdfrwt beam="2">  1       -1 0.42893282E-02 0.13368062E+03</pdfrwt>
<totfact> 0.23758689E+03</totfact>
</mgrwt>
</event>
<event>
 7    1  0.6419647E-006  0.1826838E+03  0.7546771E-02  0.1171435E+00
          2   -1    0    0  501    0  0.00000000000E+00  0.00000000000E+00  0.91860532483E+03  0.91860532483E+03  0.00000000000E+00 0. -1.
         -2   -1    0    0    0  501 -0.00000000000E+00 -0.00000000000E+00 -0.33041003392E+02  0.33041003392E+02  0.00000000000E+00 0.  1.
         23    2    1    2    0    0 -0.96353705758E+02 -0.92021250742E+02  0.56961001895E+03  0.59818806407E+03  0.12498575559E+03 0.  0.
          5    1    3    3  502    0 -0.90668373736E+02 -0.93719815495E+02  0.28470328272E+03  0.31318078965E+03  0.47000000000E+01 0.  1.
         -5    1    3    3    0  502 -0.56853320220E+01  0.16985647536E+01  0.28490673623E+03  0.28500727442E+03  0.47000000000E+01 0.  1.
        -11    1    1    2    0    0  0.80403144020E+02  0.87052713415E+02  0.31519402366E+03  0.33673448448E+03  0.00000000000E+00 0. -1.
         11    1    1    2    0    0  0.15950561739E+02  0.49685373267E+01  0.76027882367E+00  0.16723779681E+02  0.00000000000E+00 0.  1.
<mgrwt>
<rscale>  0 0.17629763E+03</rscale>
<asrwt>0</asrwt>
<pdfrwt beam="1">  1        2 0.14132388E+00 0.18268384E+03</pdfrwt>
<pdfrwt beam="2">  1       -2 0.50832320E-02 0.18268384E+03</pdfrwt>
<totfact> 0.55524751E+03</totfact>
</mgrwt>
</event>
<event>
 7    1  0.6419647E-006  0.3836892E+03  0.7546771E-02  0.1049579E+00
          3   -1    0    0  501    0  0.00000000000E+00  0.00000000000E+00  0.16913469380E+03  0.16913469380E+03  0.00000000000E+00 0. -1.
         -3   -1    0    0    0  501 -0.00000000000E+00 -0.00000000000E+00 -0.21760382310E+03  0.21760382310E+03  0.00000000000E+00 0.  1.
         23    2    1    2    0    0 -0.27203237125E+02  0.11628566023E+02  0.93377349126E+02  0.15160831848E+03  0.11571738524E+03 0.  0.
          5    1    3    3  502    0  0.10786519575E+02  0.57101693204E+02  0.58985891041E+02  0.82935985635E+02  0.47000000000E+01 0. -1.
         -5    1    3    3    0  502 -0.37989756699E+02 -0.45473127181E+02  0.34391458085E+02  0.68672332849E+02  0.47000000000E+01 0.  1.
        -11    1    1    2    0    0  0.64591196109E+01 -0.68311309438E+02 -0.15833148799E+03  0.17256017882E+03  0.00000000000E+00 0.  1.
         11    1    1    2    0    0  0.20744117514E+02  0.56682743415E+02  0.16485009569E+02  0.62570019602E+02  0.00000000000E+00 0. -1.
<mgrwt>
<rscale>  0 0.38368923E+03</rscale>
<asrwt>0</asrwt>
<pdfrwt beam="1">  1        3 0.26020722E-01 0.38368923E+03</pdfrwt>
<pdfrwt beam="2">  1       -3 0.33477511E-01 0.38368923E+03</pdfrwt>
<totfact> 0.31752382E+02</totfact>
</mgrwt>
</event>
<event>
 7    1  0.6419647E-006  0.1335666E+03  0.7546771E-02  0.1235358E+00
         -2   -1    0    0    0  501 -0.00000000000E+00  0.00000000000E+00  0.53469233445E+02  0.53469233445E+02  0.00000000000E+00 0.  1.
          2   -1    0    0  501    0  0.00000000000E+00 -0.00000000000E+00 -0.42491060014E+03  0.42491060014E+03  0.00000000000E+00 0. -1.
         23    2    1    2    0    0  0.43941129106E+02 -0.17049537572E+02 -0.34955036901E+03  0.37419980150E+03  0.12497408294E+03 0.  0.
          5    1    3    3  502    0 -0.96185939082E+01 -0.61971788599E+02 -0.14753187262E+03  0.16037694152E+03  0.47000000000E+01 0.  1.
         -5    1    3    3    0  502  0.53559723014E+02  0.44922251027E+02 -0.20201849639E+03  0.21382285998E+03  0.47000000000E+01 0.  1.
        -11    1    1    2    0    0 -0.27439365234E+02 -0.18784448940E+02 -0.46883319868E+02  0.57478865405E+02  0.00000000000E+00 0. -1.
         11    1    1    2    0    0 -0.16501763872E+02  0.35833986513E+02  0.24992322192E+02  0.46701166675E+02  0.00000000000E+00 0.  1.
<mgrwt>
<rscale>  0 0.12481535E+03</rscale>
<asrwt>0</asrwt>
<pdfrwt beam="2">  1        2 0.65370864E-01 0.13356658E+03</pdfrwt>
<pdfrwt beam="1">  1       -2 0.82260355E-02 0.13356658E+03</pdfrwt>
<totfact> 0.64657417E+03</totfact>
</mgrwt>
</event>
<event>
 6    1  0.6419647E-006  0.1540360E+03  0.7546771E-02  0.1234187E+00
          2   -1    0    0  501    0  0.00000000000E+00  0.00000000000E+00  0.16604531330E+03  0.16604531330E+03  0.00000000000E+00 0. -1.
         -2   -1    0    0    0  501 -0.00000000000E+00 -0.00000000000E+00 -0.79956590069E+02  0.79956590069E+02  0.00000000000E+00 0.  1.
          5    1    1    2  502    0  0.98639441226E+01  0.11560526950E+02  0.11013082365E+03  0.11127367836E+03  0.47000000000E+01 0. -1.
         -5    1    1    2    0  502 -0.71433116980E+01 -0.62640017131E+02 -0.21089959859E+02  0.66645893009E+02  0.47000000000E+01 0.  1.
        -11    1    1    2    0    0  0.77908146379E+01  0.51257020462E+02 -0.13095242565E+02  0.53473959244E+02  0.00000000000E+00 0.  1.
         11    1    1    2    0    0 -0.10511447062E+02 -0.17753028044E+00  0.10143101997E+02  0.14608372752E+02  0.00000000000E+00 0. -1.
<mgrwt>
<rscale>  0 0.12556632E+03</rscale>
<asrwt>0</asrwt>
<pdfrwt beam="1">  1        2 0.25545433E-01 0.15403603E+03</pdfrwt>
<pdfrwt beam="2">  1       -2 0.12301014E-01 0.15403603E+03</pdfrwt>
<totfact> 0.94908005E+03</totfact>
</mgrwt>
</event>
<event>
 7    1  0.6419647E-006  0.1269521E+03  0.7546771E-02  0.1247513E+00
         -2   -1    0    0    0  501 -0.00000000000E+00  0.00000000000E+00  0.77996213832E+01  0.77996213832E+01  0.00000000000E+00 0.  1.
          2   -1    0    0  501    0  0.00000000000E+00 -0.00000000000E+00 -0.20052320451E+04  0.20052320451E+04  0.00000000000E+00 0. -1.
         23    2    1    2    0    0 -0.17980797812E+02  0.12953014483E+02 -0.15954834226E+04  0.16005262253E+04  0.12500302559E+03 0.  0.
          5    1    3    3  502    0  0.50124350772E+02 -0.44143927534E+01 -0.91813350453E+03  0.91952333279E+03  0.47000000000E+01 0.  1.
         -5    1    3    3    0  502 -0.68105148583E+02  0.17367407236E+02 -0.67734991809E+03  0.68100289253E+03  0.47000000000E+01 0.  1.
        -11    1    1    2    0    0 -0.29197454377E+02  0.18245070040E+02 -0.11534832002E+03  0.12037694486E+03  0.00000000000E+00 0.  1.
         11    1    1    2    0    0  0.47178252189E+02 -0.31198084523E+02 -0.28660068105E+03  0.29212849627E+03  0.00000000000E+00 0. -1.
<mgrwt>
<rscale>  0 0.11736215E+03</rscale>
<asrwt>0</asrwt>
<pdfrwt beam="2">  1        2 0.30849751E+00 0.12695214E+03</pdfrwt>
<pdfrwt beam="1">  1       -2 0.11999407E-02 0.12695214E+03</pdfrwt>
<totfact> 0.11802186E+04</totfact>
</mgrwt>
</event>
<event>
 7    1  0.6419647E-006  0.1299435E+03  0.7546771E-02  0.1241725E+00
         -2   -1    0    0    0  501 -0.00000000000E+00  0.00000000000E+00  0.67971349952E+02  0.67971349952E+02  0.00000000000E+00 0. -1.
          2   -1    0    0  501    0  0.00000000000E+00 -0.00000000000E+00 -0.56331564707E+03  0.56331564707E+03  0.00000000000E+00 0.  1.
         23    2    1    2    0    0  0.34764482816E+02  0.72798852023E+01 -0.51586338084E+03  0.53197777187E+03  0.12499502421E+03 0.  0.
          5    1    3    3  502    0  0.92766078720E+01 -0.36798537946E+02 -0.48196600976E+02  0.61523899374E+02  0.47000000000E+01 0.  1.
         -5    1    3    3    0  502  0.25487874944E+02  0.44078423149E+02 -0.46766677986E+03  0.47045387249E+03  0.47000000000E+01 0.  1.
        -11    1    1    2    0    0  0.48571005833E+01  0.34594761624E+02 -0.66790481024E+01  0.35566819389E+02  0.00000000000E+00 0.  1.
         11    1    1    2    0    0 -0.39621583399E+02 -0.41874646826E+02  0.27198131824E+02  0.63742405764E+02  0.00000000000E+00 0. -1.
<mgrwt>
<rscale>  0 0.12083560E+03</rscale>
<asrwt>0</asrwt>
<pdfrwt beam="2">  1        2 0.86663945E-01 0.12994353E+03</pdfrwt>
<pdfrwt beam="1">  1       -2 0.10457131E-01 0.12994353E+03</pdfrwt>
<totfact> 0.32609305E+03</totfact>
</mgrwt>
</event>
<event>
 7    1  0.6419647E-006  0.2476605E+03  0.7546771E-02  0.1117306E+00
         -3   -1    0    0    0  501 -0.00000000000E+00  0.00000000000E+00  0.44715030538E+03  0.44715030538E+03  0.00000000000E+00 0.  1.
          3   -1    0    0  501    0  0.00000000000E+00 -0.00000000000E+00 -0.17832756764E+03  0.17832756764E+03  0.00000000000E+00 0. -1.
         23    2    1    2    0    0  0.62166301650E+02 -0.20460398056E+03 -0.27132499516E+02  0.24914232690E+03  0.12493313651E+03 0.  0.
          5    1    3    3  502    0 -0.34768964891E+02 -0.55717943425E+02 -0.27660415806E+02  0.71418196152E+02  0.47000000000E+01 0.  1.
         -5    1    3    3    0  502  0.96935266540E+02 -0.14888603714E+03  0.52791629023E+00  0.17772413075E+03  0.47000000000E+01 0.  1.
        -11    1    1    2    0    0 -0.72902258212E+02  0.13276109728E+03  0.14929541091E+03  0.21267197258E+03  0.00000000000E+00 0. -1.
         11    1    1    2    0    0  0.10735956563E+02  0.71842883288E+02  0.14665982634E+03  0.16366357355E+03  0.00000000000E+00 0.  1.
<mgrwt>
<rscale>  0 0.24377037E+03</rscale>
<asrwt>0</asrwt>
<pdfrwt beam="2">  1        3 0.27435011E-01 0.24766051E+03</pdfrwt>
<pdfrwt beam="1">  1       -3 0.68792354E-01 0.24766051E+03</pdfrwt>
<totfact> 0.64953289E+01</totfact>
</mgrwt>
</event>
<event>
 7    1  0.6419647E-006  0.1545826E+03  0.7546771E-02  0.1203426E+00
          2   -1    0    0  501    0  0.00000000000E+00  0.00000000000E+00  0.23350984569E+03  0.23350984569E+03  0.00000000000E+00 0. -1.
         -2   -1    0    0    0  501 -0.00000000000E+00 -0.00000000000E+00 -0.93625198519E+02  0.93625198519E+02  0.00000000000E+00 0.  1.
         23    2    1    2    0    0 -0.82234641447E+02 -0.38836084317E+02  0.12283633920E+03  0.19744508185E+03  0.12500006568E+03 0.  0.
          5    1    3    3  502    0 -0.16597429861E+02  0.38209159850E+02  0.73809419846E+02  0.84884244901E+02  0.47000000000E+01 0.  1.
         -5    1    3    3    0  502 -0.65637211586E+02 -0.77045244167E+02  0.49026919352E+02  0.11256083695E+03  0.47000000000E+01 0.  1.
        -11    1    1    2    0    0  0.76251174096E+02  0.11962893592E+01  0.39055902404E+02  0.85679846941E+02  0.00000000000E+00 0. -1.
         11    1    1    2    0    0  0.59834673511E+01  0.37639794957E+02 -0.22007594435E+02  0.44010115415E+02  0.00000000000E+00 0.  1.
<mgrwt>
<rscale>  0 0.14762192E+03</rscale>
<asrwt>0</asrwt>
<pdfrwt beam="1">  1        2 0.35924591E-01 0.15458264E+03</pdfrwt>
<pdfrwt beam="2">  1       -2 0.14403877E-01 0.15458264E+03</pdfrwt>
<totfact> 0.50753681E+03</totfact>
</mgrwt>
</event>
<event>
 7    1  0.6419647E-006  0.1414293E+03  0.7546771E-02  0.1224390E+00
          2   -1    0    0  501    0  0.00000000000E+00  0.00000000000E+00  0.75105319673E+03  0.75105319673E+03  0.00000000000E+00 0.  1.
         -2   -1    0    0    0  501 -0.00000000000E+00 -0.00000000000E+00 -0.21741245058E+02  0.21741245058E+02  0.00000000000E+00 0. -1.
         23    2    1    2    0    0  0.65835365779E+02 -0.60436517179E+01  0.49773118430E+03  0.51743460325E+03  0.12502566017E+03 0.  0.
          5    1    3    3  502    0  0.34512235831E+02  0.39982978594E+02  0.79966579170E+02  0.95950387094E+02  0.47000000000E+01 0. -1.
         -5    1    3    3    0  502  0.31323129948E+02 -0.46026630312E+02  0.41776460513E+03  0.42148421615E+03  0.47000000000E+01 0. -1.
        -11    1    1    2    0    0 -0.54355516859E+02  0.39168852668E+02  0.10973635278E+03  0.12857211344E+03  0.00000000000E+00 0.  1.
         11    1    1    2    0    0 -0.11479848919E+02 -0.33125200950E+02  0.12184441459E+03  0.12678772510E+03  0.00000000000E+00 0. -1.
<mgrwt>
<rscale>  0 0.13208799E+03</rscale>
<asrwt>0</asrwt>
<pdfrwt beam="1">  1        2 0.11554663E+00 0.14142926E+03</pdfrwt>
<pdfrwt beam="2">  1       -2 0.33448075E-02 0.14142926E+03</pdfrwt>
<totfact> 0.13234924E+04</totfact>
</mgrwt>
</event>
<event>
 7    1  0.6419647E-006  0.1342317E+03  0.7546771E-02  0.1232310E+00
          2   -1    0    0  501    0  0.00000000000E+00  0.00000000000E+00  0.12876542773E+03  0.12876542773E+03  0.00000000000E+00 0. -1.
         -2   -1    0    0    0  501 -0.00000000000E+00 -0.00000000000E+00 -0.12445414157E+03  0.12445414157E+03  0.00000000000E+00 0.  1.
         23    2    1    2    0    0  0.40941064221E+02 -0.26902045322E+02  0.40865609898E+02  0.14031444325E+03  0.12497301361E+03 0.  0.
          5    1    3    3  502    0 -0.40090019896E+01 -0.16005871433E+02 -0.41960746428E+02  0.45332706273E+02  0.47000000000E+01 0. -1.
         -5    1    3    3    0  502  0.44950066211E+02 -0.10896173889E+02  0.82826356326E+02  0.94981736981E+02  0.47000000000E+01 0. -1.
        -11    1    1    2    0    0  0.16056355926E+02 -0.22626938888E+02  0.25646003004E+01  0.27863275180E+02  0.00000000000E+00 0. -1.
         11    1    1    2    0    0 -0.56997420147E+02  0.49528984211E+02 -0.39118924033E+02  0.85041850861E+02  0.00000000000E+00 0.  1.
<mgrwt>
<rscale>  0 0.12678223E+03</rscale>
<asrwt>0</asrwt>
<pdfrwt beam="1">  1        2 0.19810066E-01 0.13423168E+03</pdfrwt>
<pdfrwt beam="2">  1       -2 0.19146791E-01 0.13423168E+03</pdfrwt>
<totfact> 0.60405259E+03</totfact>
</mgrwt>
</event>
<event>
 7    1  0.6419647E-006  0.2191857E+03  0.7546771E-02  0.1137491E+00
         -2   -1    0    0    0  501 -0.00000000000E+00  0.00000000000E+00  0.15356321268E+03  0.15356321268E+03  0.00000000000E+00 0.  1.
          2   -1    0    0  501    0  0.00000000000E+00 -0.00000000000E+00 -0.30238426782E+03  0.30238426782E+03  0.00000000000E+00 0. -1.
         23    2    1    2    0    0  0.11115065674E+03  0.14159078482E+03 -0.12074189950E+03  0.25024182410E+03  0.12505976730E+03 0.  0.
          5    1    3    3  502    0  0.12188146521E+03  0.65619997104E+02 -0.99352796828E+02  0.17045276126E+03  0.47000000000E+01 0. -1.
         -5    1    3    3    0  502 -0.10730808475E+02  0.75970787716E+02 -0.21389102669E+02  0.79789062845E+02  0.47000000000E+01 0. -1.
        -11    1    1    2    0    0  0.72962289621E+01 -0.56791472569E+02  0.47704623563E+00  0.57260229538E+02  0.00000000000E+00 0.  1.
         11    1    1    2    0    0 -0.11844688570E+03 -0.84799312250E+02 -0.28556201881E+02  0.14844542686E+03  0.00000000000E+00 0. -1.
<mgrwt>
<rscale>  0 0.21522843E+03</rscale>
<asrwt>0</asrwt>
<pdfrwt beam="2">  1        2 0.46520656E-01 0.21918568E+03</pdfrwt>
<pdfrwt beam="1">  1       -2 0.23625110E-01 0.21918568E+03</pdfrwt>
<totfact> 0.16925153E+03</totfact>
</mgrwt>
</event>
<event>
 7    1  0.6419647E-006  0.1795474E+03  0.7546771E-02  0.1174142E+00
          3   -1    0    0  501    0  0.00000000000E+00  0.00000000000E+00  0.26581607870E+03  0.26581607870E+03  0.00000000000E+00 0. -1.
         -3   -1    0    0    0  501 -0.00000000000E+00 -0.00000000000E+00 -0.10654126995E+03  0.10654126995E+03  0.00000000000E+00 0.  1.
         23    2    1    2    0    0 -0.12504152893E+03  0.30810591940E+02  0.80399625318E+02  0.19672663190E+03  0.12511031698E+03 0.  0.
          5    1    3    3  502    0 -0.10441334489E+03  0.15202359531E+01 -0.43245072333E+01  0.10461954440E+03  0.47000000000E+01 0. -1.
         -5    1    3    3    0  502 -0.20628184044E+02  0.29290355987E+02  0.84724132551E+02  0.92107087498E+02  0.47000000000E+01 0. -1.
        -11    1    1    2    0    0 -0.11164809543E+02 -0.31027139489E-01 -0.55335675344E+01  0.12460911061E+02  0.00000000000E+00 0.  1.
         11    1    1    2    0    0  0.13620633847E+03 -0.30779564801E+02  0.84408750960E+02  0.16316980569E+03  0.00000000000E+00 0. -1.
<mgrwt>
<rscale>  0 0.17360253E+03</rscale>
<asrwt>0</asrwt>
<pdfrwt beam="1">  1        3 0.40894781E-01 0.17954740E+03</pdfrwt>
<pdfrwt beam="2">  1       -3 0.16390965E-01 0.17954740E+03</pdfrwt>
<totfact> 0.45643222E+02</totfact>
</mgrwt>
</event>
<event>
 7    1  0.6419647E-006  0.1864226E+03  0.7546771E-02  0.1167137E+00
         -2   -1    0    0    0  501 -0.00000000000E+00  0.00000000000E+00  0.42290416759E+02  0.42290416759E+02  0.00000000000E+00 0.  1.
          2   -1    0    0  501    0  0.00000000000E+00 -0.00000000000E+00 -0.79155647764E+03  0.79155647764E+03  0.00000000000E+00 0. -1.
         23    2    1    2    0    0 -0.87224205424E+02 -0.10732998375E+03 -0.51397494523E+03  0.54673909451E+03  0.12500242284E+03 0.  0.
          5    1    3    3  502    0 -0.41723740740E+02 -0.13510449559E+02 -0.34722903551E+03  0.35001927931E+03  0.47000000000E+01 0.  1.
         -5    1    3    3    0  502 -0.45500464684E+02 -0.93819534192E+02 -0.16674590972E+03  0.19671981520E+03  0.47000000000E+01 0.  1.
        -11    1    1    2    0    0  0.12226858173E+02  0.76776688952E+02 -0.15318548260E+03  0.17178459799E+03  0.00000000000E+00 0. -1.
         11    1    1    2    0    0  0.74997347252E+02  0.30553294799E+02 -0.82105633052E+02  0.11532320190E+03  0.00000000000E+00 0.  1.
<mgrwt>
<rscale>  0 0.18068951E+03</rscale>
<asrwt>0</asrwt>
<pdfrwt beam="2">  1        2 0.12177791E+00 0.18642262E+03</pdfrwt>
<pdfrwt beam="1">  1       -2 0.65062183E-02 0.18642262E+03</pdfrwt>
<totfact> 0.46245655E+03</totfact>
</mgrwt>
</event>
<event>
 7    1  0.6419647E-006  0.1746240E+03  0.7546771E-02  0.1179559E+00
         -1   -1    0    0    0  501 -0.00000000000E+00  0.00000000000E+00  0.41446816962E+02  0.41446816962E+02  0.00000000000E+00 0.  1.
          1   -1    0    0  501    0  0.00000000000E+00 -0.00000000000E+00 -0.63994317990E+03  0.63994317990E+03  0.00000000000E+00 0. -1.
         23    2    1    2    0    0 -0.12106813612E+03  0.14541446279E+02 -0.30974561971E+03  0.35557825889E+03  0.12499840808E+03 0.  0.
          5    1    3    3  502    0  0.10107703792E+02  0.37146037496E+02 -0.98366042715E+02  0.10573534006E+03  0.47000000000E+01 0.  1.
         -5    1    3    3    0  502 -0.13117583991E+03 -0.22604591217E+02 -0.21137957699E+03  0.24984291883E+03  0.47000000000E+01 0.  1.
        -11    1    1    2    0    0  0.56517918936E+02 -0.47184372410E+02 -0.18698335194E+03  0.20095624913E+03  0.00000000000E+00 0. -1.
         11    1    1    2    0    0  0.64550217184E+02  0.32642926131E+02 -0.10176739129E+03  0.12485548885E+03  0.00000000000E+00 0.  1.
<mgrwt>
<rscale>  0 0.16836948E+03</rscale>
<asrwt>0</asrwt>
<pdfrwt beam="2">  1        1 0.98452793E-01 0.17462402E+03</pdfrwt>
<pdfrwt beam="1">  1       -1 0.63764336E-02 0.17462402E+03</pdfrwt>
<totfact> 0.38420345E+03</totfact>
</mgrwt>
</event>
<event>
 7    1  0.6419647E-006  0.1512781E+03  0.7546771E-02  0.1204689E+00
         -1   -1    0    0    0  501 -0.00000000000E+00  0.00000000000E+00  0.20636165568E+03  0.20636165568E+03  0.00000000000E+00 0.  1.
          1   -1    0    0  501    0  0.00000000000E+00 -0.00000000000E+00 -0.10179829235E+03  0.10179829235E+03  0.00000000000E+00 0. -1.
         23    2    1    2    0    0  0.23278779645E+02 -0.81972692263E+02  0.26683859975E+02  0.15361346535E+03  0.12499457787E+03 0.  0.
          5    1    3    3  502    0  0.62019919063E+02 -0.47997499340E+02 -0.23018363478E+02  0.81866753696E+02  0.47000000000E+01 0.  1.
         -5    1    3    3    0  502 -0.38741139418E+02 -0.33975192923E+02  0.49702223454E+02  0.71746711659E+02  0.47000000000E+01 0.  1.
        -11    1    1    2    0    0 -0.32411959283E+02  0.43677729407E+02 -0.12637211469E+02  0.55838859806E+02  0.00000000000E+00 0. -1.
         11    1    1    2    0    0  0.91331796381E+01  0.38294962856E+02  0.90516714826E+02  0.98707622873E+02  0.00000000000E+00 0.  1.
<mgrwt>
<rscale>  0 0.14662017E+03</rscale>
<asrwt>0</asrwt>
<pdfrwt beam="2">  1        1 0.15661276E-01 0.15127812E+03</pdfrwt>
<pdfrwt beam="1">  1       -1 0.31747947E-01 0.15127812E+03</pdfrwt>
<totfact> 0.31621995E+03</totfact>
</mgrwt>
</event>
<event>
 7    1  0.6445356E-006  0.1255140E+03  0.7546771E-02  0.1249564E+00
         -1   -1    0    0    0  501 -0.00000000000E+00  0.00000000000E+00  0.24311231492E+02  0.24311231492E+02  0.00000000000E+00 0.  1.
          1   -1    0    0  501    0  0.00000000000E+00 -0.00000000000E+00 -0.61298030726E+03  0.61298030726E+03  0.00000000000E+00 0. -1.
         23    2    1    2    0    0 -0.34562865769E+01 -0.10808509668E+02 -0.47339367441E+03  0.48975028441E+03  0.12500000123E+03 0.  0.
          5    1    3    3  502    0 -0.87629461948E+01  0.55811480908E+02 -0.25903995145E+03  0.26517069422E+03  0.47000000000E+01 0.  1.
         -5    1    3    3    0  502  0.53066596180E+01 -0.66619990576E+02 -0.21435372296E+03  0.22457959018E+03  0.47000000000E+01 0.  1.
        -11    1    1    2    0    0 -0.43199390586E+01 -0.38429097014E+02 -0.30727843926E+02  0.49392891829E+02  0.00000000000E+00 0.  1.
         11    1    1    2    0    0  0.77762256355E+01  0.49237606682E+02 -0.84547557433E+02  0.98148362517E+02  0.00000000000E+00 0. -1.
<mgrwt>
<rscale>  0 0.11616323E+03</rscale>
<asrwt>0</asrwt>
<pdfrwt beam="2">  1        1 0.94304669E-01 0.12551402E+03</pdfrwt>
<pdfrwt beam="1">  1       -1 0.37401892E-02 0.12551402E+03</pdfrwt>
<totfact> 0.88388411E+03</totfact>
</mgrwt>
</event>
<event>
 7    1  0.6419647E-006  0.1248376E+03  0.7546771E-02  0.1250394E+00
         -2   -1    0    0    0  501 -0.00000000000E+00  0.00000000000E+00  0.17640628330E+02  0.17640628330E+02  0.00000000000E+00 0.  1.
          2   -1    0    0  501    0  0.00000000000E+00 -0.00000000000E+00 -0.87514284711E+03  0.87514284711E+03  0.00000000000E+00 0. -1.
         23    2    1    2    0    0 -0.64972903798E+00 -0.28160399134E+01 -0.69408922167E+03  0.70522639519E+03  0.12480412098E+03 0.  0.
          5    1    3    3  502    0 -0.57336160531E+02  0.23522783023E+02 -0.34327343506E+03  0.34885455113E+03  0.47000000000E+01 0. -1.
         -5    1    3    3    0  502  0.56686431493E+02 -0.26338822936E+02 -0.35081578660E+03  0.35637184406E+03  0.47000000000E+01 0.  1.
        -11    1    1    2    0    0  0.33730271963E+02  0.28347776518E+02 -0.11742651857E+03  0.12542055232E+03  0.00000000000E+00 0.  1.
         11    1    1    2    0    0 -0.33080542926E+02 -0.25531736604E+02 -0.45986478546E+02  0.62136527931E+02  0.00000000000E+00 0. -1.
<mgrwt>
<rscale>  0 0.11568288E+03</rscale>
<asrwt>0</asrwt>
<pdfrwt beam="2">  1        2 0.13463739E+00 0.12483758E+03</pdfrwt>
<pdfrwt beam="1">  1       -2 0.27139423E-02 0.12483758E+03</pdfrwt>
<totfact> 0.14734296E+04</totfact>
</mgrwt>
</event>
<event>
 7    1  0.6419647E-006  0.1363760E+03  0.7546771E-02  0.1248911E+00
          2   -1    0    0  501    0  0.00000000000E+00  0.00000000000E+00  0.12200516027E+03  0.12200516027E+03  0.00000000000E+00 0.  1.
         -2   -1    0    0    0  501 -0.00000000000E+00 -0.00000000000E+00 -0.10133257065E+03  0.10133257065E+03  0.00000000000E+00 0. -1.
         23    2    1    2    0    0 -0.31222306043E+02 -0.44709302664E+02  0.49525721577E+02  0.14509036647E+03  0.12499865281E+03 0.  0.
          5    1    3    3  502    0  0.29371229176E+02 -0.65598730196E+02  0.23641470204E+02  0.75808123707E+02  0.47000000000E+01 0.  1.
         -5    1    3    3    0  502 -0.60593535219E+02  0.20889427532E+02  0.25884251373E+02  0.69282242762E+02  0.47000000000E+01 0.  1.
        -11    1    1    2    0    0  0.90261596606E+01  0.44710800896E+02 -0.53591726919E+01  0.45926550131E+02  0.00000000000E+00 0. -1.
         11    1    1    2    0    0  0.22196146383E+02 -0.14982325484E-02 -0.23493959259E+02  0.32320814317E+02  0.00000000000E+00 0.  1.
<mgrwt>
<rscale>  0 0.11654321E+03</rscale>
<asrwt>0</asrwt>
<pdfrwt beam="1">  1        2 0.18770025E-01 0.13637601E+03</pdfrwt>
<pdfrwt beam="2">  1       -2 0.15589626E-01 0.13637601E+03</pdfrwt>
<totfact> 0.90447811E+03</totfact>
</mgrwt>
</event>
<event>
 6    1  0.6419647E-006  0.1585054E+03  0.7546771E-02  0.1215488E+00
         -1   -1    0    0    0  501 -0.00000000000E+00  0.00000000000E+00  0.19615937526E+03  0.19615937526E+03  0.00000000000E+00 0.  1.
          1   -1    0    0  501    0  0.00000000000E+00 -0.00000000000E+00 -0.84895718355E+02  0.84895718355E+02  0.00000000000E+00 0. -1.
          5    1    1    2  502    0  0.11289763701E+02 -0.76190445878E+02 -0.17080225022E+02  0.79033327744E+02  0.47000000000E+01 0. -1.
         -5    1    1    2    0  502 -0.17084217322E+02  0.61331175469E+02  0.54238728533E+02  0.83769405147E+02  0.47000000000E+01 0.  1.
        -11    1    1    2    0    0  0.38715991749E+02  0.83394988907E+01  0.31118684290E+01  0.39726049186E+02  0.00000000000E+00 0.  1.
         11    1    1    2    0    0 -0.32921538127E+02  0.65197715186E+01  0.70993284961E+02  0.78526311532E+02  0.00000000000E+00 0. -1.
<mgrwt>
<rscale>  0 0.13840752E+03</rscale>
<asrwt>0</asrwt>
<pdfrwt beam="2">  1        1 0.13060880E-01 0.15850544E+03</pdfrwt>
<pdfrwt beam="1">  1       -1 0.30178365E-01 0.15850544E+03</pdfrwt>
<totfact> 0.43763825E+03</totfact>
</mgrwt>
</event>
<event>
 7    1  0.6419647E-006  0.1415672E+03  0.7546771E-02  0.1221890E+00
          1   -1    0    0  501    0  0.00000000000E+00  0.00000000000E+00  0.33386711743E+02  0.33386711743E+02  0.00000000000E+00 0. -1.
         -1   -1    0    0    0  501 -0.00000000000E+00 -0.00000000000E+00 -0.48639100215E+03  0.48639100215E+03  0.00000000000E+00 0.  1.
         23    2    1    2    0    0 -0.47854731147E+01 -0.66279299217E+02 -0.24027349090E+03  0.27887741388E+03  0.12500166113E+03 0.  0.
          5    1    3    3  502    0 -0.47786487579E+02 -0.93065839488E+00 -0.15849167828E+03  0.16560832287E+03  0.47000000000E+01 0.  1.
         -5    1    3    3    0  502  0.43001014465E+02 -0.65348640822E+02 -0.81781812623E+02  0.11326909101E+03  0.47000000000E+01 0.  1.
        -11    1    1    2    0    0  0.31520374229E+02  0.76788853596E+02 -0.14081226976E+03  0.16345689751E+03  0.00000000000E+00 0. -1.
         11    1    1    2    0    0 -0.26734901115E+02 -0.10509554379E+02 -0.71918529739E+02  0.77443402499E+02  0.00000000000E+00 0.  1.
<mgrwt>
<rscale>  0 0.13382343E+03</rscale>
<asrwt>0</asrwt>
<pdfrwt beam="1">  1        1 0.51364183E-02 0.14156716E+03</pdfrwt>
<pdfrwt beam="2">  1       -1 0.74829369E-01 0.14156716E+03</pdfrwt>
<totfact> 0.29024645E+03</totfact>
</mgrwt>
</event>
<event>
 7    1  0.6419647E-006  0.1494707E+03  0.7546771E-02  0.1209782E+00
         -1   -1    0    0    0  501 -0.00000000000E+00  0.00000000000E+00  0.26405385960E+02  0.26405385960E+02  0.00000000000E+00 0.  1.
          1   -1    0    0  501    0  0.00000000000E+00 -0.00000000000E+00 -0.84595697598E+03  0.84595697598E+03  0.00000000000E+00 0. -1.
         23    2    1    2    0    0 -0.67317439065E+02  0.46754282822E+02 -0.61690331918E+03  0.63475286680E+03  0.12499558446E+03 0.  0.
          5    1    3    3  502    0 -0.36911390002E+02  0.52681741422E+02 -0.58982365456E+03  0.59333957400E+03  0.47000000000E+01 0. -1.
         -5    1    3    3    0  502 -0.30406049063E+02 -0.59274586007E+01 -0.27079664615E+02  0.41413292802E+02  0.47000000000E+01 0. -1.
        -11    1    1    2    0    0  0.39685178353E+02  0.24008390482E+02 -0.96617800312E+02  0.10717422979E+03  0.00000000000E+00 0. -1.
         11    1    1    2    0    0  0.27632260712E+02 -0.70762673304E+02 -0.10603047053E+03  0.13043526535E+03  0.00000000000E+00 0.  1.
<mgrwt>
<rscale>  0 0.14266873E+03</rscale>
<asrwt>0</asrwt>
<pdfrwt beam="2">  1        1 0.13014725E+00 0.14947072E+03</pdfrwt>
<pdfrwt beam="1">  1       -1 0.40623665E-02 0.14947072E+03</pdfrwt>
<totfact> 0.49553256E+03</totfact>
</mgrwt>
</event>
<event>
 7    1  0.6419647E-006  0.1450095E+03  0.7546771E-02  0.1216661E+00
         -1   -1    0    0    0  501 -0.00000000000E+00  0.00000000000E+00  0.13147496584E+02  0.13147496584E+02  0.00000000000E+00 0.  1.
          1   -1    0    0  501    0  0.00000000000E+00 -0.00000000000E+00 -0.18259083746E+04  0.18259083746E+04  0.00000000000E+00 0. -1.
         23    2    1    2    0    0 -0.47019594250E+02  0.56495534350E+02 -0.14618889408E+04  0.14690633183E+04  0.12500068112E+03 0.  0.
          5    1    3    3  502    0 -0.39367494729E+01 -0.29788762853E+02 -0.12326394344E+03  0.12696045896E+03  0.47000000000E+01 0.  1.
         -5    1    3    3    0  502 -0.43082844777E+02  0.86284297203E+02 -0.13386249974E+04  0.13421028593E+04  0.47000000000E+01 0.  1.
        -11    1    1    2    0    0 -0.18823991925E+02  0.76038989501E+01 -0.11639429483E+03  0.11815157138E+03  0.00000000000E+00 0. -1.
         11    1    1    2    0    0  0.65843586175E+02 -0.64099433300E+02 -0.23447764245E+03  0.25184098157E+03  0.00000000000E+00 0.  1.
<mgrwt>
<rscale>  0 0.13755197E+03</rscale>
<asrwt>0</asrwt>
<pdfrwt beam="2">  1        1 0.28090894E+00 0.14500951E+03</pdfrwt>
<pdfrwt beam="1">  1       -1 0.20226921E-02 0.14500951E+03</pdfrwt>
<totfact> 0.29397804E+03</totfact>
</mgrwt>
</event>
<event>
 7    1  0.6419647E-006  0.1459182E+03  0.7546771E-02  0.1215897E+00
         -2   -1    0    0    0  501 -0.00000000000E+00  0.00000000000E+00  0.90864444931E+02  0.90864444931E+02  0.00000000000E+00 0.  1.
          2   -1    0    0  501    0  0.00000000000E+00 -0.00000000000E+00 -0.19033374917E+03  0.19033374917E+03  0.00000000000E+00 0. -1.
         23    2    1    2    0    0 -0.42228097151E+02  0.62327212310E+02 -0.55191868507E+02  0.15600729619E+03  0.12499696209E+03 0.  0.
          5    1    3    3  502    0 -0.14616895016E+02  0.61566385054E+02 -0.90752498044E+02  0.11073472486E+03  0.47000000000E+01 0.  1.
         -5    1    3    3    0  502 -0.27611202134E+02  0.76082725530E+00  0.35560629537E+02  0.45272571326E+02  0.47000000000E+01 0.  1.
        -11    1    1    2    0    0  0.67470325548E+02 -0.42523302511E+02 -0.13797735400E+02  0.80937343595E+02  0.00000000000E+00 0.  1.
         11    1    1    2    0    0 -0.25242228397E+02 -0.19803909798E+02 -0.30479700333E+02  0.44253554322E+02  0.00000000000E+00 0. -1.
<mgrwt>
<rscale>  0 0.13810865E+03</rscale>
<asrwt>0</asrwt>
<pdfrwt beam="2">  1        2 0.29282116E-01 0.14591824E+03</pdfrwt>
<pdfrwt beam="1">  1       -2 0.13979145E-01 0.14591824E+03</pdfrwt>
<totfact> 0.66217807E+03</totfact>
</mgrwt>
</event>
<event>
 7    1  0.6419647E-006  0.1259135E+03  0.7546771E-02  0.1244808E+00
         -2   -1    0    0    0  501 -0.00000000000E+00  0.00000000000E+00  0.24424935219E+02  0.24424935219E+02  0.00000000000E+00 0.  1.
          2   -1    0    0  501    0  0.00000000000E+00 -0.00000000000E+00 -0.56119195999E+03  0.56119195999E+03  0.00000000000E+00 0. -1.
         23    2    1    2    0    0  0.68215025553E+01 -0.13452945020E+02 -0.37162163106E+03  0.39237335584E+03  0.12500679613E+03 0.  0.
          5    1    3    3  502    0 -0.35817444237E+02 -0.25043897478E+01 -0.32877349926E+03  0.33076164393E+03  0.47000000000E+01 0. -1.
         -5    1    3    3    0  502  0.42638946793E+02 -0.10948555272E+02 -0.42848131796E+02  0.61611711910E+02  0.47000000000E+01 0. -1.
        -11    1    1    2    0    0 -0.31982906223E+02  0.22964236037E+02 -0.17360886392E+02  0.43030951693E+02  0.00000000000E+00 0.  1.
         11    1    1    2    0    0  0.25161403668E+02 -0.95112910169E+01 -0.14778450732E+03  0.15021258768E+03  0.00000000000E+00 0. -1.
<mgrwt>
<rscale>  0 0.11896886E+03</rscale>
<asrwt>0</asrwt>
<pdfrwt beam="2">  1        2 0.86337222E-01 0.12591352E+03</pdfrwt>
<pdfrwt beam="1">  1       -2 0.37576824E-02 0.12591352E+03</pdfrwt>
<totfact> 0.15502779E+04</totfact>
</mgrwt>
</event>
<event>
 7    1  0.6419647E-006  0.1396144E+03  0.7546771E-02  0.1226135E+00
         -2   -1    0    0    0  501 -0.00000000000E+00  0.00000000000E+00  0.45321274708E+02  0.45321274708E+02  0.00000000000E+00 0. -1.
          2   -1    0    0  501    0  0.00000000000E+00 -0.00000000000E+00 -0.41633498617E+03  0.41633498617E+03  0.00000000000E+00 0.  1.
         23    2    1    2    0    0 -0.60771612574E+02  0.13200193482E+02 -0.30436523596E+03  0.33485875713E+03  0.12499902546E+03 0.  0.
          5    1    3    3  502    0 -0.19358515656E+02  0.19505869517E+02 -0.29649439920E+00  0.27882054856E+02  0.47000000000E+01 0. -1.
         -5    1    3    3    0  502 -0.41413096918E+02 -0.63056760351E+01 -0.30406874156E+03  0.30697670228E+03  0.47000000000E+01 0. -1.
        -11    1    1    2    0    0  0.68694479385E+02 -0.40281410669E+02 -0.50233147227E+02  0.94153558742E+02  0.00000000000E+00 0. -1.
         11    1    1    2    0    0 -0.79228668105E+01  0.27081217186E+02 -0.16415328268E+02  0.32643944996E+02  0.00000000000E+00 0.  1.
<mgrwt>
<rscale>  0 0.13089446E+03</rscale>
<asrwt>0</asrwt>
<pdfrwt beam="2">  1        2 0.64051536E-01 0.13961443E+03</pdfrwt>
<pdfrwt beam="1">  1       -2 0.69725038E-02 0.13961443E+03</pdfrwt>
<totfact> 0.85470032E+03</totfact>
</mgrwt>
</event>
<event>
 7    1  0.6419647E-006  0.1227065E+03  0.7546771E-02  0.1296806E+00
          2   -1    0    0  501    0  0.00000000000E+00  0.00000000000E+00  0.27844539456E+03  0.27844539456E+03  0.00000000000E+00 0. -1.
         -2   -1    0    0    0  501 -0.00000000000E+00 -0.00000000000E+00 -0.25138355736E+02  0.25138355736E+02  0.00000000000E+00 0.  1.
         23    2    1    2    0    0 -0.30857086800E+02  0.66390506858E+01  0.21936636745E+03  0.25135331024E+03  0.11857759738E+03 0.  0.
          5    1    3    3  502    0  0.35698907775E+02 -0.14826495212E+02  0.14071441352E+03  0.14600299021E+03  0.47000000000E+01 0. -1.
         -5    1    3    3    0  502 -0.66555994575E+02  0.21465545897E+02  0.78651953927E+02  0.10535032003E+03  0.47000000000E+01 0.  1.
        -11    1    1    2    0    0  0.16990900906E+02  0.63092191101E+01  0.73329438940E+01  0.19551701346E+02  0.00000000000E+00 0.  1.
         11    1    1    2    0    0  0.13866185894E+02 -0.12948269796E+02  0.26607727486E+02  0.32678738714E+02  0.00000000000E+00 0. -1.
<mgrwt>
<rscale>  0 0.92543708E+02</rscale>
<asrwt>0</asrwt>
<pdfrwt beam="1">  1        2 0.42837751E-01 0.12270649E+03</pdfrwt>
<pdfrwt beam="2">  1       -2 0.38674395E-02 0.12270649E+03</pdfrwt>
<totfact> 0.31427500E+04</totfact>
</mgrwt>
</event>
<event>
 7    1  0.6419647E-006  0.1313862E+03  0.7546771E-02  0.1238151E+00
         -1   -1    0    0    0  501 -0.00000000000E+00  0.00000000000E+00  0.61651062990E+02  0.61651062990E+02  0.00000000000E+00 0.  1.
          1   -1    0    0  501    0  0.00000000000E+00 -0.00000000000E+00 -0.34149966300E+03  0.34149966300E+03  0.00000000000E+00 0. -1.
         23    2    1    2    0    0 -0.39287691113E+02  0.96884020922E+01 -0.27163198013E+03  0.30173875793E+03  0.12499983040E+03 0.  0.
          5    1    3    3  502    0 -0.20963759050E+02 -0.39244387457E+02 -0.23124050031E+03  0.23552889445E+03  0.47000000000E+01 0.  1.
         -5    1    3    3    0  502 -0.18323932063E+02  0.48932789549E+02 -0.40391479828E+02  0.66209863480E+02  0.47000000000E+01 0.  1.
        -11    1    1    2    0    0  0.15470732591E+02  0.22291549676E+02  0.33894657966E+02  0.43417791198E+02  0.00000000000E+00 0.  1.
         11    1    1    2    0    0  0.23816958521E+02 -0.31979951768E+02 -0.42111277845E+02  0.57994176863E+02  0.00000000000E+00 0. -1.
<mgrwt>
<rscale>  0 0.12304874E+03</rscale>
<asrwt>0</asrwt>
<pdfrwt beam="2">  1        1 0.52538409E-01 0.13138625E+03</pdfrwt>
<pdfrwt beam="1">  1       -1 0.94847790E-02 0.13138625E+03</pdfrwt>
<totfact> 0.47161012E+03</totfact>
</mgrwt>
</event>
<event>
 7    1  0.6419647E-006  0.1345058E+03  0.7546771E-02  0.1233445E+00
          2   -1    0    0  501    0  0.00000000000E+00  0.00000000000E+00  0.20142537823E+03  0.20142537823E+03  0.00000000000E+00 0. -1.
         -2   -1    0    0    0  501 -0.00000000000E+00 -0.00000000000E+00 -0.75654034546E+02  0.75654034546E+02  0.00000000000E+00 0.  1.
         23    2    1    2    0    0  0.28548030175E+02 -0.40668555008E+02  0.10653643590E+03  0.17158623205E+03  0.12499160556E+03 0.  0.
          5    1    3    3  502    0 -0.35695675211E+02 -0.54307746953E+02  0.33549073054E+02  0.73288081641E+02  0.47000000000E+01 0. -1.
         -5    1    3    3    0  502  0.64243705385E+02  0.13639191945E+02  0.72987362845E+02  0.98298150408E+02  0.47000000000E+01 0. -1.
        -11    1    1    2    0    0 -0.57964310607E+02  0.45733886829E+02  0.12340732365E+02  0.74858155093E+02  0.00000000000E+00 0. -1.
         11    1    1    2    0    0  0.29416280432E+02 -0.50653318205E+01  0.68941754190E+01  0.30635025634E+02  0.00000000000E+00 0.  1.
<mgrwt>
<rscale>  0 0.12604525E+03</rscale>
<asrwt>0</asrwt>
<pdfrwt beam="1">  1        2 0.30988520E-01 0.13450585E+03</pdfrwt>
<pdfrwt beam="2">  1       -2 0.11639082E-01 0.13450585E+03</pdfrwt>
<totfact> 0.83135617E+03</totfact>
</mgrwt>
</event>
<event>
 7    1  0.6419647E-006  0.1359521E+03  0.7546771E-02  0.1230320E+00
         -1   -1    0    0    0  501 -0.00000000000E+00  0.00000000000E+00  0.17882898097E+02  0.17882898097E+02  0.00000000000E+00 0.  1.
          1   -1    0    0  501    0  0.00000000000E+00 -0.00000000000E+00 -0.99034272397E+03  0.99034272397E+03  0.00000000000E+00 0. -1.
         23    2    1    2    0    0  0.52624336610E+02 -0.94544188961E+01 -0.73847166940E+03  0.75088173805E+03  0.12499708472E+03 0.  0.
          5    1    3    3  502    0  0.46410670583E+02  0.39104540622E+02 -0.17531388012E+03  0.18558060784E+03  0.47000000000E+01 0. -1.
         -5    1    3    3    0  502  0.62136660270E+01 -0.48558959518E+02 -0.56315778928E+03  0.56530113021E+03  0.47000000000E+01 0. -1.
        -11    1    1    2    0    0  0.10380948456E+02  0.34439859607E+02 -0.11394526722E+03  0.11948804100E+03  0.00000000000E+00 0. -1.
         11    1    1    2    0    0 -0.63005285065E+02 -0.24985440711E+02 -0.12004288926E+03  0.13785584302E+03  0.00000000000E+00 0.  1.
<mgrwt>
<rscale>  0 0.12808862E+03</rscale>
<asrwt>0</asrwt>
<pdfrwt beam="2">  1        1 0.15236047E+00 0.13595212E+03</pdfrwt>
<pdfrwt beam="1">  1       -1 0.27512142E-02 0.13595212E+03</pdfrwt>
<totfact> 0.67694687E+03</totfact>
</mgrwt>
</event>
<event>
 7    1  0.6419647E-006  0.1421240E+03  0.7546771E-02  0.1221217E+00
          2   -1    0    0  501    0  0.00000000000E+00  0.00000000000E+00  0.11321154886E+03  0.11321154886E+03  0.00000000000E+00 0. -1.
         -2   -1    0    0    0  501 -0.00000000000E+00 -0.00000000000E+00 -0.16859858959E+03  0.16859858959E+03  0.00000000000E+00 0.  1.
         23    2    1    2    0    0  0.24415569219E+02 -0.63065545962E+02  0.23080996473E+02  0.14398597067E+03  0.12500337694E+03 0.  0.
          5    1    3    3  502    0 -0.45897412763E+02 -0.46215087153E+02  0.28659093618E+02  0.71315078531E+02  0.47000000000E+01 0.  1.
         -5    1    3    3    0  502  0.70312981982E+02 -0.16850458809E+02 -0.55780971452E+01  0.72670892144E+02  0.47000000000E+01 0.  1.
        -11    1    1    2    0    0  0.30578668209E+02  0.31607695308E+02 -0.54629578313E+02  0.70131962605E+02  0.00000000000E+00 0.  1.
         11    1    1    2    0    0 -0.54994237428E+02  0.31457850654E+02 -0.23838458897E+02  0.67692205169E+02  0.00000000000E+00 0. -1.
<mgrwt>
<rscale>  0 0.13429624E+03</rscale>
<asrwt>0</asrwt>
<pdfrwt beam="1">  1        2 0.17417161E-01 0.14212399E+03</pdfrwt>
<pdfrwt beam="2">  1       -2 0.25938245E-01 0.14212399E+03</pdfrwt>
<totfact> 0.41674059E+03</totfact>
</mgrwt>
</event>
<event>
 7    1  0.6419647E-006  0.1251521E+03  0.7546771E-02  0.1250369E+00
         -3   -1    0    0    0  501 -0.00000000000E+00  0.00000000000E+00  0.34404806328E+03  0.34404806328E+03  0.00000000000E+00 0.  1.
          3   -1    0    0  501    0  0.00000000000E+00 -0.00000000000E+00 -0.15954333967E+03  0.15954333967E+03  0.00000000000E+00 0. -1.
         23    2    1    2    0    0  0.84341667606E+01 -0.94050531202E+01 -0.12738841629E+03  0.17858012215E+03  0.12451289583E+03 0.  0.
          5    1    3    3  502    0 -0.25740248470E+02 -0.13243242270E+02 -0.13893854058E+03  0.14199983069E+03  0.47000000000E+01 0. -1.
         -5    1    3    3    0  502  0.34174415230E+02  0.38381891496E+01  0.11550124289E+02  0.36580291461E+02  0.47000000000E+01 0.  1.
        -11    1    1    2    0    0  0.30278327032E+02 -0.24259670698E+02  0.16201846599E+03  0.16659919577E+03  0.00000000000E+00 0. -1.
         11    1    1    2    0    0 -0.38712493792E+02  0.33664723818E+02  0.14987467390E+03  0.15841208503E+03  0.00000000000E+00 0.  1.
<mgrwt>
<rscale>  0 0.11569696E+03</rscale>
<asrwt>0</asrwt>
<pdfrwt beam="2">  1        3 0.24545129E-01 0.12515211E+03</pdfrwt>
<pdfrwt beam="1">  1       -3 0.52930471E-01 0.12515211E+03</pdfrwt>
<totfact> 0.12855710E+02</totfact>
</mgrwt>
</event>
<event>
 7    1  0.6419647E-006  0.1536974E+03  0.7546771E-02  0.1204880E+00
         -1   -1    0    0    0  501 -0.00000000000E+00  0.00000000000E+00  0.67868057593E+02  0.67868057593E+02  0.00000000000E+00 0.  1.
          1   -1    0    0  501    0  0.00000000000E+00 -0.00000000000E+00 -0.29617875164E+03  0.29617875164E+03  0.00000000000E+00 0. -1.
         23    2    1    2    0    0  0.73880153019E+02  0.50395093980E+02 -0.15158945661E+03  0.21587557621E+03  0.12499983415E+03 0.  0.
          5    1    3    3  502    0 -0.23278075293E+02  0.86546441731E+01 -0.89847771040E+02  0.93335328874E+02  0.47000000000E+01 0.  1.
         -5    1    3    3    0  502  0.97158228312E+02  0.41740449807E+02 -0.61741685572E+02  0.12254024733E+03  0.47000000000E+01 0.  1.
        -11    1    1    2    0    0 -0.60502432881E+02  0.13061981938E+02 -0.36380471117E+02  0.71796228559E+02  0.00000000000E+00 0.  1.
         11    1    1    2    0    0 -0.13377720139E+02 -0.63457075918E+02 -0.40340766315E+02  0.76375004465E+02  0.00000000000E+00 0. -1.
<mgrwt>
<rscale>  0 0.14646947E+03</rscale>
<asrwt>0</asrwt>
<pdfrwt beam="2">  1        1 0.45565963E-01 0.15369743E+03</pdfrwt>
<pdfrwt beam="1">  1       -1 0.10441239E-01 0.15369743E+03</pdfrwt>
<totfact> 0.49023812E+03</totfact>
</mgrwt>
</event>
<event>
 7    1  0.6419647E-006  0.1415698E+03  0.7546771E-02  0.1221717E+00
         -2   -1    0    0    0  501 -0.00000000000E+00  0.00000000000E+00  0.87042507642E+02  0.87042507642E+02  0.00000000000E+00 0.  1.
          2   -1    0    0  501    0  0.00000000000E+00 -0.00000000000E+00 -0.26033361626E+03  0.26033361626E+03  0.00000000000E+00 0. -1.
         23    2    1    2    0    0 -0.49853161967E+02  0.43958106907E+02 -0.18541536677E+03  0.23328278375E+03  0.12499738413E+03 0.  0.
          5    1    3    3  502    0 -0.20636395389E+02 -0.42916601680E+02 -0.82639233866E+02  0.95493604436E+02  0.47000000000E+01 0.  1.
         -5    1    3    3    0  502 -0.29216766578E+02  0.86874708586E+02 -0.10277613290E+03  0.13778917931E+03  0.47000000000E+01 0.  1.
        -11    1    1    2    0    0  0.12846556565E+02  0.17651813304E+02 -0.25008975831E+02  0.33197430633E+02  0.00000000000E+00 0. -1.
         11    1    1    2    0    0  0.37006605402E+02 -0.61609920211E+02  0.37133233979E+02  0.80895909523E+02  0.00000000000E+00 0.  1.
<mgrwt>
<rscale>  0 0.13394498E+03</rscale>
<asrwt>0</asrwt>
<pdfrwt beam="2">  1        2 0.40051325E-01 0.14156977E+03</pdfrwt>
<pdfrwt beam="1">  1       -2 0.13391155E-01 0.14156977E+03</pdfrwt>
<totfact> 0.50602622E+03</totfact>
</mgrwt>
</event>
<event>
 7    1  0.6419647E-006  0.1535766E+03  0.7546771E-02  0.1205441E+00
          1   -1    0    0  501    0  0.00000000000E+00  0.00000000000E+00  0.95779462860E+03  0.95779462860E+03  0.00000000000E+00 0. -1.
         -1   -1    0    0    0  501 -0.00000000000E+00 -0.00000000000E+00 -0.23109105143E+02  0.23109105143E+02  0.00000000000E+00 0.  1.
         23    2    1    2    0    0  0.58778800916E+02  0.67123831806E+02  0.67785675005E+03  0.69503635539E+03  0.12500082193E+03 0.  0.
          5    1    3    3  502    0  0.67551893427E+01  0.19828254250E+02  0.10372000531E+02  0.23842412727E+02  0.47000000000E+01 0.  1.
         -5    1    3    3    0  502  0.52023611574E+02  0.47295577556E+02  0.66748474952E+03  0.67119394266E+03  0.47000000000E+01 0.  1.
        -11    1    1    2    0    0  0.21531188274E+02 -0.25617133699E+02  0.91652393959E+02  0.97570440841E+02  0.00000000000E+00 0. -1.
         11    1    1    2    0    0 -0.80309989190E+02 -0.41506698107E+02  0.16517637944E+03  0.18829693751E+03  0.00000000000E+00 0.  1.
<mgrwt>
<rscale>  0 0.14602771E+03</rscale>
<asrwt>0</asrwt>
<pdfrwt beam="1">  1        1 0.14735299E+00 0.15357657E+03</pdfrwt>
<pdfrwt beam="2">  1       -1 0.35552477E-02 0.15357657E+03</pdfrwt>
<totfact> 0.49474728E+03</totfact>
</mgrwt>
</event>
<event>
 7    1  0.6419647E-006  0.1870729E+03  0.7546771E-02  0.1166129E+00
          1   -1    0    0  501    0  0.00000000000E+00  0.00000000000E+00  0.60451539470E+03  0.60451539470E+03  0.00000000000E+00 0. -1.
         -1   -1    0    0    0  501 -0.00000000000E+00 -0.00000000000E+00 -0.52167252949E+02  0.52167252949E+02  0.00000000000E+00 0.  1.
         23    2    1    2    0    0 -0.46963485380E+02  0.13101028927E+03  0.32162595758E+03  0.37207460733E+03  0.12500796766E+03 0.  0.
          5    1    3    3  502    0  0.11071489240E+02 -0.20538680542E+02  0.29902667782E+02  0.38218775659E+02  0.47000000000E+01 0.  1.
         -5    1    3    3    0  502 -0.58034974620E+02  0.15154896982E+03  0.29172328980E+03  0.33385583167E+03  0.47000000000E+01 0.  1.
        -11    1    1    2    0    0 -0.18291020854E+02 -0.63823376084E+02  0.58148872949E+02  0.88256876242E+02  0.00000000000E+00 0.  1.
         11    1    1    2    0    0  0.65254506234E+02 -0.67186913191E+02  0.17257331123E+03  0.19635116408E+03  0.00000000000E+00 0. -1.
<mgrwt>
<rscale>  0 0.18174110E+03</rscale>
<asrwt>0</asrwt>
<pdfrwt beam="1">  1        1 0.93002363E-01 0.18707287E+03</pdfrwt>
<pdfrwt beam="2">  1       -1 0.80257317E-02 0.18707287E+03</pdfrwt>
<totfact> 0.29438455E+03</totfact>
</mgrwt>
</event>
<event>
 7    1  0.6419647E-006  0.1665072E+03  0.7546771E-02  0.1188327E+00
          4   -1    0    0  501    0  0.00000000000E+00  0.00000000000E+00  0.17619812978E+03  0.17619812978E+03  0.00000000000E+00 0.  1.
         -4   -1    0    0    0  501 -0.00000000000E+00 -0.00000000000E+00 -0.15130110510E+03  0.15130110510E+03  0.00000000000E+00 0. -1.
         23    2    1    2    0    0  0.15612102064E+02  0.10889036836E+03  0.65175585148E+02  0.17880859280E+03  0.12499522354E+03 0.  0.
          5    1    3    3  502    0  0.61936338329E+01 -0.20698749842E+02  0.40974277438E+02  0.46559432521E+02  0.47000000000E+01 0.  1.
         -5    1    3    3    0  502  0.94184682313E+01  0.12958911820E+03  0.24201307709E+02  0.13224916028E+03  0.47000000000E+01 0.  1.
        -11    1    1    2    0    0 -0.19631154942E+02 -0.25090820278E+02  0.26518633459E+02  0.41450807316E+02  0.00000000000E+00 0. -1.
         11    1    1    2    0    0  0.40190528781E+01 -0.83799548079E+02 -0.66797193927E+02  0.10723983477E+03  0.00000000000E+00 0.  1.
<mgrwt>
<rscale>  0 0.16032764E+03</rscale>
<asrwt>0</asrwt>
<pdfrwt beam="1">  1        4 0.27107405E-01 0.16650722E+03</pdfrwt>
<pdfrwt beam="2">  1       -4 0.23277093E-01 0.16650722E+03</pdfrwt>
<totfact> 0.37985952E+02</totfact>
</mgrwt>
</event>
<event>
 7    1  0.6419647E-006  0.1328488E+03  0.7546771E-02  0.1236153E+00
         -2   -1    0    0    0  501 -0.00000000000E+00  0.00000000000E+00  0.31978323130E+02  0.31978323130E+02  0.00000000000E+00 0.  1.
          2   -1    0    0  501    0  0.00000000000E+00 -0.00000000000E+00 -0.43313316895E+03  0.43313316895E+03  0.00000000000E+00 0. -1.
         23    2    1    2    0    0 -0.37688336468E+02  0.24560798215E+02 -0.24449854228E+03  0.27825947606E+03  0.12500062130E+03 0.  0.
          5    1    3    3  502    0 -0.77491617232E+02  0.95260263243E+01 -0.20723970427E+03  0.22150864756E+03  0.47000000000E+01 0.  1.
         -5    1    3    3    0  502  0.39803280765E+02  0.15034771891E+02 -0.37258838012E+02  0.56750828500E+02  0.47000000000E+01 0.  1.
        -11    1    1    2    0    0 -0.13404057942E+02 -0.38994699692E+02 -0.34890005566E+02  0.54014515288E+02  0.00000000000E+00 0.  1.
         11    1    1    2    0    0  0.51092394410E+02  0.14433901477E+02 -0.12176629797E+03  0.13283750073E+03  0.00000000000E+00 0. -1.
<mgrwt>
<rscale>  0 0.12430927E+03</rscale>
<asrwt>0</asrwt>
<pdfrwt beam="2">  1        2 0.66635873E-01 0.13284878E+03</pdfrwt>
<pdfrwt beam="1">  1       -2 0.49197420E-02 0.13284878E+03</pdfrwt>
<totfact> 0.13841511E+04</totfact>
</mgrwt>
</event>
<event>
 7    1  0.6851373E-006  0.1254246E+03  0.7546771E-02  0.1250378E+00
          1   -1    0    0  501    0  0.00000000000E+00  0.00000000000E+00  0.10773071028E+04  0.10773071028E+04  0.00000000000E+00 0. -1.
         -1   -1    0    0    0  501 -0.00000000000E+00 -0.00000000000E+00 -0.12195456039E+02  0.12195456039E+02  0.00000000000E+00 0.  1.
         23    2    1    2    0    0 -0.93966383850E+01 -0.42487157938E+01  0.78734973709E+03  0.79727720455E+03  0.12499993603E+03 0.  0.
          5    1    3    3  502    0  0.13818383504E+02 -0.37689369443E+01  0.70913294539E+01  0.16659218523E+02  0.47000000000E+01 0.  1.
         -5    1    3    3    0  502 -0.23215021889E+02 -0.47977884948E+00  0.78025840763E+03  0.78061798603E+03  0.47000000000E+01 0.  1.
        -11    1    1    2    0    0 -0.17180477576E+01  0.44549152735E+02  0.18788002569E+03  0.19309708115E+03  0.00000000000E+00 0. -1.
         11    1    1    2    0    0  0.11114686143E+02 -0.40300436942E+02  0.89881883997E+02  0.99128273144E+02  0.00000000000E+00 0.  1.
<mgrwt>
<rscale>  0 0.11569223E+03</rscale>
<asrwt>0</asrwt>
<pdfrwt beam="1">  1        1 0.16573948E+00 0.12542461E+03</pdfrwt>
<pdfrwt beam="2">  1       -1 0.18762249E-02 0.12542461E+03</pdfrwt>
<totfact> 0.10144422E+04</totfact>
</mgrwt>
</event>
<event>
 7    1  0.6419647E-006  0.1427700E+03  0.7546771E-02  0.1220443E+00
         -2   -1    0    0    0  501 -0.00000000000E+00  0.00000000000E+00  0.13692685140E+03  0.13692685140E+03  0.00000000000E+00 0.  1.
          2   -1    0    0  501    0  0.00000000000E+00 -0.00000000000E+00 -0.12176262317E+03  0.12176262317E+03  0.00000000000E+00 0. -1.
         23    2    1    2    0    0 -0.39025360401E+02 -0.56875087005E+02  0.23877905820E+02  0.14475299459E+03  0.12500208311E+03 0.  0.
          5    1    3    3  502    0  0.11728631995E+02 -0.62503556178E+02 -0.29912527058E+02  0.70435109274E+02  0.47000000000E+01 0.  1.
         -5    1    3    3    0  502 -0.50753992396E+02  0.56284691732E+01  0.53790432878E+02  0.74317885321E+02  0.47000000000E+01 0.  1.
        -11    1    1    2    0    0  0.31596282588E+02  0.14335996431E+02  0.37225192297E+02  0.50887727485E+02  0.00000000000E+00 0.  1.
         11    1    1    2    0    0  0.74290778130E+01  0.42539090574E+02 -0.45938869884E+02  0.63048752488E+02  0.00000000000E+00 0. -1.
<mgrwt>
<rscale>  0 0.13484194E+03</rscale>
<asrwt>0</asrwt>
<pdfrwt beam="2">  1        2 0.18732711E-01 0.14277001E+03</pdfrwt>
<pdfrwt beam="1">  1       -2 0.21065670E-01 0.14277001E+03</pdfrwt>
<totfact> 0.54976040E+03</totfact>
</mgrwt>
</event>
<event>
 7    1  0.6419647E-006  0.1455939E+03  0.7546771E-02  0.1215755E+00
         -2   -1    0    0    0  501 -0.00000000000E+00  0.00000000000E+00  0.27765176486E+03  0.27765176486E+03  0.00000000000E+00 0.  1.
          2   -1    0    0  501    0  0.00000000000E+00 -0.00000000000E+00 -0.66704581964E+02  0.66704581964E+02  0.00000000000E+00 0. -1.
         23    2    1    2    0    0 -0.72987562732E+02 -0.15603446800E+02  0.73642395061E+02  0.16315877474E+03  0.12500772600E+03 0.  0.
          5    1    3    3  502    0 -0.68693970317E+02  0.90337696816E+01 -0.14906180643E+02  0.71026437148E+02  0.47000000000E+01 0.  1.
         -5    1    3    3    0  502 -0.42935924155E+01 -0.24637216482E+02  0.88548575704E+02  0.92132337597E+02  0.47000000000E+01 0.  1.
        -11    1    1    2    0    0 -0.89160933930E+01  0.32795973860E+02  0.47935066911E+02  0.58760899096E+02  0.00000000000E+00 0.  1.
         11    1    1    2    0    0  0.81903656126E+02 -0.17192527059E+02  0.89369720927E+02  0.12243667299E+03  0.00000000000E+00 0. -1.
<mgrwt>
<rscale>  0 0.13821195E+03</rscale>
<asrwt>0</asrwt>
<pdfrwt beam="2">  1        2 0.10262244E-01 0.14559390E+03</pdfrwt>
<pdfrwt beam="1">  1       -2 0.42715655E-01 0.14559390E+03</pdfrwt>
<totfact> 0.31345118E+03</totfact>
</mgrwt>
</event>
<event>
 7    1  0.6419647E-006  0.1608423E+03  0.7546771E-02  0.1194839E+00
          1   -1    0    0  501    0  0.00000000000E+00  0.00000000000E+00  0.56159729087E+03  0.56159729087E+03  0.00000000000E+00 0. -1.
         -1   -1    0    0    0  501 -0.00000000000E+00 -0.00000000000E+00 -0.55957764084E+02  0.55957764084E+02  0.00000000000E+00 0.  1.
         23    2    1    2    0    0 -0.66143198090E+02  0.76623624821E+02  0.43316405830E+03  0.46206207502E+03  0.12499662890E+03 0.  0.
          5    1    3    3  502    0  0.53895093838E+01 -0.21195880825E+02  0.15674243517E+02  0.27314539812E+02  0.47000000000E+01 0.  1.
         -5    1    3    3    0  502 -0.71532707474E+02  0.97819505646E+02  0.41748981478E+03  0.43474753521E+03  0.47000000000E+01 0.  1.
        -11    1    1    2    0    0 -0.12351584463E+02 -0.47014677809E+02  0.47490558177E+02  0.67958036201E+02  0.00000000000E+00 0. -1.
         11    1    1    2    0    0  0.78494782554E+02 -0.29608947011E+02  0.24984910312E+02  0.87534943734E+02  0.00000000000E+00 0.  1.
<mgrwt>
<rscale>  0 0.15467882E+03</rscale>
<asrwt>0</asrwt>
<pdfrwt beam="1">  1        1 0.86399579E-01 0.16084234E+03</pdfrwt>
<pdfrwt beam="2">  1       -1 0.86088872E-02 0.16084234E+03</pdfrwt>
<totfact> 0.29115033E+03</totfact>
</mgrwt>
</event>
<event>
 7    1  0.6419647E-006  0.1403093E+03  0.7546771E-02  0.1218423E+00
         -2   -1    0    0    0  501 -0.00000000000E+00  0.00000000000E+00  0.22691405431E+02  0.22691405431E+02  0.00000000000E+00 0.  1.
          2   -1    0    0  501    0  0.00000000000E+00 -0.00000000000E+00 -0.77488448434E+03  0.77488448434E+03  0.00000000000E+00 0. -1.
         23    2    1    2    0    0  0.43353619976E+02 -0.46718980401E+02 -0.40257199889E+03  0.42632253143E+03  0.12499794805E+03 0.  0.
          5    1    3    3  502    0  0.74645059072E+02 -0.31906977342E+02 -0.14376362590E+03  0.16516661339E+03  0.47000000000E+01 0. -1.
         -5    1    3    3    0  502 -0.31291439095E+02 -0.14812003059E+02 -0.25880837299E+03  0.26115591804E+03  0.47000000000E+01 0. -1.
        -11    1    1    2    0    0 -0.41006655124E+02 -0.27141798690E+02 -0.10989366524E+03  0.12039452089E+03  0.00000000000E+00 0.  1.
         11    1    1    2    0    0 -0.23469648523E+01  0.73860779091E+02 -0.23972741478E+03  0.25085883746E+03  0.00000000000E+00 0. -1.
<mgrwt>
<rscale>  0 0.13628089E+03</rscale>
<asrwt>0</asrwt>
<pdfrwt beam="2">  1        2 0.11921300E+00 0.14030925E+03</pdfrwt>
<pdfrwt beam="1">  1       -2 0.34909853E-02 0.14030925E+03</pdfrwt>
<totfact> 0.11951803E+04</totfact>
</mgrwt>
</event>
<event>
 7    1  0.6419647E-006  0.1496770E+03  0.7546771E-02  0.1209881E+00
          1   -1    0    0  501    0  0.00000000000E+00  0.00000000000E+00  0.81741158257E+03  0.81741158257E+03  0.00000000000E+00 0. -1.
         -1   -1    0    0    0  501 -0.00000000000E+00 -0.00000000000E+00 -0.23110143285E+02  0.23110143285E+02  0.00000000000E+00 0.  1.
         23    2    1    2    0    0  0.68515743139E+01 -0.82084197100E+02  0.48432540273E+03  0.50692632614E+03  0.12497377693E+03 0.  0.
          5    1    3    3  502    0  0.65338689769E+01 -0.11391663251E+03  0.32768499102E+03  0.34701474601E+03  0.47000000000E+01 0.  1.
         -5    1    3    3    0  502  0.31770533699E+00  0.31832435407E+02  0.15664041171E+03  0.15991158013E+03  0.47000000000E+01 0.  1.
        -11    1    1    2    0    0 -0.42387466817E+01 -0.20329325817E+02  0.47931639856E+02  0.52236869747E+02  0.00000000000E+00 0.  1.
         11    1    1    2    0    0 -0.26128276322E+01  0.10241352292E+03  0.26204439670E+03  0.28135852997E+03  0.00000000000E+00 0. -1.
<mgrwt>
<rscale>  0 0.14259340E+03</rscale>
<asrwt>0</asrwt>
<pdfrwt beam="1">  1        1 0.12575561E+00 0.14967700E+03</pdfrwt>
<pdfrwt beam="2">  1       -1 0.35554073E-02 0.14967700E+03</pdfrwt>
<totfact> 0.63549103E+03</totfact>
</mgrwt>
</event>
<event>
 7    1  0.6419647E-006  0.2554496E+03  0.7546771E-02  0.1112203E+00
          2   -1    0    0  501    0  0.00000000000E+00  0.00000000000E+00  0.15479119969E+04  0.15479119969E+04  0.00000000000E+00 0. -1.
         -2   -1    0    0    0  501 -0.00000000000E+00 -0.00000000000E+00 -0.39923472964E+02  0.39923472964E+02  0.00000000000E+00 0.  1.
         23    2    1    2    0    0 -0.20327890599E+03 -0.91155888894E+02  0.81979423480E+03  0.85867170774E+03  0.12499121794E+03 0.  0.
          5    1    3    3  502    0 -0.51604356988E+02  0.22917844619E+02  0.29979269550E+03  0.30509996319E+03  0.47000000000E+01 0.  1.
         -5    1    3    3    0  502 -0.15167454900E+03 -0.11407373351E+03  0.52000153930E+03  0.55357174455E+03  0.47000000000E+01 0.  1.
        -11    1    1    2    0    0  0.20539017749E+03  0.72798272433E+02  0.66318684863E+03  0.69806984584E+03  0.00000000000E+00 0.  1.
         11    1    1    2    0    0 -0.21112714985E+01  0.18357616461E+02  0.25007440532E+02  0.31093916308E+02  0.00000000000E+00 0. -1.
<mgrwt>
<rscale>  0 0.25175115E+03</rscale>
<asrwt>0</asrwt>
<pdfrwt beam="1">  1        2 0.23814026E+00 0.25544963E+03</pdfrwt>
<pdfrwt beam="2">  1       -2 0.61420739E-02 0.25544963E+03</pdfrwt>
<totfact> 0.18375689E+03</totfact>
</mgrwt>
</event>
<event>
 7    1  0.6419647E-006  0.1432998E+03  0.7546771E-02  0.1227999E+00
         -2   -1    0    0    0  501 -0.00000000000E+00  0.00000000000E+00  0.11931075076E+03  0.11931075076E+03  0.00000000000E+00 0.  1.
          2   -1    0    0  501    0  0.00000000000E+00 -0.00000000000E+00 -0.13438516412E+03  0.13438516412E+03  0.00000000000E+00 0. -1.
         23    2    1    2    0    0  0.52380978794E+02 -0.46560100419E+02 -0.49691487351E+02  0.15167098178E+03  0.12499293143E+03 0.  0.
          5    1    3    3  502    0 -0.35585432706E+02 -0.26324587877E+02 -0.41595865743E+02  0.60923008746E+02  0.47000000000E+01 0. -1.
         -5    1    3    3    0  502  0.87966411500E+02 -0.20235512542E+02 -0.80956216087E+01  0.90747973032E+02  0.47000000000E+01 0. -1.
        -11    1    1    2    0    0 -0.27311099041E+02  0.45169892409E+02  0.49894561459E+02  0.72633894115E+02  0.00000000000E+00 0. -1.
         11    1    1    2    0    0 -0.25069879753E+02  0.13902080091E+01 -0.15277487468E+02  0.29391038983E+02  0.00000000000E+00 0.  1.
<mgrwt>
<rscale>  0 0.12963465E+03</rscale>
<asrwt>0</asrwt>
<pdfrwt beam="2">  1        2 0.20674641E-01 0.14329984E+03</pdfrwt>
<pdfrwt beam="1">  1       -2 0.18355500E-01 0.14329984E+03</pdfrwt>
<totfact> 0.62057537E+03</totfact>
</mgrwt>
</event>
<event>
 7    1  0.6419647E-006  0.1141643E+03  0.7546771E-02  0.1258667E+00
         -2   -1    0    0    0  501 -0.00000000000E+00  0.00000000000E+00  0.42365536257E+02  0.42365536257E+02  0.00000000000E+00 0.  1.
          2   -1    0    0  501    0  0.00000000000E+00 -0.00000000000E+00 -0.57504562104E+03  0.57504562104E+03  0.00000000000E+00 0. -1.
         23    2    1    2    0    0  0.90808733521E+01 -0.28411470787E+02 -0.49585527056E+03  0.50882799337E+03  0.11019892724E+03 0.  0.
          5    1    3    3  502    0  0.13868630913E+02 -0.16178088637E+01 -0.47229217865E+03  0.47252190239E+03  0.47000000000E+01 0. -1.
         -5    1    3    3    0  502 -0.47877575611E+01 -0.26793661923E+02 -0.23563091909E+02  0.36306090977E+02  0.47000000000E+01 0.  1.
        -11    1    1    2    0    0  0.25739325264E+02  0.19018861754E+02  0.22524385256E+02  0.39135379116E+02  0.00000000000E+00 0. -1.
         11    1    1    2    0    0 -0.34820198616E+02  0.93926090328E+01 -0.59349199481E+02  0.69447784811E+02  0.00000000000E+00 0.  1.
<mgrwt>
<rscale>  0 0.11103380E+03</rscale>
<asrwt>0</asrwt>
<pdfrwt beam="2">  1        2 0.88468552E-01 0.11416426E+03</pdfrwt>
<pdfrwt beam="1">  1       -2 0.65177752E-02 0.11416426E+03</pdfrwt>
<totfact> 0.65706960E+03</totfact>
</mgrwt>
</event>
<event>
 7    1  0.6419647E-006  0.1254143E+03  0.7546771E-02  0.1249322E+00
         -2   -1    0    0    0  501 -0.00000000000E+00  0.00000000000E+00  0.21423336038E+03  0.21423336038E+03  0.00000000000E+00 0.  1.
          2   -1    0    0  501    0  0.00000000000E+00 -0.00000000000E+00 -0.10344716106E+03  0.10344716106E+03  0.00000000000E+00 0. -1.
         23    2    1    2    0    0  0.93483310435E+01  0.62714322705E+01 -0.47591447238E+02  0.13414059745E+03  0.12490809372E+03 0.  0.
          5    1    3    3  502    0 -0.17236204275E+02  0.12361036391E+02 -0.84929652734E+02  0.87664233710E+02  0.47000000000E+01 0. -1.
         -5    1    3    3    0  502  0.26584535318E+02 -0.60896041208E+01  0.37338205496E+02  0.46476363736E+02  0.47000000000E+01 0. -1.
        -11    1    1    2    0    0 -0.31901506096E+02  0.23840510589E+02  0.13124681580E+03  0.13715612526E+03  0.00000000000E+00 0.  1.
         11    1    1    2    0    0  0.22553175053E+02 -0.30111942859E+02  0.27130830751E+02  0.46383798734E+02  0.00000000000E+00 0. -1.
<mgrwt>
<rscale>  0 0.11630390E+03</rscale>
<asrwt>0</asrwt>
<pdfrwt beam="2">  1        2 0.15914948E-01 0.12541433E+03</pdfrwt>
<pdfrwt beam="1">  1       -2 0.32958979E-01 0.12541433E+03</pdfrwt>
<totfact> 0.29903100E+03</totfact>
</mgrwt>
</event>
<event>
 7    1  0.6419647E-006  0.2547764E+03  0.7546771E-02  0.1112709E+00
          2   -1    0    0  501    0  0.00000000000E+00  0.00000000000E+00  0.11090413408E+04  0.11090413408E+04  0.00000000000E+00 0. -1.
         -2   -1    0    0    0  501 -0.00000000000E+00 -0.00000000000E+00 -0.58587982640E+02  0.58587982640E+02  0.00000000000E+00 0.  1.
         23    2    1    2    0    0  0.66792087165E+02 -0.21171849590E+03  0.68181896350E+03  0.72786546197E+03  0.12500050930E+03 0.  0.
          5    1    3    3  502    0 -0.34716087715E+02 -0.42434604664E+02  0.11154873027E+03  0.12438292345E+03  0.47000000000E+01 0.  1.
         -5    1    3    3    0  502  0.10150817488E+03 -0.16928389123E+03  0.57027023323E+03  0.60348253853E+03  0.47000000000E+01 0.  1.
        -11    1    1    2    0    0  0.11793311739E+02  0.10260342749E+03  0.18896753492E+03  0.21534919268E+03  0.00000000000E+00 0. -1.
         11    1    1    2    0    0 -0.78585398904E+02  0.10911506841E+03  0.17966685969E+03  0.22441466874E+03  0.00000000000E+00 0.  1.
<mgrwt>
<rscale>  0 0.25094515E+03</rscale>
<asrwt>0</asrwt>
<pdfrwt beam="1">  1        2 0.17062173E+00 0.25477643E+03</pdfrwt>
<pdfrwt beam="2">  1       -2 0.90135366E-02 0.25477643E+03</pdfrwt>
<totfact> 0.17668999E+03</totfact>
</mgrwt>
</event>
<event>
 7    1  0.6419647E-006  0.1415101E+03  0.7546771E-02  0.1221853E+00
          4   -1    0    0  501    0  0.00000000000E+00  0.00000000000E+00  0.24505036374E+03  0.24505036374E+03  0.00000000000E+00 0. -1.
         -4   -1    0    0    0  501 -0.00000000000E+00 -0.00000000000E+00 -0.66306395854E+02  0.66306395854E+02  0.00000000000E+00 0.  1.
         23    2    1    2    0    0  0.31634738602E+02 -0.58311938767E+02  0.10475256566E+03  0.17606305952E+03  0.12499624805E+03 0.  0.
          5    1    3    3  502    0  0.77480094766E+02 -0.46827876004E+02  0.49806518974E+02  0.10343497662E+03  0.47000000000E+01 0. -1.
         -5    1    3    3    0  502 -0.45845356164E+02 -0.11484062763E+02  0.54946046691E+02  0.72628082904E+02  0.47000000000E+01 0. -1.
        -11    1    1    2    0    0 -0.13815908038E+02  0.78657961535E+02  0.73048709180E+02  0.10823154873E+03  0.00000000000E+00 0.  1.
         11    1    1    2    0    0 -0.17818830564E+02 -0.20346022767E+02  0.94269304322E+00  0.27062151343E+02  0.00000000000E+00 0. -1.
<mgrwt>
<rscale>  0 0.13384970E+03</rscale>
<asrwt>0</asrwt>
<pdfrwt beam="1">  1        4 0.37700056E-01 0.14151007E+03</pdfrwt>
<pdfrwt beam="2">  1       -4 0.10200984E-01 0.14151007E+03</pdfrwt>
<totfact> 0.83620835E+02</totfact>
</mgrwt>
</event>
<event>
 7    1  0.6419647E-006  0.1307342E+03  0.7546771E-02  0.1239398E+00
          2   -1    0    0  501    0  0.00000000000E+00  0.00000000000E+00  0.12768846073E+04  0.12768846073E+04  0.00000000000E+00 0. -1.
         -2   -1    0    0    0  501 -0.00000000000E+00 -0.00000000000E+00 -0.18489291600E+02  0.18489291600E+02  0.00000000000E+00 0.  1.
         23    2    1    2    0    0 -0.34930745914E+01 -0.38153649940E+02  0.11019936375E+04  0.11097213184E+04  0.12499409926E+03 0.  0.
          5    1    3    3  502    0  0.32597307909E+02 -0.40657449366E+02  0.19214687249E+03  0.19914347410E+03  0.47000000000E+01 0. -1.
         -5    1    3    3    0  502 -0.36090382501E+02  0.25037994258E+01  0.90984676499E+03  0.91057784428E+03  0.47000000000E+01 0. -1.
        -11    1    1    2    0    0  0.14595924444E+02 -0.14729496872E+02  0.59862821704E+00  0.20745058308E+02  0.00000000000E+00 0.  1.
         11    1    1    2    0    0 -0.11102849852E+02  0.52883146813E+02  0.15580305004E+03  0.16490752225E+03  0.00000000000E+00 0. -1.
<mgrwt>
<rscale>  0 0.12227035E+03</rscale>
<asrwt>0</asrwt>
<pdfrwt beam="1">  1        2 0.19644372E+00 0.13073419E+03</pdfrwt>
<pdfrwt beam="2">  1       -2 0.28445074E-02 0.13073419E+03</pdfrwt>
<totfact> 0.80608539E+03</totfact>
</mgrwt>
</event>
<event>
 7    1  0.6419647E-006  0.1336390E+03  0.7546771E-02  0.1228389E+00
         -2   -1    0    0    0  501 -0.00000000000E+00  0.00000000000E+00  0.17345488932E+03  0.17345488932E+03  0.00000000000E+00 0.  1.
          2   -1    0    0  501    0  0.00000000000E+00 -0.00000000000E+00 -0.13733834008E+04  0.13733834008E+04  0.00000000000E+00 0. -1.
         23    2    1    2    0    0 -0.15263670470E+02 -0.68978331263E+02 -0.13498420338E+04  0.13564412634E+04  0.11343894919E+03 0.  0.
          5    1    3    3  502    0  0.13624353507E+02 -0.76848883210E+01 -0.99628896987E+03  0.99642284297E+03  0.47000000000E+01 0. -1.
         -5    1    3    3    0  502 -0.28888023977E+02 -0.61293442942E+02 -0.35355306389E+03  0.36001842045E+03  0.47000000000E+01 0.  1.
        -11    1    1    2    0    0 -0.31946776967E+01  0.89498554602E+02  0.10950846744E+03  0.14146484257E+03  0.00000000000E+00 0.  1.
         11    1    1    2    0    0  0.18458348167E+02 -0.20520223339E+02  0.40405054866E+02  0.48932184109E+02  0.00000000000E+00 0. -1.
<mgrwt>
<rscale>  0 0.12937314E+03</rscale>
<asrwt>0</asrwt>
<pdfrwt beam="2">  1        2 0.21128975E+00 0.13363901E+03</pdfrwt>
<pdfrwt beam="1">  1       -2 0.26685368E-01 0.13363901E+03</pdfrwt>
<totfact> 0.21139462E+02</totfact>
</mgrwt>
</event>
<event>
 7    1  0.6419647E-006  0.1674404E+03  0.7546771E-02  0.1187915E+00
          1   -1    0    0  501    0  0.00000000000E+00  0.00000000000E+00  0.18905895439E+03  0.18905895439E+03  0.00000000000E+00 0. -1.
         -1   -1    0    0    0  501 -0.00000000000E+00 -0.00000000000E+00 -0.12787307994E+03  0.12787307994E+03  0.00000000000E+00 0.  1.
         23    2    1    2    0    0 -0.11140677118E+03 -0.18645112434E+00  0.48495630021E+02  0.17432186107E+03  0.12499912675E+03 0.  0.
          5    1    3    3  502    0  0.18306160904E+01  0.39580396015E+02  0.35687563216E+02  0.53531776286E+02  0.47000000000E+01 0. -1.
         -5    1    3    3    0  502 -0.11323738727E+03 -0.39766847140E+02  0.12808066805E+02  0.12079008479E+03  0.47000000000E+01 0. -1.
        -11    1    1    2    0    0  0.38195076710E+02  0.13407390163E+02 -0.35607163813E+02  0.53911892108E+02  0.00000000000E+00 0.  1.
         11    1    1    2    0    0  0.73211694470E+02 -0.13220939038E+02  0.48297408242E+02  0.88698281151E+02  0.00000000000E+00 0. -1.
<mgrwt>
<rscale>  0 0.16069458E+03</rscale>
<asrwt>0</asrwt>
<pdfrwt beam="1">  1        1 0.29085993E-01 0.16744039E+03</pdfrwt>
<pdfrwt beam="2">  1       -1 0.19672782E-01 0.16744039E+03</pdfrwt>
<totfact> 0.31845187E+03</totfact>
</mgrwt>
</event>
<event>
 7    1  0.6419647E-006  0.1309265E+03  0.7546771E-02  0.1239899E+00
          2   -1    0    0  501    0  0.00000000000E+00  0.00000000000E+00  0.22881497504E+02  0.22881497504E+02  0.00000000000E+00 0. -1.
         -2   -1    0    0    0  501 -0.00000000000E+00 -0.00000000000E+00 -0.59964022955E+03  0.59964022955E+03  0.00000000000E+00 0.  1.
         23    2    1    2    0    0  0.24317442928E+02 -0.30423170862E+02 -0.26551939825E+03  0.29604442507E+03  0.12499937365E+03 0.  0.
          5    1    3    3  502    0 -0.63610882979E+01 -0.62641090368E+02 -0.23118563971E+03  0.23965237252E+03  0.47000000000E+01 0. -1.
         -5    1    3    3    0  502  0.30678531226E+02  0.32217919506E+02 -0.34333758538E+02  0.56392052550E+02  0.47000000000E+01 0. -1.
        -11    1    1    2    0    0 -0.42966011548E+02 -0.69225675379E+01 -0.23995980193E+03  0.24387436650E+03  0.00000000000E+00 0.  1.
         11    1    1    2    0    0  0.18648568621E+02  0.37345738400E+02 -0.71279531861E+02  0.82602935484E+02  0.00000000000E+00 0. -1.
<mgrwt>
<rscale>  0 0.12195933E+03</rscale>
<asrwt>0</asrwt>
<pdfrwt beam="1">  1        2 0.35202302E-02 0.13092651E+03</pdfrwt>
<pdfrwt beam="2">  1       -2 0.92252348E-01 0.13092651E+03</pdfrwt>
<totfact> 0.24836445E+03</totfact>
</mgrwt>
</event>
<event>
 7    1  0.6419647E-006  0.1294310E+03  0.7546771E-02  0.1242228E+00
         -2   -1    0    0    0  501 -0.00000000000E+00  0.00000000000E+00  0.19258492682E+03  0.19258492682E+03  0.00000000000E+00 0. -1.
          2   -1    0    0  501    0  0.00000000000E+00 -0.00000000000E+00 -0.67489641078E+02  0.67489641078E+02  0.00000000000E+00 0.  1.
         23    2    1    2    0    0  0.80520335789E+00  0.33596447591E+02  0.57829776510E+02  0.14176272375E+03  0.12499206835E+03 0.  0.
          5    1    3    3  502    0  0.33045130086E+02  0.20192530112E+02  0.87436355156E+02  0.95744060378E+02  0.47000000000E+01 0.  1.
         -5    1    3    3    0  502 -0.32239926728E+02  0.13403917479E+02 -0.29606578646E+02  0.46018663370E+02  0.47000000000E+01 0.  1.
        -11    1    1    2    0    0 -0.32592645518E+02 -0.23575891670E+02  0.74076366823E+02  0.84293601961E+02  0.00000000000E+00 0. -1.
         11    1    1    2    0    0  0.31787442160E+02 -0.10020555920E+02 -0.68108575957E+01  0.34018242183E+02  0.00000000000E+00 0.  1.
<mgrwt>
<rscale>  0 0.12052856E+03</rscale>
<asrwt>0</asrwt>
<pdfrwt beam="2">  1        2 0.10383022E-01 0.12943101E+03</pdfrwt>
<pdfrwt beam="1">  1       -2 0.29628450E-01 0.12943101E+03</pdfrwt>
<totfact> 0.60398455E+03</totfact>
</mgrwt>
</event>
<event>
 7    1  0.6419647E-006  0.1301419E+03  0.7546771E-02  0.1242042E+00
         -2   -1    0    0    0  501 -0.00000000000E+00  0.00000000000E+00  0.49768080562E+02  0.49768080562E+02  0.00000000000E+00 0.  1.
          2   -1    0    0  501    0  0.00000000000E+00 -0.00000000000E+00 -0.25783517290E+03  0.25783517290E+03  0.00000000000E+00 0. -1.
         23    2    1    2    0    0 -0.36341176620E+02 -0.19633149470E+01 -0.12760295263E+03  0.18226199722E+03  0.12494953537E+03 0.  0.
          5    1    3    3  502    0  0.58310616327E+01 -0.47816652379E+02 -0.10536096226E+03  0.11594591797E+03  0.47000000000E+01 0. -1.
         -5    1    3    3    0  502 -0.42172238252E+02  0.45853337432E+02 -0.22241990367E+02  0.66316079260E+02  0.47000000000E+01 0. -1.
        -11    1    1    2    0    0  0.30533427593E+02  0.37662383627E+02 -0.74197227644E+02  0.88633932165E+02  0.00000000000E+00 0. -1.
         11    1    1    2    0    0  0.58077490272E+01 -0.35699068680E+02 -0.62669120629E+01  0.36707324068E+02  0.00000000000E+00 0.  1.
<mgrwt>
<rscale>  0 0.12064189E+03</rscale>
<asrwt>0</asrwt>
<pdfrwt beam="2">  1        2 0.39666949E-01 0.13014193E+03</pdfrwt>
<pdfrwt beam="1">  1       -2 0.76566279E-02 0.13014193E+03</pdfrwt>
<totfact> 0.12253159E+04</totfact>
</mgrwt>
</event>
<event>
 7    1  0.6419647E-006  0.1204515E+03  0.7546771E-02  0.1254208E+00
         -2   -1    0    0    0  501 -0.00000000000E+00  0.00000000000E+00  0.82836779730E+02  0.82836779730E+02  0.00000000000E+00 0.  1.
          2   -1    0    0  501    0  0.00000000000E+00 -0.00000000000E+00 -0.14864871639E+04  0.14864871639E+04  0.00000000000E+00 0. -1.
         23    2    1    2    0    0 -0.19468337314E+02 -0.25316701941E+02 -0.14559267267E+04  0.14609008142E+04  0.11614044939E+03 0.  0.
          5    1    3    3  502    0 -0.29700907808E+02 -0.68244410371E+02 -0.79709537621E+03  0.80057640001E+03  0.47000000000E+01 0. -1.
         -5    1    3    3    0  502  0.10232570494E+02  0.42927708429E+02 -0.65883135047E+03  0.66032441421E+03  0.47000000000E+01 0.  1.
        -11    1    1    2    0    0  0.41908171512E+02  0.43463091500E+02  0.16758988088E+02  0.62659387516E+02  0.00000000000E+00 0.  1.
         11    1    1    2    0    0 -0.22439834198E+02 -0.18146389559E+02  0.35517354384E+02  0.45763741928E+02  0.00000000000E+00 0. -1.
<mgrwt>
<rscale>  0 0.11350800E+03</rscale>
<asrwt>0</asrwt>
<pdfrwt beam="2">  1        2 0.22869034E+00 0.12045147E+03</pdfrwt>
<pdfrwt beam="1">  1       -2 0.12744120E-01 0.12045147E+03</pdfrwt>
<totfact> 0.63847983E+02</totfact>
</mgrwt>
</event>
<event>
 7    1  0.6419647E-006  0.2062241E+03  0.7546771E-02  0.1147859E+00
          2   -1    0    0  501    0  0.00000000000E+00  0.00000000000E+00  0.16660497711E+04  0.16660497711E+04  0.00000000000E+00 0. -1.
         -2   -1    0    0    0  501 -0.00000000000E+00 -0.00000000000E+00 -0.54106289054E+02  0.54106289054E+02  0.00000000000E+00 0.  1.
         23    2    1    2    0    0  0.16348722632E+03  0.13231101500E+02  0.14647816621E+04  0.14792274021E+04  0.12500101711E+03 0.  0.
          5    1    3    3  502    0  0.16993541883E+03  0.39931324061E+02  0.13425493436E+04  0.13538587028E+04  0.47000000000E+01 0.  1.
         -5    1    3    3    0  502 -0.64481925150E+01 -0.26700222562E+02  0.12223231851E+03  0.12536869928E+03  0.47000000000E+01 0.  1.
        -11    1    1    2    0    0 -0.14688489932E+03 -0.40352409092E+02  0.94041245361E+02  0.17901744719E+03  0.00000000000E+00 0.  1.
         11    1    1    2    0    0 -0.16602326996E+02  0.27121307592E+02  0.53120574587E+02  0.61911210872E+02  0.00000000000E+00 0. -1.
<mgrwt>
<rscale>  0 0.20224481E+03</rscale>
<asrwt>0</asrwt>
<pdfrwt beam="1">  1        2 0.25631531E+00 0.20622412E+03</pdfrwt>
<pdfrwt beam="2">  1       -2 0.83240457E-02 0.20622412E+03</pdfrwt>
<totfact> 0.99670145E+02</totfact>
</mgrwt>
</event>
<event>
 7    1  0.6419647E-006  0.1342447E+03  0.7546771E-02  0.1233312E+00
         -1   -1    0    0    0  501 -0.00000000000E+00  0.00000000000E+00  0.20228648752E+02  0.20228648752E+02  0.00000000000E+00 0.  1.
          1   -1    0    0  501    0  0.00000000000E+00 -0.00000000000E+00 -0.93520311258E+03  0.93520311258E+03  0.00000000000E+00 0. -1.
         23    2    1    2    0    0  0.48899733195E+02  0.21359768280E+01 -0.73584325640E+03  0.74798859727E+03  0.12500358936E+03 0.  0.
          5    1    3    3  502    0 -0.47911091291E+01 -0.52750055210E+02 -0.39561439988E+03  0.39917210129E+03  0.47000000000E+01 0.  1.
         -5    1    3    3    0  502  0.53690842325E+02  0.54886032038E+02 -0.34022885652E+03  0.34881649598E+03  0.47000000000E+01 0.  1.
        -11    1    1    2    0    0 -0.42337409128E+02 -0.43181345535E+02 -0.82854003559E+02  0.10257617033E+03  0.00000000000E+00 0. -1.
         11    1    1    2    0    0 -0.65623240673E+01  0.41045368707E+02 -0.96277203863E+02  0.10486699373E+03  0.00000000000E+00 0.  1.
<mgrwt>
<rscale>  0 0.12613141E+03</rscale>
<asrwt>0</asrwt>
<pdfrwt beam="2">  1        1 0.14387740E+00 0.13424472E+03</pdfrwt>
<pdfrwt beam="1">  1       -1 0.31121000E-02 0.13424472E+03</pdfrwt>
<totfact> 0.62150734E+03</totfact>
</mgrwt>
</event>
<event>
 7    1  0.6419647E-006  0.1269880E+03  0.7546771E-02  0.1246260E+00
         -2   -1    0    0    0  501 -0.00000000000E+00  0.00000000000E+00  0.17348361673E+02  0.17348361673E+02  0.00000000000E+00 0.  1.
          2   -1    0    0  501    0  0.00000000000E+00 -0.00000000000E+00 -0.97374465415E+03  0.97374465415E+03  0.00000000000E+00 0. -1.
         23    2    1    2    0    0 -0.11774293763E+02 -0.19014857516E+02 -0.78429956040E+03  0.79451353271E+03  0.12500301763E+03 0.  0.
          5    1    3    3  502    0  0.23688341104E+02 -0.64614091031E+02 -0.41490165241E+03  0.42059670640E+03  0.47000000000E+01 0.  1.
         -5    1    3    3    0  502 -0.35462634867E+02  0.45599233516E+02 -0.36939790799E+03  0.37391682631E+03  0.47000000000E+01 0.  1.
        -11    1    1    2    0    0 -0.14391912468E+02  0.28457245247E+02 -0.16474995774E+03  0.16780789769E+03  0.00000000000E+00 0. -1.
         11    1    1    2    0    0  0.26166206232E+02 -0.94423877317E+01 -0.73467743364E+01  0.28771585424E+02  0.00000000000E+00 0.  1.
<mgrwt>
<rscale>  0 0.11810280E+03</rscale>
<asrwt>0</asrwt>
<pdfrwt beam="2">  1        2 0.14980690E+00 0.12698800E+03</pdfrwt>
<pdfrwt beam="1">  1       -2 0.26689782E-02 0.12698800E+03</pdfrwt>
<totfact> 0.13131707E+04</totfact>
</mgrwt>
</event>
<event>
 7    1  0.6419647E-006  0.1836916E+03  0.7546771E-02  0.1170059E+00
         -4   -1    0    0    0  501 -0.00000000000E+00  0.00000000000E+00  0.65683947767E+03  0.65683947767E+03  0.00000000000E+00 0. -1.
          4   -1    0    0  501    0  0.00000000000E+00 -0.00000000000E+00 -0.45183404025E+02  0.45183404025E+02  0.00000000000E+00 0.  1.
         23    2    1    2    0    0 -0.85603255919E+02 -0.10387379806E+03  0.32195261237E+03  0.37066979698E+03  0.12499972174E+03 0.  0.
          5    1    3    3  502    0 -0.10470671924E+02 -0.79102123569E+02  0.25398587729E+03  0.26626621413E+03  0.47000000000E+01 0. -1.
         -5    1    3    3    0  502 -0.75132583995E+02 -0.24771674492E+02  0.67966735080E+02  0.10440358285E+03  0.47000000000E+01 0. -1.
        -11    1    1    2    0    0  0.31163397029E+02  0.52861990712E+02  0.46580259386E+02  0.77040690164E+02  0.00000000000E+00 0.  1.
         11    1    1    2    0    0  0.54439858891E+02  0.51011807350E+02  0.24312320189E+03  0.25431239455E+03  0.00000000000E+00 0. -1.
<mgrwt>
<rscale>  0 0.17768870E+03</rscale>
<asrwt>0</asrwt>
<pdfrwt beam="2">  1        4 0.69512934E-02 0.18369163E+03</pdfrwt>
<pdfrwt beam="1">  1       -4 0.10105222E+00 0.18369163E+03</pdfrwt>
<totfact> 0.20437533E+02</totfact>
</mgrwt>
</event>
<event>
 7    1  0.6419647E-006  0.1407223E+03  0.7546771E-02  0.1223788E+00
         -2   -1    0    0    0  501 -0.00000000000E+00  0.00000000000E+00  0.85252676573E+02  0.85252676573E+02  0.00000000000E+00 0.  1.
          2   -1    0    0  501    0  0.00000000000E+00 -0.00000000000E+00 -0.18585386463E+03  0.18585386463E+03  0.00000000000E+00 0. -1.
         23    2    1    2    0    0 -0.64603328260E+02 -0.26376857170E+01 -0.48598844422E+02  0.14887784319E+03  0.12498886793E+03 0.  0.
          5    1    3    3  502    0  0.14184541858E+02 -0.45699293683E+02 -0.31151824274E+02  0.57290076160E+02  0.47000000000E+01 0. -1.
         -5    1    3    3    0  502 -0.78787870118E+02  0.43061607966E+02 -0.17447020148E+02  0.91587767034E+02  0.47000000000E+01 0. -1.
        -11    1    1    2    0    0  0.68918828252E+02  0.33997860803E+02 -0.47266384021E+02  0.90220676595E+02  0.00000000000E+00 0.  1.
         11    1    1    2    0    0 -0.43154999924E+01 -0.31360175086E+02 -0.47359596180E+01  0.32008021418E+02  0.00000000000E+00 0. -1.
<mgrwt>
<rscale>  0 0.13250290E+03</rscale>
<asrwt>0</asrwt>
<pdfrwt beam="2">  1        2 0.28592902E-01 0.14072230E+03</pdfrwt>
<pdfrwt beam="1">  1       -2 0.13115797E-01 0.14072230E+03</pdfrwt>
<totfact> 0.75156784E+03</totfact>
</mgrwt>
</event>
<event>
 7    1  0.6419647E-006  0.1781359E+03  0.7546771E-02  0.1175989E+00
         -1   -1    0    0    0  501 -0.00000000000E+00  0.00000000000E+00  0.15439362651E+03  0.15439362651E+03  0.00000000000E+00 0.  1.
          1   -1    0    0  501    0  0.00000000000E+00 -0.00000000000E+00 -0.19096332233E+03  0.19096332233E+03  0.00000000000E+00 0. -1.
         23    2    1    2    0    0  0.10222123519E+03  0.75236083135E+02 -0.63129830271E+02  0.18899147180E+03  0.12499100694E+03 0.  0.
          5    1    3    3  502    0  0.18667324682E+02  0.82186799470E+02 -0.62472942585E+02  0.10501474931E+03  0.47000000000E+01 0.  1.
         -5    1    3    3    0  502  0.83553910508E+02 -0.69507163350E+01 -0.65688768581E+00  0.83976722490E+02  0.47000000000E+01 0.  1.
        -11    1    1    2    0    0 -0.80968933205E+02 -0.43388665415E+02 -0.22066472058E+02  0.94474724768E+02  0.00000000000E+00 0. -1.
         11    1    1    2    0    0 -0.21252301984E+02 -0.31847417720E+02  0.48626606507E+02  0.61890752262E+02  0.00000000000E+00 0.  1.
<mgrwt>
<rscale>  0 0.17179459E+03</rscale>
<asrwt>0</asrwt>
<pdfrwt beam="2">  1        1 0.29378973E-01 0.17813591E+03</pdfrwt>
<pdfrwt beam="1">  1       -1 0.23752866E-01 0.17813591E+03</pdfrwt>
<totfact> 0.23197180E+03</totfact>
</mgrwt>
</event>
<event>
 7    1  0.6419647E-006  0.1256728E+03  0.7546771E-02  0.1248774E+00
         -1   -1    0    0    0  501 -0.00000000000E+00  0.00000000000E+00  0.10403082839E+03  0.10403082839E+03  0.00000000000E+00 0.  1.
          1   -1    0    0  501    0  0.00000000000E+00 -0.00000000000E+00 -0.13769782446E+03  0.13769782446E+03  0.00000000000E+00 0. -1.
         23    2    1    2    0    0 -0.12949855140E+02  0.14987065519E+00 -0.67407032210E+02  0.14260916175E+03  0.12500377520E+03 0.  0.
          5    1    3    3  502    0  0.16419548365E+02 -0.25933115332E+02  0.26428212275E+02  0.40775831609E+02  0.47000000000E+01 0. -1.
         -5    1    3    3    0  502 -0.29369403504E+02  0.26082985988E+02 -0.93835244485E+02  0.10183333014E+03  0.47000000000E+01 0. -1.
        -11    1    1    2    0    0  0.49049332607E+02 -0.56798533559E+00  0.38959999456E+02  0.62642167859E+02  0.00000000000E+00 0.  1.
         11    1    1    2    0    0 -0.36099477467E+02  0.41811468040E+00 -0.52199633204E+01  0.36477323235E+02  0.00000000000E+00 0. -1.
<mgrwt>
<rscale>  0 0.11662331E+03</rscale>
<asrwt>0</asrwt>
<pdfrwt beam="2">  1        1 0.21184281E-01 0.12567285E+03</pdfrwt>
<pdfrwt beam="1">  1       -1 0.16004743E-01 0.12567285E+03</pdfrwt>
<totfact> 0.64813359E+03</totfact>
</mgrwt>
</event>
<event>
 7    1  0.6419647E-006  0.1665508E+03  0.7546771E-02  0.1188054E+00
          1   -1    0    0  501    0  0.00000000000E+00  0.00000000000E+00  0.38748776529E+03  0.38748776529E+03  0.00000000000E+00 0. -1.
         -1   -1    0    0    0  501 -0.00000000000E+00 -0.00000000000E+00 -0.64385123836E+02  0.64385123836E+02  0.00000000000E+00 0.  1.
         23    2    1    2    0    0  0.95027601156E+02  0.55519008083E+02  0.21467098788E+03  0.27170351363E+03  0.12500624400E+03 0.  0.
          5    1    3    3  502    0  0.45344634138E+01  0.15158357225E+02 -0.14509451938E+02  0.21976154071E+02  0.47000000000E+01 0.  1.
         -5    1    3    3    0  502  0.90493137742E+02  0.40360650858E+02  0.22918043982E+03  0.24972735956E+03  0.47000000000E+01 0.  1.
        -11    1    1    2    0    0 -0.65547018768E+02  0.15086975394E+02  0.54294832754E+02  0.86440484495E+02  0.00000000000E+00 0. -1.
         11    1    1    2    0    0 -0.29480582388E+02 -0.70605983476E+02  0.54136820821E+02  0.93728891006E+02  0.00000000000E+00 0.  1.
<mgrwt>
<rscale>  0 0.16057048E+03</rscale>
<asrwt>0</asrwt>
<pdfrwt beam="1">  1        1 0.59613501E-01 0.16655079E+03</pdfrwt>
<pdfrwt beam="2">  1       -1 0.99054039E-02 0.16655079E+03</pdfrwt>
<totfact> 0.38113667E+03</totfact>
</mgrwt>
</event>
<event>
 7    1  0.6419647E-006  0.1539812E+03  0.7546771E-02  0.1204230E+00
         -2   -1    0    0    0  501 -0.00000000000E+00  0.00000000000E+00  0.74418055480E+02  0.74418055480E+02  0.00000000000E+00 0.  1.
          2   -1    0    0  501    0  0.00000000000E+00 -0.00000000000E+00 -0.31459250525E+03  0.31459250525E+03  0.00000000000E+00 0. -1.
         23    2    1    2    0    0  0.89171015217E+02  0.11648543188E+02 -0.20506118209E+03  0.25643772426E+03  0.12499223781E+03 0.  0.
          5    1    3    3  502    0  0.10490916202E+03 -0.24579412290E+02 -0.17867959610E+03  0.20870689458E+03  0.47000000000E+01 0.  1.
         -5    1    3    3    0  502 -0.15738146799E+02  0.36227955478E+02 -0.26381585986E+02  0.47730829680E+02  0.47000000000E+01 0.  1.
        -11    1    1    2    0    0 -0.45017781990E+02 -0.21878055512E+02 -0.62149612654E+02  0.79798648869E+02  0.00000000000E+00 0. -1.
         11    1    1    2    0    0 -0.44153233227E+02  0.10229512324E+02  0.27036344974E+02  0.52774187595E+02  0.00000000000E+00 0.  1.
<mgrwt>
<rscale>  0 0.14698263E+03</rscale>
<asrwt>0</asrwt>
<pdfrwt beam="2">  1        2 0.48398848E-01 0.15398123E+03</pdfrwt>
<pdfrwt beam="1">  1       -2 0.11448931E-01 0.15398123E+03</pdfrwt>
<totfact> 0.53466508E+03</totfact>
</mgrwt>
</event>
<event>
 7    1  0.6419647E-006  0.1252580E+03  0.7546771E-02  0.1247811E+00
          1   -1    0    0  501    0  0.00000000000E+00  0.00000000000E+00  0.24566136739E+03  0.24566136739E+03  0.00000000000E+00 0. -1.
         -1   -1    0    0    0  501 -0.00000000000E+00 -0.00000000000E+00 -0.60717286565E+02  0.60717286565E+02  0.00000000000E+00 0.  1.
         23    2    1    2    0    0 -0.49617733430E+01 -0.62748955141E+01  0.16699561434E+03  0.20875127181E+03  0.12500225905E+03 0.  0.
          5    1    3    3  502    0  0.47613897916E+02 -0.22339919274E+02  0.29245720548E+02  0.60361887299E+02  0.47000000000E+01 0.  1.
         -5    1    3    3    0  502 -0.52575671259E+02  0.16065023759E+02  0.13774989379E+03  0.14838938451E+03  0.47000000000E+01 0.  1.
        -11    1    1    2    0    0 -0.87350779767E+00 -0.29036401057E+02  0.44444991645E+02  0.53096448889E+02  0.00000000000E+00 0. -1.
         11    1    1    2    0    0  0.58352811407E+01  0.35311296572E+02 -0.26496525155E+02  0.44530933258E+02  0.00000000000E+00 0.  1.
<mgrwt>
<rscale>  0 0.11718724E+03</rscale>
<asrwt>0</asrwt>
<pdfrwt beam="1">  1        1 0.37794056E-01 0.12525797E+03</pdfrwt>
<pdfrwt beam="2">  1       -1 0.93411211E-02 0.12525797E+03</pdfrwt>
<totfact> 0.72295800E+03</totfact>
</mgrwt>
</event>
<event>
 7    1  0.6419647E-006  0.1216711E+03  0.7546771E-02  0.1249075E+00
          1   -1    0    0  501    0  0.00000000000E+00  0.00000000000E+00  0.13711466946E+04  0.13711466946E+04  0.00000000000E+00 0. -1.
         -1   -1    0    0    0  501 -0.00000000000E+00 -0.00000000000E+00 -0.11711262365E+02  0.11711262365E+02  0.00000000000E+00 0.  1.
         23    2    1    2    0    0 -0.70120422243E+01  0.43912165831E+02  0.10498224601E+04  0.10568495843E+04  0.11325369356E+03 0.  0.
          5    1    3    3  502    0 -0.14666493010E+02  0.70386879633E+02  0.96177679185E+03  0.96447193125E+03  0.47000000000E+01 0. -1.
         -5    1    3    3    0  502  0.76544507858E+01 -0.26474713802E+02  0.88045668220E+02  0.92377653034E+02  0.47000000000E+01 0.  1.
        -11    1    1    2    0    0  0.40979004550E+02 -0.38845633062E+01  0.20347805144E+03  0.20759982193E+03  0.00000000000E+00 0. -1.
         11    1    1    2    0    0 -0.33966962326E+02 -0.40027602525E+02  0.10613492075E+03  0.11840855077E+03  0.00000000000E+00 0.  1.
<mgrwt>
<rscale>  0 0.11644760E+03</rscale>
<asrwt>0</asrwt>
<pdfrwt beam="1">  1        1 0.21094552E+00 0.12167106E+03</pdfrwt>
<pdfrwt beam="2">  1       -1 0.18017338E-02 0.12167106E+03</pdfrwt>
<totfact> 0.67815801E+03</totfact>
</mgrwt>
</event>
<event>
 6    1  0.6419647E-006  0.2186460E+03  0.7546771E-02  0.1194619E+00
         -2   -1    0    0    0  501 -0.00000000000E+00  0.00000000000E+00  0.17482678918E+02  0.17482678918E+02  0.00000000000E+00 0.  1.
          2   -1    0    0  501    0  0.00000000000E+00 -0.00000000000E+00 -0.12246285254E+04  0.12246285254E+04  0.00000000000E+00 0. -1.
          5    1    1    2  502    0 -0.38412588917E+02  0.85979760768E+01 -0.10900800260E+04  0.10908006258E+04  0.47000000000E+01 0. -1.
         -5    1    1    2    0  502  0.17538212997E+02 -0.24019458155E+02 -0.11440359123E+02  0.32210170785E+02  0.47000000000E+01 0.  1.
        -11    1    1    2    0    0  0.57439551260E+01  0.28904507106E+02 -0.35672236986E+02  0.46270639104E+02  0.00000000000E+00 0. -1.
         11    1    1    2    0    0  0.15130420794E+02 -0.13483025028E+02 -0.69953224414E+02  0.72829768661E+02  0.00000000000E+00 0.  1.
<mgrwt>
<rscale>  0 0.15486516E+03</rscale>
<asrwt>0</asrwt>
<pdfrwt beam="2">  1        2 0.18840441E+00 0.21864604E+03</pdfrwt>
<pdfrwt beam="1">  1       -2 0.26896427E-02 0.21864604E+03</pdfrwt>
<totfact> 0.95517093E+03</totfact>
</mgrwt>
</event>
<event>
 7    1  0.6419647E-006  0.1266040E+03  0.7546771E-02  0.1246607E+00
         -2   -1    0    0    0  501 -0.00000000000E+00  0.00000000000E+00  0.14777461129E+03  0.14777461129E+03  0.00000000000E+00 0. -1.
          2   -1    0    0  501    0  0.00000000000E+00 -0.00000000000E+00 -0.99694412357E+02  0.99694412357E+02  0.00000000000E+00 0.  1.
         23    2    1    2    0    0 -0.71093991151E+01 -0.18751628308E+02 -0.22973262438E+02  0.12867147587E+03  0.12500564306E+03 0.  0.
          5    1    3    3  502    0 -0.58346401450E+02 -0.14719281192E+02  0.17768071883E+02  0.62918631417E+02  0.47000000000E+01 0.  1.
         -5    1    3    3    0  502  0.51237002335E+02 -0.40323471161E+01 -0.40741334321E+02  0.65752844454E+02  0.47000000000E+01 0.  1.
        -11    1    1    2    0    0  0.40176878579E+02  0.36421836461E+02  0.25866553092E+02  0.60081696983E+02  0.00000000000E+00 0.  1.
         11    1    1    2    0    0 -0.33067479464E+02 -0.17670208153E+02  0.45186908275E+02  0.58715850787E+02  0.00000000000E+00 0. -1.
<mgrwt>
<rscale>  0 0.11789685E+03</rscale>
<asrwt>0</asrwt>
<pdfrwt beam="2">  1        2 0.15337602E-01 0.12660402E+03</pdfrwt>
<pdfrwt beam="1">  1       -2 0.22734556E-01 0.12660402E+03</pdfrwt>
<totfact> 0.60260618E+03</totfact>
</mgrwt>
</event>
<event>
 7    1  0.6419647E-006  0.1239570E+03  0.7546771E-02  0.1249043E+00
          3   -1    0    0  501    0  0.00000000000E+00  0.00000000000E+00  0.22930727745E+02  0.22930727745E+02  0.00000000000E+00 0. -1.
         -3   -1    0    0    0  501 -0.00000000000E+00 -0.00000000000E+00 -0.55663830193E+03  0.55663830193E+03  0.00000000000E+00 0.  1.
         23    2    1    2    0    0 -0.19314957160E+02 -0.24478160308E+02 -0.23589548044E+03  0.26648078562E+03  0.11997117782E+03 0.  0.
          5    1    3    3  502    0  0.35134002191E+02  0.25492716094E+02 -0.50012238282E+02  0.66389687917E+02  0.47000000000E+01 0. -1.
         -5    1    3    3    0  502 -0.54448959351E+02 -0.49970876402E+02 -0.18588324216E+03  0.20009109770E+03  0.47000000000E+01 0.  1.
        -11    1    1    2    0    0 -0.29246427146E+02  0.26524066186E+02 -0.72104840336E+02  0.82206980164E+02  0.00000000000E+00 0.  1.
         11    1    1    2    0    0  0.48561384305E+02 -0.20459058782E+01 -0.22570725341E+03  0.23088126389E+03  0.00000000000E+00 0. -1.
<mgrwt>
<rscale>  0 0.11646656E+03</rscale>
<asrwt>0</asrwt>
<pdfrwt beam="1">  1        3 0.35278041E-02 0.12395697E+03</pdfrwt>
<pdfrwt beam="2">  1       -3 0.85636665E-01 0.12395697E+03</pdfrwt>
<totfact> 0.11526324E+03</totfact>
</mgrwt>
</event>
<event>
 7    1  0.6419647E-006  0.1331575E+03  0.7546771E-02  0.1235814E+00
          2   -1    0    0  501    0  0.00000000000E+00  0.00000000000E+00  0.35471993015E+02  0.35471993015E+02  0.00000000000E+00 0. -1.
         -2   -1    0    0    0  501 -0.00000000000E+00 -0.00000000000E+00 -0.39621715345E+03  0.39621715345E+03  0.00000000000E+00 0.  1.
         23    2    1    2    0    0 -0.32057395726E+02  0.32780430862E+02 -0.17553568864E+03  0.22032636576E+03  0.12501478390E+03 0.  0.
          5    1    3    3  502    0  0.16279332348E+01 -0.32620723891E+01  0.18827594714E+02  0.19744862765E+02  0.47000000000E+01 0.  1.
         -5    1    3    3    0  502 -0.33685328961E+02  0.36042503251E+02 -0.19436328335E+03  0.20058150299E+03  0.47000000000E+01 0.  1.
        -11    1    1    2    0    0  0.51134683697E+02  0.10544553924E+02 -0.11920229531E+03  0.13013504794E+03  0.00000000000E+00 0. -1.
         11    1    1    2    0    0 -0.19077287971E+02 -0.43324984786E+02 -0.66007176479E+02  0.81227732763E+02  0.00000000000E+00 0.  1.
<mgrwt>
<rscale>  0 0.12452468E+03</rscale>
<asrwt>0</asrwt>
<pdfrwt beam="1">  1        2 0.54572296E-02 0.13315754E+03</pdfrwt>
<pdfrwt beam="2">  1       -2 0.60956486E-01 0.13315754E+03</pdfrwt>
<totfact> 0.34132802E+03</totfact>
</mgrwt>
</event>
<event>
 7    1  0.6419647E-006  0.1329746E+03  0.7546771E-02  0.1236081E+00
         -4   -1    0    0    0  501 -0.00000000000E+00  0.00000000000E+00  0.22989131550E+02  0.22989131550E+02  0.00000000000E+00 0.  1.
          4   -1    0    0  501    0  0.00000000000E+00 -0.00000000000E+00 -0.98276851638E+03  0.98276851638E+03  0.00000000000E+00 0. -1.
         23    2    1    2    0    0  0.20381644698E+02 -0.40489423662E+02 -0.83143156763E+03  0.84199804084E+03  0.12500977663E+03 0.  0.
          5    1    3    3  502    0 -0.49498766935E+02 -0.86236241835E+01 -0.45448297050E+03  0.45727601654E+03  0.47000000000E+01 0. -1.
         -5    1    3    3    0  502  0.69880411633E+02 -0.31865799478E+02 -0.37694859713E+03  0.38472202430E+03  0.47000000000E+01 0. -1.
        -11    1    1    2    0    0  0.34695532008E+02  0.13065073095E+02 -0.68702828808E+02  0.78067629415E+02  0.00000000000E+00 0. -1.
         11    1    1    2    0    0 -0.55077176706E+02  0.27424350567E+02 -0.59644988388E+02  0.85691977674E+02  0.00000000000E+00 0.  1.
<mgrwt>
<rscale>  0 0.12435489E+03</rscale>
<asrwt>0</asrwt>
<pdfrwt beam="2">  1        4 0.15119515E+00 0.13297462E+03</pdfrwt>
<pdfrwt beam="1">  1       -4 0.35367895E-02 0.13297462E+03</pdfrwt>
<totfact> 0.21632645E+02</totfact>
</mgrwt>
</event>
<event>
 7    1  0.6419647E-006  0.1425497E+03  0.7546771E-02  0.1220259E+00
          1   -1    0    0  501    0  0.00000000000E+00  0.00000000000E+00  0.49269312827E+03  0.49269312827E+03  0.00000000000E+00 0. -1.
         -1   -1    0    0    0  501 -0.00000000000E+00 -0.00000000000E+00 -0.33591754647E+02  0.33591754647E+02  0.00000000000E+00 0.  1.
         23    2    1    2    0    0  0.30634805621E+02  0.61295590730E+02  0.26414203718E+03  0.30015236893E+03  0.12499915204E+03 0.  0.
          5    1    3    3  502    0 -0.13269782773E+02  0.22804969985E+02  0.23159575831E+03  0.23314124272E+03  0.47000000000E+01 0.  1.
         -5    1    3    3    0  502  0.43904588394E+02  0.38490620746E+02  0.32546278872E+02  0.67011126209E+02  0.47000000000E+01 0.  1.
        -11    1    1    2    0    0 -0.42122973105E+02 -0.71889799022E+02  0.19320626723E+03  0.21040710483E+03  0.00000000000E+00 0. -1.
         11    1    1    2    0    0  0.11488167484E+02  0.10594208292E+02  0.17530692140E+01  0.15725409157E+02  0.00000000000E+00 0.  1.
<mgrwt>
<rscale>  0 0.13497227E+03</rscale>
<asrwt>0</asrwt>
<pdfrwt beam="1">  1        1 0.75798938E-01 0.14254974E+03</pdfrwt>
<pdfrwt beam="2">  1       -1 0.51679626E-02 0.14254974E+03</pdfrwt>
<totfact> 0.74040832E+03</totfact>
</mgrwt>
</event>
<event>
 7    1  0.6419647E-006  0.1401037E+03  0.7546771E-02  0.1224741E+00
          2   -1    0    0  501    0  0.00000000000E+00  0.00000000000E+00  0.25427929667E+04  0.25427929667E+04  0.00000000000E+00 0. -1.
         -2   -1    0    0    0  501 -0.00000000000E+00 -0.00000000000E+00 -0.86262084877E+01  0.86262084877E+01  0.00000000000E+00 0.  1.
         23    2    1    2    0    0 -0.49126256806E+02  0.39880612425E+02  0.20569198034E+04  0.20616857502E+04  0.12500081012E+03 0.  0.
          5    1    3    3  502    0  0.30331695441E+02  0.43040254772E+02  0.51409096620E+03  0.51680178677E+03  0.47000000000E+01 0.  1.
         -5    1    3    3    0  502 -0.79457952248E+02 -0.31596423470E+01  0.15428288372E+04  0.15448839634E+04  0.47000000000E+01 0.  1.
        -11    1    1    2    0    0  0.38387203016E+02  0.23877156971E+02  0.19186527874E+03  0.19711920547E+03  0.00000000000E+00 0.  1.
         11    1    1    2    0    0  0.10739053791E+02 -0.63757769396E+02  0.28538167607E+03  0.29261421953E+03  0.00000000000E+00 0. -1.
<mgrwt>
<rscale>  0 0.13184675E+03</rscale>
<asrwt>0</asrwt>
<pdfrwt beam="1">  1        2 0.39119832E+00 0.14010373E+03</pdfrwt>
<pdfrwt beam="2">  1       -2 0.13271110E-02 0.14010373E+03</pdfrwt>
<totfact> 0.53648148E+03</totfact>
</mgrwt>
</event>
<event>
 7    1  0.6419647E-006  0.1609941E+03  0.7546771E-02  0.1194409E+00
          1   -1    0    0  501    0  0.00000000000E+00  0.00000000000E+00  0.62947903965E+02  0.62947903965E+02  0.00000000000E+00 0. -1.
         -1   -1    0    0    0  501 -0.00000000000E+00 -0.00000000000E+00 -0.36391083788E+03  0.36391083788E+03  0.00000000000E+00 0.  1.
         23    2    1    2    0    0  0.23805761057E+02  0.98630178672E+02 -0.13054549770E+03  0.20727088275E+03  0.12499786184E+03 0.  0.
          5    1    3    3  502    0 -0.23770407197E+02 -0.17895709072E+02 -0.71782692536E+01  0.30966210794E+02  0.47000000000E+01 0.  1.
         -5    1    3    3    0  502  0.47576168254E+02  0.11652588774E+03 -0.12336722845E+03  0.17630467196E+03  0.47000000000E+01 0.  1.
        -11    1    1    2    0    0 -0.40045176242E+02 -0.98954308667E+02 -0.17285724971E+03  0.20316298906E+03  0.00000000000E+00 0.  1.
         11    1    1    2    0    0  0.16239415185E+02  0.32412999494E+00  0.24398134978E+01  0.16424870036E+02  0.00000000000E+00 0. -1.
<mgrwt>
<rscale>  0 0.15504374E+03</rscale>
<asrwt>0</asrwt>
<pdfrwt beam="1">  1        1 0.96842930E-02 0.16099407E+03</pdfrwt>
<pdfrwt beam="2">  1       -1 0.55986282E-01 0.16099407E+03</pdfrwt>
<totfact> 0.21756807E+03</totfact>
</mgrwt>
</event>
<event>
 7    1  0.6419647E-006  0.1255310E+03  0.7546771E-02  0.1250771E+00
         -1   -1    0    0    0  501 -0.00000000000E+00  0.00000000000E+00  0.11489503501E+03  0.11489503501E+03  0.00000000000E+00 0.  1.
          1   -1    0    0  501    0  0.00000000000E+00 -0.00000000000E+00 -0.11934091339E+03  0.11934091339E+03  0.00000000000E+00 0. -1.
         23    2    1    2    0    0 -0.21197258418E+01  0.11337815596E+02 -0.47980772955E+02  0.13438819965E+03  0.12499997733E+03 0.  0.
          5    1    3    3  502    0 -0.16526320031E+01  0.55203384030E+02  0.15064880713E+02  0.57438536121E+02  0.47000000000E+01 0. -1.
         -5    1    3    3    0  502 -0.46709383873E+00 -0.43865568434E+02 -0.63045653668E+02  0.76949663528E+02  0.47000000000E+01 0. -1.
        -11    1    1    2    0    0 -0.36121221229E+02 -0.28079049891E+02  0.11355047848E+02  0.47139291228E+02  0.00000000000E+00 0. -1.
         11    1    1    2    0    0  0.38240947071E+02  0.16741234295E+02  0.32179846729E+02  0.52708457519E+02  0.00000000000E+00 0.  1.
<mgrwt>
<rscale>  0 0.11546524E+03</rscale>
<asrwt>0</asrwt>
<pdfrwt beam="2">  1        1 0.18360141E-01 0.12553101E+03</pdfrwt>
<pdfrwt beam="1">  1       -1 0.17676159E-01 0.12553101E+03</pdfrwt>
<totfact> 0.66439238E+03</totfact>
</mgrwt>
</event>
<event>
 7    1  0.6419647E-006  0.1537691E+03  0.7546771E-02  0.1204908E+00
         -4   -1    0    0    0  501 -0.00000000000E+00  0.00000000000E+00  0.72231191235E+02  0.72231191235E+02  0.00000000000E+00 0.  1.
          4   -1    0    0  501    0  0.00000000000E+00 -0.00000000000E+00 -0.29473517478E+03  0.29473517478E+03  0.00000000000E+00 0. -1.
         23    2    1    2    0    0  0.35211328806E+02  0.82079676662E+02 -0.17209450599E+03  0.23078444620E+03  0.12517200413E+03 0.  0.
          5    1    3    3  502    0 -0.55147094128E+01 -0.18623279745E+02 -0.96039072288E+02  0.98096034447E+02  0.47000000000E+01 0. -1.
         -5    1    3    3    0  502  0.40726038219E+02  0.10070295641E+03 -0.76055433700E+02  0.13268841175E+03  0.47000000000E+01 0. -1.
        -11    1    1    2    0    0  0.11295893025E+02  0.14270663691E+02 -0.14690751349E+02  0.23389468071E+02  0.00000000000E+00 0.  1.
         11    1    1    2    0    0 -0.46507221831E+02 -0.96350340353E+02 -0.35718726206E+02  0.11279245174E+03  0.00000000000E+00 0. -1.
<mgrwt>
<rscale>  0 0.14644743E+03</rscale>
<asrwt>0</asrwt>
<pdfrwt beam="2">  1        4 0.45343872E-01 0.15376912E+03</pdfrwt>
<pdfrwt beam="1">  1       -4 0.11112491E-01 0.15376912E+03</pdfrwt>
<totfact> 0.50984085E+02</totfact>
</mgrwt>
</event>
<event>
 7    1  0.6419647E-006  0.1376001E+03  0.7546771E-02  0.1227727E+00
          2   -1    0    0  501    0  0.00000000000E+00  0.00000000000E+00  0.76390766681E+03  0.76390766681E+03  0.00000000000E+00 0. -1.
         -2   -1    0    0    0  501 -0.00000000000E+00 -0.00000000000E+00 -0.22524624170E+02  0.22524624170E+02  0.00000000000E+00 0.  1.
         23    2    1    2    0    0 -0.53130894196E+02 -0.22055638928E+02  0.54200216479E+03  0.55919597435E+03  0.12499779183E+03 0.  0.
          5    1    3    3  502    0 -0.54532898021E+01 -0.69434609618E+02  0.29742808932E+03  0.30551016628E+03  0.47000000000E+01 0.  1.
         -5    1    3    3    0  502 -0.47677604393E+02  0.47378970690E+02  0.24457407547E+03  0.25368580807E+03  0.47000000000E+01 0.  1.
        -11    1    1    2    0    0  0.85750693563E+01 -0.82004366850E+01 -0.71134192489E+01  0.13834005555E+02  0.00000000000E+00 0.  1.
         11    1    1    2    0    0  0.44555824839E+02  0.30256075613E+02  0.20649429709E+03  0.21340231107E+03  0.00000000000E+00 0. -1.
<mgrwt>
<rscale>  0 0.12981732E+03</rscale>
<asrwt>0</asrwt>
<pdfrwt beam="1">  1        2 0.11752424E+00 0.13760011E+03</pdfrwt>
<pdfrwt beam="2">  1       -2 0.34653274E-02 0.13760011E+03</pdfrwt>
<totfact> 0.12280650E+04</totfact>
</mgrwt>
</event>
<event>
 7    1  0.6419647E-006  0.1399417E+03  0.7546771E-02  0.1224005E+00
         -2   -1    0    0    0  501 -0.00000000000E+00  0.00000000000E+00  0.73999519804E+02  0.73999519804E+02  0.00000000000E+00 0. -1.
          2   -1    0    0  501    0  0.00000000000E+00 -0.00000000000E+00 -0.21779100754E+03  0.21779100754E+03  0.00000000000E+00 0.  1.
         23    2    1    2    0    0 -0.36600173809E+02  0.51197914235E+02 -0.97874447432E+02  0.17077204625E+03  0.12499154041E+03 0.  0.
          5    1    3    3  502    0 -0.36181273673E+02  0.72977789936E+02 -0.11615599372E+03  0.14194769200E+03  0.47000000000E+01 0. -1.
         -5    1    3    3    0  502 -0.41890013570E+00 -0.21779875700E+02  0.18281546286E+02  0.28824354242E+02  0.47000000000E+01 0. -1.
        -11    1    1    2    0    0 -0.24682957066E+02 -0.30459200468E+02 -0.40067837814E+02  0.56057496285E+02  0.00000000000E+00 0. -1.
         11    1    1    2    0    0  0.61283130875E+02 -0.20738713768E+02 -0.58492024931E+01  0.64960984817E+02  0.00000000000E+00 0.  1.
<mgrwt>
<rscale>  0 0.13235338E+03</rscale>
<asrwt>0</asrwt>
<pdfrwt beam="2">  1        2 0.33506308E-01 0.13994172E+03</pdfrwt>
<pdfrwt beam="1">  1       -2 0.11384542E-01 0.13994172E+03</pdfrwt>
<totfact> 0.79383623E+03</totfact>
</mgrwt>
</event>
<event>
 7    1  0.6419647E-006  0.1351937E+03  0.7546771E-02  0.1232096E+00
          2   -1    0    0  501    0  0.00000000000E+00  0.00000000000E+00  0.60486823070E+03  0.60486823070E+03  0.00000000000E+00 0. -1.
         -2   -1    0    0    0  501 -0.00000000000E+00 -0.00000000000E+00 -0.32656807228E+02  0.32656807228E+02  0.00000000000E+00 0.  1.
         23    2    1    2    0    0  0.35794681222E+02 -0.37023740686E+02  0.47693605368E+03  0.49572708138E+03  0.12500129332E+03 0.  0.
          5    1    3    3  502    0  0.67654603497E+02 -0.26635208141E+02  0.43852432028E+03  0.44453599311E+03  0.47000000000E+01 0.  1.
         -5    1    3    3    0  502 -0.31859922275E+02 -0.10388532545E+02  0.38411733400E+02  0.51191088273E+02  0.47000000000E+01 0.  1.
        -11    1    1    2    0    0 -0.37206900771E+02 -0.23191436811E+02  0.30893557903E+02  0.53634020232E+02  0.00000000000E+00 0. -1.
         11    1    1    2    0    0  0.14122195495E+01  0.60215177497E+02  0.64381811886E+02  0.88163936316E+02  0.00000000000E+00 0.  1.
<mgrwt>
<rscale>  0 0.12692164E+03</rscale>
<asrwt>0</asrwt>
<pdfrwt beam="1">  1        2 0.93056643E-01 0.13519371E+03</pdfrwt>
<pdfrwt beam="2">  1       -2 0.50241246E-02 0.13519371E+03</pdfrwt>
<totfact> 0.92887263E+03</totfact>
</mgrwt>
</event>
<event>
 7    1  0.6419647E-006  0.1729427E+03  0.7546771E-02  0.1180904E+00
         -1   -1    0    0    0  501 -0.00000000000E+00  0.00000000000E+00  0.38275426202E+02  0.38275426202E+02  0.00000000000E+00 0.  1.
          1   -1    0    0  501    0  0.00000000000E+00 -0.00000000000E+00 -0.68453035397E+03  0.68453035397E+03  0.00000000000E+00 0. -1.
         23    2    1    2    0    0  0.48950068339E+02 -0.10904098999E+03 -0.35186019328E+03  0.39206476576E+03  0.12499255274E+03 0.  0.
          5    1    3    3  502    0 -0.42371213421E+02 -0.31230958792E+02 -0.10425220364E+03  0.11688158314E+03  0.47000000000E+01 0. -1.
         -5    1    3    3    0  502  0.91321281760E+02 -0.77810031202E+02 -0.24760798965E+03  0.27518318262E+03  0.47000000000E+01 0. -1.
        -11    1    1    2    0    0 -0.76251230072E+02  0.86685546772E+02 -0.22564469245E+03  0.25346431966E+03  0.00000000000E+00 0. -1.
         11    1    1    2    0    0  0.27301161733E+02  0.22355443222E+02 -0.68750042027E+02  0.77276694756E+02  0.00000000000E+00 0.  1.
<mgrwt>
<rscale>  0 0.16710175E+03</rscale>
<asrwt>0</asrwt>
<pdfrwt beam="2">  1        1 0.10531235E+00 0.17294272E+03</pdfrwt>
<pdfrwt beam="1">  1       -1 0.58885276E-02 0.17294272E+03</pdfrwt>
<totfact> 0.39342818E+03</totfact>
</mgrwt>
</event>
<event>
 7    1  0.6419647E-006  0.1925376E+03  0.7546771E-02  0.1160025E+00
          2   -1    0    0  501    0  0.00000000000E+00  0.00000000000E+00  0.65177224933E+03  0.65177224933E+03  0.00000000000E+00 0. -1.
         -2   -1    0    0    0  501 -0.00000000000E+00 -0.00000000000E+00 -0.78086955337E+02  0.78086955337E+02  0.00000000000E+00 0.  1.
         23    2    1    2    0    0 -0.11159303821E+03  0.10237514622E+03  0.50574407326E+03  0.54115413705E+03  0.11889935099E+03 0.  0.
          5    1    3    3  502    0 -0.88251066923E+02  0.87552993098E+02  0.49615518021E+03  0.51151327477E+03  0.47000000000E+01 0. -1.
         -5    1    3    3    0  502 -0.23341971287E+02  0.14822153122E+02  0.95888930456E+01  0.29640862278E+02  0.47000000000E+01 0.  1.
        -11    1    1    2    0    0  0.62257341046E+02 -0.96328915617E+01 -0.10858426820E+01  0.63007524696E+02  0.00000000000E+00 0. -1.
         11    1    1    2    0    0  0.49335697164E+02 -0.92742254658E+02  0.69027063420E+02  0.12569754293E+03  0.00000000000E+00 0.  1.
<mgrwt>
<rscale>  0 0.18827631E+03</rscale>
<asrwt>0</asrwt>
<pdfrwt beam="1">  1        2 0.10027265E+00 0.19253761E+03</pdfrwt>
<pdfrwt beam="2">  1       -2 0.12013378E-01 0.19253761E+03</pdfrwt>
<totfact> 0.22381921E+03</totfact>
</mgrwt>
</event>
<event>
 7    1  0.6419647E-006  0.1641106E+03  0.7546771E-02  0.1190927E+00
         -2   -1    0    0    0  501 -0.00000000000E+00  0.00000000000E+00  0.15479393972E+03  0.15479393972E+03  0.00000000000E+00 0.  1.
          2   -1    0    0  501    0  0.00000000000E+00 -0.00000000000E+00 -0.20532164706E+03  0.20532164706E+03  0.00000000000E+00 0. -1.
         23    2    1    2    0    0 -0.13994252267E+01  0.10632461760E+03 -0.11951157005E+03  0.20301552766E+03  0.12500162557E+03 0.  0.
          5    1    3    3  502    0  0.54661543035E+02  0.37815606061E+02 -0.84721387318E+02  0.10778547127E+03  0.47000000000E+01 0. -1.
         -5    1    3    3    0  502 -0.56060968262E+02  0.68509011536E+02 -0.34790182735E+02  0.95230056384E+02  0.47000000000E+01 0. -1.
        -11    1    1    2    0    0 -0.42216536825E+02 -0.46711284438E+02  0.51129642151E+02  0.81107461937E+02  0.00000000000E+00 0.  1.
         11    1    1    2    0    0  0.43615962052E+02 -0.59613333159E+02  0.17854220558E+02  0.75992597190E+02  0.00000000000E+00 0. -1.
<mgrwt>
<rscale>  0 0.15804041E+03</rscale>
<asrwt>0</asrwt>
<pdfrwt beam="2">  1        2 0.31587946E-01 0.16411060E+03</pdfrwt>
<pdfrwt beam="1">  1       -2 0.23814452E-01 0.16411060E+03</pdfrwt>
<totfact> 0.25092538E+03</totfact>
</mgrwt>
</event>
<event>
 6    1  0.6419647E-006  0.3746131E+03  0.7546771E-02  0.1052943E+00
          2   -1    0    0  501    0  0.00000000000E+00  0.00000000000E+00  0.15490947666E+04  0.15490947666E+04  0.00000000000E+00 0. -1.
         -2   -1    0    0    0  501 -0.00000000000E+00 -0.00000000000E+00 -0.22647905616E+02  0.22647905616E+02  0.00000000000E+00 0.  1.
          5    1    1    2  502    0 -0.13584779012E+03 -0.52180776594E+02  0.79373292906E+03  0.80697677055E+03  0.47000000000E+01 0. -1.
         -5    1    1    2    0  502  0.15631284453E+02  0.22316680972E+02  0.36442039979E+03  0.36546776751E+03  0.47000000000E+01 0.  1.
        -11    1    1    2    0    0  0.44873361353E+02  0.31976860770E+02  0.26928415567E+03  0.27486377477E+03  0.00000000000E+00 0. -1.
         11    1    1    2    0    0  0.75343144313E+02 -0.21127651476E+01  0.99009376473E+02  0.12443435941E+03  0.00000000000E+00 0.  1.
<mgrwt>
<rscale>  0 0.37461314E+03</rscale>
<asrwt>0</asrwt>
<pdfrwt beam="1">  1        2 0.23832219E+00 0.37461314E+03</pdfrwt>
<pdfrwt beam="2">  1       -2 0.34842944E-02 0.37461314E+03</pdfrwt>
<totfact> 0.43538657E+03</totfact>
</mgrwt>
</event>
<event>
 7    1  0.6419647E-006  0.3139995E+03  0.7546771E-02  0.1079831E+00
         -1   -1    0    0    0  501 -0.00000000000E+00  0.00000000000E+00  0.77764474556E+02  0.77764474556E+02  0.00000000000E+00 0.  1.
          1   -1    0    0  501    0  0.00000000000E+00 -0.00000000000E+00 -0.12460007885E+04  0.12460007885E+04  0.00000000000E+00 0. -1.
         23    2    1    2    0    0  0.77547803102E+02 -0.27741247965E+03 -0.68713864784E+03  0.75548342782E+03  0.12499737088E+03 0.  0.
          5    1    3    3  502    0  0.90101612870E+02 -0.18567509165E+03 -0.35510988264E+03  0.41075376937E+03  0.47000000000E+01 0.  1.
         -5    1    3    3    0  502 -0.12553809768E+02 -0.91737387992E+02 -0.33202876521E+03  0.34472965846E+03  0.47000000000E+01 0.  1.
        -11    1    1    2    0    0  0.11533607648E+02  0.47616982548E+02 -0.13325826656E+03  0.14197945887E+03  0.00000000000E+00 0.  1.
         11    1    1    2    0    0 -0.89081410749E+02  0.22979549710E+03 -0.34783939955E+03  0.42630237638E+03  0.00000000000E+00 0. -1.
<mgrwt>
<rscale>  0 0.31107707E+03</rscale>
<asrwt>0</asrwt>
<pdfrwt beam="2">  1        1 0.19169241E+00 0.31399950E+03</pdfrwt>
<pdfrwt beam="1">  1       -1 0.11963766E-01 0.31399950E+03</pdfrwt>
<totfact> 0.48902986E+02</totfact>
</mgrwt>
</event>
<event>
 7    1  0.6419647E-006  0.1421816E+03  0.7546771E-02  0.1221062E+00
         -2   -1    0    0    0  501 -0.00000000000E+00  0.00000000000E+00  0.34130497977E+02  0.34130497977E+02  0.00000000000E+00 0.  1.
          2   -1    0    0  501    0  0.00000000000E+00 -0.00000000000E+00 -0.51641696603E+03  0.51641696603E+03  0.00000000000E+00 0. -1.
         23    2    1    2    0    0  0.57237598887E+02 -0.36253002112E+02 -0.33988254451E+03  0.36842335110E+03  0.12500079473E+03 0.  0.
          5    1    3    3  502    0  0.39405755421E+02 -0.46457921690E+02 -0.34183897253E+03  0.34725656968E+03  0.47000000000E+01 0. -1.
         -5    1    3    3    0  502  0.17831843466E+02  0.10204919577E+02  0.19564280167E+01  0.21166781417E+02  0.47000000000E+01 0. -1.
        -11    1    1    2    0    0 -0.31075497065E+02  0.65041834046E+02 -0.73188786457E+02  0.10272645792E+03  0.00000000000E+00 0. -1.
         11    1    1    2    0    0 -0.26162101822E+02 -0.28788831933E+02 -0.69215137082E+02  0.79397654985E+02  0.00000000000E+00 0.  1.
<mgrwt>
<rscale>  0 0.13440506E+03</rscale>
<asrwt>0</asrwt>
<pdfrwt beam="2">  1        2 0.79448760E-01 0.14218165E+03</pdfrwt>
<pdfrwt beam="1">  1       -2 0.52508461E-02 0.14218165E+03</pdfrwt>
<totfact> 0.10412713E+04</totfact>
</mgrwt>
</event>
<event>
 7    1  0.6419647E-006  0.1233631E+03  0.7546771E-02  0.1245074E+00
         -2   -1    0    0    0  501 -0.00000000000E+00  0.00000000000E+00  0.85761800424E+01  0.85761800424E+01  0.00000000000E+00 0.  1.
          2   -1    0    0  501    0  0.00000000000E+00 -0.00000000000E+00 -0.16925839900E+04  0.16925839900E+04  0.00000000000E+00 0. -1.
         23    2    1    2    0    0  0.52576098751E+02  0.15692670390E+02 -0.11579767666E+04  0.11645293712E+04  0.11048963011E+03 0.  0.
          5    1    3    3  502    0  0.73214190701E+02 -0.18567468624E+02 -0.92562407373E+03  0.92871259520E+03  0.47000000000E+01 0. -1.
         -5    1    3    3    0  502 -0.20638091950E+02  0.34260139014E+02 -0.23235269283E+03  0.23581677597E+03  0.47000000000E+01 0.  1.
        -11    1    1    2    0    0  0.19407934748E+02 -0.22570691007E+02 -0.94330473267E+02  0.98915833973E+02  0.00000000000E+00 0. -1.
         11    1    1    2    0    0 -0.71984033499E+02  0.68780206169E+01 -0.43170057016E+03  0.43771496493E+03  0.00000000000E+00 0.  1.
<mgrwt>
<rscale>  0 0.11880930E+03</rscale>
<asrwt>0</asrwt>
<pdfrwt beam="2">  1        2 0.26039724E+00 0.12336314E+03</pdfrwt>
<pdfrwt beam="1">  1       -2 0.13194138E-02 0.12336314E+03</pdfrwt>
<totfact> 0.14843654E+04</totfact>
</mgrwt>
</event>
<event>
 7    1  0.6419647E-006  0.1274379E+03  0.7546771E-02  0.1244762E+00
         -2   -1    0    0    0  501 -0.00000000000E+00  0.00000000000E+00  0.44455479882E+03  0.44455479882E+03  0.00000000000E+00 0.  1.
          2   -1    0    0  501    0  0.00000000000E+00 -0.00000000000E+00 -0.29264898684E+02  0.29264898684E+02  0.00000000000E+00 0. -1.
         23    2    1    2    0    0 -0.24788038276E+02  0.11957984967E+01  0.19230867448E+03  0.23070118644E+03  0.12499813747E+03 0.  0.
          5    1    3    3  502    0 -0.33488953552E+02 -0.42578349790E+02  0.17388705126E+03  0.18219007239E+03  0.47000000000E+01 0.  1.
         -5    1    3    3    0  502  0.87009152756E+01  0.43774148287E+02  0.18421623217E+02  0.48511114054E+02  0.47000000000E+01 0.  1.
        -11    1    1    2    0    0 -0.35203422609E+02 -0.83843089106E+01  0.92505106312E+02  0.99331627859E+02  0.00000000000E+00 0. -1.
         11    1    1    2    0    0  0.59991460885E+02  0.71885104140E+01  0.13047611935E+03  0.14378688320E+03  0.00000000000E+00 0.  1.
<mgrwt>
<rscale>  0 0.11899641E+03</rscale>
<asrwt>0</asrwt>
<pdfrwt beam="2">  1        2 0.45022924E-02 0.12743787E+03</pdfrwt>
<pdfrwt beam="1">  1       -2 0.68393041E-01 0.12743787E+03</pdfrwt>
<totfact> 0.34396352E+03</totfact>
</mgrwt>
</event>
<event>
 7    1  0.6419647E-006  0.1266344E+03  0.7546771E-02  0.1247464E+00
          1   -1    0    0  501    0  0.00000000000E+00  0.00000000000E+00  0.30163296846E+03  0.30163296846E+03  0.00000000000E+00 0.  1.
         -1   -1    0    0    0  501 -0.00000000000E+00 -0.00000000000E+00 -0.42097235824E+02  0.42097235824E+02  0.00000000000E+00 0. -1.
         23    2    1    2    0    0 -0.43862366595E+01  0.19801334023E+02  0.18476774715E+03  0.22399863113E+03  0.12499973784E+03 0.  0.
          5    1    3    3  502    0 -0.21295706544E+02  0.70036142043E+02  0.11071988613E+03  0.13281397326E+03  0.47000000000E+01 0. -1.
         -5    1    3    3    0  502  0.16909469884E+02 -0.50234808020E+02  0.74047861023E+02  0.91184657869E+02  0.47000000000E+01 0. -1.
        -11    1    1    2    0    0 -0.53709799899E+01  0.26920907116E+02  0.65622726016E+02  0.71133148643E+02  0.00000000000E+00 0.  1.
         11    1    1    2    0    0  0.97572166495E+01 -0.46722241140E+02  0.91452594635E+01  0.48598424506E+02  0.00000000000E+00 0. -1.
<mgrwt>
<rscale>  0 0.11739137E+03</rscale>
<asrwt>0</asrwt>
<pdfrwt beam="1">  1        1 0.46405071E-01 0.12663438E+03</pdfrwt>
<pdfrwt beam="2">  1       -1 0.64764980E-02 0.12663438E+03</pdfrwt>
<totfact> 0.97440236E+03</totfact>
</mgrwt>
</event>
<event>
 7    1  0.6419647E-006  0.2158142E+03  0.7546771E-02  0.1140605E+00
          2   -1    0    0  501    0  0.00000000000E+00  0.00000000000E+00  0.11326296041E+04  0.11326296041E+04  0.00000000000E+00 0. -1.
         -2   -1    0    0    0  501 -0.00000000000E+00 -0.00000000000E+00 -0.44369818774E+02  0.44369818774E+02  0.00000000000E+00 0.  1.
         23    2    1    2    0    0  0.17574094978E+03  0.83150666861E+01  0.79036607379E+03  0.81930111128E+03  0.12498703362E+03 0.  0.
          5    1    3    3  502    0  0.90175320084E+02  0.39875996691E+02  0.60114828357E+03  0.60919868049E+03  0.47000000000E+01 0.  1.
         -5    1    3    3    0  502  0.85565629697E+02 -0.31560930005E+02  0.18921779022E+03  0.21010243079E+03  0.47000000000E+01 0.  1.
        -11    1    1    2    0    0 -0.13659443437E+03 -0.16538252060E+02  0.28360937809E+03  0.31522346458E+03  0.00000000000E+00 0. -1.
         11    1    1    2    0    0 -0.39146515411E+02  0.82231853743E+01  0.14284333434E+02  0.42474847006E+02  0.00000000000E+00 0.  1.
<mgrwt>
<rscale>  0 0.21121808E+03</rscale>
<asrwt>0</asrwt>
<pdfrwt beam="1">  1        2 0.17425069E+00 0.21581423E+03</pdfrwt>
<pdfrwt beam="2">  1       -2 0.68261268E-02 0.21581423E+03</pdfrwt>
<totfact> 0.26406346E+03</totfact>
</mgrwt>
</event>
<event>
 7    1  0.6419647E-006  0.1692553E+03  0.7546771E-02  0.1185721E+00
          1   -1    0    0  501    0  0.00000000000E+00  0.00000000000E+00  0.54910624474E+03  0.54910624474E+03  0.00000000000E+00 0. -1.
         -1   -1    0    0    0  501 -0.00000000000E+00 -0.00000000000E+00 -0.51509390214E+02  0.51509390214E+02  0.00000000000E+00 0.  1.
         23    2    1    2    0    0 -0.56705418161E+02  0.99031304767E+02  0.37412482097E+03  0.41062970059E+03  0.12499866226E+03 0.  0.
          5    1    3    3  502    0 -0.80002600967E+02  0.10825673243E+03  0.25062351422E+03  0.28452446671E+03  0.47000000000E+01 0.  1.
         -5    1    3    3    0  502  0.23297182807E+02 -0.92254276631E+01  0.12350130675E+03  0.12610523388E+03  0.47000000000E+01 0.  1.
        -11    1    1    2    0    0  0.30765427774E+02 -0.12977470753E+02  0.86643147199E+02  0.92854516583E+02  0.00000000000E+00 0. -1.
         11    1    1    2    0    0  0.25939990386E+02 -0.86053834014E+02  0.36828886355E+02  0.97131417780E+02  0.00000000000E+00 0.  1.
<mgrwt>
<rscale>  0 0.16266467E+03</rscale>
<asrwt>0</asrwt>
<pdfrwt beam="1">  1        1 0.84477880E-01 0.16925534E+03</pdfrwt>
<pdfrwt beam="2">  1       -1 0.79245220E-02 0.16925534E+03</pdfrwt>
<totfact> 0.34089543E+03</totfact>
</mgrwt>
</event>
<event>
 7    1  0.6419647E-006  0.2495358E+03  0.7546771E-02  0.1116051E+00
          1   -1    0    0  501    0  0.00000000000E+00  0.00000000000E+00  0.88715908323E+03  0.88715908323E+03  0.00000000000E+00 0. -1.
         -1   -1    0    0    0  501 -0.00000000000E+00 -0.00000000000E+00 -0.71009373960E+02  0.71009373960E+02  0.00000000000E+00 0.  1.
         23    2    1    2    0    0 -0.20016642691E+03  0.81068598546E+02  0.54653290422E+03  0.60080475671E+03  0.12501769536E+03 0.  0.
          5    1    3    3  502    0 -0.16087144051E+03  0.11465908463E+03  0.42968184507E+03  0.47294281266E+03  0.47000000000E+01 0. -1.
         -5    1    3    3    0  502 -0.39294986396E+02 -0.33590486084E+02  0.11685105915E+03  0.12786194405E+03  0.47000000000E+01 0. -1.
        -11    1    1    2    0    0  0.41736461047E+02  0.52026207182E+01  0.13656884985E+02  0.44221148227E+02  0.00000000000E+00 0.  1.
         11    1    1    2    0    0  0.15842996586E+03 -0.86271219265E+02  0.25595992006E+03  0.31314255225E+03  0.00000000000E+00 0. -1.
<mgrwt>
<rscale>  0 0.24570299E+03</rscale>
<asrwt>0</asrwt>
<pdfrwt beam="1">  1        1 0.13648600E+00 0.24953585E+03</pdfrwt>
<pdfrwt beam="2">  1       -1 0.10924520E-01 0.24953585E+03</pdfrwt>
<totfact> 0.10400208E+03</totfact>
</mgrwt>
</event>
<event>
 7    1  0.6419647E-006  0.1457589E+03  0.7546771E-02  0.1220485E+00
         -1   -1    0    0    0  501 -0.00000000000E+00  0.00000000000E+00  0.40464172791E+02  0.40464172791E+02  0.00000000000E+00 0.  1.
          1   -1    0    0  501    0  0.00000000000E+00 -0.00000000000E+00 -0.39526561764E+03  0.39526561764E+03  0.00000000000E+00 0. -1.
         23    2    1    2    0    0 -0.26077986391E+02 -0.70281306442E+02 -0.21846931942E+03  0.26262998733E+03  0.12500457313E+03 0.  0.
          5    1    3    3  502    0  0.49315832741E+02 -0.29282362013E+02 -0.11088965227E+03  0.12493243400E+03  0.47000000000E+01 0. -1.
         -5    1    3    3    0  502 -0.75393819131E+02 -0.40998944429E+02 -0.10757966715E+03  0.13769755332E+03  0.47000000000E+01 0. -1.
        -11    1    1    2    0    0  0.44765912407E+02  0.13378630439E+02 -0.62337241712E+02  0.77903185880E+02  0.00000000000E+00 0. -1.
         11    1    1    2    0    0 -0.18687926016E+02  0.56902676003E+02 -0.73994883709E+02  0.95196617220E+02  0.00000000000E+00 0.  1.
<mgrwt>
<rscale>  0 0.13481254E+03</rscale>
<asrwt>0</asrwt>
<pdfrwt beam="2">  1        1 0.60810097E-01 0.14575893E+03</pdfrwt>
<pdfrwt beam="1">  1       -1 0.62252571E-02 0.14575893E+03</pdfrwt>
<totfact> 0.74516127E+03</totfact>
</mgrwt>
</event>
<event>
 7    1  0.6419647E-006  0.1407404E+03  0.7546771E-02  0.1222883E+00
          1   -1    0    0  501    0  0.00000000000E+00  0.00000000000E+00  0.34956658182E+03  0.34956658182E+03  0.00000000000E+00 0. -1.
         -1   -1    0    0    0  501 -0.00000000000E+00 -0.00000000000E+00 -0.48692119919E+02  0.48692119919E+02  0.00000000000E+00 0.  1.
         23    2    1    2    0    0 -0.20587004801E+02  0.61305642723E+02  0.21329952534E+03  0.25554754795E+03  0.12500262060E+03 0.  0.
          5    1    3    3  502    0 -0.33565216156E+02 -0.29791984313E+02  0.45297162477E+02  0.63938321791E+02  0.47000000000E+01 0.  1.
         -5    1    3    3    0  502  0.12978211355E+02  0.91097627036E+02  0.16800236287E+03  0.19160922616E+03  0.47000000000E+01 0.  1.
        -11    1    1    2    0    0  0.53267344789E+01 -0.66475373797E+02  0.10147815488E+03  0.12142967240E+03  0.00000000000E+00 0. -1.
         11    1    1    2    0    0  0.15260270323E+02  0.51697310741E+01 -0.13903218330E+02  0.21281481378E+02  0.00000000000E+00 0.  1.
<mgrwt>
<rscale>  0 0.13313038E+03</rscale>
<asrwt>0</asrwt>
<pdfrwt beam="1">  1        1 0.53779472E-01 0.14074041E+03</pdfrwt>
<pdfrwt beam="2">  1       -1 0.74910956E-02 0.14074041E+03</pdfrwt>
<totfact> 0.65719533E+03</totfact>
</mgrwt>
</event>
<event>
 7    1  0.6419647E-006  0.1378007E+03  0.7546771E-02  0.1227405E+00
         -2   -1    0    0    0  501 -0.00000000000E+00  0.00000000000E+00  0.20153298003E+02  0.20153298003E+02  0.00000000000E+00 0.  1.
          2   -1    0    0  501    0  0.00000000000E+00 -0.00000000000E+00 -0.97714183544E+03  0.97714183544E+03  0.00000000000E+00 0. -1.
         23    2    1    2    0    0 -0.30662116586E+02 -0.49244224835E+02 -0.75666651696E+03  0.76911199168E+03  0.12499551505E+03 0.  0.
          5    1    3    3  502    0 -0.43878177068E+02 -0.55981183916E+02 -0.20166921098E+03  0.21389658256E+03  0.47000000000E+01 0. -1.
         -5    1    3    3    0  502  0.13216060482E+02  0.67369590818E+01 -0.55499730599E+03  0.55521540912E+03  0.47000000000E+01 0. -1.
        -11    1    1    2    0    0  0.64268193217E+00  0.69069068691E+02 -0.15924617157E+03  0.17358079516E+03  0.00000000000E+00 0. -1.
         11    1    1    2    0    0  0.30019434654E+02 -0.19824843856E+02 -0.41075848907E+02  0.54602346601E+02  0.00000000000E+00 0.  1.
<mgrwt>
<rscale>  0 0.13003431E+03</rscale>
<asrwt>0</asrwt>
<pdfrwt beam="2">  1        2 0.15032953E+00 0.13780072E+03</pdfrwt>
<pdfrwt beam="1">  1       -2 0.31005071E-02 0.13780072E+03</pdfrwt>
<totfact> 0.10542905E+04</totfact>
</mgrwt>
</event>
<event>
 7    1  0.6419647E-006  0.1374437E+03  0.7546771E-02  0.1228508E+00
          1   -1    0    0  501    0  0.00000000000E+00  0.00000000000E+00  0.44646262355E+03  0.44646262355E+03  0.00000000000E+00 0. -1.
         -1   -1    0    0    0  501 -0.00000000000E+00 -0.00000000000E+00 -0.33858278669E+02  0.33858278669E+02  0.00000000000E+00 0.  1.
         23    2    1    2    0    0  0.51117188891E+02 -0.25531719719E+02  0.25073044939E+03  0.28593096651E+03  0.12500369453E+03 0.  0.
          5    1    3    3  502    0 -0.21042284540E+02  0.18172582371E+02  0.85976175451E+01  0.29479306575E+02  0.47000000000E+01 0. -1.
         -5    1    3    3    0  502  0.72159473431E+02 -0.43704302090E+02  0.24213283184E+03  0.25645165993E+03  0.47000000000E+01 0. -1.
        -11    1    1    2    0    0 -0.29683740625E+02  0.43283255537E+02  0.31786927742E+02  0.61359379418E+02  0.00000000000E+00 0.  1.
         11    1    1    2    0    0 -0.21433448267E+02 -0.17751535818E+02  0.13008696775E+03  0.13303055629E+03  0.00000000000E+00 0. -1.
<mgrwt>
<rscale>  0 0.12929365E+03</rscale>
<asrwt>0</asrwt>
<pdfrwt beam="1">  1        1 0.68686553E-01 0.13744366E+03</pdfrwt>
<pdfrwt beam="2">  1       -1 0.52089663E-02 0.13744366E+03</pdfrwt>
<totfact> 0.82910248E+03</totfact>
</mgrwt>
</event>
<event>
 7    1  0.6419647E-006  0.1327735E+03  0.7546771E-02  0.1236685E+00
          2   -1    0    0  501    0  0.00000000000E+00  0.00000000000E+00  0.73149319203E+03  0.73149319203E+03  0.00000000000E+00 0. -1.
         -2   -1    0    0    0  501 -0.00000000000E+00 -0.00000000000E+00 -0.18695675289E+02  0.18695675289E+02  0.00000000000E+00 0.  1.
         23    2    1    2    0    0 -0.12116336464E+02  0.43114272847E+02  0.42016460472E+03  0.44064394874E+03  0.12499259324E+03 0.  0.
          5    1    3    3  502    0 -0.11576689631E+01 -0.14626659801E+02  0.34390701352E+03  0.34425194745E+03  0.47000000000E+01 0.  1.
         -5    1    3    3    0  502 -0.10958667501E+02  0.57740932648E+02  0.76257591201E+02  0.96392001287E+02  0.47000000000E+01 0.  1.
        -11    1    1    2    0    0 -0.14515810478E+02 -0.47785448115E+02  0.26911389837E+03  0.27370869205E+03  0.00000000000E+00 0. -1.
         11    1    1    2    0    0  0.26632146942E+02  0.46711752676E+01  0.23519013643E+02  0.35836226530E+02  0.00000000000E+00 0.  1.
<mgrwt>
<rscale>  0 0.12397196E+03</rscale>
<asrwt>0</asrwt>
<pdfrwt beam="1">  1        2 0.11253739E+00 0.13277347E+03</pdfrwt>
<pdfrwt beam="2">  1       -2 0.28762583E-02 0.13277347E+03</pdfrwt>
<totfact> 0.16986426E+04</totfact>
</mgrwt>
</event>
<event>
 7    1  0.6419647E-006  0.2919107E+03  0.7546771E-02  0.1091048E+00
         -2   -1    0    0    0  501 -0.00000000000E+00  0.00000000000E+00  0.90307323035E+02  0.90307323035E+02  0.00000000000E+00 0.  1.
          2   -1    0    0  501    0  0.00000000000E+00 -0.00000000000E+00 -0.12698316045E+04  0.12698316045E+04  0.00000000000E+00 0. -1.
         23    2    1    2    0    0 -0.22814859937E+03 -0.13242842395E+03 -0.96471287265E+03  0.10079100944E+04  0.12499104337E+03 0.  0.
          5    1    3    3  502    0 -0.59541094477E+02  0.71307871383E+00 -0.38589189594E+03  0.39048725429E+03  0.47000000000E+01 0. -1.
         -5    1    3    3    0  502 -0.16860750489E+03 -0.13314150267E+03 -0.57882097672E+03  0.61742284014E+03  0.47000000000E+01 0. -1.
        -11    1    1    2    0    0  0.49128826244E+02  0.33735547547E+02 -0.10358743520E+03  0.11950767954E+03  0.00000000000E+00 0. -1.
         11    1    1    2    0    0  0.17901977313E+03  0.98692876406E+02 -0.11122397365E+03  0.23272115361E+03  0.00000000000E+00 0.  1.
<mgrwt>
<rscale>  0 0.28866520E+03</rscale>
<asrwt>0</asrwt>
<pdfrwt beam="2">  1        2 0.19535872E+00 0.29191066E+03</pdfrwt>
<pdfrwt beam="1">  1       -2 0.13893434E-01 0.29191066E+03</pdfrwt>
<totfact> 0.71020779E+02</totfact>
</mgrwt>
</event>
<event>
 7    1  0.6419647E-006  0.2176029E+03  0.7546771E-02  0.1141977E+00
          2   -1    0    0  501    0  0.00000000000E+00  0.00000000000E+00  0.18495371237E+03  0.18495371237E+03  0.00000000000E+00 0. -1.
         -2   -1    0    0    0  501 -0.00000000000E+00 -0.00000000000E+00 -0.25224686846E+03  0.25224686846E+03  0.00000000000E+00 0.  1.
         23    2    1    2    0    0  0.55311036881E+02  0.16931400008E+03  0.40663990642E+02  0.22136976806E+03  0.12499789060E+03 0.  0.
          5    1    3    3  502    0  0.59470052449E+02  0.15357514275E+03  0.76561056233E+02  0.18167470088E+03  0.47000000000E+01 0.  1.
         -5    1    3    3    0  502 -0.41590155687E+01  0.15738857331E+02 -0.35897065592E+02  0.39695067183E+02  0.47000000000E+01 0.  1.
        -11    1    1    2    0    0 -0.32949237715E+02 -0.11286730571E+03 -0.10046772818E+03  0.15465589342E+03  0.00000000000E+00 0.  1.
         11    1    1    2    0    0 -0.22361799166E+02 -0.56446694367E+02 -0.74894185620E+01  0.61174919348E+02  0.00000000000E+00 0. -1.
<mgrwt>
<rscale>  0 0.20948141E+03</rscale>
<asrwt>0</asrwt>
<pdfrwt beam="1">  1        2 0.28454417E-01 0.21760288E+03</pdfrwt>
<pdfrwt beam="2">  1       -2 0.38807210E-01 0.21760288E+03</pdfrwt>
<totfact> 0.11691287E+03</totfact>
</mgrwt>
</event>
<event>
 7    1  0.6419647E-006  0.1336883E+03  0.7546771E-02  0.1240587E+00
         -2   -1    0    0    0  501 -0.00000000000E+00  0.00000000000E+00  0.24610232309E+02  0.24610232309E+02  0.00000000000E+00 0.  1.
          2   -1    0    0  501    0  0.00000000000E+00 -0.00000000000E+00 -0.66661007907E+03  0.66661007907E+03  0.00000000000E+00 0. -1.
         23    2    1    2    0    0 -0.19987254173E+02 -0.42977452759E+02 -0.53058838784E+03  0.54717144490E+03  0.12500400406E+03 0.  0.
          5    1    3    3  502    0 -0.94330209499E+01  0.42877133661E+02 -0.12904068094E+03  0.13638554841E+03  0.47000000000E+01 0. -1.
         -5    1    3    3    0  502 -0.10554233223E+02 -0.85854586420E+02 -0.40154770690E+03  0.41078589650E+03  0.47000000000E+01 0. -1.
        -11    1    1    2    0    0  0.90863753577E+01 -0.13229407255E+02 -0.73848787564E+02  0.75572632998E+02  0.00000000000E+00 0. -1.
         11    1    1    2    0    0  0.10900878815E+02  0.56206860015E+02 -0.37562671354E+02  0.68476233475E+02  0.00000000000E+00 0.  1.
<mgrwt>
<rscale>  0 0.12153458E+03</rscale>
<asrwt>0</asrwt>
<pdfrwt beam="2">  1        2 0.10255538E+00 0.13368827E+03</pdfrwt>
<pdfrwt beam="1">  1       -2 0.37861903E-02 0.13368827E+03</pdfrwt>
<totfact> 0.12652137E+04</totfact>
</mgrwt>
</event>
<event>
 7    1  0.6419647E-006  0.1326756E+03  0.7546771E-02  0.1236618E+00
          2   -1    0    0  501    0  0.00000000000E+00  0.00000000000E+00  0.38824296577E+02  0.38824296577E+02  0.00000000000E+00 0. -1.
         -2   -1    0    0    0  501 -0.00000000000E+00 -0.00000000000E+00 -0.35365202792E+03  0.35365202792E+03  0.00000000000E+00 0.  1.
         23    2    1    2    0    0 -0.41179884184E+01  0.44275978209E+02 -0.16711672799E+03  0.21337952930E+03  0.12500201068E+03 0.  0.
          5    1    3    3  502    0  0.36455550778E+02 -0.12094106018E+02 -0.12758819694E+03  0.13332708870E+03  0.47000000000E+01 0. -1.
         -5    1    3    3    0  502 -0.40573539196E+02  0.56370084227E+02 -0.39528531044E+02  0.80052440595E+02  0.47000000000E+01 0. -1.
        -11    1    1    2    0    0  0.24851996253E+02  0.27403051877E+01 -0.11611166137E+03  0.11877309837E+03  0.00000000000E+00 0.  1.
         11    1    1    2    0    0 -0.20734007834E+02 -0.47016283397E+02 -0.31599341988E+02  0.60323696832E+02  0.00000000000E+00 0. -1.
<mgrwt>
<rscale>  0 0.12401424E+03</rscale>
<asrwt>0</asrwt>
<pdfrwt beam="1">  1        2 0.59729688E-02 0.13267563E+03</pdfrwt>
<pdfrwt beam="2">  1       -2 0.54408004E-01 0.13267563E+03</pdfrwt>
<totfact> 0.38270641E+03</totfact>
</mgrwt>
</event>
<event>
 7    1  0.6419647E-006  0.1591553E+03  0.7546771E-02  0.1198289E+00
         -2   -1    0    0    0  501 -0.00000000000E+00  0.00000000000E+00  0.55416099027E+03  0.55416099027E+03  0.00000000000E+00 0.  1.
          2   -1    0    0  501    0  0.00000000000E+00 -0.00000000000E+00 -0.40119728113E+02  0.40119728113E+02  0.00000000000E+00 0. -1.
         23    2    1    2    0    0 -0.51595217755E+02 -0.83931476005E+02  0.21471010495E+03  0.26726549763E+03  0.12499543150E+03 0.  0.
          5    1    3    3  502    0  0.55924346192E+01 -0.35824457232E+02 -0.33428744768E+01  0.36714191680E+02  0.47000000000E+01 0.  1.
         -5    1    3    3    0  502 -0.57187652374E+02 -0.48107018772E+02  0.21805297942E+03  0.23055130595E+03  0.47000000000E+01 0.  1.
        -11    1    1    2    0    0  0.52370117043E+02  0.54277193583E+02  0.28355928185E+03  0.29341865862E+03  0.00000000000E+00 0.  1.
         11    1    1    2    0    0 -0.77489928809E+00  0.29654282422E+02  0.15771875360E+02  0.33596562134E+02  0.00000000000E+00 0. -1.
<mgrwt>
<rscale>  0 0.15179114E+03</rscale>
<asrwt>0</asrwt>
<pdfrwt beam="2">  1        2 0.61722663E-02 0.15915532E+03</pdfrwt>
<pdfrwt beam="1">  1       -2 0.85255531E-01 0.15915532E+03</pdfrwt>
<totfact> 0.14343710E+03</totfact>
</mgrwt>
</event>
<event>
 7    1  0.6419647E-006  0.1151936E+03  0.7546771E-02  0.1260407E+00
         -1   -1    0    0    0  501 -0.00000000000E+00  0.00000000000E+00  0.20668111837E+03  0.20668111837E+03  0.00000000000E+00 0.  1.
          1   -1    0    0  501    0  0.00000000000E+00 -0.00000000000E+00 -0.73010258301E+02  0.73010258301E+02  0.00000000000E+00 0. -1.
         23    2    1    2    0    0 -0.23440121880E+02  0.79512773206E+01  0.15623816318E+00  0.11519371153E+03  0.11250290948E+03 0.  0.
          5    1    3    3  502    0  0.38603851146E+02 -0.23163742934E+02 -0.43913522509E+01  0.45477360132E+02  0.47000000000E+01 0. -1.
         -5    1    3    3    0  502 -0.62043973027E+02  0.31115020254E+02  0.45475904141E+01  0.69716351403E+02  0.47000000000E+01 0.  1.
        -11    1    1    2    0    0 -0.86381360659E+01  0.18457544642E+02  0.11862063657E+03  0.12035843871E+03  0.00000000000E+00 0.  1.
         11    1    1    2    0    0  0.32078257946E+02 -0.26408821963E+02  0.14893985340E+02  0.44139226428E+02  0.00000000000E+00 0. -1.
<mgrwt>
<rscale>  0 0.11008827E+03</rscale>
<asrwt>0</asrwt>
<pdfrwt beam="2">  1        1 0.11232348E-01 0.11519361E+03</pdfrwt>
<pdfrwt beam="1">  1       -1 0.31797095E-01 0.11519361E+03</pdfrwt>
<totfact> 0.47863012E+03</totfact>
</mgrwt>
</event>
<event>
 7    1  0.6419647E-006  0.1705995E+03  0.7546771E-02  0.1183734E+00
         -1   -1    0    0    0  501 -0.00000000000E+00  0.00000000000E+00  0.52913657050E+03  0.52913657050E+03  0.00000000000E+00 0.  1.
          1   -1    0    0  501    0  0.00000000000E+00 -0.00000000000E+00 -0.50714584929E+02  0.50714584929E+02  0.00000000000E+00 0. -1.
         23    2    1    2    0    0 -0.52109783571E+02 -0.10375103345E+03  0.32527734170E+03  0.36730032722E+03  0.12499789945E+03 0.  0.
          5    1    3    3  502    0 -0.22910981056E+02 -0.11301751442E+03  0.31363071929E+03  0.33419184566E+03  0.47000000000E+01 0. -1.
         -5    1    3    3    0  502 -0.29198802515E+02  0.92664809727E+01  0.11646622405E+02  0.33108481563E+02  0.47000000000E+01 0. -1.
        -11    1    1    2    0    0 -0.17918069447E+02  0.28873743219E+02  0.79089524308E+02  0.86080794115E+02  0.00000000000E+00 0.  1.
         11    1    1    2    0    0  0.70027853018E+02  0.74877290229E+02  0.74055119565E+02  0.12647003410E+03  0.00000000000E+00 0. -1.
<mgrwt>
<rscale>  0 0.16447586E+03</rscale>
<asrwt>0</asrwt>
<pdfrwt beam="2">  1        1 0.78022442E-02 0.17059948E+03</pdfrwt>
<pdfrwt beam="1">  1       -1 0.81405622E-01 0.17059948E+03</pdfrwt>
<totfact> 0.13955188E+03</totfact>
</mgrwt>
</event>
<event>
 7    1  0.6419647E-006  0.1354717E+03  0.7546771E-02  0.1237382E+00
         -2   -1    0    0    0  501 -0.00000000000E+00  0.00000000000E+00  0.10814867249E+03  0.10814867249E+03  0.00000000000E+00 0.  1.
          2   -1    0    0  501    0  0.00000000000E+00 -0.00000000000E+00 -0.12859094364E+03  0.12859094364E+03  0.00000000000E+00 0. -1.
         23    2    1    2    0    0 -0.50218555186E+02 -0.14343847548E+02 -0.39592197094E+02  0.14113868147E+03  0.12499974435E+03 0.  0.
          5    1    3    3  502    0 -0.43173143253E+02 -0.48908605126E+02 -0.68925870854E+02  0.95020195889E+02  0.47000000000E+01 0.  1.
         -5    1    3    3    0  502 -0.70454119328E+01  0.34564757579E+02  0.29333673759E+02  0.46118485578E+02  0.47000000000E+01 0.  1.
        -11    1    1    2    0    0  0.22832737849E+02  0.21797536482E+02  0.46488929531E+02  0.56193301054E+02  0.00000000000E+00 0.  1.
         11    1    1    2    0    0  0.27385817338E+02 -0.74536889337E+01 -0.27339003588E+02  0.39407633616E+02  0.00000000000E+00 0. -1.
<mgrwt>
<rscale>  0 0.12353183E+03</rscale>
<asrwt>0</asrwt>
<pdfrwt beam="2">  1        2 0.19783222E-01 0.13547171E+03</pdfrwt>
<pdfrwt beam="1">  1       -2 0.16638257E-01 0.13547171E+03</pdfrwt>
<totfact> 0.76505448E+03</totfact>
</mgrwt>
</event>
<event>
 7    1  0.6419647E-006  0.1255281E+03  0.7546771E-02  0.1249696E+00
         -2   -1    0    0    0  501 -0.00000000000E+00  0.00000000000E+00  0.16777294580E+03  0.16777294580E+03  0.00000000000E+00 0. -1.
          2   -1    0    0  501    0  0.00000000000E+00 -0.00000000000E+00 -0.71536138658E+02  0.71536138658E+02  0.00000000000E+00 0.  1.
         23    2    1    2    0    0  0.57573990246E+01 -0.92797815173E+01  0.40490342808E+02  0.13189680898E+03  0.12505214261E+03 0.  0.
          5    1    3    3  502    0 -0.19110699530E+02  0.31661111301E+02 -0.29093703825E+02  0.47288248092E+02  0.47000000000E+01 0.  1.
         -5    1    3    3    0  502  0.24868098555E+02 -0.40940892819E+02  0.69584046632E+02  0.84608560892E+02  0.47000000000E+01 0.  1.
        -11    1    1    2    0    0 -0.58643009805E+01 -0.31791502641E+02 -0.63660442477E+01  0.32948690195E+02  0.00000000000E+00 0.  1.
         11    1    1    2    0    0  0.10690195590E+00  0.41071284158E+02  0.62112508585E+02  0.74463585283E+02  0.00000000000E+00 0. -1.
<mgrwt>
<rscale>  0 0.11608668E+03</rscale>
<asrwt>0</asrwt>
<pdfrwt beam="2">  1        2 0.11005560E-01 0.12552809E+03</pdfrwt>
<pdfrwt beam="1">  1       -2 0.25811222E-01 0.12552809E+03</pdfrwt>
<totfact> 0.71676836E+03</totfact>
</mgrwt>
</event>
<event>
 7    1  0.8965013E-006  0.1702229E+03  0.7546771E-02  0.1184216E+00
          1   -1    0    0  501    0  0.00000000000E+00  0.00000000000E+00  0.88035575879E+03  0.88035575879E+03  0.00000000000E+00 0. -1.
         -1   -1    0    0    0  501 -0.00000000000E+00 -0.00000000000E+00 -0.28601187070E+02  0.28601187070E+02  0.00000000000E+00 0.  1.
         23    2    1    2    0    0 -0.66427297663E+02  0.94540341635E+02  0.47863914049E+03  0.50800713829E+03  0.12500145471E+03 0.  0.
          5    1    3    3  502    0  0.54072688732E+01  0.70801299404E+02  0.10557104982E+03  0.12731613847E+03  0.47000000000E+01 0. -1.
         -5    1    3    3    0  502 -0.71834566536E+02  0.23739042231E+02  0.37306809066E+03  0.38069099982E+03  0.47000000000E+01 0. -1.
        -11    1    1    2    0    0  0.16974510173E+02 -0.94642257904E+02  0.26947452865E+03  0.28611503381E+03  0.00000000000E+00 0.  1.
         11    1    1    2    0    0  0.49452787489E+02  0.10191626897E+00  0.10364090258E+03  0.11483477376E+03  0.00000000000E+00 0. -1.
<mgrwt>
<rscale>  0 0.16403379E+03</rscale>
<asrwt>0</asrwt>
<pdfrwt beam="1">  1        1 0.13543933E+00 0.17022287E+03</pdfrwt>
<pdfrwt beam="2">  1       -1 0.44001833E-02 0.17022287E+03</pdfrwt>
<totfact> 0.41568793E+03</totfact>
</mgrwt>
</event>
<event>
 6    1  0.6419647E-006  0.2705100E+03  0.7546771E-02  0.1133633E+00
         -1   -1    0    0    0  501 -0.00000000000E+00  0.00000000000E+00  0.18812546022E+03  0.18812546022E+03  0.00000000000E+00 0.  1.
          1   -1    0    0  501    0  0.00000000000E+00 -0.00000000000E+00 -0.49711589084E+03  0.49711589084E+03  0.00000000000E+00 0. -1.
          5    1    1    2  502    0 -0.34561984092E+02  0.36911831327E+01 -0.46173805654E+03  0.46306833020E+03  0.47000000000E+01 0. -1.
         -5    1    1    2    0  502 -0.40606817572E+02  0.67029690462E+00  0.26975290979E+02  0.48980804962E+02  0.47000000000E+01 0.  1.
        -11    1    1    2    0    0  0.20368138345E+02  0.42271371057E+02  0.54435131217E+02  0.71867331808E+02  0.00000000000E+00 0.  1.
         11    1    1    2    0    0  0.54800663319E+02 -0.46632851094E+02  0.71337203726E+02  0.10132488409E+03  0.00000000000E+00 0. -1.
<mgrwt>
<rscale>  0 0.22033577E+03</rscale>
<asrwt>0</asrwt>
<pdfrwt beam="2">  1        1 0.76479369E-01 0.27050999E+03</pdfrwt>
<pdfrwt beam="1">  1       -1 0.28942378E-01 0.27050999E+03</pdfrwt>
<totfact> 0.49721250E+02</totfact>
</mgrwt>
</event>
<event>
 7    1  0.6419647E-006  0.2880291E+03  0.7546771E-02  0.1093305E+00
         -1   -1    0    0    0  501 -0.00000000000E+00  0.00000000000E+00  0.36778403752E+03  0.36778403752E+03  0.00000000000E+00 0.  1.
          1   -1    0    0  501    0  0.00000000000E+00 -0.00000000000E+00 -0.22745112752E+03  0.22745112752E+03  0.00000000000E+00 0. -1.
         23    2    1    2    0    0 -0.66464393020E+02  0.25083811710E+03  0.10611140004E+01  0.28803105768E+03  0.12499395063E+03 0.  0.
          5    1    3    3  502    0 -0.97710439226E+02  0.22083724568E+03  0.15759793912E+02  0.24204726836E+03  0.47000000000E+01 0. -1.
         -5    1    3    3    0  502  0.31246046206E+02  0.30000871416E+02 -0.14698679912E+02  0.45983789322E+02  0.47000000000E+01 0. -1.
        -11    1    1    2    0    0  0.31645212917E+02 -0.23210769580E+03  0.11759861480E+03  0.26211607382E+03  0.00000000000E+00 0. -1.
         11    1    1    2    0    0  0.34819180103E+02 -0.18730421297E+02  0.21673181202E+02  0.45088033539E+02  0.00000000000E+00 0.  1.
<mgrwt>
<rscale>  0 0.28440931E+03</rscale>
<asrwt>0</asrwt>
<pdfrwt beam="2">  1        1 0.34992481E-01 0.28802910E+03</pdfrwt>
<pdfrwt beam="1">  1       -1 0.56582160E-01 0.28802910E+03</pdfrwt>
<totfact> 0.40686240E+02</totfact>
</mgrwt>
</event>
<event>
 7    1  0.6419647E-006  0.1844262E+03  0.7546771E-02  0.1167546E+00
          4   -1    0    0  501    0  0.00000000000E+00  0.00000000000E+00  0.79034243437E+03  0.79034243437E+03  0.00000000000E+00 0. -1.
         -4   -1    0    0    0  501 -0.00000000000E+00 -0.00000000000E+00 -0.43170535844E+02  0.43170535844E+02  0.00000000000E+00 0.  1.
         23    2    1    2    0    0  0.12580463010E+03  0.50612834203E+02  0.26547948788E+03  0.32325281649E+03  0.12499824377E+03 0.  0.
          5    1    3    3  502    0  0.93199283261E+02  0.47949361507E+02  0.27021256139E+03  0.28986577238E+03  0.47000000000E+01 0. -1.
         -5    1    3    3    0  502  0.32605346842E+02  0.26634726959E+01 -0.47330735068E+01  0.33387044109E+02  0.47000000000E+01 0. -1.
        -11    1    1    2    0    0  0.21044806269E+01 -0.38685177081E+02  0.13833574965E+03  0.14365845396E+03  0.00000000000E+00 0. -1.
         11    1    1    2    0    0 -0.12790911073E+03 -0.11927657122E+02  0.34335666100E+03  0.36660169976E+03  0.00000000000E+00 0.  1.
<mgrwt>
<rscale>  0 0.18026559E+03</rscale>
<asrwt>0</asrwt>
<pdfrwt beam="1">  1        4 0.12159113E+00 0.18442620E+03</pdfrwt>
<pdfrwt beam="2">  1       -4 0.66416215E-02 0.18442620E+03</pdfrwt>
<totfact> 0.14192538E+02</totfact>
</mgrwt>
</event>
<event>
 7    1  0.6419647E-006  0.1505311E+03  0.7546771E-02  0.1206453E+00
          2   -1    0    0  501    0  0.00000000000E+00  0.00000000000E+00  0.23255253750E+03  0.23255253750E+03  0.00000000000E+00 0. -1.
         -2   -1    0    0    0  501 -0.00000000000E+00 -0.00000000000E+00 -0.99119698883E+02  0.99119698883E+02  0.00000000000E+00 0.  1.
         23    2    1    2    0    0  0.71979975628E+02 -0.63309865881E+02  0.13354575665E+03  0.20123143049E+03  0.11606189508E+03 0.  0.
          5    1    3    3  502    0  0.66037968335E+02 -0.83550242977E+02  0.14239625254E+03  0.17787759584E+03  0.47000000000E+01 0. -1.
         -5    1    3    3    0  502  0.59420072925E+01  0.20240377096E+02 -0.88504958881E+01  0.23353834655E+02  0.47000000000E+01 0.  1.
        -11    1    1    2    0    0 -0.90320271453E+02  0.42807311906E+02  0.11442200952E+02  0.10060388338E+03  0.00000000000E+00 0.  1.
         11    1    1    2    0    0  0.18340295825E+02  0.20502553975E+02 -0.11555118985E+02  0.29836922516E+02  0.00000000000E+00 0. -1.
<mgrwt>
<rscale>  0 0.14523559E+03</rscale>
<asrwt>0</asrwt>
<pdfrwt beam="1">  1        2 0.35777313E-01 0.15053112E+03</pdfrwt>
<pdfrwt beam="2">  1       -2 0.15249184E-01 0.15053112E+03</pdfrwt>
<totfact> 0.46365681E+03</totfact>
</mgrwt>
</event>
<event>
 7    1  0.6419647E-006  0.1414914E+03  0.7546771E-02  0.1223998E+00
          1   -1    0    0  501    0  0.00000000000E+00  0.00000000000E+00  0.11648473019E+03  0.11648473019E+03  0.00000000000E+00 0. -1.
         -1   -1    0    0    0  501 -0.00000000000E+00 -0.00000000000E+00 -0.13820278916E+03  0.13820278916E+03  0.00000000000E+00 0.  1.
         23    2    1    2    0    0  0.26270651357E+02 -0.60762351571E+02 -0.34370022679E+02  0.14560599796E+03  0.12505038061E+03 0.  0.
          5    1    3    3  502    0 -0.26832559382E+02 -0.87841455385E+01 -0.60312387687E+02  0.66759430527E+02  0.47000000000E+01 0. -1.
         -5    1    3    3    0  502  0.53103210740E+02 -0.51978206032E+02  0.25942365008E+02  0.78846567430E+02  0.47000000000E+01 0. -1.
        -11    1    1    2    0    0 -0.21336151563E+02  0.39419246157E+02 -0.34846520975E+02  0.56774891943E+02  0.00000000000E+00 0.  1.
         11    1    1    2    0    0 -0.49344997942E+01  0.21343105414E+02  0.47498484687E+02  0.52306629450E+02  0.00000000000E+00 0. -1.
<mgrwt>
<rscale>  0 0.13235794E+03</rscale>
<asrwt>0</asrwt>
<pdfrwt beam="1">  1        1 0.17920728E-01 0.14149137E+03</pdfrwt>
<pdfrwt beam="2">  1       -1 0.21261967E-01 0.14149137E+03</pdfrwt>
<totfact> 0.51405595E+03</totfact>
</mgrwt>
</event>
<event>
 7    1  0.6419647E-006  0.1254150E+03  0.7546771E-02  0.1244416E+00
          1   -1    0    0  501    0  0.00000000000E+00  0.00000000000E+00  0.13241440616E+04  0.13241440616E+04  0.00000000000E+00 0. -1.
         -1   -1    0    0    0  501 -0.00000000000E+00 -0.00000000000E+00 -0.11405635494E+02  0.11405635494E+02  0.00000000000E+00 0.  1.
         23    2    1    2    0    0 -0.66963366198E+01 -0.76396513202E+01  0.96327314041E+03  0.97140314358E+03  0.12500287652E+03 0.  0.
          5    1    3    3  502    0 -0.30500150001E+02  0.21645267425E+02  0.93686404523E+02  0.10098519270E+03  0.47000000000E+01 0. -1.
         -5    1    3    3    0  502  0.23803813381E+02 -0.29284918745E+02  0.86958673588E+03  0.87041795088E+03  0.47000000000E+01 0. -1.
        -11    1    1    2    0    0 -0.42013722598E+02 -0.18236304750E+02  0.12910942047E+03  0.13699254780E+03  0.00000000000E+00 0. -1.
         11    1    1    2    0    0  0.48710059218E+02  0.25875956070E+02  0.22035586525E+03  0.22715400574E+03  0.00000000000E+00 0.  1.
<mgrwt>
<rscale>  0 0.11920386E+03</rscale>
<asrwt>0</asrwt>
<pdfrwt beam="1">  1        1 0.20371435E+00 0.12541501E+03</pdfrwt>
<pdfrwt beam="2">  1       -1 0.17547142E-02 0.12541501E+03</pdfrwt>
<totfact> 0.75756433E+03</totfact>
</mgrwt>
</event>
<event>
 7    1  0.6419647E-006  0.1272232E+03  0.7546771E-02  0.1244790E+00
          2   -1    0    0  501    0  0.00000000000E+00  0.00000000000E+00  0.15314281751E+04  0.15314281751E+04  0.00000000000E+00 0. -1.
         -2   -1    0    0    0  501 -0.00000000000E+00 -0.00000000000E+00 -0.87182130134E+01  0.87182130134E+01  0.00000000000E+00 0.  1.
         23    2    1    2    0    0 -0.16297529139E+02 -0.17175401849E+02  0.10376705235E+04  0.10454405141E+04  0.12500059706E+03 0.  0.
          5    1    3    3  502    0 -0.30419649841E+02  0.46726338744E+02  0.32749611281E+03  0.33224162854E+03  0.47000000000E+01 0. -1.
         -5    1    3    3    0  502  0.14122120702E+02 -0.63901740593E+02  0.71017441072E+03  0.71319888557E+03  0.47000000000E+01 0. -1.
        -11    1    1    2    0    0  0.24942040063E+02  0.53842492484E+02  0.31544968882E+03  0.32098228228E+03  0.00000000000E+00 0.  1.
         11    1    1    2    0    0 -0.86445109239E+01 -0.36667090635E+02  0.16958974971E+03  0.17372359170E+03  0.00000000000E+00 0. -1.
<mgrwt>
<rscale>  0 0.11897954E+03</rscale>
<asrwt>0</asrwt>
<pdfrwt beam="1">  1        2 0.23560412E+00 0.12722324E+03</pdfrwt>
<pdfrwt beam="2">  1       -2 0.13412648E-02 0.12722324E+03</pdfrwt>
<totfact> 0.17569508E+04</totfact>
</mgrwt>
</event>
<event>
 7    1  0.6419647E-006  0.2512134E+03  0.7546771E-02  0.1115051E+00
          2   -1    0    0  501    0  0.00000000000E+00  0.00000000000E+00  0.99976523006E+03  0.99976523006E+03  0.00000000000E+00 0. -1.
         -2   -1    0    0    0  501 -0.00000000000E+00 -0.00000000000E+00 -0.73442917223E+02  0.73442917223E+02  0.00000000000E+00 0.  1.
         23    2    1    2    0    0 -0.61174884423E+02  0.20914029559E+03  0.71042105892E+03  0.75352920689E+03  0.12500461972E+03 0.  0.
          5    1    3    3  502    0 -0.66488776740E+02  0.16455592945E+03  0.37296847001E+03  0.41307018892E+03  0.47000000000E+01 0. -1.
         -5    1    3    3    0  502  0.53138923170E+01  0.44584366139E+02  0.33745258891E+03  0.34045901797E+03  0.47000000000E+01 0. -1.
        -11    1    1    2    0    0  0.84023506470E+02 -0.14726111985E+03  0.14874373138E+03  0.22554486180E+03  0.00000000000E+00 0.  1.
         11    1    1    2    0    0 -0.22848622047E+02 -0.61879175740E+02  0.67157522546E+02  0.94134078602E+02  0.00000000000E+00 0. -1.
<mgrwt>
<rscale>  0 0.24725677E+03</rscale>
<asrwt>0</asrwt>
<pdfrwt beam="1">  1        2 0.15381003E+00 0.25121342E+03</pdfrwt>
<pdfrwt beam="2">  1       -2 0.11298911E-01 0.25121342E+03</pdfrwt>
<totfact> 0.14324499E+03</totfact>
</mgrwt>
</event>
<event>
 7    1  0.6419647E-006  0.1254683E+03  0.7546771E-02  0.1249673E+00
         -2   -1    0    0    0  501 -0.00000000000E+00  0.00000000000E+00  0.14085365148E+02  0.14085365148E+02  0.00000000000E+00 0.  1.
          2   -1    0    0  501    0  0.00000000000E+00 -0.00000000000E+00 -0.94875913977E+03  0.94875913977E+03  0.00000000000E+00 0. -1.
         23    2    1    2    0    0  0.93058943832E+01  0.53516876490E+01 -0.69279331469E+03  0.70406312036E+03  0.12500824108E+03 0.  0.
          5    1    3    3  502    0 -0.49186978977E+00 -0.56928439328E+02 -0.42970082461E+03  0.43348123121E+03  0.47000000000E+01 0. -1.
         -5    1    3    3    0  502  0.97977641730E+01  0.62280126977E+02 -0.26309249008E+03  0.27058188915E+03  0.47000000000E+01 0. -1.
        -11    1    1    2    0    0  0.29383913851E+02  0.10303322199E+01 -0.25630953811E+02  0.39005406945E+02  0.00000000000E+00 0.  1.
         11    1    1    2    0    0 -0.38689808235E+02 -0.63820198689E+01 -0.21624950613E+03  0.21977597762E+03  0.00000000000E+00 0. -1.
<mgrwt>
<rscale>  0 0.11610006E+03</rscale>
<asrwt>0</asrwt>
<pdfrwt beam="2">  1        2 0.14596296E+00 0.12546832E+03</pdfrwt>
<pdfrwt beam="1">  1       -2 0.21669790E-02 0.12546832E+03</pdfrwt>
<totfact> 0.18405048E+04</totfact>
</mgrwt>
</event>
<event>
 7    1  0.6419647E-006  0.1380104E+03  0.7546771E-02  0.1227518E+00
         -4   -1    0    0    0  501 -0.00000000000E+00  0.00000000000E+00  0.15278431224E+03  0.15278431224E+03  0.00000000000E+00 0.  1.
          4   -1    0    0  501    0  0.00000000000E+00 -0.00000000000E+00 -0.10289538344E+03  0.10289538344E+03  0.00000000000E+00 0. -1.
         23    2    1    2    0    0 -0.44661507354E+02 -0.37777580889E+02  0.45771309174E+01  0.13808626718E+03  0.12500028479E+03 0.  0.
          5    1    3    3  502    0 -0.95346926366E+01 -0.63779958247E+01  0.62246778129E+02  0.63469209715E+02  0.47000000000E+01 0. -1.
         -5    1    3    3    0  502 -0.35126814717E+02 -0.31399585065E+02 -0.57669647212E+02  0.74617057460E+02  0.47000000000E+01 0. -1.
        -11    1    1    2    0    0 -0.74651594906E+01  0.52986798798E+02  0.15811894883E+02  0.55797360806E+02  0.00000000000E+00 0.  1.
         11    1    1    2    0    0  0.52126666844E+02 -0.15209217909E+02  0.29499902995E+02  0.61796067694E+02  0.00000000000E+00 0. -1.
<mgrwt>
<rscale>  0 0.12995835E+03</rscale>
<asrwt>0</asrwt>
<pdfrwt beam="2">  1        4 0.15830059E-01 0.13801039E+03</pdfrwt>
<pdfrwt beam="1">  1       -4 0.23505279E-01 0.13801039E+03</pdfrwt>
<totfact> 0.95390355E+02</totfact>
</mgrwt>
</event>
<event>
 7    1  0.6419647E-006  0.1318478E+03  0.7546771E-02  0.1236976E+00
         -1   -1    0    0    0  501 -0.00000000000E+00  0.00000000000E+00  0.66318260136E+02  0.66318260136E+02  0.00000000000E+00 0.  1.
          1   -1    0    0  501    0  0.00000000000E+00 -0.00000000000E+00 -0.20737226324E+03  0.20737226324E+03  0.00000000000E+00 0. -1.
         23    2    1    2    0    0  0.27208782577E+02 -0.31922708991E+02 -0.73107700611E+02  0.15076004510E+03  0.12499791243E+03 0.  0.
          5    1    3    3  502    0  0.59118097916E+02 -0.10548914880E+02  0.81268033257E+01  0.60781280331E+02  0.47000000000E+01 0. -1.
         -5    1    3    3    0  502 -0.31909315339E+02 -0.21373794110E+02 -0.81234503937E+02  0.89978764772E+02  0.47000000000E+01 0. -1.
        -11    1    1    2    0    0 -0.14373047472E+01  0.16739133031E+02 -0.86244555075E+02  0.87865736779E+02  0.00000000000E+00 0. -1.
         11    1    1    2    0    0 -0.25771477830E+02  0.15183575960E+02  0.18298252583E+02  0.35064741494E+02  0.00000000000E+00 0.  1.
<mgrwt>
<rscale>  0 0.12378803E+03</rscale>
<asrwt>0</asrwt>
<pdfrwt beam="2">  1        1 0.31903425E-01 0.13184785E+03</pdfrwt>
<pdfrwt beam="1">  1       -1 0.10202809E-01 0.13184785E+03</pdfrwt>
<totfact> 0.78235566E+03</totfact>
</mgrwt>
</event>
<event>
 7    1  0.6419647E-006  0.1746062E+03  0.7546771E-02  0.1178934E+00
          3   -1    0    0  501    0  0.00000000000E+00  0.00000000000E+00  0.12365562559E+03  0.12365562559E+03  0.00000000000E+00 0. -1.
         -3   -1    0    0    0  501 -0.00000000000E+00 -0.00000000000E+00 -0.23147223572E+03  0.23147223572E+03  0.00000000000E+00 0.  1.
         23    2    1    2    0    0  0.84577917571E+02  0.87808122672E+02 -0.13100723681E+02  0.17509698043E+03  0.12499453206E+03 0.  0.
          5    1    3    3  502    0  0.10349853244E+03  0.87843599595E+02 -0.40252044622E+02  0.14167131432E+03  0.47000000000E+01 0. -1.
         -5    1    3    3    0  502 -0.18920614865E+02 -0.35476922415E-01  0.27151320941E+02  0.33425666101E+02  0.47000000000E+01 0. -1.
        -11    1    1    2    0    0 -0.19613410851E+02 -0.34768747520E+02 -0.87108964055E+02  0.95820265644E+02  0.00000000000E+00 0. -1.
         11    1    1    2    0    0 -0.64964506720E+02 -0.53039375153E+02 -0.76069223970E+01  0.84210615235E+02  0.00000000000E+00 0.  1.
<mgrwt>
<rscale>  0 0.16896217E+03</rscale>
<asrwt>0</asrwt>
<pdfrwt beam="1">  1        3 0.19023943E-01 0.17460620E+03</pdfrwt>
<pdfrwt beam="2">  1       -3 0.35611113E-01 0.17460620E+03</pdfrwt>
<totfact> 0.45732133E+02</totfact>
</mgrwt>
</event>
<event>
 7    1  0.6419647E-006  0.1338559E+03  0.7546771E-02  0.1234672E+00
          1   -1    0    0  501    0  0.00000000000E+00  0.00000000000E+00  0.32377301532E+03  0.32377301532E+03  0.00000000000E+00 0. -1.
         -1   -1    0    0    0  501 -0.00000000000E+00 -0.00000000000E+00 -0.46318707092E+02  0.46318707092E+02  0.00000000000E+00 0.  1.
         23    2    1    2    0    0 -0.47327749585E+02  0.72961649855E+01  0.20357197001E+03  0.24363692136E+03  0.12499701026E+03 0.  0.
          5    1    3    3  502    0 -0.19081309237E+02  0.20955390417E+02  0.20941603559E+03  0.21137736566E+03  0.47000000000E+01 0. -1.
         -5    1    3    3    0  502 -0.28246440348E+02 -0.13659225431E+02 -0.58440655822E+01  0.32259555704E+02  0.47000000000E+01 0. -1.
        -11    1    1    2    0    0 -0.71796648264E+01 -0.14460046818E+02 -0.14939243750E+02  0.21995943827E+02  0.00000000000E+00 0.  1.
         11    1    1    2    0    0  0.54507414411E+02  0.71638818328E+01  0.88821581971E+02  0.10445885722E+03  0.00000000000E+00 0. -1.
<mgrwt>
<rscale>  0 0.12525444E+03</rscale>
<asrwt>0</asrwt>
<pdfrwt beam="1">  1        1 0.49811232E-01 0.13385590E+03</pdfrwt>
<pdfrwt beam="2">  1       -1 0.71259551E-02 0.13385590E+03</pdfrwt>
<totfact> 0.77685763E+03</totfact>
</mgrwt>
</event>
<event>
 7    1  0.6419647E-006  0.2986126E+03  0.7546771E-02  0.1087639E+00
         -1   -1    0    0    0  501 -0.00000000000E+00  0.00000000000E+00  0.11751546951E+03  0.11751546951E+03  0.00000000000E+00 0.  1.
          1   -1    0    0  501    0  0.00000000000E+00 -0.00000000000E+00 -0.84254643884E+03  0.84254643884E+03  0.00000000000E+00 0. -1.
         23    2    1    2    0    0 -0.25235173212E+03 -0.99303471079E+02 -0.54840214273E+03  0.62443127811E+03  0.12500773920E+03 0.  0.
          5    1    3    3  502    0 -0.19470895416E+03 -0.13783589037E+02 -0.36708401722E+03  0.41578158912E+03  0.47000000000E+01 0. -1.
         -5    1    3    3    0  502 -0.57642777962E+02 -0.85519882042E+02 -0.18131812552E+03  0.20864968899E+03  0.47000000000E+01 0. -1.
        -11    1    1    2    0    0  0.18875469451E+03  0.44894406274E+02 -0.85874608559E+02  0.21217514183E+03  0.00000000000E+00 0.  1.
         11    1    1    2    0    0  0.63597037607E+02  0.54409064805E+02 -0.90754218041E+02  0.12345548841E+03  0.00000000000E+00 0. -1.
<mgrwt>
<rscale>  0 0.29525186E+03</rscale>
<asrwt>0</asrwt>
<pdfrwt beam="2">  1        1 0.12962252E+00 0.29861264E+03</pdfrwt>
<pdfrwt beam="1">  1       -1 0.18079304E-01 0.29861264E+03</pdfrwt>
<totfact> 0.50664830E+02</totfact>
</mgrwt>
</event>
<event>
 7    1  0.6419647E-006  0.1266400E+03  0.7546771E-02  0.1244661E+00
         -1   -1    0    0    0  501 -0.00000000000E+00  0.00000000000E+00  0.68127597825E+02  0.68127597825E+02  0.00000000000E+00 0.  1.
          1   -1    0    0  501    0  0.00000000000E+00 -0.00000000000E+00 -0.20528196707E+03  0.20528196707E+03  0.00000000000E+00 0. -1.
         23    2    1    2    0    0 -0.90792725909E+01 -0.18240133105E+02 -0.11707964511E+03  0.17246834400E+03  0.12499020255E+03 0.  0.
          5    1    3    3  502    0  0.30507357384E+02  0.36234394600E+02 -0.85692126219E+02  0.98024796365E+02  0.47000000000E+01 0.  1.
         -5    1    3    3    0  502 -0.39586629975E+02 -0.54474527704E+02 -0.31387518894E+02  0.74443547630E+02  0.47000000000E+01 0.  1.
        -11    1    1    2    0    0 -0.35190216673E+02 -0.14982112561E+02  0.77002463140E+01  0.39014213302E+02  0.00000000000E+00 0.  1.
         11    1    1    2    0    0  0.44269489264E+02  0.33222245666E+02 -0.27774970448E+02  0.61927007599E+02  0.00000000000E+00 0. -1.
<mgrwt>
<rscale>  0 0.11905689E+03</rscale>
<asrwt>0</asrwt>
<pdfrwt beam="2">  1        1 0.31581841E-01 0.12663999E+03</pdfrwt>
<pdfrwt beam="1">  1       -1 0.10481169E-01 0.12663999E+03</pdfrwt>
<totfact> 0.75807540E+03</totfact>
</mgrwt>
</event>
<event>
 7    1  0.6419647E-006  0.1891684E+03  0.7546771E-02  0.1163988E+00
         -2   -1    0    0    0  501 -0.00000000000E+00  0.00000000000E+00  0.31908792597E+02  0.31908792597E+02  0.00000000000E+00 0.  1.
          2   -1    0    0  501    0  0.00000000000E+00 -0.00000000000E+00 -0.13738915358E+04  0.13738915358E+04  0.00000000000E+00 0. -1.
         23    2    1    2    0    0  0.13705365842E+03  0.37251744078E+02 -0.10610960924E+04  0.10778263232E+04  0.12495306353E+03 0.  0.
          5    1    3    3  502    0  0.93245470559E+02  0.82559881216E+02 -0.64109927508E+03  0.65310123432E+03  0.47000000000E+01 0. -1.
         -5    1    3    3    0  502  0.43808187857E+02 -0.45308137138E+02 -0.41999681731E+03  0.42472508892E+03  0.47000000000E+01 0. -1.
        -11    1    1    2    0    0 -0.10441054777E+03 -0.78989040900E+01 -0.25806111034E+03  0.27849504814E+03  0.00000000000E+00 0. -1.
         11    1    1    2    0    0 -0.32643110649E+02 -0.29352839988E+02 -0.22825540474E+02  0.49478957003E+02  0.00000000000E+00 0.  1.
<mgrwt>
<rscale>  0 0.18399844E+03</rscale>
<asrwt>0</asrwt>
<pdfrwt beam="2">  1        2 0.21136793E+00 0.18916835E+03</pdfrwt>
<pdfrwt beam="1">  1       -2 0.49090451E-02 0.18916835E+03</pdfrwt>
<totfact> 0.32043912E+03</totfact>
</mgrwt>
</event>
<event>
 7    1  0.6419647E-006  0.2062933E+03  0.7546771E-02  0.1148388E+00
          1   -1    0    0  501    0  0.00000000000E+00  0.00000000000E+00  0.69552353805E+03  0.69552353805E+03  0.00000000000E+00 0. -1.
         -1   -1    0    0    0  501 -0.00000000000E+00 -0.00000000000E+00 -0.56087788200E+02  0.56087788200E+02  0.00000000000E+00 0.  1.
         23    2    1    2    0    0  0.15189985548E+03 -0.62113364454E+02  0.35401586654E+03  0.40973667272E+03  0.12500108427E+03 0.  0.
          5    1    3    3  502    0  0.38953045284E+02  0.27974164727E+02  0.16433830456E+03  0.17125729758E+03  0.47000000000E+01 0.  1.
         -5    1    3    3    0  502  0.11294681019E+03 -0.90087529182E+02  0.18967756198E+03  0.23847937514E+03  0.47000000000E+01 0.  1.
        -11    1    1    2    0    0 -0.12161063526E+03  0.58954638679E+01  0.21282139299E+03  0.24518737410E+03  0.00000000000E+00 0. -1.
         11    1    1    2    0    0 -0.30289220217E+02  0.56217900586E+02  0.72598490315E+02  0.96687279431E+02  0.00000000000E+00 0.  1.
<mgrwt>
<rscale>  0 0.20160917E+03</rscale>
<asrwt>0</asrwt>
<pdfrwt beam="1">  1        1 0.10700361E+00 0.20629326E+03</pdfrwt>
<pdfrwt beam="2">  1       -1 0.86288910E-02 0.20629326E+03</pdfrwt>
<totfact> 0.21671713E+03</totfact>
</mgrwt>
</event>
<event>
 7    1  0.6419647E-006  0.1550487E+03  0.7546771E-02  0.1202394E+00
         -1   -1    0    0    0  501 -0.00000000000E+00  0.00000000000E+00  0.21396072805E+02  0.21396072805E+02  0.00000000000E+00 0.  1.
          1   -1    0    0  501    0  0.00000000000E+00 -0.00000000000E+00 -0.12125733210E+04  0.12125733210E+04  0.00000000000E+00 0. -1.
         23    2    1    2    0    0 -0.67715981611E+02  0.61882276935E+02 -0.92171331422E+03  0.93466332265E+03  0.12500089092E+03 0.  0.
          5    1    3    3  502    0 -0.88441885635E+02  0.51529508732E+02 -0.41728608152E+03  0.42968246559E+03  0.47000000000E+01 0.  1.
         -5    1    3    3    0  502  0.20725904024E+02  0.10352768203E+02 -0.50442723270E+03  0.50498085706E+03  0.47000000000E+01 0.  1.
        -11    1    1    2    0    0  0.66271848220E+02 -0.17457242421E+02 -0.22956649111E+03  0.23957772647E+03  0.00000000000E+00 0. -1.
         11    1    1    2    0    0  0.14441333910E+01 -0.44425034514E+02 -0.39897442891E+02  0.59728344713E+02  0.00000000000E+00 0.  1.
<mgrwt>
<rscale>  0 0.14844716E+03</rscale>
<asrwt>0</asrwt>
<pdfrwt beam="2">  1        1 0.18654975E+00 0.15504868E+03</pdfrwt>
<pdfrwt beam="1">  1       -1 0.32917034E-02 0.15504868E+03</pdfrwt>
<totfact> 0.36455473E+03</totfact>
</mgrwt>
</event>
<event>
 7    1  0.6419647E-006  0.3122862E+03  0.7546771E-02  0.1080705E+00
          1   -1    0    0  501    0  0.00000000000E+00  0.00000000000E+00  0.38309650468E+03  0.38309650468E+03  0.00000000000E+00 0. -1.
         -1   -1    0    0    0  501 -0.00000000000E+00 -0.00000000000E+00 -0.36312372023E+03  0.36312372023E+03  0.00000000000E+00 0.  1.
         23    2    1    2    0    0 -0.26346051012E+03 -0.11175846058E+03  0.22297908248E+03  0.38372169388E+03  0.12498509201E+03 0.  0.
          5    1    3    3  502    0 -0.51572035712E+02  0.69960234392E+01 -0.24325995563E+01  0.52312778095E+02  0.47000000000E+01 0. -1.
         -5    1    3    3    0  502 -0.21188847441E+03 -0.11875448402E+03  0.22541168203E+03  0.33140891578E+03  0.47000000000E+01 0. -1.
        -11    1    1    2    0    0  0.62721130093E+02 -0.10369609036E+02 -0.27742985971E+02  0.69362397755E+02  0.00000000000E+00 0. -1.
         11    1    1    2    0    0  0.20073938003E+03  0.12212806962E+03 -0.17526331205E+03  0.29313613328E+03  0.00000000000E+00 0.  1.
<mgrwt>
<rscale>  0 0.30925133E+03</rscale>
<asrwt>0</asrwt>
<pdfrwt beam="1">  1        1 0.58937924E-01 0.31228619E+03</pdfrwt>
<pdfrwt beam="2">  1       -1 0.55865187E-01 0.31228619E+03</pdfrwt>
<totfact> 0.21458624E+02</totfact>
</mgrwt>
</event>
<event>
 7    1  0.6419647E-006  0.1493742E+03  0.7546771E-02  0.1209902E+00
          2   -1    0    0  501    0  0.00000000000E+00  0.00000000000E+00  0.59650846903E+02  0.59650846903E+02  0.00000000000E+00 0.  1.
         -2   -1    0    0    0  501 -0.00000000000E+00 -0.00000000000E+00 -0.34036033652E+03  0.34036033652E+03  0.00000000000E+00 0. -1.
         23    2    1    2    0    0 -0.43143827788E+02 -0.69477498539E+02 -0.96057802226E+02  0.17759432007E+03  0.12499651385E+03 0.  0.
          5    1    3    3  502    0  0.60813922674E+01 -0.93026207115E+02 -0.71449902533E+02  0.11755014723E+03  0.47000000000E+01 0. -1.
         -5    1    3    3    0  502 -0.49225220055E+02  0.23548708576E+02 -0.24607899693E+02  0.60044172843E+02  0.47000000000E+01 0. -1.
        -11    1    1    2    0    0 -0.25121469459E+02  0.40610387280E+02 -0.53030665167E+02  0.71362057361E+02  0.00000000000E+00 0. -1.
         11    1    1    2    0    0  0.68265297246E+02  0.28867111259E+02 -0.13162102222E+03  0.15105480599E+03  0.00000000000E+00 0.  1.
<mgrwt>
<rscale>  0 0.14257767E+03</rscale>
<asrwt>0</asrwt>
<pdfrwt beam="1">  1        2 0.91770534E-02 0.14937416E+03</pdfrwt>
<pdfrwt beam="2">  1       -2 0.52363128E-01 0.14937416E+03</pdfrwt>
<totfact> 0.24179429E+03</totfact>
</mgrwt>
</event>
<event>
 7    1  0.6419647E-006  0.1796435E+03  0.7546771E-02  0.1173587E+00
          1   -1    0    0  501    0  0.00000000000E+00  0.00000000000E+00  0.11033051620E+03  0.11033051620E+03  0.00000000000E+00 0. -1.
         -1   -1    0    0    0  501 -0.00000000000E+00 -0.00000000000E+00 -0.26134849279E+03  0.26134849279E+03  0.00000000000E+00 0.  1.
         23    2    1    2    0    0  0.27351840762E+02  0.12609970666E+03 -0.63858119098E+02  0.19065585261E+03  0.12499014180E+03 0.  0.
          5    1    3    3  502    0 -0.40747240116E+02  0.96256431273E+02 -0.44362865442E+02  0.11364766592E+03  0.47000000000E+01 0. -1.
         -5    1    3    3    0  502  0.68099080879E+02  0.29843275390E+02 -0.19495253656E+02  0.77008186692E+02  0.47000000000E+01 0. -1.
        -11    1    1    2    0    0 -0.57750164978E+02 -0.72228425164E+02 -0.31165981945E+02  0.97587629274E+02  0.00000000000E+00 0. -1.
         11    1    1    2    0    0  0.30398324215E+02 -0.53871281498E+02 -0.55993875548E+02  0.83435527111E+02  0.00000000000E+00 0.  1.
<mgrwt>
<rscale>  0 0.17415043E+03</rscale>
<asrwt>0</asrwt>
<pdfrwt beam="1">  1        1 0.16973926E-01 0.17964352E+03</pdfrwt>
<pdfrwt beam="2">  1       -1 0.40207460E-01 0.17964352E+03</pdfrwt>
<totfact> 0.19068724E+03</totfact>
</mgrwt>
</event>
<event>
 7    1  0.6419647E-006  0.1623742E+03  0.7546771E-02  0.1193115E+00
          1   -1    0    0  501    0  0.00000000000E+00  0.00000000000E+00  0.12300378472E+03  0.12300378472E+03  0.00000000000E+00 0. -1.
         -1   -1    0    0    0  501 -0.00000000000E+00 -0.00000000000E+00 -0.28611727242E+03  0.28611727242E+03  0.00000000000E+00 0.  1.
         23    2    1    2    0    0  0.74866402788E+02 -0.71667955500E+02  0.36046876681E+02  0.16632727595E+03  0.12499644512E+03 0.  0.
          5    1    3    3  502    0  0.65190959807E+02 -0.10495759889E+03  0.12760488089E+02  0.12430156420E+03  0.47000000000E+01 0. -1.
         -5    1    3    3    0  502  0.96754429807E+01  0.33289643394E+02  0.23286388592E+02  0.42025711747E+02  0.47000000000E+01 0. -1.
        -11    1    1    2    0    0 -0.91600096506E+02  0.64647953903E+02 -0.13181596330E+03  0.17304734556E+03  0.00000000000E+00 0. -1.
         11    1    1    2    0    0  0.16733693718E+02  0.70200015977E+01 -0.67344401076E+02  0.69746435638E+02  0.00000000000E+00 0.  1.
<mgrwt>
<rscale>  0 0.15614833E+03</rscale>
<asrwt>0</asrwt>
<pdfrwt beam="1">  1        1 0.18923660E-01 0.16237421E+03</pdfrwt>
<pdfrwt beam="2">  1       -1 0.44018041E-01 0.16237421E+03</pdfrwt>
<totfact> 0.14067672E+03</totfact>
</mgrwt>
</event>
<event>
 7    1  0.6419647E-006  0.1320795E+03  0.7546771E-02  0.1237411E+00
          2   -1    0    0  501    0  0.00000000000E+00  0.00000000000E+00  0.98559694607E+02  0.98559694607E+02  0.00000000000E+00 0. -1.
         -2   -1    0    0    0  501 -0.00000000000E+00 -0.00000000000E+00 -0.14361110133E+03  0.14361110133E+03  0.00000000000E+00 0.  1.
         23    2    1    2    0    0  0.22377469852E+02 -0.36458251427E+02 -0.12735867982E+01  0.13208567330E+03  0.12496018492E+03 0.  0.
          5    1    3    3  502    0  0.56503468791E+02 -0.62025419734E+02 -0.18173245637E+02  0.85977622295E+02  0.47000000000E+01 0. -1.
         -5    1    3    3    0  502 -0.34125998939E+02  0.25567168307E+02  0.16899658839E+02  0.46108051007E+02  0.47000000000E+01 0. -1.
        -11    1    1    2    0    0 -0.16370767707E+02 -0.54692838453E+01  0.24360379901E+02  0.29855371544E+02  0.00000000000E+00 0. -1.
         11    1    1    2    0    0 -0.60067021448E+01  0.41927535272E+02 -0.68138199828E+02  0.80229751093E+02  0.00000000000E+00 0.  1.
<mgrwt>
<rscale>  0 0.12351326E+03</rscale>
<asrwt>0</asrwt>
<pdfrwt beam="1">  1        2 0.15163030E-01 0.13207953E+03</pdfrwt>
<pdfrwt beam="2">  1       -2 0.22094016E-01 0.13207953E+03</pdfrwt>
<totfact> 0.64343697E+03</totfact>
</mgrwt>
</event>
<event>
 7    1  0.6419647E-006  0.1443488E+03  0.7546771E-02  0.1214641E+00
          1   -1    0    0  501    0  0.00000000000E+00  0.00000000000E+00  0.28543945555E+02  0.28543945555E+02  0.00000000000E+00 0. -1.
         -1   -1    0    0    0  501 -0.00000000000E+00 -0.00000000000E+00 -0.64244249263E+03  0.64244249263E+03  0.00000000000E+00 0.  1.
         23    2    1    2    0    0  0.99132792422E+01 -0.71506791868E+02 -0.37276449368E+03  0.39973734380E+03  0.12500032757E+03 0.  0.
          5    1    3    3  502    0 -0.30667404015E+02 -0.55892765035E+02 -0.73998346324E+02  0.97787198093E+02  0.47000000000E+01 0. -1.
         -5    1    3    3    0  502  0.40580683257E+02 -0.15614026834E+02 -0.29876614735E+03  0.30195014571E+03  0.47000000000E+01 0. -1.
        -11    1    1    2    0    0  0.10769876254E+02  0.88689155179E+02 -0.21865038131E+03  0.23619853033E+03  0.00000000000E+00 0.  1.
         11    1    1    2    0    0 -0.20683155496E+02 -0.17182363311E+02 -0.22483672080E+02  0.35050564053E+02  0.00000000000E+00 0. -1.
<mgrwt>
<rscale>  0 0.13902957E+03</rscale>
<asrwt>0</asrwt>
<pdfrwt beam="1">  1        1 0.43913759E-02 0.14434880E+03</pdfrwt>
<pdfrwt beam="2">  1       -1 0.98837313E-01 0.14434880E+03</pdfrwt>
<totfact> 0.20098784E+03</totfact>
</mgrwt>
</event>
<event>
 7    1  0.6419647E-006  0.1261618E+03  0.7546771E-02  0.1248716E+00
          2   -1    0    0  501    0  0.00000000000E+00  0.00000000000E+00  0.95091273494E+02  0.95091273494E+02  0.00000000000E+00 0. -1.
         -2   -1    0    0    0  501 -0.00000000000E+00 -0.00000000000E+00 -0.13090020560E+03  0.13090020560E+03  0.00000000000E+00 0.  1.
         23    2    1    2    0    0 -0.97015428200E+01  0.14108994131E+02  0.23431958472E+01  0.12618358451E+03  0.12499449102E+03 0.  0.
          5    1    3    3  502    0  0.17610331491E+02  0.39667548382E+02 -0.46961091684E+02  0.64117644233E+02  0.47000000000E+01 0. -1.
         -5    1    3    3    0  502 -0.27311874311E+02 -0.25558554251E+02  0.49304287531E+02  0.62065940279E+02  0.47000000000E+01 0. -1.
        -11    1    1    2    0    0 -0.36040050258E+02 -0.13050967449E+02 -0.38113349183E+02  0.54054050356E+02  0.00000000000E+00 0.  1.
         11    1    1    2    0    0  0.45741593078E+02 -0.10580266822E+01 -0.38778772150E-01  0.45753844227E+02  0.00000000000E+00 0. -1.
<mgrwt>
<rscale>  0 0.11665728E+03</rscale>
<asrwt>0</asrwt>
<pdfrwt beam="1">  1        2 0.14629427E-01 0.12616183E+03</pdfrwt>
<pdfrwt beam="2">  1       -2 0.20138493E-01 0.12616183E+03</pdfrwt>
<totfact> 0.78286972E+03</totfact>
</mgrwt>
</event>
<event>
 7    1  0.6419647E-006  0.1454876E+03  0.7546771E-02  0.1215995E+00
         -1   -1    0    0    0  501 -0.00000000000E+00  0.00000000000E+00  0.54187254083E+02  0.54187254083E+02  0.00000000000E+00 0.  1.
          1   -1    0    0  501    0  0.00000000000E+00 -0.00000000000E+00 -0.32299868756E+03  0.32299868756E+03  0.00000000000E+00 0. -1.
         23    2    1    2    0    0  0.57056281137E+02 -0.49913673646E+02 -0.16625332622E+03  0.22092260448E+03  0.12417662685E+03 0.  0.
          5    1    3    3  502    0 -0.17620766456E+02  0.92283299608E+00 -0.11602451092E+03  0.11745262945E+03  0.47000000000E+01 0. -1.
         -5    1    3    3    0  502  0.74677047593E+02 -0.50836506642E+02 -0.50228815297E+02  0.10346997502E+03  0.47000000000E+01 0.  1.
        -11    1    1    2    0    0  0.18827272905E+02  0.20501989759E+02 -0.55916011293E+02  0.62461172804E+02  0.00000000000E+00 0.  1.
         11    1    1    2    0    0 -0.75883554043E+02  0.29411683887E+02 -0.46642095965E+02  0.93802164363E+02  0.00000000000E+00 0. -1.
<mgrwt>
<rscale>  0 0.13803731E+03</rscale>
<asrwt>0</asrwt>
<pdfrwt beam="2">  1        1 0.49692107E-01 0.14548756E+03</pdfrwt>
<pdfrwt beam="1">  1       -1 0.83365004E-02 0.14548756E+03</pdfrwt>
<totfact> 0.61837914E+03</totfact>
</mgrwt>
</event>
<event>
 7    1  0.6419647E-006  0.1463724E+03  0.7546771E-02  0.1214990E+00
          2   -1    0    0  501    0  0.00000000000E+00  0.00000000000E+00  0.32249066611E+03  0.32249066611E+03  0.00000000000E+00 0.  1.
         -2   -1    0    0    0  501 -0.00000000000E+00 -0.00000000000E+00 -0.56209532565E+02  0.56209532565E+02  0.00000000000E+00 0. -1.
         23    2    1    2    0    0  0.28009014845E+02 -0.70758044927E+02  0.18161096231E+03  0.23325397128E+03  0.12503466579E+03 0.  0.
          5    1    3    3  502    0  0.72519631877E+02 -0.14853708586E+02  0.81981011630E+02  0.11055634733E+03  0.47000000000E+01 0.  1.
         -5    1    3    3    0  502 -0.44510617032E+02 -0.55904336341E+02  0.99629950678E+02  0.12269762395E+03  0.47000000000E+01 0.  1.
        -11    1    1    2    0    0 -0.35974293056E+02  0.56929341105E+02  0.10178449654E+03  0.12204582490E+03  0.00000000000E+00 0.  1.
         11    1    1    2    0    0  0.79652782112E+01  0.13828703822E+02 -0.17114325306E+02  0.23400402498E+02  0.00000000000E+00 0. -1.
<mgrwt>
<rscale>  0 0.13877280E+03</rscale>
<asrwt>0</asrwt>
<pdfrwt beam="1">  1        2 0.49613948E-01 0.14637238E+03</pdfrwt>
<pdfrwt beam="2">  1       -2 0.86476206E-02 0.14637238E+03</pdfrwt>
<totfact> 0.80756878E+03</totfact>
</mgrwt>
</event>
<event>
 7    1  0.6419647E-006  0.1339862E+03  0.7546771E-02  0.1231297E+00
         -1   -1    0    0    0  501 -0.00000000000E+00  0.00000000000E+00  0.15319410380E+03  0.15319410380E+03  0.00000000000E+00 0.  1.
          1   -1    0    0  501    0  0.00000000000E+00 -0.00000000000E+00 -0.15632812575E+03  0.15632812575E+03  0.00000000000E+00 0. -1.
         23    2    1    2    0    0 -0.47196124592E+02 -0.10033987336E+02 -0.96797948667E+02  0.16529407894E+03  0.12499653830E+03 0.  0.
          5    1    3    3  502    0 -0.54663122321E+02  0.28977067999E+02 -0.10729456118E+03  0.12394329457E+03  0.47000000000E+01 0.  1.
         -5    1    3    3    0  502  0.74669977287E+01 -0.39011055335E+02  0.10496612510E+02  0.41350784365E+02  0.47000000000E+01 0.  1.
        -11    1    1    2    0    0 -0.16115870432E+02 -0.12102530851E+01  0.75780890012E+02  0.77485026188E+02  0.00000000000E+00 0.  1.
         11    1    1    2    0    0  0.63311995024E+02  0.11244240421E+02  0.17883036709E+02  0.66743124428E+02  0.00000000000E+00 0. -1.
<mgrwt>
<rscale>  0 0.12744502E+03</rscale>
<asrwt>0</asrwt>
<pdfrwt beam="2">  1        1 0.24050481E-01 0.13398615E+03</pdfrwt>
<pdfrwt beam="1">  1       -1 0.23568323E-01 0.13398615E+03</pdfrwt>
<totfact> 0.29850438E+03</totfact>
</mgrwt>
</event>
<event>
 6    1  0.6419647E-006  0.1654861E+03  0.7546771E-02  0.1199836E+00
         -1   -1    0    0    0  501 -0.00000000000E+00  0.00000000000E+00  0.19229237077E+02  0.19229237077E+02  0.00000000000E+00 0.  1.
          1   -1    0    0  501    0  0.00000000000E+00 -0.00000000000E+00 -0.10425339355E+04  0.10425339355E+04  0.00000000000E+00 0. -1.
          5    1    1    2  502    0  0.54207039853E+02  0.22878061108E+02 -0.42988556386E+03  0.43391876759E+03  0.47000000000E+01 0. -1.
         -5    1    1    2    0  502 -0.20790046711E+02 -0.89268134473E+02 -0.26653891761E+03  0.28189734031E+03  0.47000000000E+01 0.  1.
        -11    1    1    2    0    0 -0.16598423491E+01 -0.18726296950E+02 -0.29337335559E+02  0.34844060208E+02  0.00000000000E+00 0.  1.
         11    1    1    2    0    0 -0.31757150793E+02  0.85116370316E+02 -0.29754288144E+03  0.31110300452E+03  0.00000000000E+00 0. -1.
<mgrwt>
<rscale>  0 0.15051990E+03</rscale>
<asrwt>0</asrwt>
<pdfrwt beam="2">  1        1 0.16038984E+00 0.16548608E+03</pdfrwt>
<pdfrwt beam="1">  1       -1 0.29583441E-02 0.16548608E+03</pdfrwt>
<totfact> 0.56253886E+03</totfact>
</mgrwt>
</event>
<event>
 7    1  0.6419647E-006  0.1887236E+03  0.7546771E-02  0.1164777E+00
         -1   -1    0    0    0  501 -0.00000000000E+00  0.00000000000E+00  0.31543788575E+03  0.31543788575E+03  0.00000000000E+00 0.  1.
          1   -1    0    0  501    0  0.00000000000E+00 -0.00000000000E+00 -0.10711862045E+03  0.10711862045E+03  0.00000000000E+00 0. -1.
         23    2    1    2    0    0 -0.14009095283E+03  0.19171048658E+02  0.57721977184E+02  0.19735352058E+03  0.12499432493E+03 0.  0.
          5    1    3    3  502    0 -0.13419899656E+03  0.59681021160E+02  0.51340869834E+02  0.15565721917E+03  0.47000000000E+01 0.  1.
         -5    1    3    3    0  502 -0.58919562729E+01 -0.40509972502E+02  0.63811073503E+01  0.41696301417E+02  0.47000000000E+01 0.  1.
        -11    1    1    2    0    0  0.54514874436E+02 -0.25959366779E+02  0.11952013030E+03  0.13390601855E+03  0.00000000000E+00 0.  1.
         11    1    1    2    0    0  0.85576078392E+02  0.67883181204E+01  0.31077157817E+02  0.91296967057E+02  0.00000000000E+00 0. -1.
<mgrwt>
<rscale>  0 0.18316215E+03</rscale>
<asrwt>0</asrwt>
<pdfrwt beam="2">  1        1 0.16479788E-01 0.18872357E+03</pdfrwt>
<pdfrwt beam="1">  1       -1 0.48528905E-01 0.18872357E+03</pdfrwt>
<totfact> 0.14151170E+03</totfact>
</mgrwt>
</event>
<event>
 7    1  0.6419647E-006  0.1430068E+03  0.7546771E-02  0.1220127E+00
          2   -1    0    0  501    0  0.00000000000E+00  0.00000000000E+00  0.68040491626E+02  0.68040491626E+02  0.00000000000E+00 0. -1.
         -2   -1    0    0    0  501 -0.00000000000E+00 -0.00000000000E+00 -0.29019085099E+03  0.29019085099E+03  0.00000000000E+00 0.  1.
         23    2    1    2    0    0  0.47263870649E+02  0.50915535459E+02 -0.49257382994E+02  0.15125219826E+03  0.12499868991E+03 0.  0.
          5    1    3    3  502    0  0.14846845460E+02  0.76480222315E+02  0.10201488372E+02  0.78713490524E+02  0.47000000000E+01 0.  1.
         -5    1    3    3    0  502  0.32417025189E+02 -0.25564686856E+02 -0.59458871366E+02  0.72538707738E+02  0.47000000000E+01 0.  1.
        -11    1    1    2    0    0 -0.70006110267E+02 -0.39028192878E+02 -0.15836039610E+03  0.17748822599E+03  0.00000000000E+00 0.  1.
         11    1    1    2    0    0  0.22742239618E+02 -0.11887342581E+02 -0.14532580273E+02  0.29490918362E+02  0.00000000000E+00 0. -1.
<mgrwt>
<rscale>  0 0.13506549E+03</rscale>
<asrwt>0</asrwt>
<pdfrwt beam="1">  1        2 0.10467768E-01 0.14300678E+03</pdfrwt>
<pdfrwt beam="2">  1       -2 0.44644747E-01 0.14300678E+03</pdfrwt>
<totfact> 0.28068114E+03</totfact>
</mgrwt>
</event>
<event>
 7    1  0.6419647E-006  0.1559000E+03  0.7546771E-02  0.1201623E+00
         -2   -1    0    0    0  501 -0.00000000000E+00  0.00000000000E+00  0.20570087488E+02  0.20570087488E+02  0.00000000000E+00 0.  1.
          2   -1    0    0  501    0  0.00000000000E+00 -0.00000000000E+00 -0.10069465348E+04  0.10069465348E+04  0.00000000000E+00 0. -1.
         23    2    1    2    0    0 -0.81576405376E+02 -0.45028649213E+02 -0.59105533299E+03  0.61127016315E+03  0.12499006578E+03 0.  0.
          5    1    3    3  502    0 -0.75133205304E+02 -0.71865674336E+01 -0.14494213367E+03  0.16348381388E+03  0.47000000000E+01 0. -1.
         -5    1    3    3    0  502 -0.64432000720E+01 -0.37842081780E+02 -0.44611319932E+03  0.44778634927E+03  0.47000000000E+01 0. -1.
        -11    1    1    2    0    0  0.85265356057E+02  0.64938909368E+02 -0.29412534055E+03  0.31304465951E+03  0.00000000000E+00 0.  1.
         11    1    1    2    0    0 -0.36889506811E+01 -0.19910260154E+02 -0.10119577374E+03  0.10320179960E+03  0.00000000000E+00 0. -1.
<mgrwt>
<rscale>  0 0.14906793E+03</rscale>
<asrwt>0</asrwt>
<pdfrwt beam="2">  1        2 0.15491486E+00 0.15589999E+03</pdfrwt>
<pdfrwt beam="1">  1       -2 0.31646287E-02 0.15589999E+03</pdfrwt>
<totfact> 0.98813181E+03</totfact>
</mgrwt>
</event>
<event>
 7    1  0.6419647E-006  0.1682256E+03  0.7546771E-02  0.1186105E+00
         -1   -1    0    0    0  501 -0.00000000000E+00  0.00000000000E+00  0.91160547274E+02  0.91160547274E+02  0.00000000000E+00 0.  1.
          1   -1    0    0  501    0  0.00000000000E+00 -0.00000000000E+00 -0.28263345192E+03  0.28263345192E+03  0.00000000000E+00 0. -1.
         23    2    1    2    0    0 -0.42292423725E+02  0.10411835981E+03 -0.14098230891E+03  0.21949002918E+03  0.12518218535E+03 0.  0.
          5    1    3    3  502    0 -0.36382500388E+02 -0.18998020794E+02 -0.56466665816E+02  0.69965602098E+02  0.47000000000E+01 0.  1.
         -5    1    3    3    0  502 -0.59099233370E+01  0.12311638060E+03 -0.84515643097E+02  0.14952442708E+03  0.47000000000E+01 0.  1.
        -11    1    1    2    0    0  0.70717891078E+02 -0.58516053246E+02 -0.36472909464E+02  0.98769538476E+02  0.00000000000E+00 0. -1.
         11    1    1    2    0    0 -0.28425467353E+02 -0.45602306561E+02 -0.14017686270E+02  0.55534431538E+02  0.00000000000E+00 0.  1.
<mgrwt>
<rscale>  0 0.16231759E+03</rscale>
<asrwt>0</asrwt>
<pdfrwt beam="2">  1        1 0.43482070E-01 0.16822563E+03</pdfrwt>
<pdfrwt beam="1">  1       -1 0.14024699E-01 0.16822563E+03</pdfrwt>
<totfact> 0.33028176E+03</totfact>
</mgrwt>
</event>
<event>
 7    1  0.6419647E-006  0.2679230E+03  0.7546771E-02  0.1104582E+00
          1   -1    0    0  501    0  0.00000000000E+00  0.00000000000E+00  0.14759773611E+03  0.14759773611E+03  0.00000000000E+00 0. -1.
         -1   -1    0    0    0  501 -0.00000000000E+00 -0.00000000000E+00 -0.50118276821E+03  0.50118276821E+03  0.00000000000E+00 0.  1.
         23    2    1    2    0    0  0.20886785759E+03  0.11194185900E+03 -0.27306733341E+03  0.38255522867E+03  0.12500389067E+03 0.  0.
          5    1    3    3  502    0  0.14784316650E+03  0.28706345571E+02 -0.99501045231E+02  0.18056634282E+03  0.47000000000E+01 0. -1.
         -5    1    3    3    0  502  0.61024691088E+02  0.83235513425E+02 -0.17356628817E+03  0.20198888585E+03  0.47000000000E+01 0. -1.
        -11    1    1    2    0    0 -0.14251867712E+03 -0.11472896043E+03 -0.36531764579E+02  0.18657137378E+03  0.00000000000E+00 0. -1.
         11    1    1    2    0    0 -0.66349180468E+02  0.27871014342E+01 -0.43985934117E+02  0.79653901872E+02  0.00000000000E+00 0.  1.
<mgrwt>
<rscale>  0 0.26430913E+03</rscale>
<asrwt>0</asrwt>
<pdfrwt beam="1">  1        1 0.22707344E-01 0.26792300E+03</pdfrwt>
<pdfrwt beam="2">  1       -1 0.77105040E-01 0.26792300E+03</pdfrwt>
<totfact> 0.38285735E+02</totfact>
</mgrwt>
</event>
<event>
 7    1  0.6419647E-006  0.3200003E+03  0.7546771E-02  0.1076889E+00
          2   -1    0    0  501    0  0.00000000000E+00  0.00000000000E+00  0.27490371773E+03  0.27490371773E+03  0.00000000000E+00 0. -1.
         -2   -1    0    0    0  501 -0.00000000000E+00 -0.00000000000E+00 -0.43802482143E+03  0.43802482143E+03  0.00000000000E+00 0.  1.
         23    2    1    2    0    0 -0.28731180162E+03  0.65008925107E+02  0.67470767434E+02  0.32703594856E+03  0.12500390193E+03 0.  0.
          5    1    3    3  502    0  0.97583862060E+01  0.11464558384E+01  0.15169599198E+02  0.18674774487E+02  0.47000000000E+01 0.  1.
         -5    1    3    3    0  502 -0.29707018783E+03  0.63862469269E+02  0.52301168236E+02  0.30836117407E+03  0.47000000000E+01 0.  1.
        -11    1    1    2    0    0  0.18005930532E+03 -0.68165405936E+01 -0.17713315880E+03  0.25267365238E+03  0.00000000000E+00 0.  1.
         11    1    1    2    0    0  0.10725249630E+03 -0.58192384513E+02 -0.53458712323E+02  0.13321893822E+03  0.00000000000E+00 0. -1.
<mgrwt>
<rscale>  0 0.31732169E+03</rscale>
<asrwt>0</asrwt>
<pdfrwt beam="1">  1        2 0.42292880E-01 0.32000032E+03</pdfrwt>
<pdfrwt beam="2">  1       -2 0.67388434E-01 0.32000032E+03</pdfrwt>
<totfact> 0.24993906E+02</totfact>
</mgrwt>
</event>
<event>
 7    1  0.6419647E-006  0.1255589E+03  0.7546771E-02  0.1249403E+00
         -2   -1    0    0    0  501 -0.00000000000E+00  0.00000000000E+00  0.36667762020E+03  0.36667762020E+03  0.00000000000E+00 0.  1.
          2   -1    0    0  501    0  0.00000000000E+00 -0.00000000000E+00 -0.32485293884E+02  0.32485293884E+02  0.00000000000E+00 0. -1.
         23    2    1    2    0    0 -0.91062560900E+01 -0.75894657779E+01  0.18005430377E+03  0.21950986254E+03  0.12499801421E+03 0.  0.
          5    1    3    3  502    0 -0.27956831195E+02  0.39509253284E+02  0.21862829652E+02  0.53316402973E+02  0.47000000000E+01 0. -1.
         -5    1    3    3    0  502  0.18850575105E+02 -0.47098719062E+02  0.15819147412E+03  0.16619345957E+03  0.47000000000E+01 0. -1.
        -11    1    1    2    0    0  0.22870654152E+01  0.44324663880E+02  0.40697010382E+02  0.60217548525E+02  0.00000000000E+00 0. -1.
         11    1    1    2    0    0  0.68191906749E+01 -0.36735198102E+02  0.11344101217E+03  0.11943550302E+03  0.00000000000E+00 0.  1.
<mgrwt>
<rscale>  0 0.11625707E+03</rscale>
<asrwt>0</asrwt>
<pdfrwt beam="2">  1        2 0.49977378E-02 0.12555886E+03</pdfrwt>
<pdfrwt beam="1">  1       -2 0.56411939E-01 0.12555886E+03</pdfrwt>
<totfact> 0.44626476E+03</totfact>
</mgrwt>
</event>
<event>
 6    1  0.6419647E-006  0.3874214E+03  0.7546771E-02  0.1050481E+00
         -4   -1    0    0    0  501 -0.00000000000E+00  0.00000000000E+00  0.54273150048E+03  0.54273150048E+03  0.00000000000E+00 0.  1.
          4   -1    0    0  501    0  0.00000000000E+00 -0.00000000000E+00 -0.27008657447E+03  0.27008657447E+03  0.00000000000E+00 0. -1.
          5    1    1    2  502    0  0.12977340742E+03 -0.32670336945E+03  0.18368858345E+03  0.39666083066E+03  0.47000000000E+01 0. -1.
         -5    1    1    2    0  502  0.29378127472E+02  0.12879728986E+02  0.37053397153E+02  0.49234195770E+02  0.47000000000E+01 0.  1.
        -11    1    1    2    0    0 -0.11262206275E+03  0.28900755727E+03  0.49793995830E+02  0.31414732085E+03  0.00000000000E+00 0.  1.
         11    1    1    2    0    0 -0.46529472139E+02  0.24816083196E+02  0.21089495799E+01  0.52775727670E+02  0.00000000000E+00 0. -1.
<mgrwt>
<rscale>  0 0.38122749E+03</rscale>
<asrwt>0</asrwt>
<pdfrwt beam="2">  1        4 0.41551781E-01 0.38742141E+03</pdfrwt>
<pdfrwt beam="1">  1       -4 0.83497154E-01 0.38742141E+03</pdfrwt>
<totfact> 0.13612744E+01</totfact>
</mgrwt>
</event>
<event>
 7    1  0.6419647E-006  0.1494075E+03  0.7546771E-02  0.1210844E+00
         -2   -1    0    0    0  501 -0.00000000000E+00  0.00000000000E+00  0.22894850933E+02  0.22894850933E+02  0.00000000000E+00 0. -1.
          2   -1    0    0  501    0  0.00000000000E+00 -0.00000000000E+00 -0.81297326126E+03  0.81297326126E+03  0.00000000000E+00 0.  1.
         23    2    1    2    0    0  0.80609006629E+02  0.14150566317E+02 -0.48562056827E+03  0.50808456278E+03  0.12499814451E+03 0.  0.
          5    1    3    3  502    0  0.50527462935E+02 -0.50605788592E+02 -0.17064726063E+03  0.18508524498E+03  0.47000000000E+01 0. -1.
         -5    1    3    3    0  502  0.30081543694E+02  0.64756354910E+02 -0.31497330764E+03  0.32299931780E+03  0.47000000000E+01 0. -1.
        -11    1    1    2    0    0 -0.13515993796E+02  0.35469953344E+02 -0.98747584430E+02  0.10579170624E+03  0.00000000000E+00 0.  1.
         11    1    1    2    0    0 -0.67093012833E+02 -0.49620519661E+02 -0.20571025763E+03  0.22199184317E+03  0.00000000000E+00 0. -1.
<mgrwt>
<rscale>  0 0.14186293E+03</rscale>
<asrwt>0</asrwt>
<pdfrwt beam="2">  1        2 0.12507280E+00 0.14940745E+03</pdfrwt>
<pdfrwt beam="1">  1       -2 0.35222849E-02 0.14940745E+03</pdfrwt>
<totfact> 0.11155545E+04</totfact>
</mgrwt>
</event>
<event>
 7    1  0.6419647E-006  0.1300566E+03  0.7546771E-02  0.1241163E+00
         -2   -1    0    0    0  501 -0.00000000000E+00  0.00000000000E+00  0.60608064526E+02  0.60608064526E+02  0.00000000000E+00 0.  1.
          2   -1    0    0  501    0  0.00000000000E+00 -0.00000000000E+00 -0.21794385021E+03  0.21794385021E+03  0.00000000000E+00 0. -1.
         23    2    1    2    0    0 -0.63742702471E+01  0.35323090028E+02 -0.10668950310E+03  0.16821821314E+03  0.12500546048E+03 0.  0.
          5    1    3    3  502    0 -0.36800205530E+02 -0.18555826137E+02 -0.96888161466E+02  0.10539440043E+03  0.47000000000E+01 0. -1.
         -5    1    3    3    0  502  0.30425935283E+02  0.53878916165E+02 -0.98013416312E+01  0.62823812704E+02  0.47000000000E+01 0. -1.
        -11    1    1    2    0    0  0.75627002282E+01 -0.51592992582E+02 -0.68539537402E+02  0.86120261876E+02  0.00000000000E+00 0. -1.
         11    1    1    2    0    0 -0.11884299811E+01  0.16269902555E+02  0.17893254818E+02  0.24213439718E+02  0.00000000000E+00 0.  1.
<mgrwt>
<rscale>  0 0.12118005E+03</rscale>
<asrwt>0</asrwt>
<pdfrwt beam="2">  1        2 0.33529823E-01 0.13005659E+03</pdfrwt>
<pdfrwt beam="1">  1       -2 0.93243176E-02 0.13005659E+03</pdfrwt>
<totfact> 0.10803913E+04</totfact>
</mgrwt>
</event>
<event>
 6    1  0.6419647E-006  0.1465427E+03  0.7546771E-02  0.1219073E+00
          4   -1    0    0  501    0  0.00000000000E+00  0.00000000000E+00  0.92120682992E+02  0.92120682992E+02  0.00000000000E+00 0. -1.
         -4   -1    0    0    0  501 -0.00000000000E+00 -0.00000000000E+00 -0.17712041483E+03  0.17712041483E+03  0.00000000000E+00 0.  1.
          5    1    1    2  502    0  0.11205216555E+02 -0.92615855355E+02 -0.42584726093E+02  0.10265866957E+03  0.47000000000E+01 0. -1.
         -5    1    1    2    0  502  0.21765160540E+02  0.43214171030E+02  0.42973942252E+01  0.48803118632E+02  0.47000000000E+01 0.  1.
        -11    1    1    2    0    0 -0.35556059650E+02 -0.12488373444E+02  0.37648038434E+01  0.37873032584E+02  0.00000000000E+00 0.  1.
         11    1    1    2    0    0  0.25856825549E+01  0.61890057769E+02 -0.50477203808E+02  0.79906277033E+02  0.00000000000E+00 0. -1.
<mgrwt>
<rscale>  0 0.13581555E+03</rscale>
<asrwt>0</asrwt>
<pdfrwt beam="1">  1        4 0.14172413E-01 0.14654267E+03</pdfrwt>
<pdfrwt beam="2">  1       -4 0.27249294E-01 0.14654267E+03</pdfrwt>
<totfact> 0.89110481E+02</totfact>
</mgrwt>
</event>
<event>
 7    1  0.6419647E-006  0.1260844E+03  0.7546771E-02  0.1264232E+00
         -2   -1    0    0    0  501 -0.00000000000E+00  0.00000000000E+00  0.24114278991E+02  0.24114278991E+02  0.00000000000E+00 0.  1.
          2   -1    0    0  501    0  0.00000000000E+00 -0.00000000000E+00 -0.42170368100E+03  0.42170368100E+03  0.00000000000E+00 0. -1.
         23    2    1    2    0    0  0.90835140112E+01  0.13750322541E+02 -0.31197406930E+03  0.33648937831E+03  0.12500280076E+03 0.  0.
          5    1    3    3  502    0  0.61755153229E+02  0.32476937240E+02 -0.17795180705E+03  0.19119985888E+03  0.47000000000E+01 0. -1.
         -5    1    3    3    0  502 -0.52671639218E+02 -0.18726614699E+02 -0.13402226225E+03  0.14528951942E+03  0.47000000000E+01 0. -1.
        -11    1    1    2    0    0 -0.37815076338E+02 -0.81013568863E+01 -0.46954270359E+02  0.60830218533E+02  0.00000000000E+00 0. -1.
         11    1    1    2    0    0  0.28731562327E+02 -0.56489656548E+01 -0.38661062352E+02  0.48498363156E+02  0.00000000000E+00 0.  1.
<mgrwt>
<rscale>  0 0.10804599E+03</rscale>
<asrwt>0</asrwt>
<pdfrwt beam="2">  1        2 0.64877489E-01 0.12608442E+03</pdfrwt>
<pdfrwt beam="1">  1       -2 0.37098891E-02 0.12608442E+03</pdfrwt>
<totfact> 0.21585174E+04</totfact>
</mgrwt>
</event>
<event>
 7    1  0.6419647E-006  0.1356972E+03  0.7546771E-02  0.1230414E+00
          3   -1    0    0  501    0  0.00000000000E+00  0.00000000000E+00  0.11280473268E+03  0.11280473268E+03  0.00000000000E+00 0. -1.
         -3   -1    0    0    0  501 -0.00000000000E+00 -0.00000000000E+00 -0.13290499691E+03  0.13290499691E+03  0.00000000000E+00 0.  1.
         23    2    1    2    0    0  0.31394421148E+02 -0.42456476550E+02 -0.25430431516E+02  0.13805956810E+03  0.12500230165E+03 0.  0.
          5    1    3    3  502    0  0.35693437689E+02  0.36743252461E+02  0.76238136704E+01  0.52002890596E+02  0.47000000000E+01 0. -1.
         -5    1    3    3    0  502 -0.42990165406E+01 -0.79199729011E+02 -0.33054245187E+02  0.86056677507E+02  0.47000000000E+01 0. -1.
        -11    1    1    2    0    0 -0.59303894034E+02  0.20452655016E+02  0.24408474319E+02  0.67312974703E+02  0.00000000000E+00 0.  1.
         11    1    1    2    0    0  0.27909472886E+02  0.22003821534E+02 -0.19078307028E+02  0.40337186787E+02  0.00000000000E+00 0. -1.
<mgrwt>
<rscale>  0 0.12802614E+03</rscale>
<asrwt>0</asrwt>
<pdfrwt beam="1">  1        3 0.17354574E-01 0.13569723E+03</pdfrwt>
<pdfrwt beam="2">  1       -3 0.20446923E-01 0.13569723E+03</pdfrwt>
<totfact> 0.14293077E+03</totfact>
</mgrwt>
</event>
<event>
 7    1  0.6419647E-006  0.1268746E+03  0.7546771E-02  0.1246485E+00
          1   -1    0    0  501    0  0.00000000000E+00  0.00000000000E+00  0.11656827681E+03  0.11656827681E+03  0.00000000000E+00 0. -1.
         -1   -1    0    0    0  501 -0.00000000000E+00 -0.00000000000E+00 -0.10877907202E+03  0.10877907202E+03  0.00000000000E+00 0.  1.
         23    2    1    2    0    0  0.12499270917E+02  0.17763506777E+02  0.24041179788E+02  0.12913227967E+03  0.12500157351E+03 0.  0.
          5    1    3    3  502    0  0.67408028910E+02  0.82007417933E+01 -0.45802356361E+00  0.68069040782E+02  0.47000000000E+01 0. -1.
         -5    1    3    3    0  502 -0.54908757993E+02  0.95627649833E+01  0.24499203352E+02  0.61063238887E+02  0.47000000000E+01 0. -1.
        -11    1    1    2    0    0  0.98372243863E+01 -0.47589557216E+02 -0.29286548276E+02  0.56738336683E+02  0.00000000000E+00 0.  1.
         11    1    1    2    0    0 -0.22336495303E+02  0.29826050439E+02  0.13034573279E+02  0.39476732486E+02  0.00000000000E+00 0. -1.
<mgrwt>
<rscale>  0 0.11796968E+03</rscale>
<asrwt>0</asrwt>
<pdfrwt beam="1">  1        1 0.17933581E-01 0.12687461E+03</pdfrwt>
<pdfrwt beam="2">  1       -1 0.16735242E-01 0.12687461E+03</pdfrwt>
<totfact> 0.74706737E+03</totfact>
</mgrwt>
</event>
<event>
 7    1  0.6419647E-006  0.1254673E+03  0.7546771E-02  0.1250207E+00
          2   -1    0    0  501    0  0.00000000000E+00  0.00000000000E+00  0.37665987764E+03  0.37665987764E+03  0.00000000000E+00 0. -1.
         -2   -1    0    0    0  501 -0.00000000000E+00 -0.00000000000E+00 -0.31399198960E+02  0.31399198960E+02  0.00000000000E+00 0.  1.
         23    2    1    2    0    0  0.79055810110E+01  0.74434719705E+01  0.21934368285E+03  0.25269286168E+03  0.12499651055E+03 0.  0.
          5    1    3    3  502    0 -0.56179593067E+02  0.84789302563E+01  0.71210132199E+02  0.91219580482E+02  0.47000000000E+01 0.  1.
         -5    1    3    3    0  502  0.64085174078E+02 -0.10354582858E+01  0.14813355066E+03  0.16147328120E+03  0.47000000000E+01 0.  1.
        -11    1    1    2    0    0 -0.15794961910E+02 -0.43018502248E+02  0.10188235201E+03  0.11171430530E+03  0.00000000000E+00 0. -1.
         11    1    1    2    0    0  0.78893808995E+01  0.35575030277E+02  0.24034643808E+02  0.43651909617E+02  0.00000000000E+00 0.  1.
<mgrwt>
<rscale>  0 0.11579105E+03</rscale>
<asrwt>0</asrwt>
<pdfrwt beam="1">  1        2 0.57947670E-01 0.12546725E+03</pdfrwt>
<pdfrwt beam="2">  1       -2 0.48306463E-02 0.12546725E+03</pdfrwt>
<totfact> 0.16435118E+04</totfact>
</mgrwt>
</event>
<event>
 7    1  0.6419647E-006  0.1301167E+03  0.7546771E-02  0.1239253E+00
         -1   -1    0    0    0  501 -0.00000000000E+00  0.00000000000E+00  0.14705839251E+03  0.14705839251E+03  0.00000000000E+00 0.  1.
          1   -1    0    0  501    0  0.00000000000E+00 -0.00000000000E+00 -0.91506962987E+02  0.91506962987E+02  0.00000000000E+00 0. -1.
         23    2    1    2    0    0  0.34585219556E+02 -0.10229839248E+02  0.27155004188E+02  0.13292012318E+03  0.12501831014E+03 0.  0.
          5    1    3    3  502    0  0.30027960581E+02 -0.59100908667E+01 -0.48129092269E+02  0.57228551557E+02  0.47000000000E+01 0.  1.
         -5    1    3    3    0  502  0.45572589748E+01 -0.43197483815E+01  0.75284096458E+02  0.75691571624E+02  0.47000000000E+01 0.  1.
        -11    1    1    2    0    0 -0.13498788366E+02 -0.32138732575E+02  0.43706083280E+02  0.55904714780E+02  0.00000000000E+00 0.  1.
         11    1    1    2    0    0 -0.21086431189E+02  0.42368571823E+02 -0.15309657943E+02  0.49740517538E+02  0.00000000000E+00 0. -1.
<mgrwt>
<rscale>  0 0.12236052E+03</rscale>
<asrwt>0</asrwt>
<pdfrwt beam="2">  1        1 0.14077994E-01 0.13011674E+03</pdfrwt>
<pdfrwt beam="1">  1       -1 0.22624368E-01 0.13011674E+03</pdfrwt>
<totfact> 0.63107581E+03</totfact>
</mgrwt>
</event>
<event>
 7    1  0.6419647E-006  0.2837015E+03  0.7546771E-02  0.1095485E+00
         -2   -1    0    0    0  501 -0.00000000000E+00  0.00000000000E+00  0.10186199683E+03  0.10186199683E+03  0.00000000000E+00 0.  1.
          2   -1    0    0  501    0  0.00000000000E+00 -0.00000000000E+00 -0.78612172645E+03  0.78612172645E+03  0.00000000000E+00 0. -1.
         23    2    1    2    0    0  0.24051217212E+03 -0.83764590066E+02 -0.43940659592E+03  0.52303411620E+03  0.12499567466E+03 0.  0.
          5    1    3    3  502    0  0.22899799748E+03 -0.49681250636E+02 -0.30993123728E+03  0.38857144949E+03  0.47000000000E+01 0.  1.
         -5    1    3    3    0  502  0.11514174641E+02 -0.34083339429E+02 -0.12947535865E+03  0.13446266672E+03  0.47000000000E+01 0.  1.
        -11    1    1    2    0    0 -0.12883478336E+02 -0.17056162356E+02 -0.24131046052E+02  0.32236688290E+02  0.00000000000E+00 0. -1.
         11    1    1    2    0    0 -0.22762869379E+03  0.10082075242E+03 -0.22072208764E+03  0.33271291879E+03  0.00000000000E+00 0.  1.
<mgrwt>
<rscale>  0 0.28037298E+03</rscale>
<asrwt>0</asrwt>
<pdfrwt beam="2">  1        2 0.12094181E+00 0.28370148E+03</pdfrwt>
<pdfrwt beam="1">  1       -2 0.15671076E-01 0.28370148E+03</pdfrwt>
<totfact> 0.11557446E+03</totfact>
</mgrwt>
</event>
<event>
 7    1  0.6419647E-006  0.1681589E+03  0.7546771E-02  0.1186741E+00
          2   -1    0    0  501    0  0.00000000000E+00  0.00000000000E+00  0.50758090121E+03  0.50758090121E+03  0.00000000000E+00 0. -1.
         -2   -1    0    0    0  501 -0.00000000000E+00 -0.00000000000E+00 -0.67191496178E+02  0.67191496178E+02  0.00000000000E+00 0.  1.
         23    2    1    2    0    0 -0.35459473918E+02  0.10674171131E+03  0.38576162299E+03  0.42081995238E+03  0.12500494119E+03 0.  0.
          5    1    3    3  502    0 -0.62245911141E+02  0.82619707598E+02  0.14999161855E+03  0.18226394370E+03  0.47000000000E+01 0.  1.
         -5    1    3    3    0  502  0.26786437224E+02  0.24122003713E+02  0.23577000444E+03  0.23855600868E+03  0.47000000000E+01 0.  1.
        -11    1    1    2    0    0  0.29999134181E+02 -0.61603267145E+02 -0.15617125409E+02  0.70276633247E+02  0.00000000000E+00 0.  1.
         11    1    1    2    0    0  0.54603397366E+01 -0.45138444165E+02  0.70244907450E+02  0.83675811764E+02  0.00000000000E+00 0. -1.
<mgrwt>
<rscale>  0 0.16174509E+03</rscale>
<asrwt>0</asrwt>
<pdfrwt beam="1">  1        2 0.78089367E-01 0.16815886E+03</pdfrwt>
<pdfrwt beam="2">  1       -2 0.10337154E-01 0.16815886E+03</pdfrwt>
<totfact> 0.37683827E+03</totfact>
</mgrwt>
</event>
<event>
 7    1  0.6419647E-006  0.1346238E+03  0.7546771E-02  0.1233128E+00
         -1   -1    0    0    0  501 -0.00000000000E+00  0.00000000000E+00  0.43346029814E+03  0.43346029814E+03  0.00000000000E+00 0.  1.
          1   -1    0    0  501    0  0.00000000000E+00 -0.00000000000E+00 -0.64452489484E+02  0.64452489484E+02  0.00000000000E+00 0. -1.
         23    2    1    2    0    0  0.98178455936E+01 -0.49009038032E+02  0.22997431650E+02  0.13657397710E+03  0.12500117382E+03 0.  0.
          5    1    3    3  502    0  0.11275131922E+02  0.13867277718E+02  0.60457806068E+02  0.63219192543E+02  0.47000000000E+01 0. -1.
         -5    1    3    3    0  502 -0.14572863284E+01 -0.62876315750E+02 -0.37460374418E+02  0.73354784556E+02  0.47000000000E+01 0. -1.
        -11    1    1    2    0    0 -0.41661239097E+01 -0.26546318904E+02  0.66042289857E+02  0.71299703263E+02  0.00000000000E+00 0. -1.
         11    1    1    2    0    0 -0.56517216838E+01  0.75555356935E+02  0.27996808715E+03  0.29003910726E+03  0.00000000000E+00 0.  1.
<mgrwt>
<rscale>  0 0.12625043E+03</rscale>
<asrwt>0</asrwt>
<pdfrwt beam="2">  1        1 0.99157679E-02 0.13462381E+03</pdfrwt>
<pdfrwt beam="1">  1       -1 0.66686198E-01 0.13462381E+03</pdfrwt>
<totfact> 0.14987287E+03</totfact>
</mgrwt>
</event>
<event>
 7    1  0.6419647E-006  0.1509646E+03  0.7546771E-02  0.1207319E+00
         -1   -1    0    0    0  501 -0.00000000000E+00  0.00000000000E+00  0.29827700484E+02  0.29827700484E+02  0.00000000000E+00 0.  1.
          1   -1    0    0  501    0  0.00000000000E+00 -0.00000000000E+00 -0.11744368593E+04  0.11744368593E+04  0.00000000000E+00 0. -1.
         23    2    1    2    0    0 -0.84530040141E+02 -0.45086716427E+01 -0.10021506836E+04  0.10134576009E+04  0.12499864169E+03 0.  0.
          5    1    3    3  502    0 -0.43719249670E+01 -0.27900715947E+02 -0.49809846850E+02  0.57451497121E+02  0.47000000000E+01 0.  1.
         -5    1    3    3    0  502 -0.80158115174E+02  0.23392044305E+02 -0.95234083677E+03  0.95600610382E+03  0.47000000000E+01 0.  1.
        -11    1    1    2    0    0 -0.27622748928E+01  0.34190637100E+02 -0.31838023512E+02  0.46800529580E+02  0.00000000000E+00 0.  1.
         11    1    1    2    0    0  0.87292315034E+02 -0.29681965457E+02 -0.11062045169E+03  0.14400642926E+03  0.00000000000E+00 0. -1.
<mgrwt>
<rscale>  0 0.14456163E+03</rscale>
<asrwt>0</asrwt>
<pdfrwt beam="2">  1        1 0.18068258E+00 0.15096462E+03</pdfrwt>
<pdfrwt beam="1">  1       -1 0.45888774E-02 0.15096462E+03</pdfrwt>
<totfact> 0.23738528E+03</totfact>
</mgrwt>
</event>
<event>
 7    1  0.6419647E-006  0.1159226E+03  0.7546771E-02  0.1258604E+00
         -2   -1    0    0    0  501 -0.00000000000E+00  0.00000000000E+00  0.20464900349E+03  0.20464900349E+03  0.00000000000E+00 0.  1.
          2   -1    0    0  501    0  0.00000000000E+00 -0.00000000000E+00 -0.89888269545E+02  0.89888269545E+02  0.00000000000E+00 0. -1.
         23    2    1    2    0    0 -0.22263959919E+01 -0.26089602526E+02 -0.30143676186E+02  0.11977769669E+03  0.11292666298E+03 0.  0.
          5    1    3    3  502    0  0.59992727371E+01 -0.67023981237E+02 -0.37414074767E+02  0.77136945265E+02  0.47000000000E+01 0. -1.
         -5    1    3    3    0  502 -0.82256687289E+01  0.40934378711E+02  0.72703985810E+01  0.42640751425E+02  0.47000000000E+01 0.  1.
        -11    1    1    2    0    0  0.43393725639E+02  0.32880229261E+02  0.96982301296E+02  0.11121911556E+03  0.00000000000E+00 0.  1.
         11    1    1    2    0    0 -0.41167329647E+02 -0.67906267353E+01  0.47922108834E+02  0.63540460786E+02  0.00000000000E+00 0. -1.
<mgrwt>
<rscale>  0 0.11106835E+03</rscale>
<asrwt>0</asrwt>
<pdfrwt beam="2">  1        2 0.13828965E-01 0.11592263E+03</pdfrwt>
<pdfrwt beam="1">  1       -2 0.31484462E-01 0.11592263E+03</pdfrwt>
<totfact> 0.38105153E+03</totfact>
</mgrwt>
</event>
<event>
 7    1  0.6419647E-006  0.1450514E+03  0.7546771E-02  0.1213028E+00
          1   -1    0    0  501    0  0.00000000000E+00  0.00000000000E+00  0.38107252090E+03  0.38107252090E+03  0.00000000000E+00 0. -1.
         -1   -1    0    0    0  501 -0.00000000000E+00 -0.00000000000E+00 -0.50035241497E+02  0.50035241497E+02  0.00000000000E+00 0.  1.
         23    2    1    2    0    0  0.84443035434E+02 -0.19427192701E+02  0.13797629243E+03  0.20019329409E+03  0.11632650461E+03 0.  0.
          5    1    3    3  502    0  0.85800160478E+01 -0.18505232126E+00  0.11915965072E+03  0.11956070959E+03  0.47000000000E+01 0. -1.
         -5    1    3    3    0  502  0.75863019386E+02 -0.19242140379E+02  0.18816641719E+02  0.80632584495E+02  0.47000000000E+01 0.  1.
        -11    1    1    2    0    0  0.14598352483E+02 -0.70498680154E+01  0.54199152129E+01  0.17093507983E+02  0.00000000000E+00 0.  1.
         11    1    1    2    0    0 -0.99041387917E+02  0.26477060716E+02  0.18764107176E+03  0.21382096033E+03  0.00000000000E+00 0. -1.
<mgrwt>
<rscale>  0 0.14022394E+03</rscale>
<asrwt>0</asrwt>
<pdfrwt beam="1">  1        1 0.58626540E-01 0.14505136E+03</pdfrwt>
<pdfrwt beam="2">  1       -1 0.76977297E-02 0.14505136E+03</pdfrwt>
<totfact> 0.56715187E+03</totfact>
</mgrwt>
</event>
<event>
 7    1  0.6419647E-006  0.1533539E+03  0.7546771E-02  0.1204990E+00
          2   -1    0    0  501    0  0.00000000000E+00  0.00000000000E+00  0.40998878037E+03  0.40998878037E+03  0.00000000000E+00 0. -1.
         -2   -1    0    0    0  501 -0.00000000000E+00 -0.00000000000E+00 -0.49418280744E+02  0.49418280744E+02  0.00000000000E+00 0.  1.
         23    2    1    2    0    0  0.88756723569E+02  0.35367007405E+01  0.23482413682E+03  0.28046355213E+03  0.12500865815E+03 0.  0.
          5    1    3    3  502    0  0.22553534485E+02  0.22842087343E+01 -0.11145277985E+02  0.25694099491E+02  0.47000000000E+01 0.  1.
         -5    1    3    3    0  502  0.66203189084E+02  0.12524920062E+01  0.24596941480E+03  0.25476945264E+03  0.47000000000E+01 0.  1.
        -11    1    1    2    0    0 -0.31246348311E+02  0.40148708753E+02  0.75195386513E+02  0.90788761696E+02  0.00000000000E+00 0. -1.
         11    1    1    2    0    0 -0.57510375258E+02 -0.43685409493E+02  0.50550976301E+02  0.88154747291E+02  0.00000000000E+00 0.  1.
<mgrwt>
<rscale>  0 0.14638261E+03</rscale>
<asrwt>0</asrwt>
<pdfrwt beam="1">  1        2 0.63075195E-01 0.15335393E+03</pdfrwt>
<pdfrwt beam="2">  1       -2 0.76028127E-02 0.15335393E+03</pdfrwt>
<totfact> 0.76527821E+03</totfact>
</mgrwt>
</event>
<event>
 7    1  0.6419647E-006  0.1536542E+03  0.7546771E-02  0.1204855E+00
          2   -1    0    0  501    0  0.00000000000E+00  0.00000000000E+00  0.98131993069E+02  0.98131993069E+02  0.00000000000E+00 0. -1.
         -2   -1    0    0    0  501 -0.00000000000E+00 -0.00000000000E+00 -0.31339918003E+03  0.31339918003E+03  0.00000000000E+00 0.  1.
         23    2    1    2    0    0 -0.71313612920E+02 -0.53844597884E+02  0.89087244428E+01  0.15391222466E+03  0.12499894167E+03 0.  0.
          5    1    3    3  502    0 -0.40437673382E+02 -0.86692111462E+02  0.34574891844E+02  0.10182455875E+03  0.47000000000E+01 0. -1.
         -5    1    3    3    0  502 -0.30875939537E+02  0.32847513578E+02 -0.25666167401E+02  0.52087665907E+02  0.47000000000E+01 0. -1.
        -11    1    1    2    0    0  0.73598675394E+02  0.56086832431E+00 -0.12923154843E+03  0.14872078773E+03  0.00000000000E+00 0.  1.
         11    1    1    2    0    0 -0.22850624748E+01  0.53283729560E+02 -0.94944362967E+02  0.10889816071E+03  0.00000000000E+00 0. -1.
<mgrwt>
<rscale>  0 0.14648875E+03</rscale>
<asrwt>0</asrwt>
<pdfrwt beam="1">  1        2 0.15097230E-01 0.15365418E+03</pdfrwt>
<pdfrwt beam="2">  1       -2 0.48215258E-01 0.15365418E+03</pdfrwt>
<totfact> 0.15628772E+03</totfact>
</mgrwt>
</event>
<event>
 6    1  0.6419647E-006  0.4158709E+03  0.7546771E-02  0.1073572E+00
         -2   -1    0    0    0  501 -0.00000000000E+00  0.00000000000E+00  0.22849202844E+02  0.22849202844E+02  0.00000000000E+00 0.  1.
          2   -1    0    0  501    0  0.00000000000E+00 -0.00000000000E+00 -0.44589416123E+04  0.44589416123E+04  0.00000000000E+00 0. -1.
          5    1    1    2  502    0 -0.13553164223E+03 -0.33437354185E+00 -0.35931872545E+04  0.35957454962E+04  0.47000000000E+01 0. -1.
         -5    1    1    2    0  502  0.61959499441E+02  0.10120894386E+03 -0.35619327341E+03  0.37547032894E+03  0.47000000000E+01 0.  1.
        -11    1    1    2    0    0  0.15097819723E+02  0.13608925331E+02 -0.30929665839E+02  0.37010690861E+02  0.00000000000E+00 0.  1.
         11    1    1    2    0    0  0.58474323067E+02 -0.11448349565E+03 -0.45578221578E+03  0.47356429918E+03  0.00000000000E+00 0. -1.
<mgrwt>
<rscale>  0 0.32455422E+03</rscale>
<asrwt>0</asrwt>
<pdfrwt beam="2">  1        2 0.68599089E+00 0.41587086E+03</pdfrwt>
<pdfrwt beam="1">  1       -2 0.35152626E-02 0.41587086E+03</pdfrwt>
<totfact> 0.58515909E+01</totfact>
</mgrwt>
</event>
<event>
 7    1  0.6419647E-006  0.2688516E+03  0.7546771E-02  0.1103928E+00
          2   -1    0    0  501    0  0.00000000000E+00  0.00000000000E+00  0.24910883543E+04  0.24910883543E+04  0.00000000000E+00 0. -1.
         -2   -1    0    0    0  501 -0.00000000000E+00 -0.00000000000E+00 -0.27596089844E+02  0.27596089844E+02  0.00000000000E+00 0.  1.
         23    2    1    2    0    0 -0.35086105250E+02 -0.23542621086E+03  0.12914069580E+04  0.13190955581E+04  0.12499849819E+03 0.  0.
          5    1    3    3  502    0 -0.80033110199E+02 -0.17425208838E+03  0.87178825878E+03  0.89263987541E+03  0.47000000000E+01 0.  1.
         -5    1    3    3    0  502  0.44947004949E+02 -0.61174122483E+02  0.41961869925E+03  0.42645568266E+03  0.47000000000E+01 0.  1.
        -11    1    1    2    0    0 -0.99570318974E+00  0.15710251347E+03  0.91596455699E+03  0.92934022878E+03  0.00000000000E+00 0. -1.
         11    1    1    2    0    0  0.36081808440E+02  0.78323697395E+02  0.25612074941E+03  0.27024865726E+03  0.00000000000E+00 0.  1.
<mgrwt>
<rscale>  0 0.26542385E+03</rscale>
<asrwt>0</asrwt>
<pdfrwt beam="1">  1        2 0.38324419E+00 0.26885156E+03</pdfrwt>
<pdfrwt beam="2">  1       -2 0.42455542E-02 0.26885156E+03</pdfrwt>
<totfact> 0.10187862E+03</totfact>
</mgrwt>
</event>
<event>
 7    1  0.6419647E-006  0.1527557E+03  0.7546771E-02  0.1204960E+00
         -2   -1    0    0    0  501 -0.00000000000E+00  0.00000000000E+00  0.55386187953E+02  0.55386187953E+02  0.00000000000E+00 0.  1.
          2   -1    0    0  501    0  0.00000000000E+00 -0.00000000000E+00 -0.36374653743E+03  0.36374653743E+03  0.00000000000E+00 0. -1.
         23    2    1    2    0    0 -0.85139800531E+01 -0.87391194972E+02 -0.19312997220E+03  0.24623867075E+03  0.12499835198E+03 0.  0.
          5    1    3    3  502    0 -0.20342666820E+02 -0.11475550908E+03 -0.12107507525E+03  0.16811875209E+03  0.47000000000E+01 0.  1.
         -5    1    3    3    0  502  0.11828686767E+02  0.27364314110E+02 -0.72054896950E+02  0.78119918662E+02  0.47000000000E+01 0.  1.
        -11    1    1    2    0    0 -0.11463657026E+02  0.94897834364E+02 -0.57985474350E+02  0.11180040087E+03  0.00000000000E+00 0.  1.
         11    1    1    2    0    0  0.19977637079E+02 -0.75066393922E+01 -0.57244902930E+02  0.61093653759E+02  0.00000000000E+00 0. -1.
<mgrwt>
<rscale>  0 0.14640581E+03</rscale>
<asrwt>0</asrwt>
<pdfrwt beam="2">  1        2 0.55961008E-01 0.15275568E+03</pdfrwt>
<pdfrwt beam="1">  1       -2 0.85209517E-02 0.15275568E+03</pdfrwt>
<totfact> 0.72888128E+03</totfact>
</mgrwt>
</event>
<event>
 7    1  0.6419647E-006  0.1459287E+03  0.7546771E-02  0.1215699E+00
         -2   -1    0    0    0  501 -0.00000000000E+00  0.00000000000E+00  0.43805301555E+03  0.43805301555E+03  0.00000000000E+00 0.  1.
          2   -1    0    0  501    0  0.00000000000E+00 -0.00000000000E+00 -0.39758537860E+02  0.39758537860E+02  0.00000000000E+00 0. -1.
         23    2    1    2    0    0 -0.74176796942E+02 -0.12929539733E+02  0.20668215253E+03  0.25300729083E+03  0.12500322732E+03 0.  0.
          5    1    3    3  502    0  0.33421873265E+02 -0.98315571630E+01  0.75245534004E+02  0.83052161419E+02  0.47000000000E+01 0.  1.
         -5    1    3    3    0  502 -0.10759867021E+03 -0.30979825698E+01  0.13143661852E+03  0.16995512942E+03  0.47000000000E+01 0.  1.
        -11    1    1    2    0    0 -0.11133468915E+02  0.28596750228E+02  0.45346925277E+02  0.54754651727E+02  0.00000000000E+00 0. -1.
         11    1    1    2    0    0  0.85310265857E+02 -0.15667210495E+02  0.14626539988E+03  0.17004961084E+03  0.00000000000E+00 0.  1.
<mgrwt>
<rscale>  0 0.13825331E+03</rscale>
<asrwt>0</asrwt>
<pdfrwt beam="2">  1        2 0.61166984E-02 0.14592867E+03</pdfrwt>
<pdfrwt beam="1">  1       -2 0.67392768E-01 0.14592867E+03</pdfrwt>
<totfact> 0.24035131E+03</totfact>
</mgrwt>
</event>
<event>
 7    1  0.6419647E-006  0.1321472E+03  0.7546771E-02  0.1236992E+00
         -2   -1    0    0    0  501 -0.00000000000E+00  0.00000000000E+00  0.49671655228E+02  0.49671655228E+02  0.00000000000E+00 0. -1.
          2   -1    0    0  501    0  0.00000000000E+00 -0.00000000000E+00 -0.34513041900E+03  0.34513041900E+03  0.00000000000E+00 0.  1.
         23    2    1    2    0    0  0.42073495870E+02  0.81289591977E+01 -0.25126910192E+03  0.28389968804E+03  0.12500644886E+03 0.  0.
          5    1    3    3  502    0 -0.38867197586E+02 -0.15943879830E+02 -0.12473085734E+03  0.13169944238E+03  0.47000000000E+01 0.  1.
         -5    1    3    3    0  502  0.80940693456E+02  0.24072839028E+02 -0.12653824459E+03  0.15220024566E+03  0.47000000000E+01 0.  1.
        -11    1    1    2    0    0  0.22133222230E+02  0.18489989914E+02 -0.26533235967E+02  0.39188925274E+02  0.00000000000E+00 0.  1.
         11    1    1    2    0    0 -0.64206718099E+02 -0.26618949112E+02 -0.17656425884E+02  0.71713460911E+02  0.00000000000E+00 0. -1.
<mgrwt>
<rscale>  0 0.12377791E+03</rscale>
<asrwt>0</asrwt>
<pdfrwt beam="2">  1        2 0.53096986E-01 0.13214716E+03</pdfrwt>
<pdfrwt beam="1">  1       -2 0.76417933E-02 0.13214716E+03</pdfrwt>
<totfact> 0.90352142E+03</totfact>
</mgrwt>
</event>
<event>
 7    1  0.6419647E-006  0.1123028E+03  0.7546771E-02  0.1332235E+00
          2   -1    0    0  501    0  0.00000000000E+00  0.00000000000E+00  0.19260729599E+04  0.19260729599E+04  0.00000000000E+00 0. -1.
         -2   -1    0    0    0  501 -0.00000000000E+00 -0.00000000000E+00 -0.13078681003E+02  0.13078681003E+02  0.00000000000E+00 0.  1.
         23    2    1    2    0    0 -0.54524072842E+01  0.57737157249E+01  0.19080630018E+04  0.19113650485E+04  0.11202171719E+03 0.  0.
          5    1    3    3  502    0 -0.55482720776E+02  0.20445450699E+02  0.11143972884E+04  0.11159748004E+04  0.47000000000E+01 0. -1.
         -5    1    3    3    0  502  0.50030313492E+02 -0.14671734974E+02  0.79366571349E+03  0.79539024814E+03  0.47000000000E+01 0.  1.
        -11    1    1    2    0    0  0.15991833812E+02 -0.21682983669E+01  0.38800490193E+01  0.16598043465E+02  0.00000000000E+00 0. -1.
         11    1    1    2    0    0 -0.10539426528E+02 -0.36054173579E+01  0.10512279918E+01  0.11188548885E+02  0.00000000000E+00 0.  1.
<mgrwt>
<rscale>  0 0.78888665E+02</rscale>
<asrwt>0</asrwt>
<pdfrwt beam="1">  1        2 0.29631869E+00 0.11230285E+03</pdfrwt>
<pdfrwt beam="2">  1       -2 0.20121063E-02 0.11230285E+03</pdfrwt>
<totfact> 0.61330157E+03</totfact>
</mgrwt>
</event>
<event>
 7    1  0.6419647E-006  0.1172467E+03  0.7546771E-02  0.1293620E+00
          2   -1    0    0  501    0  0.00000000000E+00  0.00000000000E+00  0.12514480031E+04  0.12514480031E+04  0.00000000000E+00 0. -1.
         -2   -1    0    0    0  501 -0.00000000000E+00 -0.00000000000E+00 -0.69921650298E+01  0.69921650298E+01  0.00000000000E+00 0.  1.
         23    2    1    2    0    0 -0.15957627583E+02 -0.37021029482E+02  0.10977433795E+04  0.11039870052E+04  0.11009803705E+03 0.  0.
          5    1    3    3  502    0 -0.35551948077E+02 -0.56444625295E+02  0.10022039298E+04  0.10044325481E+04  0.47000000000E+01 0. -1.
         -5    1    3    3    0  502  0.19594320494E+02  0.19423595814E+02  0.95539449713E+02  0.99554457065E+02  0.47000000000E+01 0.  1.
        -11    1    1    2    0    0 -0.54307505874E+01  0.15854306988E+02  0.71648566451E+02  0.73582397192E+02  0.00000000000E+00 0.  1.
         11    1    1    2    0    0  0.21388378170E+02  0.21166722494E+02  0.75063892111E+02  0.80870765798E+02  0.00000000000E+00 0. -1.
<mgrwt>
<rscale>  0 0.93923357E+02</rscale>
<asrwt>0</asrwt>
<pdfrwt beam="1">  1        2 0.19253028E+00 0.11724666E+03</pdfrwt>
<pdfrwt beam="2">  1       -2 0.10757187E-02 0.11724666E+03</pdfrwt>
<totfact> 0.33661995E+04</totfact>
</mgrwt>
</event>
<event>
 6    1  0.6419647E-006  0.1615076E+03  0.7546771E-02  0.1210170E+00
          2   -1    0    0  501    0  0.00000000000E+00  0.00000000000E+00  0.64976981758E+03  0.64976981758E+03  0.00000000000E+00 0. -1.
         -2   -1    0    0    0  501 -0.00000000000E+00 -0.00000000000E+00 -0.28449522707E+02  0.28449522707E+02  0.00000000000E+00 0.  1.
          5    1    1    2  502    0  0.44865707223E+02 -0.39062176215E+02  0.32022654860E+03  0.32573903316E+03  0.47000000000E+01 0. -1.
         -5    1    1    2    0  502 -0.76361150939E+02 -0.35857860775E+02  0.16031657229E+03  0.18121894190E+03  0.47000000000E+01 0.  1.
        -11    1    1    2    0    0  0.46517123884E+02  0.53792099260E+02  0.11044700259E+03  0.13136199275E+03  0.00000000000E+00 0. -1.
         11    1    1    2    0    0 -0.15021680167E+02  0.21127937730E+02  0.30330171388E+02  0.39899372479E+02  0.00000000000E+00 0.  1.
<mgrwt>
<rscale>  0 0.14237379E+03</rscale>
<asrwt>0</asrwt>
<pdfrwt beam="1">  1        2 0.99964576E-01 0.16150758E+03</pdfrwt>
<pdfrwt beam="2">  1       -2 0.43768501E-02 0.16150758E+03</pdfrwt>
<totfact> 0.10635912E+04</totfact>
</mgrwt>
</event>
<event>
 7    1  0.6419647E-006  0.2861973E+03  0.7546771E-02  0.1094546E+00
         -2   -1    0    0    0  501 -0.00000000000E+00  0.00000000000E+00  0.66849956207E+02  0.66849956207E+02  0.00000000000E+00 0.  1.
          2   -1    0    0  501    0  0.00000000000E+00 -0.00000000000E+00 -0.13256346603E+04  0.13256346603E+04  0.00000000000E+00 0. -1.
         23    2    1    2    0    0 -0.21004540967E+03  0.14886507879E+03 -0.89302724305E+03  0.93776678873E+03  0.12501602863E+03 0.  0.
          5    1    3    3  502    0 -0.96941839218E+02  0.12238752656E+02 -0.45041748041E+03  0.46091810978E+03  0.47000000000E+01 0. -1.
         -5    1    3    3    0  502 -0.11310357046E+03  0.13662632613E+03 -0.44260976263E+03  0.47684867895E+03  0.47000000000E+01 0. -1.
        -11    1    1    2    0    0  0.22302301409E+02 -0.56730931963E+02 -0.78068519677E+02  0.99047892729E+02  0.00000000000E+00 0.  1.
         11    1    1    2    0    0  0.18774310826E+03 -0.92134146826E+02 -0.28768894139E+03  0.35566993506E+03  0.00000000000E+00 0. -1.
<mgrwt>
<rscale>  0 0.28210248E+03</rscale>
<asrwt>0</asrwt>
<pdfrwt beam="2">  1        2 0.20394379E+00 0.28619730E+03</pdfrwt>
<pdfrwt beam="1">  1       -2 0.10284609E-01 0.28619730E+03</pdfrwt>
<totfact> 0.10779858E+03</totfact>
</mgrwt>
</event>
<event>
 7    1  0.6419647E-006  0.1311208E+03  0.7546771E-02  0.1239332E+00
          1   -1    0    0  501    0  0.00000000000E+00  0.00000000000E+00  0.21327763286E+03  0.21327763286E+03  0.00000000000E+00 0. -1.
         -1   -1    0    0    0  501 -0.00000000000E+00 -0.00000000000E+00 -0.68475153194E+02  0.68475153194E+02  0.00000000000E+00 0.  1.
         23    2    1    2    0    0 -0.11200945246E+02  0.37974748453E+02  0.12368977891E+03  0.18025489072E+03  0.12500048610E+03 0.  0.
          5    1    3    3  502    0 -0.63915865795E+02  0.98353127653E+00  0.78982979874E+02  0.10171826947E+03  0.47000000000E+01 0.  1.
         -5    1    3    3    0  502  0.52714920550E+02  0.36991217177E+02  0.44706799036E+02  0.78536621246E+02  0.47000000000E+01 0.  1.
        -11    1    1    2    0    0  0.15359456884E+02 -0.65017501829E+02 -0.21389935492E+00  0.66807441298E+02  0.00000000000E+00 0.  1.
         11    1    1    2    0    0 -0.41585116380E+01  0.27042753376E+02  0.21326600112E+02  0.34690454041E+02  0.00000000000E+00 0. -1.
<mgrwt>
<rscale>  0 0.12231133E+03</rscale>
<asrwt>0</asrwt>
<pdfrwt beam="1">  1        1 0.32811943E-01 0.13112080E+03</pdfrwt>
<pdfrwt beam="2">  1       -1 0.10534639E-01 0.13112080E+03</pdfrwt>
<totfact> 0.71924045E+03</totfact>
</mgrwt>
</event>
<event>
 6    1  0.6419647E-006  0.5448642E+03  0.7546771E-02  0.1024776E+00
         -2   -1    0    0    0  501 -0.00000000000E+00  0.00000000000E+00  0.55604002888E+03  0.55604002888E+03  0.00000000000E+00 0.  1.
          2   -1    0    0  501    0  0.00000000000E+00 -0.00000000000E+00 -0.10677499598E+04  0.10677499598E+04  0.00000000000E+00 0. -1.
          5    1    1    2  502    0 -0.16557716354E+03  0.16336598073E+03 -0.99562132682E+03  0.10224422513E+04  0.47000000000E+01 0. -1.
         -5    1    1    2    0  502  0.30096676133E+02  0.59721640258E+02  0.39659663118E+02  0.77893922151E+02  0.47000000000E+01 0.  1.
        -11    1    1    2    0    0  0.12273759152E+03 -0.19195159367E+03  0.30800476109E+03  0.38311468718E+03  0.00000000000E+00 0.  1.
         11    1    1    2    0    0  0.12742895887E+02 -0.31136027323E+02  0.13624697166E+03  0.14033912811E+03  0.00000000000E+00 0. -1.
<mgrwt>
<rscale>  0 0.46001944E+03</rscale>
<asrwt>0</asrwt>
<pdfrwt beam="2">  1        2 0.16426922E+00 0.54486420E+03</pdfrwt>
<pdfrwt beam="1">  1       -2 0.85544620E-01 0.54486420E+03</pdfrwt>
<totfact> 0.28229865E+01</totfact>
</mgrwt>
</event>
<event>
 7    1  0.6419647E-006  0.1378244E+03  0.7546771E-02  0.1228617E+00
         -1   -1    0    0    0  501 -0.00000000000E+00  0.00000000000E+00  0.15913468938E+03  0.15913468938E+03  0.00000000000E+00 0.  1.
          1   -1    0    0  501    0  0.00000000000E+00 -0.00000000000E+00 -0.12517946483E+03  0.12517946483E+03  0.00000000000E+00 0. -1.
         23    2    1    2    0    0  0.57955678179E+02 -0.40311693764E+01 -0.52149221636E+02  0.14736043253E+03  0.12498177787E+03 0.  0.
          5    1    3    3  502    0  0.83173972885E+02  0.35558342594E+02 -0.32017079480E+02  0.96070228853E+02  0.47000000000E+01 0. -1.
         -5    1    3    3    0  502 -0.25218294706E+02 -0.39589511970E+02 -0.20132142156E+02  0.51290203682E+02  0.47000000000E+01 0. -1.
        -11    1    1    2    0    0 -0.18599799019E+02  0.13180369053E+02 -0.15528981536E+02  0.27583036807E+02  0.00000000000E+00 0. -1.
         11    1    1    2    0    0 -0.39355879160E+02 -0.91491996770E+01  0.10163342772E+03  0.10937068488E+03  0.00000000000E+00 0.  1.
<mgrwt>
<rscale>  0 0.12922078E+03</rscale>
<asrwt>0</asrwt>
<pdfrwt beam="2">  1        1 0.19258379E-01 0.13782437E+03</pdfrwt>
<pdfrwt beam="1">  1       -1 0.24482260E-01 0.13782437E+03</pdfrwt>
<totfact> 0.37212220E+03</totfact>
</mgrwt>
</event>
<event>
 7    1  0.6419647E-006  0.1372724E+03  0.7546771E-02  0.1228747E+00
          1   -1    0    0  501    0  0.00000000000E+00  0.00000000000E+00  0.13292890890E+03  0.13292890890E+03  0.00000000000E+00 0. -1.
         -1   -1    0    0    0  501 -0.00000000000E+00 -0.00000000000E+00 -0.15013666160E+03  0.15013666160E+03  0.00000000000E+00 0.  1.
         23    2    1    2    0    0 -0.50793336131E+02 -0.25268559579E+02  0.60910942235E+02  0.15017943584E+03  0.12500102786E+03 0.  0.
          5    1    3    3  502    0  0.27643793094E+02  0.25422759207E+02 -0.12902534598E+01  0.37871502958E+02  0.47000000000E+01 0.  1.
         -5    1    3    3    0  502 -0.78437129224E+02 -0.50691318786E+02  0.62201195695E+02  0.11230793288E+03  0.47000000000E+01 0.  1.
        -11    1    1    2    0    0  0.35416452712E+02 -0.68764316264E+01 -0.88665527103E+02  0.95724532546E+02  0.00000000000E+00 0.  1.
         11    1    1    2    0    0  0.15376883418E+02  0.32144991205E+02  0.10546832174E+02  0.37161602120E+02  0.00000000000E+00 0. -1.
<mgrwt>
<rscale>  0 0.12913363E+03</rscale>
<asrwt>0</asrwt>
<pdfrwt beam="1">  1        1 0.20450601E-01 0.13727243E+03</pdfrwt>
<pdfrwt beam="2">  1       -1 0.23097948E-01 0.13727243E+03</pdfrwt>
<totfact> 0.37906945E+03</totfact>
</mgrwt>
</event>
<event>
 6    1  0.6419647E-006  0.2753832E+03  0.7546771E-02  0.1141005E+00
          1   -1    0    0  501    0  0.00000000000E+00  0.00000000000E+00  0.50983897668E+03  0.50983897668E+03  0.00000000000E+00 0. -1.
         -1   -1    0    0    0  501 -0.00000000000E+00 -0.00000000000E+00 -0.70665580927E+02  0.70665580927E+02  0.00000000000E+00 0.  1.
          5    1    1    2  502    0  0.11642029082E+03  0.19564295797E+02  0.27482992774E+03  0.29914883414E+03  0.47000000000E+01 0. -1.
         -5    1    1    2    0  502 -0.12972356620E+03 -0.31501728769E+02  0.10447187454E+03  0.16957896424E+03  0.47000000000E+01 0.  1.
        -11    1    1    2    0    0  0.38821273651E+02  0.36689272662E+02  0.16940669943E+02  0.56037311806E+02  0.00000000000E+00 0.  1.
         11    1    1    2    0    0 -0.25517998275E+02 -0.24751839690E+02  0.42930923530E+02  0.55739447424E+02  0.00000000000E+00 0. -1.
<mgrwt>
<rscale>  0 0.21070960E+03</rscale>
<asrwt>0</asrwt>
<pdfrwt beam="1">  1        1 0.78436763E-01 0.27538317E+03</pdfrwt>
<pdfrwt beam="2">  1       -1 0.10871628E-01 0.27538317E+03</pdfrwt>
<totfact> 0.23481777E+03</totfact>
</mgrwt>
</event>
<event>
 7    1  0.6419647E-006  0.1340254E+03  0.7546771E-02  0.1233085E+00
          1   -1    0    0  501    0  0.00000000000E+00  0.00000000000E+00  0.75303159671E+03  0.75303159671E+03  0.00000000000E+00 0. -1.
         -1   -1    0    0    0  501 -0.00000000000E+00 -0.00000000000E+00 -0.23987562106E+02  0.23987562106E+02  0.00000000000E+00 0.  1.
         23    2    1    2    0    0  0.48264890124E+02  0.31879359446E+01  0.57385057183E+03  0.58929388625E+03  0.12499257188E+03 0.  0.
          5    1    3    3  502    0 -0.80618064024E+01  0.55129824808E+02  0.20157375741E+03  0.20918498986E+03  0.47000000000E+01 0. -1.
         -5    1    3    3    0  502  0.56326696526E+02 -0.51941888863E+02  0.37227681443E+03  0.38010889640E+03  0.47000000000E+01 0. -1.
        -11    1    1    2    0    0 -0.69353664446E+02 -0.53264848281E+01  0.65438559721E+02  0.95501347169E+02  0.00000000000E+00 0.  1.
         11    1    1    2    0    0  0.21088774322E+02  0.21385488836E+01  0.89754903049E+02  0.92223925394E+02  0.00000000000E+00 0. -1.
<mgrwt>
<rscale>  0 0.12627801E+03</rscale>
<asrwt>0</asrwt>
<pdfrwt beam="1">  1        1 0.11585100E+00 0.13402539E+03</pdfrwt>
<pdfrwt beam="2">  1       -1 0.36903948E-02 0.13402539E+03</pdfrwt>
<totfact> 0.67655467E+03</totfact>
</mgrwt>
</event>
<event>
 7    1  0.6419647E-006  0.1262009E+03  0.7546771E-02  0.1248364E+00
          1   -1    0    0  501    0  0.00000000000E+00  0.00000000000E+00  0.97628904561E+03  0.97628904561E+03  0.00000000000E+00 0. -1.
         -1   -1    0    0    0  501 -0.00000000000E+00 -0.00000000000E+00 -0.21799094884E+02  0.21799094884E+02  0.00000000000E+00 0.  1.
         23    2    1    2    0    0 -0.15178015620E+02  0.84441546949E+01  0.84585053508E+03  0.85521330565E+03  0.12499997822E+03 0.  0.
          5    1    3    3  502    0 -0.10931561677E+02  0.43174233604E+02  0.11354982888E+03  0.12206214453E+03  0.47000000000E+01 0. -1.
         -5    1    3    3    0  502 -0.42464539426E+01 -0.34730078909E+02  0.73230070619E+03  0.73315116112E+03  0.47000000000E+01 0. -1.
        -11    1    1    2    0    0  0.19313650819E+02  0.38169544089E+02  0.70684813523E+02  0.82621268851E+02  0.00000000000E+00 0. -1.
         11    1    1    2    0    0 -0.41356351993E+01 -0.46613698784E+02  0.37954602126E+02  0.60253565997E+02  0.00000000000E+00 0.  1.
<mgrwt>
<rscale>  0 0.11686290E+03</rscale>
<asrwt>0</asrwt>
<pdfrwt beam="1">  1        1 0.15019828E+00 0.12620091E+03</pdfrwt>
<pdfrwt beam="2">  1       -1 0.33537077E-02 0.12620091E+03</pdfrwt>
<totfact> 0.51793675E+03</totfact>
</mgrwt>
</event>
<event>
 7    1  0.6419647E-006  0.1514937E+03  0.7546771E-02  0.1207547E+00
          2   -1    0    0  501    0  0.00000000000E+00  0.00000000000E+00  0.17092638563E+03  0.17092638563E+03  0.00000000000E+00 0.  1.
         -2   -1    0    0    0  501 -0.00000000000E+00 -0.00000000000E+00 -0.11184136171E+03  0.11184136171E+03  0.00000000000E+00 0. -1.
         23    2    1    2    0    0 -0.72088152669E+02 -0.46069102451E+02  0.34524598679E+02  0.15537785234E+03  0.12502505801E+03 0.  0.
          5    1    3    3  502    0 -0.31502043398E+02  0.25919759183E+01  0.73978864682E+02  0.80585727626E+02  0.47000000000E+01 0.  1.
         -5    1    3    3    0  502 -0.40586109271E+02 -0.48661078369E+02 -0.39454266004E+02  0.74792124717E+02  0.47000000000E+01 0.  1.
        -11    1    1    2    0    0  0.39717571197E+02  0.63643089568E+02 -0.11438191002E+02  0.75886497646E+02  0.00000000000E+00 0. -1.
         11    1    1    2    0    0  0.32370581472E+02 -0.17573987117E+02  0.35998616242E+02  0.51503397357E+02  0.00000000000E+00 0.  1.
<mgrwt>
<rscale>  0 0.14438539E+03</rscale>
<asrwt>0</asrwt>
<pdfrwt beam="1">  1        2 0.26296367E-01 0.15149366E+03</pdfrwt>
<pdfrwt beam="2">  1       -2 0.17206363E-01 0.15149366E+03</pdfrwt>
<totfact> 0.53069224E+03</totfact>
</mgrwt>
</event>
<event>
 6    1  0.6419647E-006  0.1310218E+03  0.7546771E-02  0.1245184E+00
         -2   -1    0    0    0  501 -0.00000000000E+00  0.00000000000E+00  0.18381453761E+02  0.18381453761E+02  0.00000000000E+00 0.  1.
          2   -1    0    0  501    0  0.00000000000E+00 -0.00000000000E+00 -0.83494177951E+03  0.83494177951E+03  0.00000000000E+00 0. -1.
          5    1    1    2  502    0 -0.22507730650E+02  0.18771730886E+02 -0.65164745800E+03  0.65232313721E+03  0.47000000000E+01 0. -1.
         -5    1    1    2    0  502 -0.48595820908E+01 -0.21007622547E+02 -0.14086049060E+02  0.26180957226E+02  0.47000000000E+01 0.  1.
        -11    1    1    2    0    0  0.55389597622E+02 -0.74138055801E+01 -0.11817711971E+03  0.13072415103E+03  0.00000000000E+00 0. -1.
         11    1    1    2    0    0 -0.28022284881E+02  0.96496972407E+01 -0.32649698973E+02  0.44094987808E+02  0.00000000000E+00 0.  1.
<mgrwt>
<rscale>  0 0.11874350E+03</rscale>
<asrwt>0</asrwt>
<pdfrwt beam="2">  1        2 0.12845256E+00 0.13102177E+03</pdfrwt>
<pdfrwt beam="1">  1       -2 0.28279164E-02 0.13102177E+03</pdfrwt>
<totfact> 0.14780905E+04</totfact>
</mgrwt>
</event>
<event>
 7    1  0.8294327E-006  0.1462397E+03  0.7546771E-02  0.1215524E+00
          1   -1    0    0  501    0  0.00000000000E+00  0.00000000000E+00  0.27336230077E+03  0.27336230077E+03  0.00000000000E+00 0. -1.
         -1   -1    0    0    0  501 -0.00000000000E+00 -0.00000000000E+00 -0.65867300556E+02  0.65867300556E+02  0.00000000000E+00 0.  1.
         23    2    1    2    0    0  0.70109270476E+02 -0.29077448653E+02  0.14676689134E+03  0.20718728740E+03  0.12500097536E+03 0.  0.
          5    1    3    3  502    0  0.65408696988E+02  0.22340809008E+02  0.22994586350E+02  0.72994865506E+02  0.47000000000E+01 0.  1.
         -5    1    3    3    0  502  0.47005734883E+01 -0.51418257662E+02  0.12377230499E+03  0.13419242190E+03  0.47000000000E+01 0.  1.
        -11    1    1    2    0    0 -0.79885330148E+02  0.83965848208E+01  0.16143061754E+02  0.81931477786E+02  0.00000000000E+00 0.  1.
         11    1    1    2    0    0  0.97760596717E+01  0.20680863833E+02  0.44585047116E+02  0.50110836133E+02  0.00000000000E+00 0. -1.
<mgrwt>
<rscale>  0 0.13838086E+03</rscale>
<asrwt>0</asrwt>
<pdfrwt beam="1">  1        1 0.42055738E-01 0.14623971E+03</pdfrwt>
<pdfrwt beam="2">  1       -1 0.10133431E-01 0.14623971E+03</pdfrwt>
<totfact> 0.56527527E+03</totfact>
</mgrwt>
</event>
<event>
 7    1  0.6782848E-006  0.3164443E+03  0.7546771E-02  0.1078694E+00
         -1   -1    0    0    0  501 -0.00000000000E+00  0.00000000000E+00  0.27678435752E+03  0.27678435752E+03  0.00000000000E+00 0.  1.
          1   -1    0    0  501    0  0.00000000000E+00 -0.00000000000E+00 -0.44160467240E+03  0.44160467240E+03  0.00000000000E+00 0. -1.
         23    2    1    2    0    0  0.14308759735E+03  0.25305754647E+03 -0.24854505960E+03  0.40238247583E+03  0.12499931145E+03 0.  0.
          5    1    3    3  502    0  0.81374126400E+02  0.51874886103E+02 -0.35604908538E+02  0.10296869314E+03  0.47000000000E+01 0.  1.
         -5    1    3    3    0  502  0.61713470955E+02  0.20118266037E+03 -0.21294015106E+03  0.29941378269E+03  0.47000000000E+01 0.  1.
        -11    1    1    2    0    0 -0.48456103660E+02 -0.15381355854E+03  0.77018186269E+02  0.17871319422E+03  0.00000000000E+00 0.  1.
         11    1    1    2    0    0 -0.94631493695E+02 -0.99243987934E+02  0.67065584517E+01  0.13729335988E+03  0.00000000000E+00 0. -1.
<mgrwt>
<rscale>  0 0.31346994E+03</rscale>
<asrwt>0</asrwt>
<pdfrwt beam="2">  1        1 0.67939180E-01 0.31644432E+03</pdfrwt>
<pdfrwt beam="1">  1       -1 0.42582209E-01 0.31644432E+03</pdfrwt>
<totfact> 0.29497046E+02</totfact>
</mgrwt>
</event>
<event>
 7    1  0.6419647E-006  0.1499633E+03  0.7546771E-02  0.1208534E+00
         -1   -1    0    0    0  501 -0.00000000000E+00  0.00000000000E+00  0.42207961348E+02  0.42207961348E+02  0.00000000000E+00 0.  1.
          1   -1    0    0  501    0  0.00000000000E+00 -0.00000000000E+00 -0.52445179464E+03  0.52445179464E+03  0.00000000000E+00 0. -1.
         23    2    1    2    0    0  0.17050648168E+02 -0.81080470792E+02 -0.36425092258E+03  0.39391335724E+03  0.12499692422E+03 0.  0.
          5    1    3    3  502    0 -0.11273852027E+02 -0.10913534094E+03 -0.26549537385E+03  0.28731081761E+03  0.47000000000E+01 0.  1.
         -5    1    3    3    0  502  0.28324500195E+02  0.28054870143E+02 -0.98755548724E+02  0.10660253962E+03  0.47000000000E+01 0.  1.
        -11    1    1    2    0    0 -0.47467459225E+02  0.70205680281E+02 -0.11107295590E+03  0.13971112612E+03  0.00000000000E+00 0.  1.
         11    1    1    2    0    0  0.30416811057E+02  0.10874790511E+02 -0.69199548192E+01  0.33035272637E+02  0.00000000000E+00 0. -1.
<mgrwt>
<rscale>  0 0.14362440E+03</rscale>
<asrwt>0</asrwt>
<pdfrwt beam="2">  1        1 0.80684889E-01 0.14996332E+03</pdfrwt>
<pdfrwt beam="1">  1       -1 0.64935327E-02 0.14996332E+03</pdfrwt>
<totfact> 0.48674253E+03</totfact>
</mgrwt>
</event>
<event>
 7    1  0.6419647E-006  0.1406749E+03  0.7546771E-02  0.1223603E+00
          1   -1    0    0  501    0  0.00000000000E+00  0.00000000000E+00  0.64332753707E+02  0.64332753707E+02  0.00000000000E+00 0. -1.
         -1   -1    0    0    0  501 -0.00000000000E+00 -0.00000000000E+00 -0.29343286810E+03  0.29343286810E+03  0.00000000000E+00 0.  1.
         23    2    1    2    0    0  0.64349312301E+02 -0.49745531091E+01 -0.54661566139E+02  0.15092153807E+03  0.12499537459E+03 0.  0.
          5    1    3    3  502    0  0.77698506387E+02  0.24693196362E+01 -0.85826226594E+02  0.11589385922E+03  0.47000000000E+01 0.  1.
         -5    1    3    3    0  502 -0.13349194086E+02 -0.74438727453E+01  0.31164660454E+02  0.35027678847E+02  0.47000000000E+01 0.  1.
        -11    1    1    2    0    0  0.11764352276E+02  0.24235312417E+02 -0.77798444626E+02  0.82330725362E+02  0.00000000000E+00 0.  1.
         11    1    1    2    0    0 -0.76113664577E+02 -0.19260759308E+02 -0.96640103628E+02  0.12451335837E+03  0.00000000000E+00 0. -1.
<mgrwt>
<rscale>  0 0.13263120E+03</rscale>
<asrwt>0</asrwt>
<pdfrwt beam="1">  1        1 0.98973467E-02 0.14067489E+03</pdfrwt>
<pdfrwt beam="2">  1       -1 0.45143518E-01 0.14067489E+03</pdfrwt>
<totfact> 0.31157410E+03</totfact>
</mgrwt>
</event>
<event>
 7    1  0.6419647E-006  0.1515444E+03  0.7546771E-02  0.1207851E+00
         -2   -1    0    0    0  501 -0.00000000000E+00  0.00000000000E+00  0.81842503798E+02  0.81842503798E+02  0.00000000000E+00 0.  1.
          2   -1    0    0  501    0  0.00000000000E+00 -0.00000000000E+00 -0.27401717379E+03  0.27401717379E+03  0.00000000000E+00 0. -1.
         23    2    1    2    0    0 -0.84245628837E+02 -0.15550846062E+02 -0.17355725034E+03  0.23040792328E+03  0.12500614854E+03 0.  0.
          5    1    3    3  502    0  0.32997682875E+02 -0.53892136139E+01 -0.37967152621E+02  0.50808319955E+02  0.47000000000E+01 0. -1.
         -5    1    3    3    0  502 -0.11724331171E+03 -0.10161632448E+02 -0.13559009772E+03  0.17959960333E+03  0.47000000000E+01 0. -1.
        -11    1    1    2    0    0  0.14617094895E+02  0.16525349003E+02  0.32350113377E+02  0.39157074180E+02  0.00000000000E+00 0.  1.
         11    1    1    2    0    0  0.69628533942E+02 -0.97450294092E+00 -0.50967533025E+02  0.86294680123E+02  0.00000000000E+00 0. -1.
<mgrwt>
<rscale>  0 0.14415014E+03</rscale>
<asrwt>0</asrwt>
<pdfrwt beam="2">  1        2 0.42156488E-01 0.15154436E+03</pdfrwt>
<pdfrwt beam="1">  1       -2 0.12591155E-01 0.15154436E+03</pdfrwt>
<totfact> 0.53130451E+03</totfact>
</mgrwt>
</event>
<event>
 7    1  0.6419647E-006  0.1290895E+03  0.7546771E-02  0.1243430E+00
         -1   -1    0    0    0  501 -0.00000000000E+00  0.00000000000E+00  0.25128176906E+02  0.25128176906E+02  0.00000000000E+00 0.  1.
          1   -1    0    0  501    0  0.00000000000E+00 -0.00000000000E+00 -0.51997664160E+03  0.51997664160E+03  0.00000000000E+00 0. -1.
         23    2    1    2    0    0 -0.20312386241E+02  0.25077070399E+02 -0.33171887141E+03  0.35595156036E+03  0.12499060435E+03 0.  0.
          5    1    3    3  502    0  0.14625547643E+02  0.62175418255E+02 -0.26046780714E+03  0.26822613190E+03  0.47000000000E+01 0. -1.
         -5    1    3    3    0  502 -0.34937933884E+02 -0.37098347856E+02 -0.71251064276E+02  0.87725428458E+02  0.47000000000E+01 0. -1.
        -11    1    1    2    0    0  0.23131652135E+01  0.11260648072E+02  0.75297510665E+01  0.13742273445E+02  0.00000000000E+00 0.  1.
         11    1    1    2    0    0  0.17999221028E+02 -0.36337718471E+02 -0.17065934434E+03  0.17541098470E+03  0.00000000000E+00 0. -1.
<mgrwt>
<rscale>  0 0.11979832E+03</rscale>
<asrwt>0</asrwt>
<pdfrwt beam="2">  1        1 0.79996397E-01 0.12908952E+03</pdfrwt>
<pdfrwt beam="1">  1       -1 0.38658738E-02 0.12908952E+03</pdfrwt>
<totfact> 0.10514787E+04</totfact>
</mgrwt>
</event>
<event>
 6    1  0.6419647E-006  0.9942293E+03  0.7546771E-02  0.9820495E-01
         -2   -1    0    0    0  501 -0.00000000000E+00  0.00000000000E+00  0.10067338042E+04  0.10067338042E+04  0.00000000000E+00 0.  1.
          2   -1    0    0  501    0  0.00000000000E+00 -0.00000000000E+00 -0.35646754149E+03  0.35646754149E+03  0.00000000000E+00 0. -1.
          5    1    1    2  502    0  0.81933865979E+02 -0.39500619571E+03  0.16128032756E+02  0.40376386229E+03  0.47000000000E+01 0. -1.
         -5    1    1    2    0  502 -0.18409401597E+03  0.50605110288E+03  0.41521133509E+03  0.68000063840E+03  0.47000000000E+01 0.  1.
        -11    1    1    2    0    0  0.95936415772E+02 -0.66667051946E+02  0.19818845868E+03  0.23005859436E+03  0.00000000000E+00 0. -1.
         11    1    1    2    0    0  0.62237342172E+01 -0.44377855223E+02  0.20738436200E+02  0.49378250656E+02  0.00000000000E+00 0.  1.
<mgrwt>
<rscale>  0 0.64274183E+03</rscale>
<asrwt>0</asrwt>
<pdfrwt beam="2">  1        2 0.54841161E-01 0.99422927E+03</pdfrwt>
<pdfrwt beam="1">  1       -2 0.15488212E+00 0.99422927E+03</pdfrwt>
<totfact> 0.24815482E+01</totfact>
</mgrwt>
</event>
<event>
 7    1  0.6419647E-006  0.1415982E+03  0.7546771E-02  0.1221288E+00
         -2   -1    0    0    0  501 -0.00000000000E+00  0.00000000000E+00  0.34855731282E+02  0.34855731282E+02  0.00000000000E+00 0.  1.
          2   -1    0    0  501    0  0.00000000000E+00 -0.00000000000E+00 -0.47008875801E+03  0.47008875801E+03  0.00000000000E+00 0. -1.
         23    2    1    2    0    0 -0.63765794548E+02  0.18951873938E+02 -0.24295192075E+03  0.28120398323E+03  0.12499917724E+03 0.  0.
          5    1    3    3  502    0 -0.34834538506E+02  0.14843822631E+02 -0.24822538737E+03  0.25114083117E+03  0.47000000000E+01 0.  1.
         -5    1    3    3    0  502 -0.28931256041E+02  0.41080513071E+01  0.52734666283E+01  0.30063152063E+02  0.47000000000E+01 0.  1.
        -11    1    1    2    0    0  0.53342261995E+02 -0.53834886568E+02 -0.10805750762E+03  0.13198491156E+03  0.00000000000E+00 0. -1.
         11    1    1    2    0    0  0.10423532553E+02  0.34883012630E+02 -0.84223598371E+02  0.91755594509E+02  0.00000000000E+00 0.  1.
<mgrwt>
<rscale>  0 0.13424606E+03</rscale>
<asrwt>0</asrwt>
<pdfrwt beam="2">  1        2 0.72321346E-01 0.14159818E+03</pdfrwt>
<pdfrwt beam="1">  1       -2 0.53624203E-02 0.14159818E+03</pdfrwt>
<totfact> 0.11180817E+04</totfact>
</mgrwt>
</event>
<event>
 7    1  0.6419647E-006  0.1415192E+03  0.7546771E-02  0.1221479E+00
         -1   -1    0    0    0  501 -0.00000000000E+00  0.00000000000E+00  0.17543562054E+02  0.17543562054E+02  0.00000000000E+00 0.  1.
          1   -1    0    0  501    0  0.00000000000E+00 -0.00000000000E+00 -0.13056446276E+04  0.13056446276E+04  0.00000000000E+00 0. -1.
         23    2    1    2    0    0  0.36969095796E+02  0.55126623985E+02 -0.10460236208E+04  0.10555534504E+04  0.12498805052E+03 0.  0.
          5    1    3    3  502    0 -0.17055186389E+01 -0.33050269086E+02 -0.49763038287E+03  0.49875175893E+03  0.47000000000E+01 0.  1.
         -5    1    3    3    0  502  0.38674614435E+02  0.88176893071E+02 -0.54839323789E+03  0.55680169148E+03  0.47000000000E+01 0.  1.
        -11    1    1    2    0    0  0.27596022828E+02 -0.34920557212E+00 -0.82371343526E+02  0.86871748311E+02  0.00000000000E+00 0. -1.
         11    1    1    2    0    0 -0.64565118623E+02 -0.54777418413E+02 -0.15970610128E+03  0.18076299095E+03  0.00000000000E+00 0.  1.
<mgrwt>
<rscale>  0 0.13411162E+03</rscale>
<asrwt>0</asrwt>
<pdfrwt beam="2">  1        1 0.20086834E+00 0.14151916E+03</pdfrwt>
<pdfrwt beam="1">  1       -1 0.26990104E-02 0.14151916E+03</pdfrwt>
<totfact> 0.42029596E+03</totfact>
</mgrwt>
</event>
<event>
 7    1  0.6419647E-006  0.1294328E+03  0.7546771E-02  0.1241900E+00
         -2   -1    0    0    0  501 -0.00000000000E+00  0.00000000000E+00  0.37323350680E+02  0.37323350680E+02  0.00000000000E+00 0. -1.
          2   -1    0    0  501    0  0.00000000000E+00 -0.00000000000E+00 -0.34774876901E+03  0.34774876901E+03  0.00000000000E+00 0.  1.
         23    2    1    2    0    0 -0.13051154281E+02  0.30943251983E+02 -0.18852127479E+03  0.22867691030E+03  0.12500016314E+03 0.  0.
          5    1    3    3  502    0 -0.66595883619E+02 -0.63439280857E+00 -0.10560830252E+03  0.12494245767E+03  0.47000000000E+01 0.  1.
         -5    1    3    3    0  502  0.53544729339E+02  0.31577644791E+02 -0.82912972273E+02  0.10373445263E+03  0.47000000000E+01 0.  1.
        -11    1    1    2    0    0  0.17066843942E+02 -0.50422581163E+02 -0.27495349416E+02  0.59914172721E+02  0.00000000000E+00 0. -1.
         11    1    1    2    0    0 -0.40156896616E+01  0.19479329180E+02 -0.94408794129E+02  0.96481036674E+02  0.00000000000E+00 0.  1.
<mgrwt>
<rscale>  0 0.12072875E+03</rscale>
<asrwt>0</asrwt>
<pdfrwt beam="2">  1        2 0.53499810E-01 0.12943283E+03</pdfrwt>
<pdfrwt beam="1">  1       -2 0.57420540E-02 0.12943283E+03</pdfrwt>
<totfact> 0.13833264E+04</totfact>
</mgrwt>
</event>
<event>
 7    1  0.6419647E-006  0.2588320E+03  0.7546771E-02  0.1110070E+00
          2   -1    0    0  501    0  0.00000000000E+00  0.00000000000E+00  0.14543557225E+04  0.14543557225E+04  0.00000000000E+00 0. -1.
         -2   -1    0    0    0  501 -0.00000000000E+00 -0.00000000000E+00 -0.54488252933E+02  0.54488252933E+02  0.00000000000E+00 0.  1.
         23    2    1    2    0    0  0.20689422040E+03  0.92541424361E+02  0.10535610175E+04  0.10848893223E+04  0.12499956221E+03 0.  0.
          5    1    3    3  502    0  0.15917911521E+03  0.11215713214E+02  0.55665847199E+03  0.57909802916E+03  0.47000000000E+01 0.  1.
         -5    1    3    3    0  502  0.47715105188E+02  0.81325711147E+02  0.49690254546E+03  0.50579129317E+03  0.47000000000E+01 0.  1.
        -11    1    1    2    0    0 -0.19783187034E+03 -0.78257549710E+02  0.25972501249E+03  0.33573616892E+03  0.00000000000E+00 0.  1.
         11    1    1    2    0    0 -0.90623500550E+01 -0.14283874652E+02  0.86581439668E+02  0.88218484222E+02  0.00000000000E+00 0. -1.
<mgrwt>
<rscale>  0 0.25518768E+03</rscale>
<asrwt>0</asrwt>
<pdfrwt beam="1">  1        2 0.22374701E+00 0.25883204E+03</pdfrwt>
<pdfrwt beam="2">  1       -2 0.83828092E-02 0.25883204E+03</pdfrwt>
<totfact> 0.12706130E+03</totfact>
</mgrwt>
</event>
<event>
 7    1  0.6419647E-006  0.1303046E+03  0.7546771E-02  0.1242070E+00
          1   -1    0    0  501    0  0.00000000000E+00  0.00000000000E+00  0.22920020585E+03  0.22920020585E+03  0.00000000000E+00 0. -1.
         -1   -1    0    0    0  501 -0.00000000000E+00 -0.00000000000E+00 -0.57339418572E+02  0.57339418572E+02  0.00000000000E+00 0.  1.
         23    2    1    2    0    0  0.18864439567E+02  0.31609692284E+02  0.12260290594E+03  0.17891548985E+03  0.12499696090E+03 0.  0.
          5    1    3    3  502    0 -0.20793379018E+02  0.46811235705E+02  0.12595546796E+03  0.13605339506E+03  0.47000000000E+01 0.  1.
         -5    1    3    3    0  502  0.39657818586E+02 -0.15201543421E+02 -0.33525620120E+01  0.42862094785E+02  0.47000000000E+01 0.  1.
        -11    1    1    2    0    0  0.22801676389E+02  0.15873715907E+02  0.31503570381E+02  0.42004359888E+02  0.00000000000E+00 0. -1.
         11    1    1    2    0    0 -0.41666115956E+02 -0.47483408191E+02  0.17754310948E+02  0.65619774684E+02  0.00000000000E+00 0.  1.
<mgrwt>
<rscale>  0 0.12062480E+03</rscale>
<asrwt>0</asrwt>
<pdfrwt beam="1">  1        1 0.35261570E-01 0.13030457E+03</pdfrwt>
<pdfrwt beam="2">  1       -1 0.88214491E-02 0.13030457E+03</pdfrwt>
<totfact> 0.86152072E+03</totfact>
</mgrwt>
</event>
<event>
 7    1  0.6419647E-006  0.1312589E+03  0.7546771E-02  0.1239413E+00
          2   -1    0    0  501    0  0.00000000000E+00  0.00000000000E+00  0.10682045432E+03  0.10682045432E+03  0.00000000000E+00 0. -1.
         -2   -1    0    0    0  501 -0.00000000000E+00 -0.00000000000E+00 -0.17516667512E+03  0.17516667512E+03  0.00000000000E+00 0.  1.
         23    2    1    2    0    0  0.11143510742E+01  0.40023606224E+02  0.38176220701E+02  0.13669788931E+03  0.12500303309E+03 0.  0.
          5    1    3    3  502    0 -0.49396670344E+02 -0.51027105828E+00  0.50282315496E+02  0.70644834697E+02  0.47000000000E+01 0. -1.
         -5    1    3    3    0  502  0.50511021419E+02  0.40533877282E+02 -0.12106094795E+02  0.66053054611E+02  0.47000000000E+01 0. -1.
        -11    1    1    2    0    0 -0.31769646614E+02 -0.16288157980E+02 -0.99731177671E+02  0.10592885507E+03  0.00000000000E+00 0.  1.
         11    1    1    2    0    0  0.30655295540E+02 -0.23735448244E+02 -0.67912638236E+01  0.39360385063E+02  0.00000000000E+00 0. -1.
<mgrwt>
<rscale>  0 0.12226114E+03</rscale>
<asrwt>0</asrwt>
<pdfrwt beam="1">  1        2 0.16433916E-01 0.13125886E+03</pdfrwt>
<pdfrwt beam="2">  1       -2 0.26948719E-01 0.13125886E+03</pdfrwt>
<totfact> 0.41463577E+03</totfact>
</mgrwt>
</event>
<event>
 7    1  0.6419647E-006  0.1293916E+03  0.7546771E-02  0.1242444E+00
         -2   -1    0    0    0  501 -0.00000000000E+00  0.00000000000E+00  0.16290274657E+03  0.16290274657E+03  0.00000000000E+00 0.  1.
          2   -1    0    0  501    0  0.00000000000E+00 -0.00000000000E+00 -0.85819228372E+02  0.85819228372E+02  0.00000000000E+00 0. -1.
         23    2    1    2    0    0  0.33124032246E+02  0.33790556317E+01  0.79934130907E+01  0.12963827189E+03  0.12503426473E+03 0.  0.
          5    1    3    3  502    0 -0.10180870187E+02  0.51282434130E+02  0.30954164437E+02  0.60940860381E+02  0.47000000000E+01 0. -1.
         -5    1    3    3    0  502  0.43304902432E+02 -0.47903378498E+02 -0.22960751346E+02  0.68697411513E+02  0.47000000000E+01 0. -1.
        -11    1    1    2    0    0 -0.59592041572E+02 -0.50811418317E+01  0.19605952867E+02  0.62939834833E+02  0.00000000000E+00 0. -1.
         11    1    1    2    0    0  0.26468009326E+02  0.17020862000E+01  0.49484152243E+02  0.56143868217E+02  0.00000000000E+00 0.  1.
<mgrwt>
<rscale>  0 0.12039647E+03</rscale>
<asrwt>0</asrwt>
<pdfrwt beam="2">  1        2 0.13202958E-01 0.12939160E+03</pdfrwt>
<pdfrwt beam="1">  1       -2 0.25061961E-01 0.12939160E+03</pdfrwt>
<totfact> 0.60807379E+03</totfact>
</mgrwt>
</event>
<event>
 7    1  0.6419647E-006  0.1462208E+03  0.7546771E-02  0.1214873E+00
          1   -1    0    0  501    0  0.00000000000E+00  0.00000000000E+00  0.22423666425E+03  0.22423666425E+03  0.00000000000E+00 0. -1.
         -1   -1    0    0    0  501 -0.00000000000E+00 -0.00000000000E+00 -0.83747144518E+02  0.83747144518E+02  0.00000000000E+00 0.  1.
         23    2    1    2    0    0  0.74245293069E+02  0.15724989363E+02  0.11581086396E+03  0.18652796815E+03  0.12498355034E+03 0.  0.
          5    1    3    3  502    0 -0.11031082024E+02 -0.37080721047E+02  0.91346840504E+01  0.40027454287E+02  0.47000000000E+01 0.  1.
         -5    1    3    3    0  502  0.85276375093E+02  0.52805710411E+02  0.10667617991E+03  0.14650051386E+03  0.47000000000E+01 0.  1.
        -11    1    1    2    0    0 -0.53736947575E+02  0.13594672980E+02 -0.24529077887E+02  0.60614769900E+02  0.00000000000E+00 0.  1.
         11    1    1    2    0    0 -0.20508345494E+02 -0.29319662343E+02  0.49207733659E+02  0.60841070723E+02  0.00000000000E+00 0. -1.
<mgrwt>
<rscale>  0 0.13885855E+03</rscale>
<asrwt>0</asrwt>
<pdfrwt beam="1">  1        1 0.34497948E-01 0.14622081E+03</pdfrwt>
<pdfrwt beam="2">  1       -1 0.12884176E-01 0.14622081E+03</pdfrwt>
<totfact> 0.49905848E+03</totfact>
</mgrwt>
</event>
<event>
 7    1  0.6419647E-006  0.1419409E+03  0.7546771E-02  0.1221728E+00
          2   -1    0    0  501    0  0.00000000000E+00  0.00000000000E+00  0.66770073281E+03  0.66770073281E+03  0.00000000000E+00 0. -1.
         -2   -1    0    0    0  501 -0.00000000000E+00 -0.00000000000E+00 -0.38466677543E+02  0.38466677543E+02  0.00000000000E+00 0.  1.
         23    2    1    2    0    0  0.65672786592E+02  0.14448410104E+02  0.55130762883E+03  0.56928668316E+03  0.12500221826E+03 0.  0.
          5    1    3    3  502    0  0.57191877979E+02 -0.49482755782E+02  0.33822512472E+03  0.34660897135E+03  0.47000000000E+01 0. -1.
         -5    1    3    3    0  502  0.84809086134E+01  0.63931165886E+02  0.21308250411E+03  0.22267771182E+03  0.47000000000E+01 0. -1.
        -11    1    1    2    0    0 -0.38617022512E+02 -0.98976139510E+01 -0.12979420402E+02  0.41924963251E+02  0.00000000000E+00 0.  1.
         11    1    1    2    0    0 -0.27055764080E+02 -0.45507961528E+01  0.90905846835E+02  0.94955763935E+02  0.00000000000E+00 0. -1.
<mgrwt>
<rscale>  0 0.13393721E+03</rscale>
<asrwt>0</asrwt>
<pdfrwt beam="1">  1        2 0.10272318E+00 0.14194092E+03</pdfrwt>
<pdfrwt beam="2">  1       -2 0.59179509E-02 0.14194092E+03</pdfrwt>
<totfact> 0.64901907E+03</totfact>
</mgrwt>
</event>
<event>
 7    1  0.6419647E-006  0.1692529E+03  0.7546771E-02  0.1185216E+00
         -2   -1    0    0    0  501 -0.00000000000E+00  0.00000000000E+00  0.72443667360E+03  0.72443667360E+03  0.00000000000E+00 0.  1.
          2   -1    0    0  501    0  0.00000000000E+00 -0.00000000000E+00 -0.34929496584E+02  0.34929496584E+02  0.00000000000E+00 0. -1.
         23    2    1    2    0    0  0.65811751933E+02 -0.93226749013E+02  0.42036329410E+03  0.45315761821E+03  0.12499645789E+03 0.  0.
          5    1    3    3  502    0 -0.32050547664E+02 -0.17158311216E+02  0.16807684742E+03  0.17202779394E+03  0.47000000000E+01 0. -1.
         -5    1    3    3    0  502  0.97862299597E+02 -0.76068437797E+02  0.25228644669E+03  0.28112982427E+03  0.47000000000E+01 0. -1.
        -11    1    1    2    0    0  0.19087925418E+01  0.66891686352E+02  0.17448547784E+03  0.18687782953E+03  0.00000000000E+00 0.  1.
         11    1    1    2    0    0 -0.67720544475E+02  0.26335062661E+02  0.94658405065E+02  0.11933072244E+03  0.00000000000E+00 0. -1.
<mgrwt>
<rscale>  0 0.16312246E+03</rscale>
<asrwt>0</asrwt>
<pdfrwt beam="2">  1        2 0.53737692E-02 0.16925285E+03</pdfrwt>
<pdfrwt beam="1">  1       -2 0.11145178E+00 0.16925285E+03</pdfrwt>
<totfact> 0.93057567E+02</totfact>
</mgrwt>
</event>
<event>
 7    1  0.6419647E-006  0.1495658E+03  0.7546771E-02  0.1216992E+00
         -1   -1    0    0    0  501 -0.00000000000E+00  0.00000000000E+00  0.56013470648E+02  0.56013470648E+02  0.00000000000E+00 0.  1.
          1   -1    0    0  501    0  0.00000000000E+00 -0.00000000000E+00 -0.35214230965E+03  0.35214230965E+03  0.00000000000E+00 0. -1.
         23    2    1    2    0    0  0.68542448862E+02  0.37069283861E+02 -0.25212643037E+03  0.29315125505E+03  0.12766253305E+03 0.  0.
          5    1    3    3  502    0  0.72950761360E+01  0.69646966484E+02 -0.74269153057E+02  0.10218568966E+03  0.47000000000E+01 0. -1.
         -5    1    3    3    0  502  0.61247372726E+02 -0.32577682623E+02 -0.17785727732E+03  0.19096556539E+03  0.47000000000E+01 0.  1.
        -11    1    1    2    0    0 -0.17374666224E+02 -0.39201182995E+02 -0.47105001145E+02  0.63698452944E+02  0.00000000000E+00 0. -1.
         11    1    1    2    0    0 -0.51167782638E+02  0.21318991341E+01  0.31025925207E+01  0.51306072295E+02  0.00000000000E+00 0.  1.
<mgrwt>
<rscale>  0 0.13731251E+03</rscale>
<asrwt>0</asrwt>
<pdfrwt beam="2">  1        1 0.54175740E-01 0.14956578E+03</pdfrwt>
<pdfrwt beam="1">  1       -1 0.86174570E-02 0.14956578E+03</pdfrwt>
<totfact> 0.52882492E+03</totfact>
</mgrwt>
</event>
<event>
 7    1  0.6419647E-006  0.1735835E+03  0.7546771E-02  0.1180374E+00
          1   -1    0    0  501    0  0.00000000000E+00  0.00000000000E+00  0.10689610104E+03  0.10689610104E+03  0.00000000000E+00 0.  1.
         -1   -1    0    0    0  501 -0.00000000000E+00 -0.00000000000E+00 -0.27065046618E+03  0.27065046618E+03  0.00000000000E+00 0. -1.
         23    2    1    2    0    0  0.34143860401E+02 -0.11549808770E+03 -0.30460764711E+02  0.17623589975E+03  0.12500249081E+03 0.  0.
          5    1    3    3  502    0  0.38455475713E+02 -0.84029214099E+02  0.38458431672E+02  0.10020415860E+03  0.47000000000E+01 0. -1.
         -5    1    3    3    0  502 -0.43116153120E+01 -0.31468873606E+02 -0.68919196383E+02  0.76031741152E+02  0.47000000000E+01 0. -1.
        -11    1    1    2    0    0 -0.15529812565E+01  0.91357898566E+02 -0.13224419179E+03  0.16073955220E+03  0.00000000000E+00 0. -1.
         11    1    1    2    0    0 -0.32590879144E+02  0.24140189139E+02 -0.10494086440E+01  0.40571115262E+02  0.00000000000E+00 0.  1.
<mgrwt>
<rscale>  0 0.16760039E+03</rscale>
<asrwt>0</asrwt>
<pdfrwt beam="1">  1        1 0.16445554E-01 0.17358351E+03</pdfrwt>
<pdfrwt beam="2">  1       -1 0.41638533E-01 0.17358351E+03</pdfrwt>
<totfact> 0.18651107E+03</totfact>
</mgrwt>
</event>
<event>
 7    1  0.6462418E-006  0.1470092E+03  0.7546771E-02  0.1213664E+00
          4   -1    0    0  501    0  0.00000000000E+00  0.00000000000E+00  0.16473831799E+03  0.16473831799E+03  0.00000000000E+00 0. -1.
         -4   -1    0    0    0  501 -0.00000000000E+00 -0.00000000000E+00 -0.11814282251E+03  0.11814282251E+03  0.00000000000E+00 0.  1.
         23    2    1    2    0    0 -0.33497691476E+02  0.69746744496E+02  0.66209656530E+02  0.16123099842E+03  0.12500005013E+03 0.  0.
          5    1    3    3  502    0 -0.69211308738E+02  0.19128131141E+01  0.23019931033E+02  0.73115465778E+02  0.47000000000E+01 0.  1.
         -5    1    3    3    0  502  0.35713617262E+02  0.67833931382E+02  0.43189725497E+02  0.88115532644E+02  0.47000000000E+01 0.  1.
        -11    1    1    2    0    0  0.17513152938E+02 -0.41257454870E+02 -0.56669199921E+02  0.72251548965E+02  0.00000000000E+00 0.  1.
         11    1    1    2    0    0  0.15984538537E+02 -0.28489289626E+02  0.37055038877E+02  0.49398593116E+02  0.00000000000E+00 0. -1.
<mgrwt>
<rscale>  0 0.13975157E+03</rscale>
<asrwt>0</asrwt>
<pdfrwt beam="1">  1        4 0.25344357E-01 0.14700924E+03</pdfrwt>
<pdfrwt beam="2">  1       -4 0.18175819E-01 0.14700924E+03</pdfrwt>
<totfact> 0.65843794E+02</totfact>
</mgrwt>
</event>
<event>
 7    1  0.6419647E-006  0.2008633E+03  0.7546771E-02  0.1152389E+00
          1   -1    0    0  501    0  0.00000000000E+00  0.00000000000E+00  0.48457688021E+03  0.48457688021E+03  0.00000000000E+00 0. -1.
         -1   -1    0    0    0  501 -0.00000000000E+00 -0.00000000000E+00 -0.94891465525E+02  0.94891465525E+02  0.00000000000E+00 0.  1.
         23    2    1    2    0    0 -0.15722797166E+03  0.80945652794E+00  0.32692055803E+03  0.38369662070E+03  0.12499902072E+03 0.  0.
          5    1    3    3  502    0 -0.25579271707E+02 -0.51882404329E+02  0.78638485530E+02  0.97735277288E+02  0.47000000000E+01 0.  1.
         -5    1    3    3    0  502 -0.13164869996E+03  0.52691860857E+02  0.24828207250E+03  0.28596134341E+03  0.47000000000E+01 0.  1.
        -11    1    1    2    0    0  0.91920483840E+02 -0.49050449407E+02  0.32884330521E+02  0.10925521100E+03  0.00000000000E+00 0.  1.
         11    1    1    2    0    0  0.65307487823E+02  0.48240992880E+02  0.29880526138E+02  0.86516514042E+02  0.00000000000E+00 0. -1.
<mgrwt>
<rscale>  0 0.19689055E+03</rscale>
<asrwt>0</asrwt>
<pdfrwt beam="1">  1        1 0.74550288E-01 0.20086325E+03</pdfrwt>
<pdfrwt beam="2">  1       -1 0.14598687E-01 0.20086325E+03</pdfrwt>
<totfact> 0.15724780E+03</totfact>
</mgrwt>
</event>
<event>
 7    1  0.6419647E-006  0.1353363E+03  0.7546771E-02  0.1231445E+00
          2   -1    0    0  501    0  0.00000000000E+00  0.00000000000E+00  0.56885789073E+03  0.56885789073E+03  0.00000000000E+00 0. -1.
         -2   -1    0    0    0  501 -0.00000000000E+00 -0.00000000000E+00 -0.43540693638E+02  0.43540693638E+02  0.00000000000E+00 0.  1.
         23    2    1    2    0    0  0.72422335111E+01 -0.51389960533E+02  0.47697281126E+03  0.49580136136E+03  0.12499019664E+03 0.  0.
          5    1    3    3  502    0 -0.17178105867E+02 -0.87578359316E+02  0.27683449561E+03  0.29090287778E+03  0.47000000000E+01 0.  1.
         -5    1    3    3    0  502  0.24420339378E+02  0.36188398782E+02  0.20013831565E+03  0.20489848358E+03  0.47000000000E+01 0.  1.
        -11    1    1    2    0    0 -0.49277175268E+02  0.18296317394E+02  0.22370275211E+02  0.57126390098E+02  0.00000000000E+00 0. -1.
         11    1    1    2    0    0  0.42034941757E+02  0.33093643140E+02  0.25974110624E+02  0.59470832914E+02  0.00000000000E+00 0.  1.
<mgrwt>
<rscale>  0 0.12734802E+03</rscale>
<asrwt>0</asrwt>
<pdfrwt beam="1">  1        2 0.87516594E-01 0.13533635E+03</pdfrwt>
<pdfrwt beam="2">  1       -2 0.66985686E-02 0.13533635E+03</pdfrwt>
<totfact> 0.64430924E+03</totfact>
</mgrwt>
</event>
<event>
 7    1  0.6419647E-006  0.1604575E+03  0.7546771E-02  0.1195742E+00
          4   -1    0    0  501    0  0.00000000000E+00  0.00000000000E+00  0.25673202758E+02  0.25673202758E+02  0.00000000000E+00 0. -1.
         -4   -1    0    0    0  501 -0.00000000000E+00 -0.00000000000E+00 -0.88827488989E+03  0.88827488989E+03  0.00000000000E+00 0.  1.
         23    2    1    2    0    0  0.73802170596E+02  0.68356153008E+02 -0.37756261168E+03  0.41024398680E+03  0.12500911536E+03 0.  0.
          5    1    3    3  502    0  0.76068634589E+02  0.66081972296E+02 -0.38661108193E+03  0.39955410510E+03  0.47000000000E+01 0. -1.
         -5    1    3    3    0  502 -0.22664639938E+01  0.22741807120E+01  0.90484702453E+01  0.10689881698E+02  0.47000000000E+01 0. -1.
        -11    1    1    2    0    0 -0.71656758372E+02 -0.82784838647E+02 -0.47063682963E+03  0.48320497301E+03  0.00000000000E+00 0.  1.
         11    1    1    2    0    0 -0.21454122240E+01  0.14428685638E+02 -0.14402245814E+02  0.20499132844E+02  0.00000000000E+00 0. -1.
<mgrwt>
<rscale>  0 0.15391608E+03</rscale>
<asrwt>0</asrwt>
<pdfrwt beam="1">  1        4 0.39497238E-02 0.16045748E+03</pdfrwt>
<pdfrwt beam="2">  1       -4 0.13665766E+00 0.16045748E+03</pdfrwt>
<totfact> 0.24177457E+02</totfact>
</mgrwt>
</event>
<event>
 7    1  0.6419647E-006  0.1265076E+03  0.7546771E-02  0.1248225E+00
          2   -1    0    0  501    0  0.00000000000E+00  0.00000000000E+00  0.16987401349E+03  0.16987401349E+03  0.00000000000E+00 0. -1.
         -2   -1    0    0    0  501 -0.00000000000E+00 -0.00000000000E+00 -0.81342745204E+02  0.81342745204E+02  0.00000000000E+00 0.  1.
         23    2    1    2    0    0  0.18656064468E+02  0.63647389399E+01  0.95602806748E+02  0.15856878447E+03  0.12496241078E+03 0.  0.
          5    1    3    3  502    0  0.71223747681E+02  0.53228289602E+01  0.69151162951E+02  0.99524509943E+02  0.47000000000E+01 0. -1.
         -5    1    3    3    0  502 -0.52567683213E+02  0.10419099797E+01  0.26451643797E+02  0.59044274527E+02  0.47000000000E+01 0. -1.
        -11    1    1    2    0    0 -0.49742833631E+02 -0.20508944843E+02  0.95809211787E+01  0.54651261347E+02  0.00000000000E+00 0. -1.
         11    1    1    2    0    0  0.31086769163E+02  0.14144205903E+02 -0.16652459638E+02  0.37996712879E+02  0.00000000000E+00 0.  1.
<mgrwt>
<rscale>  0 0.11694433E+03</rscale>
<asrwt>0</asrwt>
<pdfrwt beam="1">  1        2 0.26134464E-01 0.12650756E+03</pdfrwt>
<pdfrwt beam="2">  1       -2 0.12514268E-01 0.12650756E+03</pdfrwt>
<totfact> 0.88703500E+03</totfact>
</mgrwt>
</event>
<event>
 7    1  0.6419647E-006  0.1267019E+03  0.7546771E-02  0.1246071E+00
         -2   -1    0    0    0  501 -0.00000000000E+00  0.00000000000E+00  0.32585072986E+02  0.32585072986E+02  0.00000000000E+00 0. -1.
          2   -1    0    0  501    0  0.00000000000E+00 -0.00000000000E+00 -0.42220775223E+03  0.42220775223E+03  0.00000000000E+00 0.  1.
         23    2    1    2    0    0 -0.10708129287E+02 -0.17730060594E+02 -0.28980608088E+03  0.31629250037E+03  0.12499744876E+03 0.  0.
          5    1    3    3  502    0  0.57509879519E+01  0.27816880161E+02 -0.25462837099E+03  0.25625095121E+03  0.47000000000E+01 0.  1.
         -5    1    3    3    0  502 -0.16459117239E+02 -0.45546940755E+02 -0.35177709886E+02  0.60041549158E+02  0.47000000000E+01 0.  1.
        -11    1    1    2    0    0  0.45111459093E+02 -0.35835144492E+01 -0.20974713415E+02  0.49878090583E+02  0.00000000000E+00 0.  1.
         11    1    1    2    0    0 -0.34403329806E+02  0.21313575043E+02 -0.78841884951E+02  0.88622234261E+02  0.00000000000E+00 0. -1.
<mgrwt>
<rscale>  0 0.11821507E+03</rscale>
<asrwt>0</asrwt>
<pdfrwt beam="2">  1        2 0.64955038E-01 0.12670194E+03</pdfrwt>
<pdfrwt beam="1">  1       -2 0.50130882E-02 0.12670194E+03</pdfrwt>
<totfact> 0.13777878E+04</totfact>
</mgrwt>
</event>
<event>
 7    1  0.6419647E-006  0.1521066E+03  0.7546771E-02  0.1206697E+00
          2   -1    0    0  501    0  0.00000000000E+00  0.00000000000E+00  0.20618563899E+03  0.20618563899E+03  0.00000000000E+00 0.  1.
         -2   -1    0    0    0  501 -0.00000000000E+00 -0.00000000000E+00 -0.94605129091E+02  0.94605129091E+02  0.00000000000E+00 0. -1.
         23    2    1    2    0    0  0.82165796218E+02 -0.27491777251E+02  0.45758146956E+02  0.15884021530E+03  0.12501755916E+03 0.  0.
          5    1    3    3  502    0  0.96029673627E+02 -0.29543505790E+02 -0.10073821586E+02  0.10108456278E+03  0.47000000000E+01 0. -1.
         -5    1    3    3    0  502 -0.13863877409E+02  0.20517285393E+01  0.55831968541E+02  0.57755652520E+02  0.47000000000E+01 0. -1.
        -11    1    1    2    0    0 -0.30600720248E+02 -0.28885205224E+02  0.47350552147E+02  0.63346933226E+02  0.00000000000E+00 0. -1.
         11    1    1    2    0    0 -0.51565075970E+02  0.56376982475E+02  0.18471810795E+02  0.78603619553E+02  0.00000000000E+00 0.  1.
<mgrwt>
<rscale>  0 0.14504500E+03</rscale>
<asrwt>0</asrwt>
<pdfrwt beam="1">  1        2 0.31720867E-01 0.15210656E+03</pdfrwt>
<pdfrwt beam="2">  1       -2 0.14554635E-01 0.15210656E+03</pdfrwt>
<totfact> 0.57004677E+03</totfact>
</mgrwt>
</event>
<event>
 7    1  0.6419647E-006  0.1430997E+03  0.7546771E-02  0.1214789E+00
         -1   -1    0    0    0  501 -0.00000000000E+00  0.00000000000E+00  0.39526241296E+02  0.39526241296E+02  0.00000000000E+00 0.  1.
          1   -1    0    0  501    0  0.00000000000E+00 -0.00000000000E+00 -0.48651061150E+03  0.48651061150E+03  0.00000000000E+00 0. -1.
         23    2    1    2    0    0 -0.69608284365E+02  0.26550151901E+01 -0.29525818301E+03  0.32810809592E+03  0.12500066246E+03 0.  0.
          5    1    3    3  502    0 -0.34135063823E+02  0.15777061526E+02 -0.28650756077E+03  0.28900309796E+03  0.47000000000E+01 0. -1.
         -5    1    3    3    0  502 -0.35473220542E+02 -0.13122046336E+02 -0.87506222413E+01  0.39104997958E+02  0.47000000000E+01 0. -1.
        -11    1    1    2    0    0  0.29670280772E+02 -0.36096735552E+02 -0.11186578709E+02  0.48046221723E+02  0.00000000000E+00 0.  1.
         11    1    1    2    0    0  0.39938003592E+02  0.33441720362E+02 -0.14053960849E+03  0.14988253516E+03  0.00000000000E+00 0. -1.
<mgrwt>
<rscale>  0 0.13892081E+03</rscale>
<asrwt>0</asrwt>
<pdfrwt beam="2">  1        1 0.74847784E-01 0.14309971E+03</pdfrwt>
<pdfrwt beam="1">  1       -1 0.60809604E-02 0.14309971E+03</pdfrwt>
<totfact> 0.59102570E+03</totfact>
</mgrwt>
</event>
<event>
 7    1  0.6419647E-006  0.1252438E+03  0.7546771E-02  0.1252468E+00
          2   -1    0    0  501    0  0.00000000000E+00  0.00000000000E+00  0.19228840360E+03  0.19228840360E+03  0.00000000000E+00 0. -1.
         -2   -1    0    0    0  501 -0.00000000000E+00 -0.00000000000E+00 -0.62059938509E+02  0.62059938509E+02  0.00000000000E+00 0.  1.
         23    2    1    2    0    0  0.29071531784E+01  0.73156684215E+01  0.10466645619E+03  0.16322095944E+03  0.12499617596E+03 0.  0.
          5    1    3    3  502    0  0.38321887332E+02  0.11770401381E+02 -0.11201390257E+02  0.41888787772E+02  0.47000000000E+01 0. -1.
         -5    1    3    3    0  502 -0.35414734154E+02 -0.44547329594E+01  0.11586784645E+03  0.12133217167E+03  0.47000000000E+01 0. -1.
        -11    1    1    2    0    0  0.21910993859E+01 -0.29086899867E+02 -0.23338692222E+02  0.37356970099E+02  0.00000000000E+00 0.  1.
         11    1    1    2    0    0 -0.50982525644E+01  0.21771231445E+02  0.48900701119E+02  0.53770412569E+02  0.00000000000E+00 0. -1.
<mgrwt>
<rscale>  0 0.11449340E+03</rscale>
<asrwt>0</asrwt>
<pdfrwt beam="1">  1        2 0.29582831E-01 0.12524382E+03</pdfrwt>
<pdfrwt beam="2">  1       -2 0.95476829E-02 0.12524382E+03</pdfrwt>
<totfact> 0.11877722E+04</totfact>
</mgrwt>
</event>
<event>
 7    1  0.6419647E-006  0.1308448E+03  0.7546771E-02  0.1240090E+00
         -1   -1    0    0    0  501 -0.00000000000E+00  0.00000000000E+00  0.96845021452E+02  0.96845021452E+02  0.00000000000E+00 0.  1.
          1   -1    0    0  501    0  0.00000000000E+00 -0.00000000000E+00 -0.13620429774E+03  0.13620429774E+03  0.00000000000E+00 0. -1.
         23    2    1    2    0    0  0.30540978058E+02  0.23730667963E+02 -0.29874654407E+02  0.13421202642E+03  0.12499790845E+03 0.  0.
          5    1    3    3  502    0  0.97593371491E+01 -0.21468596936E+02  0.40977243913E+02  0.47511786271E+02  0.47000000000E+01 0. -1.
         -5    1    3    3    0  502  0.20781640909E+02  0.45199264898E+02 -0.70851898320E+02  0.86700240148E+02  0.47000000000E+01 0. -1.
        -11    1    1    2    0    0  0.82215583154E+01 -0.25772731942E+02 -0.40806946006E+02  0.48959519761E+02  0.00000000000E+00 0. -1.
         11    1    1    2    0    0 -0.38762536373E+02  0.20420639799E+01  0.31322324129E+02  0.49877773008E+02  0.00000000000E+00 0.  1.
<mgrwt>
<rscale>  0 0.12184156E+03</rscale>
<asrwt>0</asrwt>
<pdfrwt beam="2">  1        1 0.20954507E-01 0.13084484E+03</pdfrwt>
<pdfrwt beam="1">  1       -1 0.14899234E-01 0.13084484E+03</pdfrwt>
<totfact> 0.73737430E+03</totfact>
</mgrwt>
</event>
<event>
 7    1  0.6419647E-006  0.1272935E+03  0.7546771E-02  0.1246596E+00
         -1   -1    0    0    0  501 -0.00000000000E+00  0.00000000000E+00  0.32279224438E+02  0.32279224438E+02  0.00000000000E+00 0.  1.
          1   -1    0    0  501    0  0.00000000000E+00 -0.00000000000E+00 -0.41600960697E+03  0.41600960697E+03  0.00000000000E+00 0. -1.
         23    2    1    2    0    0  0.13875750773E+02 -0.19678889493E+02 -0.28523748058E+03  0.31235246024E+03  0.12499537566E+03 0.  0.
          5    1    3    3  502    0 -0.43326264919E+02 -0.33141240049E+02 -0.68235769371E+02  0.87485525920E+02  0.47000000000E+01 0. -1.
         -5    1    3    3    0  502  0.57202015692E+02  0.13462350556E+02 -0.21700171121E+03  0.22486693432E+03  0.47000000000E+01 0. -1.
        -11    1    1    2    0    0  0.89218682950E+01 -0.59828801054E+01  0.14385758004E+02  0.17953958382E+02  0.00000000000E+00 0.  1.
         11    1    1    2    0    0 -0.22797619068E+02  0.25661769598E+02 -0.11287865996E+03  0.11798241279E+03  0.00000000000E+00 0. -1.
<mgrwt>
<rscale>  0 0.11790391E+03</rscale>
<asrwt>0</asrwt>
<pdfrwt beam="2">  1        1 0.64001482E-01 0.12729352E+03</pdfrwt>
<pdfrwt beam="1">  1       -1 0.49660343E-02 0.12729352E+03</pdfrwt>
<totfact> 0.96821879E+03</totfact>
</mgrwt>
</event>
<event>
 7    1  0.6419647E-006  0.1513123E+03  0.7546771E-02  0.1208311E+00
         -2   -1    0    0    0  501 -0.00000000000E+00  0.00000000000E+00  0.31850277877E+02  0.31850277877E+02  0.00000000000E+00 0.  1.
          2   -1    0    0  501    0  0.00000000000E+00 -0.00000000000E+00 -0.71248826478E+03  0.71248826478E+03  0.00000000000E+00 0. -1.
         23    2    1    2    0    0 -0.10903179528E+02  0.84565063846E+02 -0.52118686625E+03  0.54270724384E+03  0.12500109444E+03 0.  0.
          5    1    3    3  502    0  0.28873421641E+02 -0.74937644854E+00 -0.31079622650E+03  0.31217081934E+03  0.47000000000E+01 0.  1.
         -5    1    3    3    0  502 -0.39776601169E+02  0.85314440295E+02 -0.21039063975E+03  0.23053642449E+03  0.47000000000E+01 0.  1.
        -11    1    1    2    0    0 -0.14113650879E+02 -0.21990361178E+02  0.24699667677E+01  0.26246368544E+02  0.00000000000E+00 0.  1.
         11    1    1    2    0    0  0.25016830407E+02 -0.62574702668E+02 -0.16192108742E+03  0.17538493028E+03  0.00000000000E+00 0. -1.
<mgrwt>
<rscale>  0 0.14379539E+03</rscale>
<asrwt>0</asrwt>
<pdfrwt beam="2">  1        2 0.10961357E+00 0.15131227E+03</pdfrwt>
<pdfrwt beam="1">  1       -2 0.49000433E-02 0.15131227E+03</pdfrwt>
<totfact> 0.80186910E+03</totfact>
</mgrwt>
</event>
<event>
 7    1  0.6419647E-006  0.1477171E+03  0.7546771E-02  0.1212960E+00
          1   -1    0    0  501    0  0.00000000000E+00  0.00000000000E+00  0.69518384796E+03  0.69518384796E+03  0.00000000000E+00 0. -1.
         -1   -1    0    0    0  501 -0.00000000000E+00 -0.00000000000E+00 -0.43998559329E+02  0.43998559329E+02  0.00000000000E+00 0.  1.
         23    2    1    2    0    0 -0.23204370743E+02  0.75206532680E+02  0.58222663179E+03  0.60067312303E+03  0.12500353828E+03 0.  0.
          5    1    3    3  502    0 -0.17946000794E+02 -0.53880246424E+01  0.82213746227E+01  0.20994541070E+02  0.47000000000E+01 0.  1.
         -5    1    3    3    0  502 -0.52583699487E+01  0.80594557322E+02  0.57400525717E+03  0.57967858196E+03  0.47000000000E+01 0.  1.
        -11    1    1    2    0    0  0.21740368039E+01 -0.55566164495E+02 -0.81533906511E+01  0.56203228127E+02  0.00000000000E+00 0.  1.
         11    1    1    2    0    0  0.21030333939E+02 -0.19640368184E+02  0.77112047492E+02  0.82306056135E+02  0.00000000000E+00 0. -1.
<mgrwt>
<rscale>  0 0.14027480E+03</rscale>
<asrwt>0</asrwt>
<pdfrwt beam="1">  1        1 0.10695135E+00 0.14771713E+03</pdfrwt>
<pdfrwt beam="2">  1       -1 0.67690096E-02 0.14771713E+03</pdfrwt>
<totfact> 0.31058599E+03</totfact>
</mgrwt>
</event>
<event>
 7    1  0.6419647E-006  0.1498116E+03  0.7546771E-02  0.1213234E+00
          2   -1    0    0  501    0  0.00000000000E+00  0.00000000000E+00  0.35530326827E+03  0.35530326827E+03  0.00000000000E+00 0. -1.
         -2   -1    0    0    0  501 -0.00000000000E+00 -0.00000000000E+00 -0.49313359581E+02  0.49313359581E+02  0.00000000000E+00 0.  1.
         23    2    1    2    0    0  0.81566738784E+02  0.12681142426E+02  0.16185869991E+03  0.22054874783E+03  0.12501826739E+03 0.  0.
          5    1    3    3  502    0  0.11258479603E+03  0.22549740129E+01  0.10123034420E+03  0.15149288363E+03  0.47000000000E+01 0. -1.
         -5    1    3    3    0  502 -0.31018057246E+02  0.10426168413E+02  0.60628355714E+02  0.69055864195E+02  0.47000000000E+01 0. -1.
        -11    1    1    2    0    0 -0.62446521370E+02  0.26545347831E+02  0.10734669169E+03  0.12699423507E+03  0.00000000000E+00 0. -1.
         11    1    1    2    0    0 -0.19120217415E+02 -0.39226490257E+02  0.36784517091E+02  0.57073644964E+02  0.00000000000E+00 0.  1.
<mgrwt>
<rscale>  0 0.14007083E+03</rscale>
<asrwt>0</asrwt>
<pdfrwt beam="1">  1        2 0.54662040E-01 0.14981159E+03</pdfrwt>
<pdfrwt beam="2">  1       -2 0.75866709E-02 0.14981159E+03</pdfrwt>
<totfact> 0.89354772E+03</totfact>
</mgrwt>
</event>
<event>
 7    1  0.6419647E-006  0.1426177E+03  0.7546771E-02  0.1227576E+00
          4   -1    0    0  501    0  0.00000000000E+00  0.00000000000E+00  0.10466729717E+03  0.10466729717E+03  0.00000000000E+00 0. -1.
         -4   -1    0    0    0  501 -0.00000000000E+00 -0.00000000000E+00 -0.17990538919E+03  0.17990538919E+03  0.00000000000E+00 0.  1.
         23    2    1    2    0    0 -0.48858414635E+02 -0.48239190126E+02  0.24373773240E+02  0.14468547777E+03  0.12500257001E+03 0.  0.
          5    1    3    3  502    0 -0.19326523584E+02 -0.47075471180E+02 -0.45656486858E+02  0.68528966816E+02  0.47000000000E+01 0.  1.
         -5    1    3    3    0  502 -0.29531891051E+02 -0.11637189456E+01  0.70030260098E+02  0.76156510951E+02  0.47000000000E+01 0.  1.
        -11    1    1    2    0    0  0.16488115869E+02  0.60931622150E+02 -0.58729450747E+02  0.86218727245E+02  0.00000000000E+00 0. -1.
         11    1    1    2    0    0  0.32370298766E+02 -0.12692432024E+02 -0.40882414516E+02  0.53668481342E+02  0.00000000000E+00 0.  1.
<mgrwt>
<rscale>  0 0.12991908E+03</rscale>
<asrwt>0</asrwt>
<pdfrwt beam="1">  1        4 0.16102661E-01 0.14261769E+03</pdfrwt>
<pdfrwt beam="2">  1       -4 0.27677752E-01 0.14261769E+03</pdfrwt>
<totfact> 0.68847176E+02</totfact>
</mgrwt>
</event>
<event>
 7    1  0.6419647E-006  0.1297476E+03  0.7546771E-02  0.1241946E+00
         -1   -1    0    0    0  501 -0.00000000000E+00  0.00000000000E+00  0.21390458786E+02  0.21390458786E+02  0.00000000000E+00 0.  1.
          1   -1    0    0  501    0  0.00000000000E+00 -0.00000000000E+00 -0.77675223433E+03  0.77675223433E+03  0.00000000000E+00 0. -1.
         23    2    1    2    0    0 -0.30752152439E+02  0.16231644964E+02 -0.60755646830E+03  0.62125622841E+03  0.12500111194E+03 0.  0.
          5    1    3    3  502    0 -0.13981193585E+02  0.51972113967E+02 -0.11456486005E+03  0.12666401052E+03  0.47000000000E+01 0.  1.
         -5    1    3    3    0  502 -0.16770958854E+02 -0.35740469003E+02 -0.49299160825E+03  0.49459221789E+03  0.47000000000E+01 0.  1.
        -11    1    1    2    0    0 -0.66197141864E+01  0.33623256458E+02 -0.43342225725E+02  0.55252986539E+02  0.00000000000E+00 0.  1.
         11    1    1    2    0    0  0.37371866625E+02 -0.49854901422E+02 -0.10446308152E+03  0.12163347817E+03  0.00000000000E+00 0. -1.
<mgrwt>
<rscale>  0 0.12070072E+03</rscale>
<asrwt>0</asrwt>
<pdfrwt beam="2">  1        1 0.11950032E+00 0.12974760E+03</pdfrwt>
<pdfrwt beam="1">  1       -1 0.32908405E-02 0.12974760E+03</pdfrwt>
<totfact> 0.76268897E+03</totfact>
</mgrwt>
</event>
<event>
 7    1  0.6419647E-006  0.2081049E+03  0.7546771E-02  0.1146591E+00
          2   -1    0    0  501    0  0.00000000000E+00  0.00000000000E+00  0.53631318395E+03  0.53631318395E+03  0.00000000000E+00 0. -1.
         -2   -1    0    0    0  501 -0.00000000000E+00 -0.00000000000E+00 -0.76001816171E+02  0.76001816171E+02  0.00000000000E+00 0.  1.
         23    2    1    2    0    0  0.10013142640E+03  0.13287620134E+03  0.28442543234E+03  0.35242800009E+03  0.12500112498E+03 0.  0.
          5    1    3    3  502    0  0.30763152626E+02 -0.14707469651E+02  0.15192325969E+02  0.37624167650E+02  0.47000000000E+01 0. -1.
         -5    1    3    3    0  502  0.69368273770E+02  0.14758367099E+03  0.26923310637E+03  0.31480383244E+03  0.47000000000E+01 0. -1.
        -11    1    1    2    0    0 -0.12781361142E+02  0.81493030586E+01 -0.34990274066E+01  0.15556912476E+02  0.00000000000E+00 0.  1.
         11    1    1    2    0    0 -0.87350065254E+02 -0.14102550440E+03  0.17938496284E+03  0.24433008756E+03  0.00000000000E+00 0. -1.
<mgrwt>
<rscale>  0 0.20377689E+03</rscale>
<asrwt>0</asrwt>
<pdfrwt beam="1">  1        2 0.82509718E-01 0.20810495E+03</pdfrwt>
<pdfrwt beam="2">  1       -2 0.11692587E-01 0.20810495E+03</pdfrwt>
<totfact> 0.29323077E+03</totfact>
</mgrwt>
</event>
<event>
 7    1  0.6419647E-006  0.1533404E+03  0.7546771E-02  0.1204552E+00
         -2   -1    0    0    0  501 -0.00000000000E+00  0.00000000000E+00  0.87166394208E+02  0.87166394208E+02  0.00000000000E+00 0.  1.
          2   -1    0    0  501    0  0.00000000000E+00 -0.00000000000E+00 -0.24501396764E+03  0.24501396764E+03  0.00000000000E+00 0. -1.
         23    2    1    2    0    0 -0.33792297173E+02 -0.82146416006E+02 -0.12910510539E+03  0.20045298622E+03  0.12499327357E+03 0.  0.
          5    1    3    3  502    0 -0.35800764890E+02 -0.11494070800E+02  0.14303774659E+02  0.40503041858E+02  0.47000000000E+01 0. -1.
         -5    1    3    3    0  502  0.20084677173E+01 -0.70652345206E+02 -0.14340888005E+03  0.15994994437E+03  0.47000000000E+01 0. -1.
        -11    1    1    2    0    0  0.17950765373E+02  0.10115022811E+03 -0.29795497300E+02  0.10696434118E+03  0.00000000000E+00 0. -1.
         11    1    1    2    0    0  0.15841531800E+02 -0.19003812106E+02  0.10530292570E+01  0.24763034446E+02  0.00000000000E+00 0.  1.
<mgrwt>
<rscale>  0 0.14672809E+03</rscale>
<asrwt>0</asrwt>
<pdfrwt beam="2">  1        2 0.37694457E-01 0.15334038E+03</pdfrwt>
<pdfrwt beam="1">  1       -2 0.13410214E-01 0.15334038E+03</pdfrwt>
<totfact> 0.54116100E+03</totfact>
</mgrwt>
</event>
<event>
 7    1  0.6419647E-006  0.1350132E+03  0.7546771E-02  0.1232531E+00
          1   -1    0    0  501    0  0.00000000000E+00  0.00000000000E+00  0.62615979857E+02  0.62615979857E+02  0.00000000000E+00 0. -1.
         -1   -1    0    0    0  501 -0.00000000000E+00 -0.00000000000E+00 -0.23072398850E+03  0.23072398850E+03  0.00000000000E+00 0.  1.
         23    2    1    2    0    0 -0.51028111210E+02  0.15417388969E+00 -0.82276178302E+02  0.15810736844E+03  0.12499871413E+03 0.  0.
          5    1    3    3  502    0 -0.75713270895E+02  0.23784881969E+02 -0.92653443716E+02  0.12208591496E+03  0.47000000000E+01 0.  1.
         -5    1    3    3    0  502  0.24685159685E+02 -0.23630708080E+02  0.10377265414E+02  0.36021453475E+02  0.47000000000E+01 0.  1.
        -11    1    1    2    0    0 -0.13539406836E+02 -0.25064032348E+01 -0.66328663181E+02  0.67742816254E+02  0.00000000000E+00 0.  1.
         11    1    1    2    0    0  0.64567518046E+02  0.23522293451E+01 -0.19503167157E+02  0.67489783662E+02  0.00000000000E+00 0. -1.
<mgrwt>
<rscale>  0 0.12663793E+03</rscale>
<asrwt>0</asrwt>
<pdfrwt beam="1">  1        1 0.96332276E-02 0.13501322E+03</pdfrwt>
<pdfrwt beam="2">  1       -1 0.35495998E-01 0.13501322E+03</pdfrwt>
<totfact> 0.49124310E+03</totfact>
</mgrwt>
</event>
<event>
 7    1  0.6419647E-006  0.1420010E+03  0.7546771E-02  0.1221370E+00
         -1   -1    0    0    0  501 -0.00000000000E+00  0.00000000000E+00  0.20830395016E+03  0.20830395016E+03  0.00000000000E+00 0.  1.
          1   -1    0    0  501    0  0.00000000000E+00 -0.00000000000E+00 -0.81962415534E+02  0.81962415534E+02  0.00000000000E+00 0. -1.
         23    2    1    2    0    0  0.49473668466E+02 -0.45623497999E+02  0.39000673097E+02  0.14725946289E+03  0.12504059128E+03 0.  0.
          5    1    3    3  502    0  0.90796366121E+02 -0.21317240008E+02  0.20159486772E+02  0.95534808993E+02  0.47000000000E+01 0.  1.
         -5    1    3    3    0  502 -0.41322697655E+02 -0.24306257992E+02  0.18841186325E+02  0.51724653901E+02  0.47000000000E+01 0.  1.
        -11    1    1    2    0    0 -0.57744509531E+02  0.24546699497E+00  0.76105024048E+02  0.95532524934E+02  0.00000000000E+00 0.  1.
         11    1    1    2    0    0  0.82708410645E+01  0.45378031004E+02  0.11235837479E+02  0.47474377864E+02  0.00000000000E+00 0. -1.
<mgrwt>
<rscale>  0 0.13418855E+03</rscale>
<asrwt>0</asrwt>
<pdfrwt beam="2">  1        1 0.12609602E-01 0.14200105E+03</pdfrwt>
<pdfrwt beam="1">  1       -1 0.32046761E-01 0.14200105E+03</pdfrwt>
<totfact> 0.41132651E+03</totfact>
</mgrwt>
</event>
<event>
 7    1  0.6419647E-006  0.1577972E+03  0.7546771E-02  0.1199489E+00
          1   -1    0    0  501    0  0.00000000000E+00  0.00000000000E+00  0.50711376180E+03  0.50711376180E+03  0.00000000000E+00 0. -1.
         -1   -1    0    0    0  501 -0.00000000000E+00 -0.00000000000E+00 -0.44648760843E+02  0.44648760843E+02  0.00000000000E+00 0.  1.
         23    2    1    2    0    0 -0.90874099248E+02 -0.31884374258E+02  0.32588696936E+03  0.36208046129E+03  0.12500091367E+03 0.  0.
          5    1    3    3  502    0 -0.10811992079E+02 -0.62980241654E+02  0.19673086077E+03  0.20690222713E+03  0.47000000000E+01 0. -1.
         -5    1    3    3    0  502 -0.80062107169E+02  0.31095867396E+02  0.12915610859E+03  0.15517823417E+03  0.47000000000E+01 0. -1.
        -11    1    1    2    0    0  0.64497155438E+02  0.48786790429E+01  0.20859512686E+02  0.67961782189E+02  0.00000000000E+00 0.  1.
         11    1    1    2    0    0  0.26376943810E+02  0.27005695215E+02  0.11571851892E+03  0.12172027916E+03  0.00000000000E+00 0. -1.
<mgrwt>
<rscale>  0 0.15080329E+03</rscale>
<asrwt>0</asrwt>
<pdfrwt beam="1">  1        1 0.78017498E-01 0.15779716E+03</pdfrwt>
<pdfrwt beam="2">  1       -1 0.68690405E-02 0.15779716E+03</pdfrwt>
<totfact> 0.46877864E+03</totfact>
</mgrwt>
</event>
<event>
 7    1  0.6419647E-006  0.1329145E+03  0.7546771E-02  0.1235927E+00
          2   -1    0    0  501    0  0.00000000000E+00  0.00000000000E+00  0.27797830652E+03  0.27797830652E+03  0.00000000000E+00 0.  1.
         -2   -1    0    0    0  501 -0.00000000000E+00 -0.00000000000E+00 -0.62330889112E+02  0.62330889112E+02  0.00000000000E+00 0. -1.
         23    2    1    2    0    0 -0.26022560743E+02 -0.37156896396E+02  0.19514286326E+03  0.23610805213E+03  0.12493384883E+03 0.  0.
          5    1    3    3  502    0 -0.46707315469E+02  0.27098164254E+02  0.41633887719E+02  0.68347307415E+02  0.47000000000E+01 0. -1.
         -5    1    3    3    0  502  0.20684754727E+02 -0.64255060650E+02  0.15350897554E+03  0.16776074472E+03  0.47000000000E+01 0. -1.
        -11    1    1    2    0    0  0.13169129281E+02  0.67313938618E+02  0.77545173307E+01  0.69026986297E+02  0.00000000000E+00 0.  1.
         11    1    1    2    0    0  0.12853431462E+02 -0.30157042222E+02  0.12750036818E+02  0.35174157201E+02  0.00000000000E+00 0. -1.
<mgrwt>
<rscale>  0 0.12445250E+03</rscale>
<asrwt>0</asrwt>
<pdfrwt beam="1">  1        2 0.42765893E-01 0.13291454E+03</pdfrwt>
<pdfrwt beam="2">  1       -2 0.95893677E-02 0.13291454E+03</pdfrwt>
<totfact> 0.79928854E+03</totfact>
</mgrwt>
</event>
<event>
 7    1  0.6419647E-006  0.1311200E+03  0.7546771E-02  0.1236437E+00
         -1   -1    0    0    0  501 -0.00000000000E+00  0.00000000000E+00  0.10161341179E+03  0.10161341179E+03  0.00000000000E+00 0.  1.
          1   -1    0    0  501    0  0.00000000000E+00 -0.00000000000E+00 -0.15855530954E+03  0.15855530954E+03  0.00000000000E+00 0. -1.
         23    2    1    2    0    0  0.23008598469E+02  0.32266398718E+02 -0.78287606592E+02  0.15271347638E+03  0.12498776113E+03 0.  0.
          5    1    3    3  502    0  0.55205962395E+02 -0.62149500876E+01 -0.85227468412E+02  0.10184368051E+03  0.47000000000E+01 0. -1.
         -5    1    3    3    0  502 -0.32197363927E+02  0.38481348806E+02  0.69398618203E+01  0.50869795870E+02  0.47000000000E+01 0. -1.
        -11    1    1    2    0    0 -0.58475311466E+02 -0.25568799912E+02  0.29721841367E+02  0.70402510141E+02  0.00000000000E+00 0.  1.
         11    1    1    2    0    0  0.35466712997E+02 -0.66975988061E+01 -0.83761325306E+01  0.37052734808E+02  0.00000000000E+00 0. -1.
<mgrwt>
<rscale>  0 0.12412893E+03</rscale>
<asrwt>0</asrwt>
<pdfrwt beam="2">  1        1 0.24393124E-01 0.13112001E+03</pdfrwt>
<pdfrwt beam="1">  1       -1 0.15632833E-01 0.13112001E+03</pdfrwt>
<totfact> 0.56472635E+03</totfact>
</mgrwt>
</event>
<event>
 7    1  0.6419647E-006  0.1921778E+03  0.7546771E-02  0.1161269E+00
         -2   -1    0    0    0  501 -0.00000000000E+00  0.00000000000E+00  0.23357334482E+03  0.23357334482E+03  0.00000000000E+00 0.  1.
          2   -1    0    0  501    0  0.00000000000E+00 -0.00000000000E+00 -0.15337080377E+03  0.15337080377E+03  0.00000000000E+00 0. -1.
         23    2    1    2    0    0 -0.83343690135E+02 -0.11983974077E+03 -0.10569049012E+02  0.19246817608E+03  0.12499823940E+03 0.  0.
          5    1    3    3  502    0 -0.61022441049E+02 -0.11632552410E+03  0.39571218623E+02  0.13727103559E+03  0.47000000000E+01 0. -1.
         -5    1    3    3    0  502 -0.22321249086E+02 -0.35142166679E+01 -0.50140267635E+02  0.55197140488E+02  0.47000000000E+01 0. -1.
        -11    1    1    2    0    0  0.39961457519E+02  0.48593216115E+02 -0.99516231694E+01  0.63696574030E+02  0.00000000000E+00 0. -1.
         11    1    1    2    0    0  0.43382232616E+02  0.71246524653E+02  0.10072321323E+03  0.13077939848E+03  0.00000000000E+00 0.  1.
<mgrwt>
<rscale>  0 0.18691955E+03</rscale>
<asrwt>0</asrwt>
<pdfrwt beam="2">  1        2 0.23595508E-01 0.19217777E+03</pdfrwt>
<pdfrwt beam="1">  1       -2 0.35934361E-01 0.19217777E+03</pdfrwt>
<totfact> 0.16586343E+03</totfact>
</mgrwt>
</event>
<event>
 7    1  0.6419647E-006  0.2114082E+03  0.7546771E-02  0.1144294E+00
         -2   -1    0    0    0  501 -0.00000000000E+00  0.00000000000E+00  0.56631041099E+02  0.56631041099E+02  0.00000000000E+00 0.  1.
          2   -1    0    0  501    0  0.00000000000E+00 -0.00000000000E+00 -0.73470728780E+03  0.73470728780E+03  0.00000000000E+00 0. -1.
         23    2    1    2    0    0 -0.70978684504E+01  0.17034660525E+03 -0.40791109883E+03  0.45943977842E+03  0.12500039917E+03 0.  0.
          5    1    3    3  502    0 -0.17637153471E+02  0.11824481713E+03 -0.38164808384E+03  0.39996281809E+03  0.47000000000E+01 0. -1.
         -5    1    3    3    0  502  0.10539285021E+02  0.52101788114E+02 -0.26263014991E+02  0.59476960328E+02  0.47000000000E+01 0. -1.
        -11    1    1    2    0    0  0.16474844642E+02 -0.60988115337E+02 -0.34626183044E+02  0.72041260889E+02  0.00000000000E+00 0. -1.
         11    1    1    2    0    0 -0.93769761916E+01 -0.10935848991E+03 -0.23553896483E+03  0.25985728959E+03  0.00000000000E+00 0.  1.
<mgrwt>
<rscale>  0 0.20659118E+03</rscale>
<asrwt>0</asrwt>
<pdfrwt beam="2">  1        2 0.11303188E+00 0.21140824E+03</pdfrwt>
<pdfrwt beam="1">  1       -2 0.87124685E-02 0.21140824E+03</pdfrwt>
<totfact> 0.32364185E+03</totfact>
</mgrwt>
</event>
<event>
 7    1  0.6419647E-006  0.2008583E+03  0.7546771E-02  0.1153110E+00
         -2   -1    0    0    0  501 -0.00000000000E+00  0.00000000000E+00  0.21316514465E+03  0.21316514465E+03  0.00000000000E+00 0.  1.
          2   -1    0    0  501    0  0.00000000000E+00 -0.00000000000E+00 -0.18209602926E+03  0.18209602926E+03  0.00000000000E+00 0. -1.
         23    2    1    2    0    0 -0.11853334566E+03 -0.10328834131E+03 -0.29767745373E+02  0.20305214706E+03  0.12500168109E+03 0.  0.
          5    1    3    3  502    0 -0.19069691101E+02 -0.19542061782E+02 -0.62950269107E+02  0.68777697533E+02  0.47000000000E+01 0. -1.
         -5    1    3    3    0  502 -0.99463654562E+02 -0.83746279531E+02  0.33182523733E+02  0.13427444953E+03  0.47000000000E+01 0. -1.
        -11    1    1    2    0    0  0.59325514177E+02  0.23872188581E+02  0.67430827634E+02  0.92931773552E+02  0.00000000000E+00 0.  1.
         11    1    1    2    0    0  0.59207831485E+02  0.79416152732E+02 -0.65939668631E+01  0.99277253301E+02  0.00000000000E+00 0. -1.
<mgrwt>
<rscale>  0 0.19605601E+03</rscale>
<asrwt>0</asrwt>
<pdfrwt beam="2">  1        2 0.28014774E-01 0.20085830E+03</pdfrwt>
<pdfrwt beam="1">  1       -2 0.32794638E-01 0.20085830E+03</pdfrwt>
<totfact> 0.16257763E+03</totfact>
</mgrwt>
</event>
<event>
 6    1  0.6419647E-006  0.2621996E+03  0.7546771E-02  0.1141770E+00
         -2   -1    0    0    0  501 -0.00000000000E+00  0.00000000000E+00  0.40266444393E+03  0.40266444393E+03  0.00000000000E+00 0.  1.
          2   -1    0    0  501    0  0.00000000000E+00 -0.00000000000E+00 -0.98765430676E+02  0.98765430676E+02  0.00000000000E+00 0. -1.
          5    1    1    2  502    0  0.52176286415E+02 -0.19650729188E+00 -0.53041473108E+02  0.74551266579E+02  0.47000000000E+01 0. -1.
         -5    1    1    2    0  502 -0.12556571521E+03  0.53515875778E+01  0.17275120166E+03  0.21368307373E+03  0.47000000000E+01 0.  1.
        -11    1    1    2    0    0  0.14700703097E+02 -0.63853609858E+01 -0.36155716217E+01  0.16430333673E+02  0.00000000000E+00 0. -1.
         11    1    1    2    0    0  0.58688725700E+02  0.12302806998E+01  0.18780485632E+03  0.19676520062E+03  0.00000000000E+00 0.  1.
<mgrwt>
<rscale>  0 0.20974269E+03</rscale>
<asrwt>0</asrwt>
<pdfrwt beam="2">  1        2 0.15194682E-01 0.26219957E+03</pdfrwt>
<pdfrwt beam="1">  1       -2 0.61948375E-01 0.26219957E+03</pdfrwt>
<totfact> 0.94818339E+02</totfact>
</mgrwt>
</event>
<event>
 7    1  0.6419647E-006  0.1504417E+03  0.7546771E-02  0.1209536E+00
          1   -1    0    0  501    0  0.00000000000E+00  0.00000000000E+00  0.36654833392E+03  0.36654833392E+03  0.00000000000E+00 0. -1.
         -1   -1    0    0    0  501 -0.00000000000E+00 -0.00000000000E+00 -0.57120151116E+02  0.57120151116E+02  0.00000000000E+00 0.  1.
         23    2    1    2    0    0  0.30478291055E+02 -0.77967315666E+02  0.23932934845E+03  0.28268578704E+03  0.12499955450E+03 0.  0.
          5    1    3    3  502    0  0.78295614688E+02 -0.42683881827E+02  0.12331356710E+03  0.15225124918E+03  0.47000000000E+01 0. -1.
         -5    1    3    3    0  502 -0.47817323633E+02 -0.35283433838E+02  0.11601578135E+03  0.13043453786E+03  0.47000000000E+01 0. -1.
        -11    1    1    2    0    0 -0.13448538171E+02  0.92824870906E+02  0.72086713821E+02  0.11829545277E+03  0.00000000000E+00 0. -1.
         11    1    1    2    0    0 -0.17029752884E+02 -0.14857555241E+02 -0.19878794669E+01  0.22687245223E+02  0.00000000000E+00 0.  1.
<mgrwt>
<rscale>  0 0.14285682E+03</rscale>
<asrwt>0</asrwt>
<pdfrwt beam="1">  1        1 0.56392050E-01 0.15044174E+03</pdfrwt>
<pdfrwt beam="2">  1       -1 0.87877158E-02 0.15044174E+03</pdfrwt>
<totfact> 0.48832804E+03</totfact>
</mgrwt>
</event>
<event>
 7    1  0.6419647E-006  0.1456986E+03  0.7546771E-02  0.1216423E+00
         -1   -1    0    0    0  501 -0.00000000000E+00  0.00000000000E+00  0.13685516947E+03  0.13685516947E+03  0.00000000000E+00 0.  1.
          1   -1    0    0  501    0  0.00000000000E+00 -0.00000000000E+00 -0.12819656460E+03  0.12819656460E+03  0.00000000000E+00 0. -1.
         23    2    1    2    0    0 -0.50439315431E+02  0.55312485015E+02 -0.14569978234E+02  0.14642530240E+03  0.12499795750E+03 0.  0.
          5    1    3    3  502    0 -0.86199190770E+02  0.26162969981E+02 -0.33653775444E+02  0.96278076888E+02  0.47000000000E+01 0. -1.
         -5    1    3    3    0  502  0.35759875339E+02  0.29149515034E+02  0.19083797210E+02  0.50147225515E+02  0.47000000000E+01 0. -1.
        -11    1    1    2    0    0  0.87977366605E+00 -0.62691618065E+02  0.27241378855E+02  0.68360117753E+02  0.00000000000E+00 0.  1.
         11    1    1    2    0    0  0.49559541765E+02  0.73791330505E+01 -0.40127957559E+01  0.50266313912E+02  0.00000000000E+00 0. -1.
<mgrwt>
<rscale>  0 0.13772553E+03</rscale>
<asrwt>0</asrwt>
<pdfrwt beam="2">  1        1 0.19722548E-01 0.14569861E+03</pdfrwt>
<pdfrwt beam="1">  1       -1 0.21054642E-01 0.14569861E+03</pdfrwt>
<totfact> 0.46289221E+03</totfact>
</mgrwt>
</event>
<event>
 7    1  0.6419647E-006  0.1329090E+03  0.7546771E-02  0.1235604E+00
          3   -1    0    0  501    0  0.00000000000E+00  0.00000000000E+00  0.71197638476E+02  0.71197638476E+02  0.00000000000E+00 0. -1.
         -3   -1    0    0    0  501 -0.00000000000E+00 -0.00000000000E+00 -0.21130635889E+03  0.21130635889E+03  0.00000000000E+00 0.  1.
         23    2    1    2    0    0 -0.42201144771E+02 -0.16080021985E+02 -0.39571276934E+02  0.13867472196E+03  0.12500115530E+03 0.  0.
          5    1    3    3  502    0  0.35429813285E+01  0.50767319040E+02 -0.22084819833E+02  0.55674973429E+02  0.47000000000E+01 0. -1.
         -5    1    3    3    0  502 -0.45744126100E+02 -0.66847341025E+02 -0.17486457101E+02  0.82999748534E+02  0.47000000000E+01 0. -1.
        -11    1    1    2    0    0  0.66563184092E+02 -0.97515003422E+01 -0.63196434943E+02  0.92301346820E+02  0.00000000000E+00 0.  1.
         11    1    1    2    0    0 -0.24362039320E+02  0.25831522327E+02 -0.37341008539E+02  0.51527928585E+02  0.00000000000E+00 0. -1.
<mgrwt>
<rscale>  0 0.12465845E+03</rscale>
<asrwt>0</asrwt>
<pdfrwt beam="1">  1        3 0.10953483E-01 0.13290896E+03</pdfrwt>
<pdfrwt beam="2">  1       -3 0.32508671E-01 0.13290896E+03</pdfrwt>
<totfact> 0.13413187E+03</totfact>
</mgrwt>
</event>
<event>
 7    1  0.6419647E-006  0.1303657E+03  0.7546771E-02  0.1243166E+00
          2   -1    0    0  501    0  0.00000000000E+00  0.00000000000E+00  0.93114209002E+03  0.93114209002E+03  0.00000000000E+00 0. -1.
         -2   -1    0    0    0  501 -0.00000000000E+00 -0.00000000000E+00 -0.14679493020E+02  0.14679493020E+02  0.00000000000E+00 0.  1.
         23    2    1    2    0    0  0.87630903324E+01 -0.35973747144E+02  0.66256181976E+03  0.67526540625E+03  0.12499720653E+03 0.  0.
          5    1    3    3  502    0  0.47109573865E+02 -0.52450233042E+02  0.22846660379E+03  0.23914309094E+03  0.47000000000E+01 0. -1.
         -5    1    3    3    0  502 -0.38346483532E+02  0.16476485898E+02  0.43409521597E+03  0.43612231531E+03  0.47000000000E+01 0. -1.
        -11    1    1    2    0    0 -0.47267598133E+02  0.24541168274E+02  0.14848426655E+03  0.15774686110E+03  0.00000000000E+00 0.  1.
         11    1    1    2    0    0  0.38504507800E+02  0.11432578869E+02  0.10541651069E+03  0.11280931569E+03  0.00000000000E+00 0. -1.
<mgrwt>
<rscale>  0 0.11995836E+03</rscale>
<asrwt>0</asrwt>
<pdfrwt beam="1">  1        2 0.14325258E+00 0.13036565E+03</pdfrwt>
<pdfrwt beam="2">  1       -2 0.22583843E-02 0.13036565E+03</pdfrwt>
<totfact> 0.17820180E+04</totfact>
</mgrwt>
</event>
<event>
 7    1  0.6419647E-006  0.1478789E+03  0.7546771E-02  0.1213085E+00
         -2   -1    0    0    0  501 -0.00000000000E+00  0.00000000000E+00  0.41058784172E+02  0.41058784172E+02  0.00000000000E+00 0. -1.
          2   -1    0    0  501    0  0.00000000000E+00 -0.00000000000E+00 -0.51090772271E+03  0.51090772271E+03  0.00000000000E+00 0.  1.
         23    2    1    2    0    0  0.46043351213E+02 -0.64241608220E+02 -0.36208488983E+03  0.39111844070E+03  0.12498477025E+03 0.  0.
          5    1    3    3  502    0  0.13503433441E+02  0.27161308700E+02 -0.22892612906E+02  0.38291528184E+02  0.47000000000E+01 0. -1.
         -5    1    3    3    0  502  0.32539917773E+02 -0.91402916920E+02 -0.33919227692E+03  0.35282691251E+03  0.47000000000E+01 0. -1.
        -11    1    1    2    0    0 -0.51919768225E+02  0.82531445198E+02 -0.10124373592E+03  0.14056100399E+03  0.00000000000E+00 0.  1.
         11    1    1    2    0    0  0.58764170113E+01 -0.18289836978E+02 -0.65203127821E+01  0.20287062191E+02  0.00000000000E+00 0. -1.
<mgrwt>
<rscale>  0 0.14018154E+03</rscale>
<asrwt>0</asrwt>
<pdfrwt beam="2">  1        2 0.78601186E-01 0.14787889E+03</pdfrwt>
<pdfrwt beam="1">  1       -2 0.63167362E-02 0.14787889E+03</pdfrwt>
<totfact> 0.79835250E+03</totfact>
</mgrwt>
</event>
<event>
 7    1  0.6419647E-006  0.1301676E+03  0.7546771E-02  0.1237471E+00
         -2   -1    0    0    0  501 -0.00000000000E+00  0.00000000000E+00  0.26965792432E+03  0.26965792432E+03  0.00000000000E+00 0. -1.
          2   -1    0    0  501    0  0.00000000000E+00 -0.00000000000E+00 -0.60214764000E+02  0.60214764000E+02  0.00000000000E+00 0.  1.
         23    2    1    2    0    0 -0.52419280541E+02 -0.71892174338E+01  0.51480689867E+02  0.13997804967E+03  0.11892908450E+03 0.  0.
          5    1    3    3  502    0 -0.29372520082E+02  0.53267913169E+02  0.71990202555E+01  0.61433959680E+02  0.47000000000E+01 0. -1.
         -5    1    3    3    0  502 -0.23046760459E+02 -0.60457130603E+02  0.44281669612E+02  0.78544089988E+02  0.47000000000E+01 0. -1.
        -11    1    1    2    0    0 -0.21114536689E+02 -0.14076306598E+02  0.63021580462E+02  0.67938837722E+02  0.00000000000E+00 0. -1.
         11    1    1    2    0    0  0.73533817230E+02  0.21265524032E+02  0.94940889995E+02  0.12195580094E+03  0.00000000000E+00 0.  1.
<mgrwt>
<rscale>  0 0.12347548E+03</rscale>
<asrwt>0</asrwt>
<pdfrwt beam="2">  1        2 0.92638100E-02 0.13016756E+03</pdfrwt>
<pdfrwt beam="1">  1       -2 0.41485834E-01 0.13016756E+03</pdfrwt>
<totfact> 0.37334635E+03</totfact>
</mgrwt>
</event>
<event>
 7    1  0.6419647E-006  0.1892718E+03  0.7546771E-02  0.1164091E+00
          3   -1    0    0  501    0  0.00000000000E+00  0.00000000000E+00  0.61909861583E+03  0.61909861583E+03  0.00000000000E+00 0. -1.
         -3   -1    0    0    0  501 -0.00000000000E+00 -0.00000000000E+00 -0.61103093445E+02  0.61103093445E+02  0.00000000000E+00 0.  1.
         23    2    1    2    0    0 -0.10689745561E+03  0.93651495540E+02  0.42562687925E+03  0.46581333107E+03  0.12500460163E+03 0.  0.
          5    1    3    3  502    0 -0.12907138666E+02 -0.30237258259E+02  0.88251074377E+02  0.94293309117E+02  0.47000000000E+01 0.  1.
         -5    1    3    3    0  502 -0.93990316940E+02  0.12388875380E+03  0.33737580487E+03  0.37152002195E+03  0.47000000000E+01 0.  1.
        -11    1    1    2    0    0  0.58344568848E+02 -0.26661262198E+02  0.74816725485E+01  0.64582405035E+02  0.00000000000E+00 0.  1.
         11    1    1    2    0    0  0.48552886759E+02 -0.66990233342E+02  0.12488697059E+03  0.14980597318E+03  0.00000000000E+00 0. -1.
<mgrwt>
<rscale>  0 0.18388970E+03</rscale>
<asrwt>0</asrwt>
<pdfrwt beam="1">  1        3 0.95245937E-01 0.18927181E+03</pdfrwt>
<pdfrwt beam="2">  1       -3 0.94004763E-02 0.18927181E+03</pdfrwt>
<totfact> 0.20114420E+02</totfact>
</mgrwt>
</event>
<event>
 6    1  0.6419647E-006  0.2182631E+03  0.7546771E-02  0.1166247E+00
          1   -1    0    0  501    0  0.00000000000E+00  0.00000000000E+00  0.83043720299E+03  0.83043720299E+03  0.00000000000E+00 0. -1.
         -1   -1    0    0    0  501 -0.00000000000E+00 -0.00000000000E+00 -0.52533608590E+02  0.52533608590E+02  0.00000000000E+00 0.  1.
          5    1    1    2  502    0  0.12478467091E+03  0.31458651491E+02  0.53226107496E+03  0.54761738720E+03  0.47000000000E+01 0. -1.
         -5    1    1    2    0  502 -0.74277600085E+02 -0.37948583435E+02  0.20800211730E+03  0.22415224215E+03  0.47000000000E+01 0.  1.
        -11    1    1    2    0    0 -0.23273463719E+02  0.46445750161E+02  0.36166811441E+01  0.52076311352E+02  0.00000000000E+00 0.  1.
         11    1    1    2    0    0 -0.27233607107E+02 -0.39955818217E+02  0.34023720988E+02  0.59124870869E+02  0.00000000000E+00 0. -1.
<mgrwt>
<rscale>  0 0.18161701E+03</rscale>
<asrwt>0</asrwt>
<pdfrwt beam="1">  1        1 0.12775956E+00 0.21826307E+03</pdfrwt>
<pdfrwt beam="2">  1       -1 0.80820942E-02 0.21826307E+03</pdfrwt>
<totfact> 0.18372713E+03</totfact>
</mgrwt>
</event>
<event>
 7    1  0.6419647E-006  0.1382248E+03  0.7546771E-02  0.1227656E+00
         -4   -1    0    0    0  501 -0.00000000000E+00  0.00000000000E+00  0.18707943117E+03  0.18707943117E+03  0.00000000000E+00 0.  1.
          4   -1    0    0  501    0  0.00000000000E+00 -0.00000000000E+00 -0.84514615016E+02  0.84514615016E+02  0.00000000000E+00 0. -1.
         23    2    1    2    0    0 -0.53355496829E+02  0.25133278713E+02  0.29186502917E+02  0.14127260957E+03  0.12501042966E+03 0.  0.
          5    1    3    3  502    0 -0.82040346918E+02 -0.19923836029E+02  0.19701791784E+02  0.86820667839E+02  0.47000000000E+01 0. -1.
         -5    1    3    3    0  502  0.28684850089E+02  0.45057114742E+02  0.94847111327E+01  0.54451941735E+02  0.47000000000E+01 0. -1.
        -11    1    1    2    0    0  0.61190285893E+02 -0.49229029576E+02  0.69137550671E+02  0.10463149312E+03  0.00000000000E+00 0.  1.
         11    1    1    2    0    0 -0.78347890648E+01  0.24095750863E+02  0.42407625688E+01  0.25689943490E+02  0.00000000000E+00 0. -1.
<mgrwt>
<rscale>  0 0.12986541E+03</rscale>
<asrwt>0</asrwt>
<pdfrwt beam="2">  1        4 0.13002249E-01 0.13822481E+03</pdfrwt>
<pdfrwt beam="1">  1       -4 0.28781451E-01 0.13822481E+03</pdfrwt>
<totfact> 0.92269305E+02</totfact>
</mgrwt>
</event>
<event>
 7    1  0.6419647E-006  0.2150481E+03  0.7546771E-02  0.1141101E+00
          2   -1    0    0  501    0  0.00000000000E+00  0.00000000000E+00  0.22759615953E+04  0.22759615953E+04  0.00000000000E+00 0. -1.
         -2   -1    0    0    0  501 -0.00000000000E+00 -0.00000000000E+00 -0.23502039746E+02  0.23502039746E+02  0.00000000000E+00 0.  1.
         23    2    1    2    0    0 -0.15583145712E+03  0.79593727349E+02  0.16821759739E+04  0.16958660564E+04  0.12500827835E+03 0.  0.
          5    1    3    3  502    0 -0.14286019261E+03  0.69520676381E+02  0.16613237019E+04  0.16689100310E+04  0.47000000000E+01 0.  1.
         -5    1    3    3    0  502 -0.12971264506E+02  0.10073050968E+02  0.20852272029E+02  0.26956025439E+02  0.47000000000E+01 0.  1.
        -11    1    1    2    0    0  0.70774701268E+02 -0.86507988295E+02  0.34728795100E+03  0.36483093521E+03  0.00000000000E+00 0.  1.
         11    1    1    2    0    0  0.85056755847E+02  0.69142609461E+01  0.22299563061E+03  0.23876664338E+03  0.00000000000E+00 0. -1.
<mgrwt>
<rscale>  0 0.21058771E+03</rscale>
<asrwt>0</asrwt>
<pdfrwt beam="1">  1        2 0.35014776E+00 0.21504807E+03</pdfrwt>
<pdfrwt beam="2">  1       -2 0.36157002E-02 0.21504807E+03</pdfrwt>
<totfact> 0.17066412E+03</totfact>
</mgrwt>
</event>
<event>
 7    1  0.6419647E-006  0.1474774E+03  0.7546771E-02  0.1213481E+00
         -2   -1    0    0    0  501 -0.00000000000E+00  0.00000000000E+00  0.49723225811E+02  0.49723225811E+02  0.00000000000E+00 0.  1.
          2   -1    0    0  501    0  0.00000000000E+00 -0.00000000000E+00 -0.39871663905E+03  0.39871663905E+03  0.00000000000E+00 0. -1.
         23    2    1    2    0    0 -0.67949516858E+01  0.77997929536E+02 -0.26224762445E+03  0.30087108045E+03  0.12497896679E+03 0.  0.
          5    1    3    3  502    0  0.54735368206E+02  0.43352400288E+02 -0.17536589740E+03  0.18881387426E+03  0.47000000000E+01 0.  1.
         -5    1    3    3    0  502 -0.61530319891E+02  0.34645529248E+02 -0.86881727046E+02  0.11205720618E+03  0.47000000000E+01 0.  1.
        -11    1    1    2    0    0 -0.68452445825E+00 -0.48598911417E+02  0.69375777672E+01  0.49096361881E+02  0.00000000000E+00 0.  1.
         11    1    1    2    0    0  0.74794761440E+01 -0.29399018119E+02 -0.93683366557E+02  0.98472422531E+02  0.00000000000E+00 0. -1.
<mgrwt>
<rscale>  0 0.13988706E+03</rscale>
<asrwt>0</asrwt>
<pdfrwt beam="2">  1        2 0.61341018E-01 0.14747742E+03</pdfrwt>
<pdfrwt beam="1">  1       -2 0.76497275E-02 0.14747742E+03</pdfrwt>
<totfact> 0.77915605E+03</totfact>
</mgrwt>
</event>
<event>
 7    1  0.6419647E-006  0.1325626E+03  0.7546771E-02  0.1237595E+00
         -3   -1    0    0    0  501 -0.00000000000E+00  0.00000000000E+00  0.19722779573E+03  0.19722779573E+03  0.00000000000E+00 0. -1.
          3   -1    0    0  501    0  0.00000000000E+00 -0.00000000000E+00 -0.68766536694E+02  0.68766536694E+02  0.00000000000E+00 0.  1.
         23    2    1    2    0    0 -0.43660028990E+02 -0.63921221930E+01  0.62245598408E+02  0.14644917492E+03  0.12500315579E+03 0.  0.
          5    1    3    3  502    0 -0.26454623702E+02  0.17044989720E+02  0.96302909284E+02  0.10142346438E+03  0.47000000000E+01 0.  1.
         -5    1    3    3    0  502 -0.17205405288E+02 -0.23437111913E+02 -0.34057310876E+02  0.45025710545E+02  0.47000000000E+01 0.  1.
        -11    1    1    2    0    0  0.65654922826E+02 -0.13249358884E+02  0.31559925680E+02  0.74041497224E+02  0.00000000000E+00 0.  1.
         11    1    1    2    0    0 -0.21994893837E+02  0.19641481077E+02  0.34655734946E+02  0.45503660275E+02  0.00000000000E+00 0. -1.
<mgrwt>
<rscale>  0 0.12339740E+03</rscale>
<asrwt>0</asrwt>
<pdfrwt beam="2">  1        3 0.10579467E-01 0.13256261E+03</pdfrwt>
<pdfrwt beam="1">  1       -3 0.30342738E-01 0.13256261E+03</pdfrwt>
<totfact> 0.16147412E+03</totfact>
</mgrwt>
</event>
<event>
 6    1  0.6419647E-006  0.1543914E+03  0.7546771E-02  0.1209773E+00
         -1   -1    0    0    0  501 -0.00000000000E+00  0.00000000000E+00  0.32324974308E+03  0.32324974308E+03  0.00000000000E+00 0.  1.
          1   -1    0    0  501    0  0.00000000000E+00 -0.00000000000E+00 -0.70674286885E+02  0.70674286885E+02  0.00000000000E+00 0. -1.
          5    1    1    2  502    0  0.51921061597E+02 -0.59126213014E+02 -0.13710761659E+02  0.80011128526E+02  0.47000000000E+01 0. -1.
         -5    1    1    2    0  502  0.21123313134E+02  0.47164173985E+02  0.63936264909E+02  0.82344335785E+02  0.47000000000E+01 0.  1.
        -11    1    1    2    0    0  0.95656322592E+01  0.64799864061E+01 -0.14017018192E+01  0.11638570029E+02  0.00000000000E+00 0. -1.
         11    1    1    2    0    0 -0.82610006990E+02  0.54820526228E+01  0.20375165476E+03  0.21992999562E+03  0.00000000000E+00 0.  1.
<mgrwt>
<rscale>  0 0.14267594E+03</rscale>
<asrwt>0</asrwt>
<pdfrwt beam="2">  1        1 0.10872967E-01 0.15439137E+03</pdfrwt>
<pdfrwt beam="1">  1       -1 0.49730729E-01 0.15439137E+03</pdfrwt>
<totfact> 0.23188812E+03</totfact>
</mgrwt>
</event>
<event>
 7    1  0.6419647E-006  0.1505318E+03  0.7546771E-02  0.1209245E+00
         -3   -1    0    0    0  501 -0.00000000000E+00  0.00000000000E+00  0.10373935180E+03  0.10373935180E+03  0.00000000000E+00 0.  1.
          3   -1    0    0  501    0  0.00000000000E+00 -0.00000000000E+00 -0.18046479620E+03  0.18046479620E+03  0.00000000000E+00 0. -1.
         23    2    1    2    0    0  0.66309701323E+02  0.51360861639E+02 -0.48364250378E+02  0.15811043178E+03  0.12499957330E+03 0.  0.
          5    1    3    3  502    0  0.69389025802E+02 -0.12966525118E+02 -0.59676718519E+02  0.92554677940E+02  0.47000000000E+01 0.  1.
         -5    1    3    3    0  502 -0.30793244795E+01  0.64327386757E+02  0.11312468141E+02  0.65555753841E+02  0.47000000000E+01 0.  1.
        -11    1    1    2    0    0 -0.31398297706E+02  0.21982880891E+02  0.42487541273E+01  0.38563610603E+02  0.00000000000E+00 0.  1.
         11    1    1    2    0    0 -0.34911403616E+02 -0.73343742530E+02 -0.32609948143E+02  0.87530105613E+02  0.00000000000E+00 0. -1.
<mgrwt>
<rscale>  0 0.14307910E+03</rscale>
<asrwt>0</asrwt>
<pdfrwt beam="2">  1        3 0.27763815E-01 0.15053175E+03</pdfrwt>
<pdfrwt beam="1">  1       -3 0.15959900E-01 0.15053175E+03</pdfrwt>
<totfact> 0.96874555E+02</totfact>
</mgrwt>
</event>
<event>
 7    1  0.6419647E-006  0.1677986E+03  0.7546771E-02  0.1186042E+00
         -2   -1    0    0    0  501 -0.00000000000E+00  0.00000000000E+00  0.34237483129E+02  0.34237483129E+02  0.00000000000E+00 0.  1.
          2   -1    0    0  501    0  0.00000000000E+00 -0.00000000000E+00 -0.95143928855E+03  0.95143928855E+03  0.00000000000E+00 0. -1.
         23    2    1    2    0    0 -0.56009434185E+02  0.96925973496E+02 -0.72196228065E+03  0.74120570373E+03  0.12499863803E+03 0.  0.
          5    1    3    3  502    0 -0.68969035813E+02  0.70151669891E+02 -0.69110925902E+03  0.69809174367E+03  0.47000000000E+01 0.  1.
         -5    1    3    3    0  502  0.12959601628E+02  0.26774303605E+02 -0.30853021630E+02  0.43113960055E+02  0.47000000000E+01 0.  1.
        -11    1    1    2    0    0  0.58076688158E+02 -0.29539247921E+02 -0.14927190781E+03  0.16287286863E+03  0.00000000000E+00 0. -1.
         11    1    1    2    0    0 -0.20672539733E+01 -0.67386725575E+02 -0.45967616967E+02  0.81598199320E+02  0.00000000000E+00 0.  1.
<mgrwt>
<rscale>  0 0.16237437E+03</rscale>
<asrwt>0</asrwt>
<pdfrwt beam="2">  1        2 0.14637525E+00 0.16779857E+03</pdfrwt>
<pdfrwt beam="1">  1       -2 0.52673061E-02 0.16779857E+03</pdfrwt>
<totfact> 0.50035864E+03</totfact>
</mgrwt>
</event>
<event>
 7    1  0.6419647E-006  0.1495293E+03  0.7546771E-02  0.1210756E+00
          4   -1    0    0  501    0  0.00000000000E+00  0.00000000000E+00  0.40095623084E+03  0.40095623084E+03  0.00000000000E+00 0. -1.
         -4   -1    0    0    0  501 -0.00000000000E+00 -0.00000000000E+00 -0.86057987878E+02  0.86057987878E+02  0.00000000000E+00 0.  1.
         23    2    1    2    0    0  0.43499498311E+02  0.69584055436E+02  0.33230831275E+03  0.36440063088E+03  0.12499943176E+03 0.  0.
          5    1    3    3  502    0 -0.18981510678E+02 -0.26931806703E+02  0.95081286375E+02  0.10073808107E+03  0.47000000000E+01 0.  1.
         -5    1    3    3    0  502  0.62481008988E+02  0.96515862138E+02  0.23722702638E+03  0.26366254981E+03  0.47000000000E+01 0.  1.
        -11    1    1    2    0    0 -0.52064943273E+02 -0.25705984894E+02 -0.41932616089E+02  0.71623322106E+02  0.00000000000E+00 0.  1.
         11    1    1    2    0    0  0.85654449629E+01 -0.43878070541E+02  0.24522546297E+02  0.50990265725E+02  0.00000000000E+00 0. -1.
<mgrwt>
<rscale>  0 0.14192982E+03</rscale>
<asrwt>0</asrwt>
<pdfrwt beam="1">  1        4 0.61685573E-01 0.14952928E+03</pdfrwt>
<pdfrwt beam="2">  1       -4 0.13239691E-01 0.14952928E+03</pdfrwt>
<totfact> 0.19916041E+02</totfact>
</mgrwt>
</event>
<event>
 6    1  0.6419647E-006  0.1991103E+03  0.7546771E-02  0.1161310E+00
         -2   -1    0    0    0  501 -0.00000000000E+00  0.00000000000E+00  0.23867250247E+03  0.23867250247E+03  0.00000000000E+00 0.  1.
          2   -1    0    0  501    0  0.00000000000E+00 -0.00000000000E+00 -0.13124154387E+03  0.13124154387E+03  0.00000000000E+00 0. -1.
          5    1    1    2  502    0 -0.44225416002E+01 -0.21060900095E+02 -0.47591591581E+02  0.52442063043E+02  0.47000000000E+01 0. -1.
         -5    1    1    2    0  502  0.80290604280E+02 -0.84277597652E+02  0.99799024612E+02  0.15339892410E+03  0.47000000000E+01 0.  1.
        -11    1    1    2    0    0 -0.44884604115E+01 -0.14408100504E+02  0.51304105903E+01  0.15939283229E+02  0.00000000000E+00 0.  1.
         11    1    1    2    0    0 -0.71379602269E+02  0.11974659825E+03  0.50093114982E+02  0.14813377596E+03  0.00000000000E+00 0. -1.
<mgrwt>
<rscale>  0 0.18687557E+03</rscale>
<asrwt>0</asrwt>
<pdfrwt beam="2">  1        2 0.20191007E-01 0.19911026E+03</pdfrwt>
<pdfrwt beam="1">  1       -2 0.36718846E-01 0.19911026E+03</pdfrwt>
<totfact> 0.19021646E+03</totfact>
</mgrwt>
</event>
<event>
 7    1  0.6419647E-006  0.1310509E+03  0.7546771E-02  0.1239236E+00
          1   -1    0    0  501    0  0.00000000000E+00  0.00000000000E+00  0.19048110462E+03  0.19048110462E+03  0.00000000000E+00 0. -1.
         -1   -1    0    0    0  501 -0.00000000000E+00 -0.00000000000E+00 -0.70066793151E+02  0.70066793151E+02  0.00000000000E+00 0.  1.
         23    2    1    2    0    0 -0.28021231576E+02 -0.27626929925E+02  0.75689014542E+02  0.15133793518E+03  0.12500362805E+03 0.  0.
          5    1    3    3  502    0  0.31683682417E+02 -0.49053333529E+02  0.91633528112E+01  0.59297068195E+02  0.47000000000E+01 0.  1.
         -5    1    3    3    0  502 -0.59704913993E+02  0.21426403604E+02  0.66525661731E+02  0.92040866984E+02  0.47000000000E+01 0.  1.
        -11    1    1    2    0    0 -0.19078134723E+02 -0.87403136357E+01 -0.14300908737E+02  0.25394572209E+02  0.00000000000E+00 0.  1.
         11    1    1    2    0    0  0.47099366299E+02  0.36367243560E+02  0.59026205664E+02  0.83815390383E+02  0.00000000000E+00 0. -1.
<mgrwt>
<rscale>  0 0.12237124E+03</rscale>
<asrwt>0</asrwt>
<pdfrwt beam="1">  1        1 0.29304785E-01 0.13105092E+03</pdfrwt>
<pdfrwt beam="2">  1       -1 0.10779507E-01 0.13105092E+03</pdfrwt>
<totfact> 0.79893888E+03</totfact>
</mgrwt>
</event>
<event>
 7    1  0.6419647E-006  0.2663605E+03  0.7546771E-02  0.1106173E+00
         -1   -1    0    0    0  501 -0.00000000000E+00  0.00000000000E+00  0.69510110150E+02  0.69510110150E+02  0.00000000000E+00 0.  1.
          1   -1    0    0  501    0  0.00000000000E+00 -0.00000000000E+00 -0.10095114712E+04  0.10095114712E+04  0.00000000000E+00 0. -1.
         23    2    1    2    0    0  0.32165445095E+01 -0.23518753692E+03 -0.61550853684E+03  0.67067031744E+03  0.12499756833E+03 0.  0.
          5    1    3    3  502    0  0.79928743787E+01 -0.21159699218E+02 -0.21742543652E+03  0.21864932965E+03  0.47000000000E+01 0.  1.
         -5    1    3    3    0  502 -0.47763298692E+01 -0.21402783770E+03 -0.39808310032E+03  0.45202098778E+03  0.47000000000E+01 0.  1.
        -11    1    1    2    0    0 -0.38975221771E+02  0.11599202956E+03 -0.14174394853E+03  0.18725534913E+03  0.00000000000E+00 0.  1.
         11    1    1    2    0    0  0.35758677261E+02  0.11919550736E+03 -0.18274887572E+03  0.22109591482E+03  0.00000000000E+00 0. -1.
<mgrwt>
<rscale>  0 0.26162074E+03</rscale>
<asrwt>0</asrwt>
<pdfrwt beam="2">  1        1 0.15530945E+00 0.26636050E+03</pdfrwt>
<pdfrwt beam="1">  1       -1 0.10693864E-01 0.26636050E+03</pdfrwt>
<totfact> 0.86546247E+02</totfact>
</mgrwt>
</event>
<event>
 7    1  0.6419647E-006  0.1427274E+03  0.7546771E-02  0.1220256E+00
         -2   -1    0    0    0  501 -0.00000000000E+00  0.00000000000E+00  0.22968157800E+02  0.22968157800E+02  0.00000000000E+00 0.  1.
          2   -1    0    0  501    0  0.00000000000E+00 -0.00000000000E+00 -0.72002094936E+03  0.72002094936E+03  0.00000000000E+00 0. -1.
         23    2    1    2    0    0  0.68038676578E+02 -0.97016203481E+01 -0.40556013482E+03  0.42994202499E+03  0.12509092272E+03 0.  0.
          5    1    3    3  502    0 -0.27189618931E+02  0.24964987673E+02 -0.15960470794E+03  0.16388495594E+03  0.47000000000E+01 0.  1.
         -5    1    3    3    0  502  0.95228295509E+02 -0.34666608021E+02 -0.24595542688E+03  0.26605706904E+03  0.47000000000E+01 0.  1.
        -11    1    1    2    0    0 -0.86559605270E+02 -0.65176900732E+01 -0.25176944948E+03  0.26631353934E+03  0.00000000000E+00 0.  1.
         11    1    1    2    0    0  0.18520928691E+02  0.16219310421E+02 -0.39723207263E+02  0.46733542829E+02  0.00000000000E+00 0. -1.
<mgrwt>
<rscale>  0 0.13497420E+03</rscale>
<asrwt>0</asrwt>
<pdfrwt beam="2">  1        2 0.11077245E+00 0.14272744E+03</pdfrwt>
<pdfrwt beam="1">  1       -2 0.35335628E-02 0.14272744E+03</pdfrwt>
<totfact> 0.12849397E+04</totfact>
</mgrwt>
</event>
<event>
 7    1  0.6419647E-006  0.1360998E+03  0.7546771E-02  0.1231428E+00
          2   -1    0    0  501    0  0.00000000000E+00  0.00000000000E+00  0.25118933074E+03  0.25118933074E+03  0.00000000000E+00 0. -1.
         -2   -1    0    0    0  501 -0.00000000000E+00 -0.00000000000E+00 -0.63060959332E+02  0.63060959332E+02  0.00000000000E+00 0.  1.
         23    2    1    2    0    0 -0.14836352501E+02 -0.51722713871E+02  0.15148082084E+03  0.20364084710E+03  0.12501119566E+03 0.  0.
          5    1    3    3  502    0 -0.68815988361E+02 -0.23027803711E+02  0.99611682289E+02  0.12333084467E+03  0.47000000000E+01 0. -1.
         -5    1    3    3    0  502  0.53979635860E+02 -0.28694910160E+02  0.51869138555E+02  0.80310002435E+02  0.47000000000E+01 0. -1.
        -11    1    1    2    0    0 -0.37105519948E+02  0.12846013851E+02  0.10387657628E+02  0.40617029846E+02  0.00000000000E+00 0. -1.
         11    1    1    2    0    0  0.51941872449E+02  0.38876700019E+02  0.26259892936E+02  0.69992413124E+02  0.00000000000E+00 0.  1.
<mgrwt>
<rscale>  0 0.12735870E+03</rscale>
<asrwt>0</asrwt>
<pdfrwt beam="1">  1        2 0.38644512E-01 0.13609980E+03</pdfrwt>
<pdfrwt beam="2">  1       -2 0.97016862E-02 0.13609980E+03</pdfrwt>
<totfact> 0.87545068E+03</totfact>
</mgrwt>
</event>
<event>
 7    1  0.6419647E-006  0.3176859E+03  0.7546771E-02  0.1078202E+00
         -2   -1    0    0    0  501 -0.00000000000E+00  0.00000000000E+00  0.42685146346E+02  0.42685146346E+02  0.00000000000E+00 0.  1.
          2   -1    0    0  501    0  0.00000000000E+00 -0.00000000000E+00 -0.23790318464E+04  0.23790318464E+04  0.00000000000E+00 0. -1.
         23    2    1    2    0    0  0.14491259430E+03 -0.25358303073E+03 -0.14469890096E+04  0.14814525115E+04  0.12498134555E+03 0.  0.
          5    1    3    3  502    0  0.11052034478E+03 -0.17664107785E+03 -0.12482577831E+04  0.12655379884E+04  0.47000000000E+01 0. -1.
         -5    1    3    3    0  502  0.34392249520E+02 -0.76941952881E+02 -0.19873122643E+03  0.21591452313E+03  0.47000000000E+01 0. -1.
        -11    1    1    2    0    0 -0.97856762000E+01  0.79322266844E+02 -0.16967180932E+03  0.18755347065E+03  0.00000000000E+00 0.  1.
         11    1    1    2    0    0 -0.13512691810E+03  0.17426076389E+03 -0.71968588115E+03  0.75271101052E+03  0.00000000000E+00 0. -1.
<mgrwt>
<rscale>  0 0.31451447E+03</rscale>
<asrwt>0</asrwt>
<pdfrwt beam="2">  1        2 0.36600485E+00 0.31768593E+03</pdfrwt>
<pdfrwt beam="1">  1       -2 0.65669464E-02 0.31768593E+03</pdfrwt>
<totfact> 0.59615377E+02</totfact>
</mgrwt>
</event>
<event>
 7    1  0.6419647E-006  0.1345498E+03  0.7546771E-02  0.1235493E+00
         -2   -1    0    0    0  501 -0.00000000000E+00  0.00000000000E+00  0.11649763291E+02  0.11649763291E+02  0.00000000000E+00 0.  1.
          2   -1    0    0  501    0  0.00000000000E+00 -0.00000000000E+00 -0.13353511799E+04  0.13353511799E+04  0.00000000000E+00 0. -1.
         23    2    1    2    0    0 -0.34769214514E+02  0.35639200877E+02 -0.98104433530E+03  0.99022807267E+03  0.12499838863E+03 0.  0.
          5    1    3    3  502    0 -0.20085065259E+02 -0.42718025848E+02 -0.53432600721E+03  0.53642763869E+03  0.47000000000E+01 0. -1.
         -5    1    3    3    0  502 -0.14684149255E+02  0.78357226726E+02 -0.44671832810E+03  0.45380043398E+03  0.47000000000E+01 0. -1.
        -11    1    1    2    0    0 -0.75806095208E+01 -0.46118098853E+02 -0.25035113474E+03  0.25467633449E+03  0.00000000000E+00 0.  1.
         11    1    1    2    0    0  0.42349824035E+02  0.10478897976E+02 -0.92305946589E+02  0.10209653605E+03  0.00000000000E+00 0. -1.
<mgrwt>
<rscale>  0 0.12472929E+03</rscale>
<asrwt>0</asrwt>
<pdfrwt beam="2">  1        2 0.20543869E+00 0.13454980E+03</pdfrwt>
<pdfrwt beam="1">  1       -2 0.17922709E-02 0.13454980E+03</pdfrwt>
<totfact> 0.14710903E+04</totfact>
</mgrwt>
</event>
<event>
 7    1  0.6419647E-006  0.1304475E+03  0.7546771E-02  0.1239273E+00
         -2   -1    0    0    0  501 -0.00000000000E+00  0.00000000000E+00  0.19114364497E+02  0.19114364497E+02  0.00000000000E+00 0.  1.
          2   -1    0    0  501    0  0.00000000000E+00 -0.00000000000E+00 -0.70771049449E+03  0.70771049449E+03  0.00000000000E+00 0. -1.
         23    2    1    2    0    0 -0.38199671291E+01  0.37110770430E+02 -0.35080264600E+03  0.37427135679E+03  0.12499900254E+03 0.  0.
          5    1    3    3  502    0  0.25859035790E+02  0.72769730583E+02 -0.27115140117E+03  0.28197392747E+03  0.47000000000E+01 0.  1.
         -5    1    3    3    0  502 -0.29679002919E+02 -0.35658960152E+02 -0.79651244839E+02  0.92297429313E+02  0.47000000000E+01 0.  1.
        -11    1    1    2    0    0 -0.34771183093E+02  0.82811984315E+01 -0.74877836273E+02  0.82971704732E+02  0.00000000000E+00 0.  1.
         11    1    1    2    0    0  0.38591150222E+02 -0.45391968862E+02 -0.26291564771E+03  0.26958179747E+03  0.00000000000E+00 0. -1.
<mgrwt>
<rscale>  0 0.12234779E+03</rscale>
<asrwt>0</asrwt>
<pdfrwt beam="2">  1        2 0.10887855E+00 0.13044751E+03</pdfrwt>
<pdfrwt beam="1">  1       -2 0.29406712E-02 0.13044751E+03</pdfrwt>
<totfact> 0.17082924E+04</totfact>
</mgrwt>
</event>
<event>
 7    1  0.6419647E-006  0.1266442E+03  0.7546771E-02  0.1242354E+00
          2   -1    0    0  501    0  0.00000000000E+00  0.00000000000E+00  0.11458594636E+04  0.11458594636E+04  0.00000000000E+00 0. -1.
         -2   -1    0    0    0  501 -0.00000000000E+00 -0.00000000000E+00 -0.20997758954E+02  0.20997758954E+02  0.00000000000E+00 0.  1.
         23    2    1    2    0    0  0.41482120525E+02 -0.23715931798E+02  0.98327112769E+03  0.99139340021E+03  0.11728406411E+03 0.  0.
          5    1    3    3  502    0  0.47016649799E+02 -0.35889099313E+02  0.97050677944E+03  0.97231892492E+03  0.47000000000E+01 0. -1.
         -5    1    3    3    0  502 -0.55345292742E+01  0.12173167515E+02  0.12764348246E+02  0.19074475295E+02  0.47000000000E+01 0.  1.
        -11    1    1    2    0    0 -0.14603857802E+02  0.30923660948E+02  0.32506345969E+01  0.34352759634E+02  0.00000000000E+00 0.  1.
         11    1    1    2    0    0 -0.26878262722E+02 -0.72077291502E+01  0.13833994233E+03  0.14111106268E+03  0.00000000000E+00 0. -1.
<mgrwt>
<rscale>  0 0.12045169E+03</rscale>
<asrwt>0</asrwt>
<pdfrwt beam="1">  1        2 0.17628602E+00 0.12664424E+03</pdfrwt>
<pdfrwt beam="2">  1       -2 0.32304254E-02 0.12664424E+03</pdfrwt>
<totfact> 0.78843024E+03</totfact>
</mgrwt>
</event>
<event>
 7    1  0.6419647E-006  0.1732539E+03  0.7546771E-02  0.1181106E+00
          1   -1    0    0  501    0  0.00000000000E+00  0.00000000000E+00  0.27790776201E+03  0.27790776201E+03  0.00000000000E+00 0. -1.
         -1   -1    0    0    0  501 -0.00000000000E+00 -0.00000000000E+00 -0.13174446122E+03  0.13174446122E+03  0.00000000000E+00 0.  1.
         23    2    1    2    0    0  0.54124675449E+02  0.10706195633E+03  0.18699267792E+03  0.25491797131E+03  0.12500067005E+03 0.  0.
          5    1    3    3  502    0 -0.19877773288E+02 -0.18356359215E+02  0.26677228020E+02  0.38286372110E+02  0.47000000000E+01 0.  1.
         -5    1    3    3    0  502  0.74002448736E+02  0.12541831555E+03  0.16031544990E+03  0.21663159920E+03  0.47000000000E+01 0.  1.
        -11    1    1    2    0    0 -0.23394909435E+02 -0.17713684099E+02  0.25836735450E+02  0.39097740223E+02  0.00000000000E+00 0. -1.
         11    1    1    2    0    0 -0.30729766014E+02 -0.89348272236E+02 -0.66666112582E+02  0.11563651170E+03  0.00000000000E+00 0.  1.
<mgrwt>
<rscale>  0 0.16691334E+03</rscale>
<asrwt>0</asrwt>
<pdfrwt beam="1">  1        1 0.42755040E-01 0.17325389E+03</pdfrwt>
<pdfrwt beam="2">  1       -1 0.20268379E-01 0.17325389E+03</pdfrwt>
<totfact> 0.18792054E+03</totfact>
</mgrwt>
</event>
<event>
 7    1  0.6419647E-006  0.1485879E+03  0.7546771E-02  0.1211902E+00
          2   -1    0    0  501    0  0.00000000000E+00  0.00000000000E+00  0.22156089649E+03  0.22156089649E+03  0.00000000000E+00 0. -1.
         -2   -1    0    0    0  501 -0.00000000000E+00 -0.00000000000E+00 -0.95528112971E+02  0.95528112971E+02  0.00000000000E+00 0.  1.
         23    2    1    2    0    0  0.67027425923E+02  0.44275027562E+02  0.12836593606E+03  0.19635724877E+03  0.12500160684E+03 0.  0.
          5    1    3    3  502    0  0.19021878903E+02  0.12550843338E+02 -0.23995257257E+02  0.33424809892E+02  0.47000000000E+01 0.  1.
         -5    1    3    3    0  502  0.48005547020E+02  0.31724184224E+02  0.15236119332E+03  0.16293243888E+03  0.47000000000E+01 0.  1.
        -11    1    1    2    0    0  0.69591088174E+01 -0.45634019790E+02  0.46950003811E+01  0.46399741231E+02  0.00000000000E+00 0.  1.
         11    1    1    2    0    0 -0.73986534741E+02  0.13589922279E+01 -0.70281529278E+01  0.74332019456E+02  0.00000000000E+00 0. -1.
<mgrwt>
<rscale>  0 0.14106609E+03</rscale>
<asrwt>0</asrwt>
<pdfrwt beam="1">  1        2 0.34086292E-01 0.14858787E+03</pdfrwt>
<pdfrwt beam="2">  1       -2 0.14696633E-01 0.14858787E+03</pdfrwt>
<totfact> 0.51845171E+03</totfact>
</mgrwt>
</event>
<event>
 7    1  0.6419647E-006  0.1585862E+03  0.7546771E-02  0.1197860E+00
          1   -1    0    0  501    0  0.00000000000E+00  0.00000000000E+00  0.28892920566E+03  0.28892920566E+03  0.00000000000E+00 0. -1.
         -1   -1    0    0    0  501 -0.00000000000E+00 -0.00000000000E+00 -0.75362706860E+02  0.75362706860E+02  0.00000000000E+00 0.  1.
         23    2    1    2    0    0  0.36702028182E+02 -0.90428555618E+02  0.93440547667E+02  0.18406717240E+03  0.12500090185E+03 0.  0.
          5    1    3    3  502    0  0.45213338980E+02 -0.11014934468E+03  0.10535763691E+03  0.15905799511E+03  0.47000000000E+01 0.  1.
         -5    1    3    3    0  502 -0.85113107981E+01  0.19720789059E+02 -0.11917089239E+02  0.25009177287E+02  0.47000000000E+01 0.  1.
        -11    1    1    2    0    0 -0.16817562294E+02  0.75462490959E+02  0.24035491261E+02  0.80963712758E+02  0.00000000000E+00 0.  1.
         11    1    1    2    0    0 -0.19884465887E+02  0.14966064659E+02  0.96090459867E+02  0.99261027359E+02  0.00000000000E+00 0. -1.
<mgrwt>
<rscale>  0 0.15214612E+03</rscale>
<asrwt>0</asrwt>
<pdfrwt beam="1">  1        1 0.44450647E-01 0.15858622E+03</pdfrwt>
<pdfrwt beam="2">  1       -1 0.11594263E-01 0.15858622E+03</pdfrwt>
<totfact> 0.43096908E+03</totfact>
</mgrwt>
</event>
<event>
 7    1  0.6419647E-006  0.3055512E+03  0.7546771E-02  0.1084177E+00
         -1   -1    0    0    0  501 -0.00000000000E+00  0.00000000000E+00  0.13744574856E+03  0.13744574856E+03  0.00000000000E+00 0.  1.
          1   -1    0    0  501    0  0.00000000000E+00 -0.00000000000E+00 -0.70125423241E+03  0.70125423241E+03  0.00000000000E+00 0. -1.
         23    2    1    2    0    0 -0.21949971077E+03 -0.17192041022E+03 -0.17413133483E+03  0.35168632794E+03  0.12499920404E+03 0.  0.
          5    1    3    3  502    0 -0.89808582537E+01  0.18554280245E+02 -0.17274987936E+02  0.27302606809E+02  0.47000000000E+01 0. -1.
         -5    1    3    3    0  502 -0.21051885251E+03 -0.19047469047E+03 -0.15685634690E+03  0.32438372113E+03  0.47000000000E+01 0. -1.
        -11    1    1    2    0    0  0.36851219240E+02  0.64529683821E+02 -0.14800383253E+03  0.16561167500E+03  0.00000000000E+00 0. -1.
         11    1    1    2    0    0  0.18264849153E+03  0.10739072640E+03 -0.24167331649E+03  0.32140197802E+03  0.00000000000E+00 0.  1.
<mgrwt>
<rscale>  0 0.30213657E+03</rscale>
<asrwt>0</asrwt>
<pdfrwt beam="2">  1        1 0.10788527E+00 0.30555123E+03</pdfrwt>
<pdfrwt beam="1">  1       -1 0.21145500E-01 0.30555123E+03</pdfrwt>
<totfact> 0.51887629E+02</totfact>
</mgrwt>
</event>
<event>
 7    1  0.6419647E-006  0.1572900E+03  0.7546771E-02  0.1199860E+00
         -1   -1    0    0    0  501 -0.00000000000E+00  0.00000000000E+00  0.47508384569E+03  0.47508384569E+03  0.00000000000E+00 0.  1.
          1   -1    0    0  501    0  0.00000000000E+00 -0.00000000000E+00 -0.50414319556E+02  0.50414319556E+02  0.00000000000E+00 0. -1.
         23    2    1    2    0    0 -0.10362525484E+02  0.94905497819E+02  0.13516434304E+03  0.20738742577E+03  0.12500283712E+03 0.  0.
          5    1    3    3  502    0 -0.35914503403E+02 -0.70141866608E+01  0.99681371427E+00  0.36907099680E+02  0.47000000000E+01 0. -1.
         -5    1    3    3    0  502  0.25551977919E+02  0.10191968448E+03  0.13416752932E+03  0.17048032609E+03  0.47000000000E+01 0. -1.
        -11    1    1    2    0    0  0.41069102438E+02 -0.15744601598E+02  0.69037653930E+02  0.81858178056E+02  0.00000000000E+00 0. -1.
         11    1    1    2    0    0 -0.30706576954E+02 -0.79160896221E+02  0.22046752916E+03  0.23625256141E+03  0.00000000000E+00 0.  1.
<mgrwt>
<rscale>  0 0.15049975E+03</rscale>
<asrwt>0</asrwt>
<pdfrwt beam="2">  1        1 0.77560495E-02 0.15729000E+03</pdfrwt>
<pdfrwt beam="1">  1       -1 0.73089819E-01 0.15729000E+03</pdfrwt>
<totfact> 0.17468106E+03</totfact>
</mgrwt>
</event>
<event>
 7    1  0.6419647E-006  0.1559398E+03  0.7546771E-02  0.1201775E+00
          1   -1    0    0  501    0  0.00000000000E+00  0.00000000000E+00  0.71077357238E+03  0.71077357238E+03  0.00000000000E+00 0. -1.
         -1   -1    0    0    0  501 -0.00000000000E+00 -0.00000000000E+00 -0.30143574174E+02  0.30143574174E+02  0.00000000000E+00 0.  1.
         23    2    1    2    0    0  0.37886799253E+02 -0.85873294519E+02  0.45030568346E+03  0.47654215964E+03  0.12452947080E+03 0.  0.
          5    1    3    3  502    0  0.11510043562E+02 -0.39973855103E+02  0.40367107137E+03  0.40583594476E+03  0.47000000000E+01 0.  1.
         -5    1    3    3    0  502  0.26376755690E+02 -0.45899439417E+02  0.46634612083E+02  0.70706214887E+02  0.47000000000E+01 0.  1.
        -11    1    1    2    0    0 -0.25174926221E+02  0.59818000612E-02  0.12679904583E+03  0.12927403053E+03  0.00000000000E+00 0. -1.
         11    1    1    2    0    0 -0.12711873032E+02  0.85867312719E+02  0.10352526893E+03  0.13510095638E+03  0.00000000000E+00 0.  1.
<mgrwt>
<rscale>  0 0.14894506E+03</rscale>
<asrwt>0</asrwt>
<pdfrwt beam="1">  1        1 0.10934977E+00 0.15593980E+03</pdfrwt>
<pdfrwt beam="2">  1       -1 0.46374735E-02 0.15593980E+03</pdfrwt>
<totfact> 0.52965956E+03</totfact>
</mgrwt>
</event>
<event>
 7    1  0.6419647E-006  0.1927285E+03  0.7546771E-02  0.1160644E+00
         -2   -1    0    0    0  501 -0.00000000000E+00  0.00000000000E+00  0.33159136942E+02  0.33159136942E+02  0.00000000000E+00 0.  1.
          2   -1    0    0  501    0  0.00000000000E+00 -0.00000000000E+00 -0.10281049828E+04  0.10281049828E+04  0.00000000000E+00 0. -1.
         23    2    1    2    0    0  0.14631363581E+03  0.10875831143E+02 -0.59682567258E+03  0.62717235968E+03  0.12497328342E+03 0.  0.
          5    1    3    3  502    0  0.67066289555E+02 -0.50218759973E+02 -0.36687043853E+03  0.37634534635E+03  0.47000000000E+01 0.  1.
         -5    1    3    3    0  502  0.79247346252E+02  0.61094591117E+02 -0.22995523405E+03  0.25082701333E+03  0.47000000000E+01 0.  1.
        -11    1    1    2    0    0 -0.13056442669E+02 -0.20582198035E+02 -0.15674832925E+02  0.28979267733E+02  0.00000000000E+00 0.  1.
         11    1    1    2    0    0 -0.13325719314E+03  0.97063668921E+01 -0.38244534031E+03  0.40511249228E+03  0.00000000000E+00 0. -1.
<mgrwt>
<rscale>  0 0.18760037E+03</rscale>
<asrwt>0</asrwt>
<pdfrwt beam="2">  1        2 0.15817001E+00 0.19272853E+03</pdfrwt>
<pdfrwt beam="1">  1       -2 0.51014052E-02 0.19272853E+03</pdfrwt>
<totfact> 0.47386395E+03</totfact>
</mgrwt>
</event>
<event>
 7    1  0.6419647E-006  0.1604837E+03  0.7546771E-02  0.1195678E+00
          1   -1    0    0  501    0  0.00000000000E+00  0.00000000000E+00  0.21367156048E+04  0.21367156048E+04  0.00000000000E+00 0. -1.
         -1   -1    0    0    0  501 -0.00000000000E+00 -0.00000000000E+00 -0.24158096180E+02  0.24158096180E+02  0.00000000000E+00 0.  1.
         23    2    1    2    0    0  0.64284694523E+02 -0.77431222945E+02  0.19110805770E+04  0.19178070810E+04  0.12500764774E+03 0.  0.
          5    1    3    3  502    0  0.96913505502E+02 -0.29362265031E+02  0.13042480415E+04  0.13081817206E+04  0.47000000000E+01 0. -1.
         -5    1    3    3    0  502 -0.32628810978E+02 -0.48068957914E+02  0.60683253549E+03  0.60962536049E+03  0.47000000000E+01 0. -1.
        -11    1    1    2    0    0 -0.69306917254E+02  0.94454768638E+02  0.16342981892E+03  0.20108321116E+03  0.00000000000E+00 0.  1.
         11    1    1    2    0    0  0.50222227308E+01 -0.17023545693E+02  0.38047112640E+02  0.41983408739E+02  0.00000000000E+00 0. -1.
<mgrwt>
<rscale>  0 0.15396988E+03</rscale>
<asrwt>0</asrwt>
<pdfrwt beam="1">  1        1 0.32872533E+00 0.16048373E+03</pdfrwt>
<pdfrwt beam="2">  1       -1 0.37166319E-02 0.16048373E+03</pdfrwt>
<totfact> 0.76618182E+02</totfact>
</mgrwt>
</event>
<event>
 6    1  0.6419647E-006  0.1316290E+03  0.7546771E-02  0.1240936E+00
         -3   -1    0    0    0  501 -0.00000000000E+00  0.00000000000E+00  0.23105802057E+03  0.23105802057E+03  0.00000000000E+00 0.  1.
          3   -1    0    0  501    0  0.00000000000E+00 -0.00000000000E+00 -0.81724731797E+02  0.81724731797E+02  0.00000000000E+00 0. -1.
          5    1    1    2  502    0  0.74361051415E+02  0.21183517538E+02  0.10586326660E+02  0.78182272255E+02  0.47000000000E+01 0. -1.
         -5    1    1    2    0  502 -0.50546252006E+02 -0.71925188524E+01 -0.15402110935E+02  0.53534763851E+02  0.47000000000E+01 0.  1.
        -11    1    1    2    0    0  0.29580658735E+02  0.15417148572E+02  0.65132715063E+02  0.73177690677E+02  0.00000000000E+00 0. -1.
         11    1    1    2    0    0 -0.53395458144E+02 -0.29408147258E+02  0.89016357980E+02  0.10788802558E+03  0.00000000000E+00 0.  1.
<mgrwt>
<rscale>  0 0.12131978E+03</rscale>
<asrwt>0</asrwt>
<pdfrwt beam="2">  1        3 0.12573036E-01 0.13162897E+03</pdfrwt>
<pdfrwt beam="1">  1       -3 0.35547388E-01 0.13162897E+03</pdfrwt>
<totfact> 0.89891232E+02</totfact>
</mgrwt>
</event>
<event>
 7    1  0.6419647E-006  0.1861565E+03  0.7546771E-02  0.1166462E+00
         -2   -1    0    0    0  501 -0.00000000000E+00  0.00000000000E+00  0.16502306244E+03  0.16502306244E+03  0.00000000000E+00 0. -1.
          2   -1    0    0  501    0  0.00000000000E+00 -0.00000000000E+00 -0.37750881649E+03  0.37750881649E+03  0.00000000000E+00 0.  1.
         23    2    1    2    0    0  0.12444106341E+03  0.59533452452E+02 -0.30015323494E+03  0.35319427334E+03  0.12499768018E+03 0.  0.
          5    1    3    3  502    0  0.23031116751E+02  0.62347734421E+02 -0.19898650667E+03  0.20984611544E+03  0.47000000000E+01 0. -1.
         -5    1    3    3    0  502  0.10140994666E+03 -0.28142819689E+01 -0.10116672827E+03  0.14334815790E+03  0.47000000000E+01 0. -1.
        -11    1    1    2    0    0 -0.13792082297E+02 -0.68801230389E+01  0.62330090914E+02  0.64207459539E+02  0.00000000000E+00 0.  1.
         11    1    1    2    0    0 -0.11064898112E+03 -0.52653329413E+02  0.25337389976E+02  0.12513014605E+03  0.00000000000E+00 0. -1.
<mgrwt>
<rscale>  0 0.18139225E+03</rscale>
<asrwt>0</asrwt>
<pdfrwt beam="2">  1        2 0.58078279E-01 0.18615647E+03</pdfrwt>
<pdfrwt beam="1">  1       -2 0.25388164E-01 0.18615647E+03</pdfrwt>
<totfact> 0.11709907E+03</totfact>
</mgrwt>
</event>
<event>
 7    1  0.6419647E-006  0.1533167E+03  0.7546771E-02  0.1205284E+00
          2   -1    0    0  501    0  0.00000000000E+00  0.00000000000E+00  0.10830773425E+03  0.10830773425E+03  0.00000000000E+00 0.  1.
         -2   -1    0    0    0  501 -0.00000000000E+00 -0.00000000000E+00 -0.18401011437E+03  0.18401011437E+03  0.00000000000E+00 0. -1.
         23    2    1    2    0    0 -0.34757641470E+02  0.81841489616E+02 -0.22363113929E+02  0.15493904726E+03  0.12489946533E+03 0.  0.
          5    1    3    3  502    0 -0.79073506662E+02  0.33503322974E+02 -0.23583069826E+02  0.89181518761E+02  0.47000000000E+01 0. -1.
         -5    1    3    3    0  502  0.44315865192E+02  0.48338166642E+02  0.12199558973E+01  0.65757528500E+02  0.47000000000E+01 0. -1.
        -11    1    1    2    0    0 -0.19034175381E+02  0.48305726952E+01 -0.24448456206E+02  0.31358591739E+02  0.00000000000E+00 0.  1.
         11    1    1    2    0    0  0.53791816851E+02 -0.86672062311E+02 -0.28890809993E+02  0.10602020962E+03  0.00000000000E+00 0. -1.
<mgrwt>
<rscale>  0 0.14615089E+03</rscale>
<asrwt>0</asrwt>
<pdfrwt beam="1">  1        2 0.16662729E-01 0.15331666E+03</pdfrwt>
<pdfrwt beam="2">  1       -2 0.28309248E-01 0.15331666E+03</pdfrwt>
<totfact> 0.37733422E+03</totfact>
</mgrwt>
</event>
<event>
 7    1  0.6419647E-006  0.1329744E+03  0.7546771E-02  0.1236106E+00
          2   -1    0    0  501    0  0.00000000000E+00  0.00000000000E+00  0.25927529084E+03  0.25927529084E+03  0.00000000000E+00 0.  1.
         -2   -1    0    0    0  501 -0.00000000000E+00 -0.00000000000E+00 -0.60629064751E+02  0.60629064751E+02  0.00000000000E+00 0. -1.
         23    2    1    2    0    0  0.32500211088E+02 -0.31583948018E+02  0.16692766960E+03  0.21341750033E+03  0.12501349158E+03 0.  0.
          5    1    3    3  502    0 -0.20041961859E+02 -0.65593709037E+02  0.10293850819E+03  0.12378465724E+03  0.47000000000E+01 0. -1.
         -5    1    3    3    0  502  0.52542172947E+02  0.34009761019E+02  0.63989161411E+02  0.89632843091E+02  0.47000000000E+01 0. -1.
        -11    1    1    2    0    0 -0.30911332765E+02 -0.38462511760E+01 -0.24763176206E+02  0.39793454703E+02  0.00000000000E+00 0. -1.
         11    1    1    2    0    0 -0.15888783230E+01  0.35430199194E+02  0.56481732695E+02  0.66693400554E+02  0.00000000000E+00 0.  1.
<mgrwt>
<rscale>  0 0.12433868E+03</rscale>
<asrwt>0</asrwt>
<pdfrwt beam="1">  1        2 0.39888506E-01 0.13297437E+03</pdfrwt>
<pdfrwt beam="2">  1       -2 0.93275486E-02 0.13297437E+03</pdfrwt>
<totfact> 0.89865232E+03</totfact>
</mgrwt>
</event>
<event>
 7    1  0.7909520E-006  0.1730432E+03  0.7546771E-02  0.1181006E+00
         -2   -1    0    0    0  501 -0.00000000000E+00  0.00000000000E+00  0.17174403536E+02  0.17174403536E+02  0.00000000000E+00 0. -1.
          2   -1    0    0  501    0  0.00000000000E+00 -0.00000000000E+00 -0.16053829111E+04  0.16053829111E+04  0.00000000000E+00 0.  1.
         23    2    1    2    0    0 -0.11370530156E+03  0.37285698640E+02 -0.10337358912E+04  0.10481191861E+04  0.12499926625E+03 0.  0.
          5    1    3    3  502    0 -0.30062314597E+01 -0.20072132393E+02 -0.48210523240E+03  0.48255515025E+03  0.47000000000E+01 0. -1.
         -5    1    3    3    0  502 -0.11069907010E+03  0.57357831033E+02 -0.55163065879E+03  0.56556403582E+03  0.47000000000E+01 0. -1.
        -11    1    1    2    0    0  0.20593404464E+02  0.28538013378E+02 -0.10567078122E+03  0.11137692992E+03  0.00000000000E+00 0.  1.
         11    1    1    2    0    0  0.93111897101E+02 -0.65823712018E+02 -0.44880183514E+03  0.46306119863E+03  0.00000000000E+00 0. -1.
<mgrwt>
<rscale>  0 0.16700649E+03</rscale>
<asrwt>0</asrwt>
<pdfrwt beam="2">  1        2 0.24698195E+00 0.17304316E+03</pdfrwt>
<pdfrwt beam="1">  1       -2 0.26422163E-02 0.17304316E+03</pdfrwt>
<totfact> 0.60784794E+03</totfact>
</mgrwt>
</event>
<event>
 7    1  0.6419647E-006  0.1530925E+03  0.7546771E-02  0.1205611E+00
          1   -1    0    0  501    0  0.00000000000E+00  0.00000000000E+00  0.13035233408E+04  0.13035233408E+04  0.00000000000E+00 0. -1.
         -1   -1    0    0    0  501 -0.00000000000E+00 -0.00000000000E+00 -0.16087081923E+02  0.16087081923E+02  0.00000000000E+00 0.  1.
         23    2    1    2    0    0  0.87249375911E+02  0.14156151144E+02  0.87455415657E+03  0.88785263493E+03  0.12499791343E+03 0.  0.
          5    1    3    3  502    0  0.11158751528E+03 -0.11597460879E+02  0.55064201048E+03  0.56197418835E+03  0.47000000000E+01 0. -1.
         -5    1    3    3    0  502 -0.24338139368E+02  0.25753612023E+02  0.32391214609E+03  0.32587844658E+03  0.47000000000E+01 0. -1.
        -11    1    1    2    0    0 -0.23972804823E+02  0.13939282539E+02  0.23739164517E+02  0.36504066907E+02  0.00000000000E+00 0.  1.
         11    1    1    2    0    0 -0.63276571088E+02 -0.28095433684E+02  0.38914293774E+03  0.39525372084E+03  0.00000000000E+00 0. -1.
<mgrwt>
<rscale>  0 0.14589397E+03</rscale>
<asrwt>0</asrwt>
<pdfrwt beam="1">  1        1 0.20054197E+00 0.15309255E+03</pdfrwt>
<pdfrwt beam="2">  1       -1 0.24749367E-02 0.15309255E+03</pdfrwt>
<totfact> 0.47938793E+03</totfact>
</mgrwt>
</event>
<event>
 7    1  0.6419647E-006  0.1374729E+03  0.7546771E-02  0.1227612E+00
          2   -1    0    0  501    0  0.00000000000E+00  0.00000000000E+00  0.50569239058E+03  0.50569239058E+03  0.00000000000E+00 0. -1.
         -2   -1    0    0    0  501 -0.00000000000E+00 -0.00000000000E+00 -0.30857449678E+02  0.30857449678E+02  0.00000000000E+00 0.  1.
         23    2    1    2    0    0  0.29989676618E+02  0.48720517384E+02  0.30333786006E+03  0.33303552549E+03  0.12500293747E+03 0.  0.
          5    1    3    3  502    0  0.58503585401E+01  0.87890767779E+02  0.16393668089E+03  0.18616213121E+03  0.47000000000E+01 0. -1.
         -5    1    3    3    0  502  0.24139318077E+02 -0.39170250396E+02  0.13940117917E+03  0.14687339428E+03  0.47000000000E+01 0. -1.
        -11    1    1    2    0    0 -0.24505821259E+02  0.77902645369E+01  0.32173755092E+01  0.25914764176E+02  0.00000000000E+00 0.  1.
         11    1    1    2    0    0 -0.54838553587E+01 -0.56510781921E+02  0.16827970533E+03  0.17759955059E+03  0.00000000000E+00 0. -1.
<mgrwt>
<rscale>  0 0.12989469E+03</rscale>
<asrwt>0</asrwt>
<pdfrwt beam="1">  1        2 0.77798823E-01 0.13747292E+03</pdfrwt>
<pdfrwt beam="2">  1       -2 0.47473003E-02 0.13747292E+03</pdfrwt>
<totfact> 0.12370165E+04</totfact>
</mgrwt>
</event>
<event>
 7    1  0.6419647E-006  0.1255086E+03  0.7546771E-02  0.1249758E+00
          1   -1    0    0  501    0  0.00000000000E+00  0.00000000000E+00  0.66919194328E+02  0.66919194328E+02  0.00000000000E+00 0. -1.
         -1   -1    0    0    0  501 -0.00000000000E+00 -0.00000000000E+00 -0.18407014510E+03  0.18407014510E+03  0.00000000000E+00 0.  1.
         23    2    1    2    0    0 -0.10253277522E+02 -0.46515105713E+01 -0.41855788356E+02  0.13230385958E+03  0.12500255193E+03 0.  0.
          5    1    3    3  502    0 -0.58832653520E+02 -0.21073501698E+02 -0.49996691113E+02  0.80169400124E+02  0.47000000000E+01 0.  1.
         -5    1    3    3    0  502  0.48579375999E+02  0.16421991127E+02  0.81409027564E+01  0.52134459455E+02  0.47000000000E+01 0.  1.
        -11    1    1    2    0    0 -0.35086281132E+02 -0.11689154773E+02 -0.55258482571E+02  0.66491979659E+02  0.00000000000E+00 0.  1.
         11    1    1    2    0    0  0.45339558654E+02  0.16340665345E+02 -0.20036679846E+02  0.52193500190E+02  0.00000000000E+00 0. -1.
<mgrwt>
<rscale>  0 0.11605102E+03</rscale>
<asrwt>0</asrwt>
<pdfrwt beam="1">  1        1 0.10295261E-01 0.12550858E+03</pdfrwt>
<pdfrwt beam="2">  1       -1 0.28318483E-01 0.12550858E+03</pdfrwt>
<totfact> 0.65570392E+03</totfact>
</mgrwt>
</event>
<event>
 7    1  0.6419647E-006  0.1264503E+03  0.7546771E-02  0.1247976E+00
         -2   -1    0    0    0  501 -0.00000000000E+00  0.00000000000E+00  0.44265892924E+03  0.44265892924E+03  0.00000000000E+00 0.  1.
          2   -1    0    0  501    0  0.00000000000E+00 -0.00000000000E+00 -0.37918252166E+02  0.37918252166E+02  0.00000000000E+00 0. -1.
         23    2    1    2    0    0  0.91011618031E+01 -0.16804027182E+02  0.97773773975E+02  0.15984173033E+03  0.12499784559E+03 0.  0.
          5    1    3    3  502    0 -0.49639938328E+02 -0.30671675473E+02  0.75044535062E+02  0.95176926806E+02  0.47000000000E+01 0. -1.
         -5    1    3    3    0  502  0.58741100131E+02  0.13867648291E+02  0.22729238913E+02  0.64664803528E+02  0.47000000000E+01 0. -1.
        -11    1    1    2    0    0 -0.45673879896E+02  0.15714927593E+02  0.23599243019E+03  0.24088480517E+03  0.00000000000E+00 0. -1.
         11    1    1    2    0    0  0.36572718092E+02  0.10890995882E+01  0.70974472910E+02  0.79850645905E+02  0.00000000000E+00 0.  1.
<mgrwt>
<rscale>  0 0.11709006E+03</rscale>
<asrwt>0</asrwt>
<pdfrwt beam="2">  1        2 0.58335776E-02 0.12645026E+03</pdfrwt>
<pdfrwt beam="1">  1       -2 0.68101370E-01 0.12645026E+03</pdfrwt>
<totfact> 0.24767970E+03</totfact>
</mgrwt>
</event>
<event>
 7    1  0.6419647E-006  0.1412423E+03  0.7546771E-02  0.1222028E+00
          3   -1    0    0  501    0  0.00000000000E+00  0.00000000000E+00  0.33434519011E+03  0.33434519011E+03  0.00000000000E+00 0. -1.
         -3   -1    0    0    0  501 -0.00000000000E+00 -0.00000000000E+00 -0.51808064817E+02  0.51808064817E+02  0.00000000000E+00 0.  1.
         23    2    1    2    0    0  0.11970252154E+02  0.64650320745E+02  0.20403943647E+03  0.24815615286E+03  0.12500573450E+03 0.  0.
          5    1    3    3  502    0 -0.44731700069E+02  0.62598061442E+02  0.15460998065E+03  0.17275930772E+03  0.47000000000E+01 0. -1.
         -5    1    3    3    0  502  0.56701952223E+02  0.20522593028E+01  0.49429455818E+02  0.75396845137E+02  0.47000000000E+01 0. -1.
        -11    1    1    2    0    0  0.14676285554E+02 -0.70301797253E+02  0.83676308631E+02  0.11026994459E+03  0.00000000000E+00 0. -1.
         11    1    1    2    0    0 -0.26646537708E+02  0.56514765083E+01 -0.51786198068E+01  0.27727157475E+02  0.00000000000E+00 0.  1.
<mgrwt>
<rscale>  0 0.13372684E+03</rscale>
<asrwt>0</asrwt>
<pdfrwt beam="1">  1        3 0.51437720E-01 0.14124229E+03</pdfrwt>
<pdfrwt beam="2">  1       -3 0.79704717E-02 0.14124229E+03</pdfrwt>
<totfact> 0.94078051E+02</totfact>
</mgrwt>
</event>
<event>
 7    1  0.6419647E-006  0.3914035E+03  0.7546771E-02  0.1047630E+00
         -2   -1    0    0    0  501 -0.00000000000E+00  0.00000000000E+00  0.35676547466E+03  0.35676547466E+03  0.00000000000E+00 0.  1.
          2   -1    0    0  501    0  0.00000000000E+00 -0.00000000000E+00 -0.47865542461E+03  0.47865542461E+03  0.00000000000E+00 0. -1.
         23    2    1    2    0    0 -0.32759771323E+03  0.17392802249E+03 -0.20863223191E+03  0.44353587307E+03  0.12500177513E+03 0.  0.
          5    1    3    3  502    0 -0.16932090959E+03  0.13354828996E+03 -0.17245353312E+03  0.27616485522E+03  0.47000000000E+01 0.  1.
         -5    1    3    3    0  502 -0.15827680364E+03  0.40379732535E+02 -0.36178698798E+02  0.16737101785E+03  0.47000000000E+01 0.  1.
        -11    1    1    2    0    0  0.21813193243E+03 -0.94546521726E+02  0.95905045922E+02  0.25635592942E+03  0.00000000000E+00 0.  1.
         11    1    1    2    0    0  0.10946578080E+03 -0.79381500766E+02 -0.91627639644E+01  0.13552909678E+03  0.00000000000E+00 0. -1.
<mgrwt>
<rscale>  0 0.38907296E+03</rscale>
<asrwt>0</asrwt>
<pdfrwt beam="2">  1        2 0.73639296E-01 0.39140345E+03</pdfrwt>
<pdfrwt beam="1">  1       -2 0.54886996E-01 0.39140345E+03</pdfrwt>
<totfact> 0.20783479E+02</totfact>
</mgrwt>
</event>
<event>
 7    1  0.6419647E-006  0.1571901E+03  0.7546771E-02  0.1199992E+00
         -2   -1    0    0    0  501 -0.00000000000E+00  0.00000000000E+00  0.17227348116E+03  0.17227348116E+03  0.00000000000E+00 0.  1.
          2   -1    0    0  501    0  0.00000000000E+00 -0.00000000000E+00 -0.17063436371E+03  0.17063436371E+03  0.00000000000E+00 0. -1.
         23    2    1    2    0    0  0.58380057924E+02  0.75352073642E+02 -0.91231738759E+02  0.18174698468E+03  0.12499028009E+03 0.  0.
          5    1    3    3  502    0  0.58405750390E+02  0.10541376144E+03 -0.50128447869E+02  0.13060721292E+03  0.47000000000E+01 0.  1.
         -5    1    3    3    0  502 -0.25692465756E-01 -0.30061687803E+02 -0.41103290890E+02  0.51139771760E+02  0.47000000000E+01 0.  1.
        -11    1    1    2    0    0 -0.97814449476E+01 -0.24731833379E+02 -0.16438213042E+02  0.31265877495E+02  0.00000000000E+00 0. -1.
         11    1    1    2    0    0 -0.48598612976E+02 -0.50620240263E+02  0.10930906925E+03  0.12989498269E+03  0.00000000000E+00 0.  1.
<mgrwt>
<rscale>  0 0.15039195E+03</rscale>
<asrwt>0</asrwt>
<pdfrwt beam="2">  1        2 0.26251440E-01 0.15719013E+03</pdfrwt>
<pdfrwt beam="1">  1       -2 0.26503613E-01 0.15719013E+03</pdfrwt>
<totfact> 0.25414451E+03</totfact>
</mgrwt>
</event>
<event>
 7    1  0.6419647E-006  0.1378430E+03  0.7546771E-02  0.1229065E+00
         -1   -1    0    0    0  501 -0.00000000000E+00  0.00000000000E+00  0.25853787238E+03  0.25853787238E+03  0.00000000000E+00 0.  1.
          1   -1    0    0  501    0  0.00000000000E+00 -0.00000000000E+00 -0.57380513166E+02  0.57380513166E+02  0.00000000000E+00 0. -1.
         23    2    1    2    0    0  0.57395197956E+02 -0.89993263873E+01  0.12145316654E+03  0.18371597541E+03  0.12500196532E+03 0.  0.
          5    1    3    3  502    0  0.94223664483E+02 -0.24697964561E+02  0.84774981666E+02  0.12921677878E+03  0.47000000000E+01 0.  1.
         -5    1    3    3    0  502 -0.36828466527E+02  0.15698638174E+02  0.36678184875E+02  0.54499196627E+02  0.47000000000E+01 0.  1.
        -11    1    1    2    0    0 -0.10908999815E+02 -0.37893559406E+02  0.30752306768E+02  0.50006324530E+02  0.00000000000E+00 0. -1.
         11    1    1    2    0    0 -0.46486198141E+02  0.46892885794E+02  0.48951885906E+02  0.82196085609E+02  0.00000000000E+00 0.  1.
<mgrwt>
<rscale>  0 0.12892129E+03</rscale>
<asrwt>0</asrwt>
<pdfrwt beam="2">  1        1 0.88277714E-02 0.13784298E+03</pdfrwt>
<pdfrwt beam="1">  1       -1 0.39775057E-01 0.13784298E+03</pdfrwt>
<totfact> 0.45352661E+03</totfact>
</mgrwt>
</event>
<event>
 7    1  0.6419647E-006  0.1270727E+03  0.7546771E-02  0.1247709E+00
          1   -1    0    0  501    0  0.00000000000E+00  0.00000000000E+00  0.43972246638E+03  0.43972246638E+03  0.00000000000E+00 0. -1.
         -1   -1    0    0    0  501 -0.00000000000E+00 -0.00000000000E+00 -0.27601609240E+02  0.27601609240E+02  0.00000000000E+00 0.  1.
         23    2    1    2    0    0 -0.89799294118E+01 -0.21001943002E+02  0.26228920098E+03  0.29144997453E+03  0.12500296780E+03 0.  0.
          5    1    3    3  502    0  0.23258034346E+02 -0.15613867860E+01 -0.25421728491E+01  0.23914989717E+02  0.47000000000E+01 0.  1.
         -5    1    3    3    0  502 -0.32237963758E+02 -0.19440556216E+02  0.26483137383E+03  0.26753498481E+03  0.47000000000E+01 0.  1.
        -11    1    1    2    0    0 -0.50915152301E+01 -0.28857689041E+02  0.18402339913E+02  0.34602541213E+02  0.00000000000E+00 0.  1.
         11    1    1    2    0    0  0.14071444642E+02  0.49859632043E+02  0.13142931625E+03  0.14127155988E+03  0.00000000000E+00 0. -1.
<mgrwt>
<rscale>  0 0.11724721E+03</rscale>
<asrwt>0</asrwt>
<pdfrwt beam="1">  1        1 0.67649605E-01 0.12707267E+03</pdfrwt>
<pdfrwt beam="2">  1       -1 0.42464017E-02 0.12707267E+03</pdfrwt>
<totfact> 0.11363115E+04</totfact>
</mgrwt>
</event>
<event>
 7    1  0.6419647E-006  0.1579598E+03  0.7546771E-02  0.1198642E+00
          2   -1    0    0  501    0  0.00000000000E+00  0.00000000000E+00  0.16778396137E+04  0.16778396137E+04  0.00000000000E+00 0. -1.
         -2   -1    0    0    0  501 -0.00000000000E+00 -0.00000000000E+00 -0.13179029286E+02  0.13179029286E+02  0.00000000000E+00 0.  1.
         23    2    1    2    0    0  0.93703341773E+02 -0.23416865388E+02  0.10643753686E+04  0.10760326277E+04  0.12499049896E+03 0.  0.
          5    1    3    3  502    0  0.89594857290E+02 -0.23841141147E+02  0.36470385124E+03  0.37633313377E+03  0.47000000000E+01 0.  1.
         -5    1    3    3    0  502  0.41084844833E+01  0.42427575954E+00  0.69967151732E+03  0.69969949393E+03  0.47000000000E+01 0.  1.
        -11    1    1    2    0    0 -0.42968865964E+02  0.57460189070E+02  0.35770139062E+03  0.36482637189E+03  0.00000000000E+00 0.  1.
         11    1    1    2    0    0 -0.50734475809E+02 -0.34043323682E+02  0.24258382526E+03  0.25015964343E+03  0.00000000000E+00 0. -1.
<mgrwt>
<rscale>  0 0.15149966E+03</rscale>
<asrwt>0</asrwt>
<pdfrwt beam="1">  1        2 0.25812900E+00 0.15795978E+03</pdfrwt>
<pdfrwt beam="2">  1       -2 0.20275443E-02 0.15795978E+03</pdfrwt>
<totfact> 0.81967829E+03</totfact>
</mgrwt>
</event>
<event>
 7    1  0.6419647E-006  0.1269147E+03  0.7546771E-02  0.1247152E+00
          4   -1    0    0  501    0  0.00000000000E+00  0.00000000000E+00  0.89401415675E+02  0.89401415675E+02  0.00000000000E+00 0. -1.
         -4   -1    0    0    0  501 -0.00000000000E+00 -0.00000000000E+00 -0.30575510067E+03  0.30575510067E+03  0.00000000000E+00 0.  1.
         23    2    1    2    0    0  0.20303046915E+02 -0.83816395477E+01  0.31070055230E+02  0.13066245863E+03  0.12499945667E+03 0.  0.
          5    1    3    3  502    0 -0.92211818621E+01 -0.54339228455E+02  0.48046003955E+02  0.73268618385E+02  0.47000000000E+01 0. -1.
         -5    1    3    3    0  502  0.29524228777E+02  0.45957588907E+02 -0.16975948725E+02  0.57393840246E+02  0.47000000000E+01 0. -1.
        -11    1    1    2    0    0  0.31994362088E+02  0.15572467740E+01 -0.44508586285E+02  0.54836835029E+02  0.00000000000E+00 0. -1.
         11    1    1    2    0    0 -0.52297409003E+02  0.68243927737E+01 -0.20291515394E+03  0.20965722269E+03  0.00000000000E+00 0.  1.
<mgrwt>
<rscale>  0 0.11757475E+03</rscale>
<asrwt>0</asrwt>
<pdfrwt beam="1">  1        4 0.13754064E-01 0.12691466E+03</pdfrwt>
<pdfrwt beam="2">  1       -4 0.47039246E-01 0.12691466E+03</pdfrwt>
<totfact> 0.31675203E+02</totfact>
</mgrwt>
</event>
<event>
 7    1  0.6419647E-006  0.1115937E+03  0.7546771E-02  0.1265592E+00
         -3   -1    0    0    0  501 -0.00000000000E+00  0.00000000000E+00  0.26349645072E+03  0.26349645072E+03  0.00000000000E+00 0.  1.
          3   -1    0    0  501    0  0.00000000000E+00 -0.00000000000E+00 -0.69179714885E+02  0.69179714885E+02  0.00000000000E+00 0. -1.
         23    2    1    2    0    0 -0.12502575190E+01 -0.10785003285E+02 -0.49537536811E+01  0.11170364449E+03  0.11106432856E+03 0.  0.
          5    1    3    3  502    0  0.24369209036E+02 -0.40440715790E+02 -0.37553219624E+02  0.60511520777E+02  0.47000000000E+01 0. -1.
         -5    1    3    3    0  502 -0.25619466555E+02  0.29655712505E+02  0.32599465943E+02  0.51192123716E+02  0.47000000000E+01 0.  1.
        -11    1    1    2    0    0  0.43003263796E+02  0.51258637253E+01  0.51381278270E+02  0.67198146795E+02  0.00000000000E+00 0. -1.
         11    1    1    2    0    0 -0.41753006277E+02  0.56591395596E+01  0.14788921125E+03  0.15377437432E+03  0.00000000000E+00 0.  1.
<mgrwt>
<rscale>  0 0.10733219E+03</rscale>
<asrwt>0</asrwt>
<pdfrwt beam="2">  1        3 0.10643033E-01 0.11159375E+03</pdfrwt>
<pdfrwt beam="1">  1       -3 0.40537915E-01 0.11159375E+03</pdfrwt>
<totfact> 0.89933915E+02</totfact>
</mgrwt>
</event>
<event>
 7    1  0.6419647E-006  0.1482054E+03  0.7546771E-02  0.1211797E+00
          2   -1    0    0  501    0  0.00000000000E+00  0.00000000000E+00  0.84116049393E+03  0.84116049393E+03  0.00000000000E+00 0.  1.
         -2   -1    0    0    0  501 -0.00000000000E+00 -0.00000000000E+00 -0.29383400281E+02  0.29383400281E+02  0.00000000000E+00 0. -1.
         23    2    1    2    0    0 -0.79027674922E+02 -0.97283863307E+01  0.65704275024E+03  0.67355030140E+03  0.12499927186E+03 0.  0.
          5    1    3    3  502    0  0.10293463665E+00  0.20494088422E+02  0.14761933299E+02  0.25690911438E+02  0.47000000000E+01 0.  1.
         -5    1    3    3    0  502 -0.79130609559E+02 -0.30222474753E+02  0.64228081694E+03  0.64785938996E+03  0.47000000000E+01 0.  1.
        -11    1    1    2    0    0  0.55838062225E+02 -0.33032668735E+02  0.12255797912E+03  0.13867048945E+03  0.00000000000E+00 0.  1.
         11    1    1    2    0    0  0.23189612697E+02  0.42761055066E+02  0.32176364284E+02  0.58323103363E+02  0.00000000000E+00 0. -1.
<mgrwt>
<rscale>  0 0.14114453E+03</rscale>
<asrwt>0</asrwt>
<pdfrwt beam="1">  1        2 0.12940929E+00 0.14820537E+03</pdfrwt>
<pdfrwt beam="2">  1       -2 0.45205237E-02 0.14820537E+03</pdfrwt>
<totfact> 0.73649141E+03</totfact>
</mgrwt>
</event>
<event>
 7    1  0.6419647E-006  0.1304393E+03  0.7546771E-02  0.1241140E+00
         -1   -1    0    0    0  501 -0.00000000000E+00  0.00000000000E+00  0.38999606156E+02  0.38999606156E+02  0.00000000000E+00 0.  1.
          1   -1    0    0  501    0  0.00000000000E+00 -0.00000000000E+00 -0.44642343798E+03  0.44642343798E+03  0.00000000000E+00 0. -1.
         23    2    1    2    0    0  0.28946110018E+02 -0.23498993733E+02 -0.34763361431E+03  0.37129980422E+03  0.12499733925E+03 0.  0.
          5    1    3    3  502    0  0.34478965266E+02 -0.67577298806E+02 -0.28083967458E+03  0.29094415818E+03  0.47000000000E+01 0.  1.
         -5    1    3    3    0  502 -0.55328552480E+01  0.44078305073E+02 -0.66793939735E+02  0.80355646041E+02  0.47000000000E+01 0.  1.
        -11    1    1    2    0    0 -0.28056302092E+00  0.33752733575E+02  0.12254911506E+02  0.35909728423E+02  0.00000000000E+00 0.  1.
         11    1    1    2    0    0 -0.28665546997E+02 -0.10253739843E+02 -0.72045129021E+02  0.78213511500E+02  0.00000000000E+00 0. -1.
<mgrwt>
<rscale>  0 0.12119397E+03</rscale>
<asrwt>0</asrwt>
<pdfrwt beam="2">  1        1 0.68680526E-01 0.13043931E+03</pdfrwt>
<pdfrwt beam="1">  1       -1 0.59999396E-02 0.13043931E+03</pdfrwt>
<totfact> 0.66995372E+03</totfact>
</mgrwt>
</event>
<event>
 7    1  0.6419647E-006  0.1490461E+03  0.7546771E-02  0.1210733E+00
          2   -1    0    0  501    0  0.00000000000E+00  0.00000000000E+00  0.32986949545E+03  0.32986949545E+03  0.00000000000E+00 0. -1.
         -2   -1    0    0    0  501 -0.00000000000E+00 -0.00000000000E+00 -0.55931232016E+02  0.55931232016E+02  0.00000000000E+00 0.  1.
         23    2    1    2    0    0 -0.73830425960E+02 -0.33748888443E+02  0.15026775377E+03  0.21164859815E+03  0.12499924803E+03 0.  0.
          5    1    3    3  502    0 -0.48965349602E+02  0.44157718186E+02  0.54870926035E+02  0.85909359566E+02  0.47000000000E+01 0.  1.
         -5    1    3    3    0  502 -0.24865076358E+02 -0.77906606629E+02  0.95396827734E+02  0.12573923859E+03  0.47000000000E+01 0.  1.
        -11    1    1    2    0    0  0.35107422783E+02 -0.10325654713E+02  0.10711293982E+03  0.11319157281E+03  0.00000000000E+00 0. -1.
         11    1    1    2    0    0  0.38723003177E+02  0.44074543155E+02  0.16557569846E+02  0.60960556499E+02  0.00000000000E+00 0.  1.
<mgrwt>
<rscale>  0 0.14194718E+03</rscale>
<asrwt>0</asrwt>
<pdfrwt beam="1">  1        2 0.50749152E-01 0.14904607E+03</pdfrwt>
<pdfrwt beam="2">  1       -2 0.86048051E-02 0.14904607E+03</pdfrwt>
<totfact> 0.79544398E+03</totfact>
</mgrwt>
</event>
<event>
 7    1  0.6419647E-006  0.1259791E+03  0.7546771E-02  0.1248682E+00
         -1   -1    0    0    0  501 -0.00000000000E+00  0.00000000000E+00  0.33847979670E+02  0.33847979670E+02  0.00000000000E+00 0.  1.
          1   -1    0    0  501    0  0.00000000000E+00 -0.00000000000E+00 -0.43549661696E+03  0.43549661696E+03  0.00000000000E+00 0. -1.
         23    2    1    2    0    0 -0.34143406749E+01  0.15285284913E+02 -0.32668163738E+03  0.35013086923E+03  0.12500174292E+03 0.  0.
          5    1    3    3  502    0  0.25325991481E+02 -0.41454541119E+02 -0.67990442669E+02  0.83693937166E+02  0.47000000000E+01 0.  1.
         -5    1    3    3    0  502 -0.28740332156E+02  0.56739826032E+02 -0.25869119471E+03  0.26643693207E+03  0.47000000000E+01 0.  1.
        -11    1    1    2    0    0  0.45661223382E+02 -0.20242535997E+02 -0.36490262579E+02  0.61856663727E+02  0.00000000000E+00 0.  1.
         11    1    1    2    0    0 -0.42246882707E+02  0.49572510838E+01 -0.38476737332E+02  0.57357063667E+02  0.00000000000E+00 0. -1.
<mgrwt>
<rscale>  0 0.11667687E+03</rscale>
<asrwt>0</asrwt>
<pdfrwt beam="2">  1        1 0.66999478E-01 0.12597910E+03</pdfrwt>
<pdfrwt beam="1">  1       -1 0.52073816E-02 0.12597910E+03</pdfrwt>
<totfact> 0.85114589E+03</totfact>
</mgrwt>
</event>
<event>
 7    1  0.6419647E-006  0.1305216E+03  0.7546771E-02  0.1239699E+00
          2   -1    0    0  501    0  0.00000000000E+00  0.00000000000E+00  0.49072575925E+03  0.49072575925E+03  0.00000000000E+00 0. -1.
         -2   -1    0    0    0  501 -0.00000000000E+00 -0.00000000000E+00 -0.27725145531E+02  0.27725145531E+02  0.00000000000E+00 0.  1.
         23    2    1    2    0    0  0.11387242678E+02 -0.35794565693E+02  0.30163190275E+03  0.32866045264E+03  0.12499987257E+03 0.  0.
          5    1    3    3  502    0  0.20379921653E+02 -0.55542125024E+02  0.30063390507E+03  0.30643613321E+03  0.47000000000E+01 0. -1.
         -5    1    3    3    0  502 -0.89926789752E+01  0.19747559331E+02  0.99799768076E+00  0.22224319429E+02  0.47000000000E+01 0. -1.
        -11    1    1    2    0    0  0.29536650183E+02  0.52695373239E+01  0.12111474881E+03  0.12477565511E+03  0.00000000000E+00 0. -1.
         11    1    1    2    0    0 -0.40923892861E+02  0.30525028369E+02  0.40253962150E+02  0.65014797028E+02  0.00000000000E+00 0.  1.
<mgrwt>
<rscale>  0 0.12208326E+03</rscale>
<asrwt>0</asrwt>
<pdfrwt beam="1">  1        2 0.75496264E-01 0.13052160E+03</pdfrwt>
<pdfrwt beam="2">  1       -2 0.42654074E-02 0.13052160E+03</pdfrwt>
<totfact> 0.14941264E+04</totfact>
</mgrwt>
</event>
<event>
 7    1  0.6419647E-006  0.1649303E+03  0.7546771E-02  0.1189847E+00
         -2   -1    0    0    0  501 -0.00000000000E+00  0.00000000000E+00  0.20795468996E+02  0.20795468996E+02  0.00000000000E+00 0.  1.
          2   -1    0    0  501    0  0.00000000000E+00 -0.00000000000E+00 -0.12638541137E+04  0.12638541137E+04  0.00000000000E+00 0. -1.
         23    2    1    2    0    0 -0.85854997051E+02 -0.64868091734E+02 -0.86663848309E+03  0.88219286365E+03  0.12499215358E+03 0.  0.
          5    1    3    3  502    0 -0.10170911845E+03 -0.81352457292E+02 -0.81709195319E+03  0.82742027837E+03  0.47000000000E+01 0.  1.
         -5    1    3    3    0  502  0.15854121403E+02  0.16484365558E+02 -0.49546529894E+02  0.54772585277E+02  0.47000000000E+01 0.  1.
        -11    1    1    2    0    0  0.83519402326E+02  0.63385232254E+01 -0.21528696482E+03  0.23100680653E+03  0.00000000000E+00 0.  1.
         11    1    1    2    0    0  0.23355947255E+01  0.58529568509E+02 -0.16113319676E+03  0.17144991248E+03  0.00000000000E+00 0. -1.
<mgrwt>
<rscale>  0 0.15898523E+03</rscale>
<asrwt>0</asrwt>
<pdfrwt beam="2">  1        2 0.19443907E+00 0.16493025E+03</pdfrwt>
<pdfrwt beam="1">  1       -2 0.31993033E-02 0.16493025E+03</pdfrwt>
<totfact> 0.69540479E+03</totfact>
</mgrwt>
</event>
<event>
 7    1  0.6419647E-006  0.1433728E+03  0.7546771E-02  0.1219066E+00
          1   -1    0    0  501    0  0.00000000000E+00  0.00000000000E+00  0.30659725775E+03  0.30659725775E+03  0.00000000000E+00 0. -1.
         -1   -1    0    0    0  501 -0.00000000000E+00 -0.00000000000E+00 -0.56136379201E+02  0.56136379201E+02  0.00000000000E+00 0.  1.
         23    2    1    2    0    0  0.49607046828E+02 -0.49698651875E+02  0.10883270004E+03  0.18000084624E+03  0.12499973182E+03 0.  0.
          5    1    3    3  502    0  0.23206999812E+02  0.41773830789E+02  0.34642108336E+02  0.59209656721E+02  0.47000000000E+01 0.  1.
         -5    1    3    3    0  502  0.26400047017E+02 -0.91472482664E+02  0.74190591703E+02  0.12079118951E+03  0.47000000000E+01 0.  1.
        -11    1    1    2    0    0  0.13225229901E+02  0.25367288211E+01 -0.65811979249E+01  0.14988457731E+02  0.00000000000E+00 0.  1.
         11    1    1    2    0    0 -0.62832276729E+02  0.47161923054E+02  0.14820937644E+03  0.16774433299E+03  0.00000000000E+00 0. -1.
<mgrwt>
<rscale>  0 0.13582036E+03</rscale>
<asrwt>0</asrwt>
<pdfrwt beam="1">  1        1 0.47168808E-01 0.14337276E+03</pdfrwt>
<pdfrwt beam="2">  1       -1 0.86363662E-02 0.14337276E+03</pdfrwt>
<totfact> 0.62479006E+03</totfact>
</mgrwt>
</event>
<event>
 7    1  0.6419647E-006  0.1389985E+03  0.7546771E-02  0.1225753E+00
         -2   -1    0    0    0  501 -0.00000000000E+00  0.00000000000E+00  0.22814121452E+02  0.22814121452E+02  0.00000000000E+00 0. -1.
          2   -1    0    0  501    0  0.00000000000E+00 -0.00000000000E+00 -0.72031119887E+03  0.72031119887E+03  0.00000000000E+00 0.  1.
         23    2    1    2    0    0 -0.54223848386E+02  0.27487235263E+02 -0.29992300754E+03  0.33056678670E+03  0.12499926472E+03 0.  0.
          5    1    3    3  502    0 -0.61989428332E+02  0.18810613899E+02 -0.54400191935E+02  0.84723074205E+02  0.47000000000E+01 0. -1.
         -5    1    3    3    0  502  0.77655799464E+01  0.86766213642E+01 -0.24552281561E+03  0.24584371250E+03  0.47000000000E+01 0. -1.
        -11    1    1    2    0    0 -0.75460627585E+01 -0.30500077554E+02 -0.46762759456E+02  0.56337851094E+02  0.00000000000E+00 0. -1.
         11    1    1    2    0    0  0.61769911144E+02  0.30128422908E+01 -0.35081131042E+03  0.35622068253E+03  0.00000000000E+00 0.  1.
<mgrwt>
<rscale>  0 0.13115423E+03</rscale>
<asrwt>0</asrwt>
<pdfrwt beam="2">  1        2 0.11081712E+00 0.13899853E+03</pdfrwt>
<pdfrwt beam="1">  1       -2 0.35098643E-02 0.13899853E+03</pdfrwt>
<totfact> 0.12948462E+04</totfact>
</mgrwt>
</event>
<event>
 7    1  0.6419647E-006  0.1440237E+03  0.7546771E-02  0.1218348E+00
          2   -1    0    0  501    0  0.00000000000E+00  0.00000000000E+00  0.11033838454E+04  0.11033838454E+04  0.00000000000E+00 0. -1.
         -2   -1    0    0    0  501 -0.00000000000E+00 -0.00000000000E+00 -0.17367164346E+02  0.17367164346E+02  0.00000000000E+00 0.  1.
         23    2    1    2    0    0  0.20363408878E+01 -0.71506872758E+02  0.78858277782E+03  0.80162685450E+03  0.12500174733E+03 0.  0.
          5    1    3    3  502    0  0.17610962476E+02  0.28890846830E+02  0.33727877229E+03  0.33900425848E+03  0.47000000000E+01 0.  1.
         -5    1    3    3    0  502 -0.15574621588E+02 -0.10039771959E+03  0.45130400554E+03  0.46262259602E+03  0.47000000000E+01 0.  1.
        -11    1    1    2    0    0 -0.25098285306E+02  0.62797276050E+02  0.28209925277E+03  0.29009207197E+03  0.00000000000E+00 0. -1.
         11    1    1    2    0    0  0.23061944418E+02  0.87095967087E+01  0.15334650470E+02  0.29032083291E+02  0.00000000000E+00 0.  1.
<mgrwt>
<rscale>  0 0.13633433E+03</rscale>
<asrwt>0</asrwt>
<pdfrwt beam="1">  1        2 0.16975131E+00 0.14402367E+03</pdfrwt>
<pdfrwt beam="2">  1       -2 0.26718723E-02 0.14402367E+03</pdfrwt>
<totfact> 0.11084698E+04</totfact>
</mgrwt>
</event>
<event>
 7    1  0.6419647E-006  0.1384862E+03  0.7546771E-02  0.1226544E+00
          1   -1    0    0  501    0  0.00000000000E+00  0.00000000000E+00  0.66409086891E+03  0.66409086891E+03  0.00000000000E+00 0. -1.
         -1   -1    0    0    0  501 -0.00000000000E+00 -0.00000000000E+00 -0.24084684013E+02  0.24084684013E+02  0.00000000000E+00 0.  1.
         23    2    1    2    0    0 -0.34637963387E+02 -0.48534797169E+02  0.42255231149E+03  0.44466715163E+03  0.12499201875E+03 0.  0.
          5    1    3    3  502    0 -0.46925755789E+02 -0.25091946985E+02  0.56970800360E+02  0.78098620049E+02  0.47000000000E+01 0.  1.
         -5    1    3    3    0  502  0.12287792402E+02 -0.23442850184E+02  0.36558151113E+03  0.36656853158E+03  0.47000000000E+01 0.  1.
        -11    1    1    2    0    0  0.23439429100E+02  0.66642003010E+02  0.90631625058E+02  0.11491150883E+03  0.00000000000E+00 0.  1.
         11    1    1    2    0    0  0.11198534287E+02 -0.18107205841E+02  0.12682224835E+03  0.12859689246E+03  0.00000000000E+00 0. -1.
<mgrwt>
<rscale>  0 0.13061660E+03</rscale>
<asrwt>0</asrwt>
<pdfrwt beam="1">  1        1 0.10216781E+00 0.13848617E+03</pdfrwt>
<pdfrwt beam="2">  1       -1 0.37053365E-02 0.13848617E+03</pdfrwt>
<totfact> 0.80699338E+03</totfact>
</mgrwt>
</event>
<event>
 7    1  0.6419647E-006  0.1534662E+03  0.7546771E-02  0.1204879E+00
          2   -1    0    0  501    0  0.00000000000E+00  0.00000000000E+00  0.87634868968E+03  0.87634868968E+03  0.00000000000E+00 0.  1.
         -2   -1    0    0    0  501 -0.00000000000E+00 -0.00000000000E+00 -0.31314949257E+02  0.31314949257E+02  0.00000000000E+00 0. -1.
         23    2    1    2    0    0  0.82355116608E+02  0.33826123773E+02  0.69087596734E+03  0.70771567524E+03  0.12500121136E+03 0.  0.
          5    1    3    3  502    0  0.16616227649E+02  0.36400823402E+02  0.53691729172E+02  0.67126825838E+02  0.47000000000E+01 0.  1.
         -5    1    3    3    0  502  0.65738888959E+02 -0.25746996287E+01  0.63718423817E+03  0.64058884940E+03  0.47000000000E+01 0.  1.
        -11    1    1    2    0    0 -0.32604007644E+02 -0.52142822543E+01  0.13570289005E+03  0.13966203644E+03  0.00000000000E+00 0.  1.
         11    1    1    2    0    0 -0.49751108964E+02 -0.28611841519E+02  0.18454883028E+02  0.60285927262E+02  0.00000000000E+00 0. -1.
<mgrwt>
<rscale>  0 0.14646968E+03</rscale>
<asrwt>0</asrwt>
<pdfrwt beam="1">  1        2 0.13482286E+00 0.15346620E+03</pdfrwt>
<pdfrwt beam="2">  1       -2 0.48176852E-02 0.15346620E+03</pdfrwt>
<totfact> 0.63608430E+03</totfact>
</mgrwt>
</event>
<event>
 7    1  0.6419647E-006  0.1294911E+03  0.7546771E-02  0.1242096E+00
          1   -1    0    0  501    0  0.00000000000E+00  0.00000000000E+00  0.18450458539E+03  0.18450458539E+03  0.00000000000E+00 0. -1.
         -1   -1    0    0    0  501 -0.00000000000E+00 -0.00000000000E+00 -0.94885187841E+02  0.94885187841E+02  0.00000000000E+00 0.  1.
         23    2    1    2    0    0  0.33806411205E+02  0.12100950707E+00  0.12077965702E+03  0.17707530374E+03  0.12500019825E+03 0.  0.
          5    1    3    3  502    0  0.14701136695E+02 -0.62226704776E+02  0.60026635807E+02  0.87826950384E+02  0.47000000000E+01 0. -1.
         -5    1    3    3    0  502  0.19105274511E+02  0.62347714283E+02  0.60753021208E+02  0.89248353354E+02  0.47000000000E+01 0. -1.
        -11    1    1    2    0    0  0.13316944565E+02  0.20423923447E+02 -0.43118531701E+02  0.49534689234E+02  0.00000000000E+00 0.  1.
         11    1    1    2    0    0 -0.47123355770E+02 -0.20544932954E+02  0.11958272231E+02  0.52779780256E+02  0.00000000000E+00 0. -1.
<mgrwt>
<rscale>  0 0.12060903E+03</rscale>
<asrwt>0</asrwt>
<pdfrwt beam="1">  1        1 0.28385321E-01 0.12949107E+03</pdfrwt>
<pdfrwt beam="2">  1       -1 0.14597721E-01 0.12949107E+03</pdfrwt>
<totfact> 0.51973845E+03</totfact>
</mgrwt>
</event>
<event>
 7    1  0.6419647E-006  0.1524578E+03  0.7546771E-02  0.1206778E+00
          1   -1    0    0  501    0  0.00000000000E+00  0.00000000000E+00  0.98469306755E+03  0.98469306755E+03  0.00000000000E+00 0. -1.
         -1   -1    0    0    0  501 -0.00000000000E+00 -0.00000000000E+00 -0.24078539767E+02  0.24078539767E+02  0.00000000000E+00 0.  1.
         23    2    1    2    0    0  0.22295213983E+02  0.84395853659E+02  0.73833430993E+03  0.75391042785E+03  0.12499457321E+03 0.  0.
          5    1    3    3  502    0 -0.59862147004E+01  0.11210540055E+03  0.56236258437E+03  0.57347817909E+03  0.47000000000E+01 0. -1.
         -5    1    3    3    0  502  0.28281428683E+02 -0.27709546888E+02  0.17597172556E+03  0.18043224876E+03  0.47000000000E+01 0. -1.
        -11    1    1    2    0    0 -0.41141905329E+02 -0.96300058144E+01  0.11677239855E+03  0.12418206976E+03  0.00000000000E+00 0. -1.
         11    1    1    2    0    0  0.18846691346E+02 -0.74765847844E+02  0.10550781930E+03  0.13067910970E+03  0.00000000000E+00 0.  1.
<mgrwt>
<rscale>  0 0.14498184E+03</rscale>
<asrwt>0</asrwt>
<pdfrwt beam="1">  1        1 0.15149121E+00 0.15245780E+03</pdfrwt>
<pdfrwt beam="2">  1       -1 0.37043915E-02 0.15245780E+03</pdfrwt>
<totfact> 0.44466055E+03</totfact>
</mgrwt>
</event>
<event>
 7    1  0.6419647E-006  0.2102596E+03  0.7546771E-02  0.1145737E+00
         -2   -1    0    0    0  501 -0.00000000000E+00  0.00000000000E+00  0.85386671212E+02  0.85386671212E+02  0.00000000000E+00 0.  1.
          2   -1    0    0  501    0  0.00000000000E+00 -0.00000000000E+00 -0.47355354774E+03  0.47355354774E+03  0.00000000000E+00 0. -1.
         23    2    1    2    0    0  0.54015818219E+02 -0.16020481004E+03 -0.23574953520E+03  0.31589069817E+03  0.12500320022E+03 0.  0.
          5    1    3    3  502    0 -0.62205057528E+01  0.12456348887E+02 -0.61580404845E+02  0.63309490444E+02  0.47000000000E+01 0. -1.
         -5    1    3    3    0  502  0.60236323972E+02 -0.17266115892E+03 -0.17416913036E+03  0.25258120773E+03  0.47000000000E+01 0. -1.
        -11    1    1    2    0    0  0.82229836325E+01  0.77976312195E+02 -0.10086106894E+03  0.12775319155E+03  0.00000000000E+00 0. -1.
         11    1    1    2    0    0 -0.62238801852E+02  0.82228497842E+02 -0.51556272391E+02  0.11529632924E+03  0.00000000000E+00 0.  1.
<mgrwt>
<rscale>  0 0.20481696E+03</rscale>
<asrwt>0</asrwt>
<pdfrwt beam="2">  1        2 0.72854392E-01 0.21025958E+03</pdfrwt>
<pdfrwt beam="1">  1       -2 0.13136411E-01 0.21025958E+03</pdfrwt>
<totfact> 0.27920778E+03</totfact>
</mgrwt>
</event>
<event>
 7    1  0.6419647E-006  0.1723750E+03  0.7546771E-02  0.1181450E+00
          2   -1    0    0  501    0  0.00000000000E+00  0.00000000000E+00  0.59073529962E+02  0.59073529962E+02  0.00000000000E+00 0. -1.
         -2   -1    0    0    0  501 -0.00000000000E+00 -0.00000000000E+00 -0.44102426636E+03  0.44102426636E+03  0.00000000000E+00 0.  1.
         23    2    1    2    0    0 -0.78205324141E+02  0.89289073721E+02 -0.19898840029E+03  0.26326703238E+03  0.12499814189E+03 0.  0.
          5    1    3    3  502    0 -0.74709161423E+01  0.95411128182E+02 -0.80924007793E+02  0.12541883035E+03  0.47000000000E+01 0.  1.
         -5    1    3    3    0  502 -0.70734407999E+02 -0.61220544609E+01 -0.11806439250E+03  0.13784820203E+03  0.47000000000E+01 0.  1.
        -11    1    1    2    0    0  0.50536023521E+02  0.57662730224E+01 -0.53032966058E+02  0.73482209186E+02  0.00000000000E+00 0. -1.
         11    1    1    2    0    0  0.27669300620E+02 -0.95055346744E+02 -0.12992937005E+03  0.16334855476E+03  0.00000000000E+00 0.  1.
<mgrwt>
<rscale>  0 0.16659116E+03</rscale>
<asrwt>0</asrwt>
<pdfrwt beam="1">  1        2 0.90882353E-02 0.17237502E+03</pdfrwt>
<pdfrwt beam="2">  1       -2 0.67849888E-01 0.17237502E+03</pdfrwt>
<totfact> 0.14459286E+03</totfact>
</mgrwt>
</event>
<event>
 7    1  0.6419647E-006  0.2099853E+03  0.7546771E-02  0.1145723E+00
          1   -1    0    0  501    0  0.00000000000E+00  0.00000000000E+00  0.55930000489E+03  0.55930000489E+03  0.00000000000E+00 0. -1.
         -1   -1    0    0    0  501 -0.00000000000E+00 -0.00000000000E+00 -0.83376729698E+02  0.83376729698E+02  0.00000000000E+00 0.  1.
         23    2    1    2    0    0  0.11718353325E+03 -0.12139570202E+03  0.36895187157E+03  0.42452243786E+03  0.12499967912E+03 0.  0.
          5    1    3    3  502    0  0.85564797843E+02 -0.24210249684E+02  0.86629301317E+02  0.12423444235E+03  0.47000000000E+01 0.  1.
         -5    1    3    3    0  502  0.31618735412E+02 -0.97185452332E+02  0.28232257025E+03  0.30028799551E+03  0.47000000000E+01 0.  1.
        -11    1    1    2    0    0 -0.10138642100E+03  0.72561907810E+02  0.11065056180E+03  0.16669728149E+03  0.00000000000E+00 0.  1.
         11    1    1    2    0    0 -0.15797112254E+02  0.48833794206E+02 -0.36791581812E+01  0.51457015237E+02  0.00000000000E+00 0. -1.
<mgrwt>
<rscale>  0 0.20483435E+03</rscale>
<asrwt>0</asrwt>
<pdfrwt beam="1">  1        1 0.86046152E-01 0.20998528E+03</pdfrwt>
<pdfrwt beam="2">  1       -1 0.12827190E-01 0.20998528E+03</pdfrwt>
<totfact> 0.15926444E+03</totfact>
</mgrwt>
</event>
<event>
 7    1  0.6419647E-006  0.1525057E+03  0.7546771E-02  0.1206561E+00
          1   -1    0    0  501    0  0.00000000000E+00  0.00000000000E+00  0.10239779007E+04  0.10239779007E+04  0.00000000000E+00 0.  1.
         -1   -1    0    0    0  501 -0.00000000000E+00 -0.00000000000E+00 -0.20010001679E+02  0.20010001679E+02  0.00000000000E+00 0. -1.
         23    2    1    2    0    0  0.77659588179E+02 -0.40232710546E+02  0.67512740948E+03  0.69213800595E+03  0.12493325263E+03 0.  0.
          5    1    3    3  502    0 -0.23256375843E+02  0.16654910218E+02  0.66164060827E+02  0.72235849804E+02  0.47000000000E+01 0.  1.
         -5    1    3    3    0  502  0.10091596402E+03 -0.56887620764E+02  0.60896334866E+03  0.61990215615E+03  0.47000000000E+01 0.  1.
        -11    1    1    2    0    0 -0.36669891698E+02 -0.19788608928E+02  0.19644750517E+03  0.20081805768E+03  0.00000000000E+00 0.  1.
         11    1    1    2    0    0 -0.40989696481E+02  0.60021319474E+02  0.13239298440E+03  0.15103183879E+03  0.00000000000E+00 0. -1.
<mgrwt>
<rscale>  0 0.14515150E+03</rscale>
<asrwt>0</asrwt>
<pdfrwt beam="1">  1        1 0.15753502E+00 0.15250574E+03</pdfrwt>
<pdfrwt beam="2">  1       -1 0.30784626E-02 0.15250574E+03</pdfrwt>
<totfact> 0.54574526E+03</totfact>
</mgrwt>
</event>
<event>
 7    1  0.6419647E-006  0.1416555E+03  0.7546771E-02  0.1221453E+00
          2   -1    0    0  501    0  0.00000000000E+00  0.00000000000E+00  0.25805843943E+03  0.25805843943E+03  0.00000000000E+00 0. -1.
         -2   -1    0    0    0  501 -0.00000000000E+00 -0.00000000000E+00 -0.69081216359E+02  0.69081216359E+02  0.00000000000E+00 0.  1.
         23    2    1    2    0    0  0.61568146648E+02 -0.25496454462E+02  0.15114774387E+03  0.20715192683E+03  0.12500229774E+03 0.  0.
          5    1    3    3  502    0  0.65476486123E+02 -0.17264621203E+02  0.13604730836E+02  0.69227278448E+02  0.47000000000E+01 0. -1.
         -5    1    3    3    0  502 -0.39083394750E+01 -0.82318332592E+01  0.13754301304E+03  0.13792464838E+03  0.47000000000E+01 0. -1.
        -11    1    1    2    0    0 -0.19574125619E+02  0.45333680564E+02  0.51724326733E+02  0.71510103923E+02  0.00000000000E+00 0. -1.
         11    1    1    2    0    0 -0.41994021029E+02 -0.19837226102E+02 -0.13894847530E+02  0.48477625040E+02  0.00000000000E+00 0.  1.
<mgrwt>
<rscale>  0 0.13412995E+03</rscale>
<asrwt>0</asrwt>
<pdfrwt beam="1">  1        2 0.39701298E-01 0.14165550E+03</pdfrwt>
<pdfrwt beam="2">  1       -2 0.10627880E-01 0.14165550E+03</pdfrwt>
<totfact> 0.73894765E+03</totfact>
</mgrwt>
</event>
<event>
 7    1  0.6419647E-006  0.1467224E+03  0.7546771E-02  0.1214893E+00
          1   -1    0    0  501    0  0.00000000000E+00  0.00000000000E+00  0.92291092861E+02  0.92291092861E+02  0.00000000000E+00 0. -1.
         -1   -1    0    0    0  501 -0.00000000000E+00 -0.00000000000E+00 -0.22059663067E+03  0.22059663067E+03  0.00000000000E+00 0.  1.
         23    2    1    2    0    0  0.64285164114E+02 -0.42074013204E+02 -0.11621843911E+02  0.14718195028E+03  0.12499861727E+03 0.  0.
          5    1    3    3  502    0  0.84643999832E+02 -0.37343414647E+02 -0.48477070118E+02  0.10455263580E+03  0.47000000000E+01 0. -1.
         -5    1    3    3    0  502 -0.20358835719E+02 -0.47305985571E+01  0.36855226207E+02  0.42629314483E+02  0.47000000000E+01 0. -1.
        -11    1    1    2    0    0 -0.57184470016E+01  0.24864701968E+02 -0.98881557739E+02  0.10212010821E+03  0.00000000000E+00 0.  1.
         11    1    1    2    0    0 -0.58566717112E+02  0.17209311236E+02 -0.17802136159E+02  0.63585665038E+02  0.00000000000E+00 0. -1.
<mgrwt>
<rscale>  0 0.13884406E+03</rscale>
<asrwt>0</asrwt>
<pdfrwt beam="1">  1        1 0.14198630E-01 0.14672239E+03</pdfrwt>
<pdfrwt beam="2">  1       -1 0.33937943E-01 0.14672239E+03</pdfrwt>
<totfact> 0.32005453E+03</totfact>
</mgrwt>
</event>
<event>
 7    1  0.6419647E-006  0.1808449E+03  0.7546771E-02  0.1172393E+00
         -1   -1    0    0    0  501 -0.00000000000E+00  0.00000000000E+00  0.55715824116E+02  0.55715824116E+02  0.00000000000E+00 0.  1.
          1   -1    0    0  501    0  0.00000000000E+00 -0.00000000000E+00 -0.54591912329E+03  0.54591912329E+03  0.00000000000E+00 0. -1.
         23    2    1    2    0    0  0.11368523101E+03 -0.64490307473E+02 -0.32410058614E+03  0.37114155725E+03  0.12498613554E+03 0.  0.
          5    1    3    3  502    0  0.64143887582E+02 -0.34099910722E+02 -0.29886910241E+03  0.30760701000E+03  0.47000000000E+01 0.  1.
         -5    1    3    3    0  502  0.49541343431E+02 -0.30390396751E+02 -0.25231483725E+02  0.63534547253E+02  0.47000000000E+01 0.  1.
        -11    1    1    2    0    0 -0.47749979882E+02 -0.13585783947E+02 -0.23169517644E+02  0.54785587996E+02  0.00000000000E+00 0.  1.
         11    1    1    2    0    0 -0.65935251131E+02  0.78076091420E+02 -0.14293319539E+03  0.17570780215E+03  0.00000000000E+00 0. -1.
<mgrwt>
<rscale>  0 0.17533801E+03</rscale>
<asrwt>0</asrwt>
<pdfrwt beam="2">  1        1 0.83987558E-01 0.18084487E+03</pdfrwt>
<pdfrwt beam="1">  1       -1 0.85716652E-02 0.18084487E+03</pdfrwt>
<totfact> 0.30561877E+03</totfact>
</mgrwt>
</event>
<event>
 7    1  0.6419647E-006  0.1579772E+03  0.7546771E-02  0.1198772E+00
          3   -1    0    0  501    0  0.00000000000E+00  0.00000000000E+00  0.19672693686E+03  0.19672693686E+03  0.00000000000E+00 0. -1.
         -3   -1    0    0    0  501 -0.00000000000E+00 -0.00000000000E+00 -0.11264906442E+03  0.11264906442E+03  0.00000000000E+00 0.  1.
         23    2    1    2    0    0 -0.43815285499E+02 -0.86088111449E+02  0.77528638503E+02  0.17597585371E+03  0.12500347645E+03 0.  0.
          5    1    3    3  502    0 -0.72291011351E-01  0.10250243775E+02 -0.25710067464E+02  0.28074370740E+02  0.47000000000E+01 0.  1.
         -5    1    3    3    0  502 -0.43742994487E+02 -0.96338355225E+02  0.10323870597E+03  0.14790148297E+03  0.47000000000E+01 0.  1.
        -11    1    1    2    0    0  0.24915327152E+02  0.10323036175E+03 -0.27833287013E+01  0.10623101258E+03  0.00000000000E+00 0.  1.
         11    1    1    2    0    0  0.18899958346E+02 -0.17142250304E+02  0.93325626377E+01  0.27169134995E+02  0.00000000000E+00 0. -1.
<mgrwt>
<rscale>  0 0.15139237E+03</rscale>
<asrwt>0</asrwt>
<pdfrwt beam="1">  1        3 0.30265683E-01 0.15797725E+03</pdfrwt>
<pdfrwt beam="2">  1       -3 0.17330625E-01 0.15797725E+03</pdfrwt>
<totfact> 0.72141051E+02</totfact>
</mgrwt>
</event>
<event>
 6    1  0.6419647E-006  0.1905818E+03  0.7546771E-02  0.1182915E+00
          1   -1    0    0  501    0  0.00000000000E+00  0.00000000000E+00  0.11935384201E+04  0.11935384201E+04  0.00000000000E+00 0. -1.
         -1   -1    0    0    0  501 -0.00000000000E+00 -0.00000000000E+00 -0.30275014049E+02  0.30275014049E+02  0.00000000000E+00 0.  1.
          5    1    1    2  502    0  0.74153949064E+02 -0.20899917328E+02  0.56517801517E+03  0.57042431008E+03  0.47000000000E+01 0. -1.
         -5    1    1    2    0  502 -0.68930420027E+02  0.83232719025E+02  0.48628004459E+03  0.49816609689E+03  0.47000000000E+01 0.  1.
        -11    1    1    2    0    0 -0.16545931084E+02 -0.28336922837E+02  0.11467412733E+03  0.11927658828E+03  0.00000000000E+00 0. -1.
         11    1    1    2    0    0  0.11322402047E+02 -0.33995878860E+02 -0.28687810065E+01  0.35946438934E+02  0.00000000000E+00 0.  1.
<mgrwt>
<rscale>  0 0.16523004E+03</rscale>
<asrwt>0</asrwt>
<pdfrwt beam="1">  1        1 0.18362126E+00 0.19058176E+03</pdfrwt>
<pdfrwt beam="2">  1       -1 0.46576954E-02 0.19058176E+03</pdfrwt>
<totfact> 0.22588713E+03</totfact>
</mgrwt>
</event>
<event>
 6    1  0.6419647E-006  0.3021478E+03  0.7546771E-02  0.1084172E+00
         -2   -1    0    0    0  501 -0.00000000000E+00  0.00000000000E+00  0.92549625817E+02  0.92549625817E+02  0.00000000000E+00 0.  1.
          2   -1    0    0  501    0  0.00000000000E+00 -0.00000000000E+00 -0.24660626903E+03  0.24660626903E+03  0.00000000000E+00 0. -1.
          5    1    1    2  502    0  0.15030780756E+02  0.58869743725E+02 -0.12197444572E+03  0.13635038139E+03  0.47000000000E+01 0. -1.
         -5    1    1    2    0  502 -0.31793177965E+02 -0.45674970677E+02 -0.13103170198E+02  0.57365426702E+02  0.47000000000E+01 0.  1.
        -11    1    1    2    0    0 -0.60009054805E+02 -0.27619569465E+02 -0.74431139252E+01  0.66478020586E+02  0.00000000000E+00 0.  1.
         11    1    1    2    0    0  0.76771452014E+02  0.14424796417E+02 -0.11535913365E+02  0.78962066166E+02  0.00000000000E+00 0. -1.
<mgrwt>
<rscale>  0 0.30214776E+03</rscale>
<asrwt>0</asrwt>
<pdfrwt beam="2">  1        2 0.37939426E-01 0.30214776E+03</pdfrwt>
<pdfrwt beam="1">  1       -2 0.14238404E-01 0.30214776E+03</pdfrwt>
<totfact> 0.50420470E+03</totfact>
</mgrwt>
</event>
<event>
 7    1  0.6419647E-006  0.1514947E+03  0.7546771E-02  0.1217708E+00
         -2   -1    0    0    0  501 -0.00000000000E+00  0.00000000000E+00  0.38691440163E+03  0.38691440163E+03  0.00000000000E+00 0.  1.
          2   -1    0    0  501    0  0.00000000000E+00 -0.00000000000E+00 -0.46074212326E+02  0.46074212326E+02  0.00000000000E+00 0. -1.
         23    2    1    2    0    0 -0.19670236800E+02  0.83295861513E+02  0.13119216191E+03  0.20040463981E+03  0.12500207017E+03 0.  0.
          5    1    3    3  502    0  0.21094487274E+02 -0.98859486159E+00 -0.15291705744E+02  0.26493036401E+02  0.47000000000E+01 0. -1.
         -5    1    3    3    0  502 -0.40764724074E+02  0.84284456375E+02  0.14648386766E+03  0.17391160340E+03  0.47000000000E+01 0. -1.
        -11    1    1    2    0    0  0.70663140138E+01 -0.51296483818E+02  0.17959646363E+03  0.18691214994E+03  0.00000000000E+00 0. -1.
         11    1    1    2    0    0  0.12603922786E+02 -0.31999377695E+02  0.30051563765E+02  0.45671824216E+02  0.00000000000E+00 0.  1.
<mgrwt>
<rscale>  0 0.13679458E+03</rscale>
<asrwt>0</asrwt>
<pdfrwt beam="2">  1        2 0.70883406E-02 0.15149467E+03</pdfrwt>
<pdfrwt beam="1">  1       -2 0.59525291E-01 0.15149467E+03</pdfrwt>
<totfact> 0.25822930E+03</totfact>
</mgrwt>
</event>
<event>
 7    1  0.6419647E-006  0.1538661E+03  0.7546771E-02  0.1203118E+00
          1   -1    0    0  501    0  0.00000000000E+00  0.00000000000E+00  0.29175804608E+03  0.29175804608E+03  0.00000000000E+00 0. -1.
         -1   -1    0    0    0  501 -0.00000000000E+00 -0.00000000000E+00 -0.93752342444E+02  0.93752342444E+02  0.00000000000E+00 0.  1.
         23    2    1    2    0    0  0.12617970202E+01 -0.89706409822E+02  0.20234169619E+03  0.25419861124E+03  0.12500375933E+03 0.  0.
          5    1    3    3  502    0 -0.43838138249E+02 -0.72726604590E+01  0.12387994249E+03  0.13169284000E+03  0.47000000000E+01 0.  1.
         -5    1    3    3    0  502  0.45099935269E+02 -0.82433749363E+02  0.78461753701E+02  0.12250577125E+03  0.47000000000E+01 0.  1.
        -11    1    1    2    0    0 -0.17529846466E+00  0.47121641319E+02 -0.50107755067E+02  0.68784205513E+02  0.00000000000E+00 0.  1.
         11    1    1    2    0    0 -0.10864985556E+01  0.42584768502E+02  0.45771762519E+02  0.62527571771E+02  0.00000000000E+00 0. -1.
<mgrwt>
<rscale>  0 0.14786789E+03</rscale>
<asrwt>0</asrwt>
<pdfrwt beam="1">  1        1 0.44885853E-01 0.15386608E+03</pdfrwt>
<pdfrwt beam="2">  1       -1 0.14423437E-01 0.15386608E+03</pdfrwt>
<totfact> 0.30268978E+03</totfact>
</mgrwt>
</event>
<event>
 7    1  0.6419647E-006  0.1304625E+03  0.7546771E-02  0.1240566E+00
          2   -1    0    0  501    0  0.00000000000E+00  0.00000000000E+00  0.13272761022E+03  0.13272761022E+03  0.00000000000E+00 0. -1.
         -2   -1    0    0    0  501 -0.00000000000E+00 -0.00000000000E+00 -0.11379378901E+03  0.11379378901E+03  0.00000000000E+00 0.  1.
         23    2    1    2    0    0  0.11403193192E+02  0.35559332118E+02  0.55322881507E+02  0.14170771596E+03  0.12500382646E+03 0.  0.
          5    1    3    3  502    0 -0.27761735342E+02 -0.29889371453E+02  0.50571620813E+02  0.65143436405E+02  0.47000000000E+01 0. -1.
         -5    1    3    3    0  502  0.39164928534E+02  0.65448703571E+02  0.47512606937E+01  0.76564279559E+02  0.47000000000E+01 0. -1.
        -11    1    1    2    0    0  0.33892815496E+01 -0.12658427358E+02 -0.64403435094E+02  0.65723096888E+02  0.00000000000E+00 0.  1.
         11    1    1    2    0    0 -0.14792474742E+02 -0.22900904760E+02  0.28014374794E+02  0.39090586372E+02  0.00000000000E+00 0. -1.
<mgrwt>
<rscale>  0 0.12154753E+03</rscale>
<asrwt>0</asrwt>
<pdfrwt beam="1">  1        2 0.20419632E-01 0.13046247E+03</pdfrwt>
<pdfrwt beam="2">  1       -2 0.17506737E-01 0.13046247E+03</pdfrwt>
<totfact> 0.67662764E+03</totfact>
</mgrwt>
</event>
<event>
 7    1  0.6419647E-006  0.1257032E+03  0.7546771E-02  0.1235540E+00
          3   -1    0    0  501    0  0.00000000000E+00  0.00000000000E+00  0.24029555480E+03  0.24029555480E+03  0.00000000000E+00 0. -1.
         -3   -1    0    0    0  501 -0.00000000000E+00 -0.00000000000E+00 -0.64491197398E+02  0.64491197398E+02  0.00000000000E+00 0.  1.
         23    2    1    2    0    0  0.10277951391E+01  0.13225190736E+02  0.10618831134E+03  0.16455168963E+03  0.12500135624E+03 0.  0.
          5    1    3    3  502    0 -0.10006620489E+02  0.52622943522E+02  0.34681525824E+01  0.53883436424E+02  0.47000000000E+01 0.  1.
         -5    1    3    3    0  502  0.11034415628E+02 -0.39397752786E+02  0.10272015876E+03  0.11066825321E+03  0.47000000000E+01 0.  1.
        -11    1    1    2    0    0  0.50338487229E+02 -0.33294337290E+02  0.14088687073E+02  0.61975537881E+02  0.00000000000E+00 0.  1.
         11    1    1    2    0    0 -0.51366282369E+02  0.20069146554E+02  0.55527358984E+02  0.78259524683E+02  0.00000000000E+00 0. -1.
<mgrwt>
<rscale>  0 0.12469928E+03</rscale>
<asrwt>0</asrwt>
<pdfrwt beam="1">  1        3 0.36968546E-01 0.12570323E+03</pdfrwt>
<pdfrwt beam="2">  1       -3 0.99217228E-02 0.12570323E+03</pdfrwt>
<totfact> 0.12288174E+03</totfact>
</mgrwt>
</event>
<event>
 7    1  0.6419647E-006  0.1255794E+03  0.7546771E-02  0.1249642E+00
         -2   -1    0    0    0  501 -0.00000000000E+00  0.00000000000E+00  0.10726392046E+02  0.10726392046E+02  0.00000000000E+00 0.  1.
          2   -1    0    0  501    0  0.00000000000E+00 -0.00000000000E+00 -0.14654106355E+04  0.14654106355E+04  0.00000000000E+00 0. -1.
         23    2    1    2    0    0 -0.11874503428E+02 -0.24747669585E+01 -0.11768128022E+04  0.11834942182E+04  0.12499225829E+03 0.  0.
          5    1    3    3  502    0 -0.49578133572E+02 -0.21367234932E+02 -0.25448401558E+03  0.26018984270E+03  0.47000000000E+01 0. -1.
         -5    1    3    3    0  502  0.37703630144E+02  0.18892467974E+02 -0.92232878666E+03  0.92330437547E+03  0.47000000000E+01 0. -1.
        -11    1    1    2    0    0  0.49557690826E+02  0.17820906302E+01 -0.11108939572E+03  0.12165522762E+03  0.00000000000E+00 0.  1.
         11    1    1    2    0    0 -0.37683187398E+02  0.69267632836E+00 -0.16678204551E+03  0.17098758177E+03  0.00000000000E+00 0. -1.
<mgrwt>
<rscale>  0 0.11611806E+03</rscale>
<asrwt>0</asrwt>
<pdfrwt beam="2">  1        2 0.22544779E+00 0.12557943E+03</pdfrwt>
<pdfrwt beam="1">  1       -2 0.16502141E-02 0.12557943E+03</pdfrwt>
<totfact> 0.14098450E+04</totfact>
</mgrwt>
</event>
<event>
 7    1  0.6419647E-006  0.1994938E+03  0.7546771E-02  0.1154360E+00
         -1   -1    0    0    0  501 -0.00000000000E+00  0.00000000000E+00  0.23761223157E+03  0.23761223157E+03  0.00000000000E+00 0.  1.
          1   -1    0    0  501    0  0.00000000000E+00 -0.00000000000E+00 -0.17853019385E+03  0.17853019385E+03  0.00000000000E+00 0. -1.
         23    2    1    2    0    0 -0.14093405311E+03 -0.65666554035E+02 -0.49215496905E+02  0.20547493010E+03  0.12499311229E+03 0.  0.
          5    1    3    3  502    0 -0.14743395360E+03 -0.71593845858E+02 -0.73152403380E+02  0.17954334730E+03  0.47000000000E+01 0. -1.
         -5    1    3    3    0  502  0.64999004967E+01  0.59272918230E+01  0.23936906475E+02  0.25931582798E+02  0.47000000000E+01 0. -1.
        -11    1    1    2    0    0  0.61717415663E+02  0.36850572356E+01 -0.13917994910E+01  0.61842995955E+02  0.00000000000E+00 0.  1.
         11    1    1    2    0    0  0.79216637444E+02  0.61981496800E+02  0.10968933412E+03  0.14882449937E+03  0.00000000000E+00 0. -1.
<mgrwt>
<rscale>  0 0.19461958E+03</rscale>
<asrwt>0</asrwt>
<pdfrwt beam="2">  1        1 0.27466184E-01 0.19949381E+03</pdfrwt>
<pdfrwt beam="1">  1       -1 0.36555728E-01 0.19949381E+03</pdfrwt>
<totfact> 0.12217495E+03</totfact>
</mgrwt>
</event>
<event>
 7    1  0.6419647E-006  0.1667342E+03  0.7546771E-02  0.1188265E+00
          2   -1    0    0  501    0  0.00000000000E+00  0.00000000000E+00  0.12483610081E+04  0.12483610081E+04  0.00000000000E+00 0. -1.
         -2   -1    0    0    0  501 -0.00000000000E+00 -0.00000000000E+00 -0.21648686478E+02  0.21648686478E+02  0.00000000000E+00 0.  1.
         23    2    1    2    0    0 -0.61267334533E+02 -0.91767161835E+02  0.86931752090E+03  0.88516283709E+03  0.12500159100E+03 0.  0.
          5    1    3    3  502    0  0.24237700946E+01 -0.37892452801E+02  0.57553165467E+02  0.69109836464E+02  0.47000000000E+01 0. -1.
         -5    1    3    3    0  502 -0.63691104627E+02 -0.53874709035E+02  0.81176435543E+03  0.81605300062E+03  0.47000000000E+01 0. -1.
        -11    1    1    2    0    0  0.10401912241E+01  0.47019014754E+02  0.50898749134E+02  0.69300450284E+02  0.00000000000E+00 0.  1.
         11    1    1    2    0    0  0.60227143309E+02  0.44748147081E+02  0.30649605155E+03  0.31554640716E+03  0.00000000000E+00 0. -1.
<mgrwt>
<rscale>  0 0.16038308E+03</rscale>
<asrwt>0</asrwt>
<pdfrwt beam="1">  1        2 0.19205548E+00 0.16673421E+03</pdfrwt>
<pdfrwt beam="2">  1       -2 0.33305681E-02 0.16673421E+03</pdfrwt>
<totfact> 0.66841386E+03</totfact>
</mgrwt>
</event>
<event>
 6    1  0.6419647E-006  0.3657360E+03  0.7546771E-02  0.1106605E+00
          2   -1    0    0  501    0  0.00000000000E+00  0.00000000000E+00  0.16465567621E+04  0.16465567621E+04  0.00000000000E+00 0. -1.
         -2   -1    0    0    0  501 -0.00000000000E+00 -0.00000000000E+00 -0.67894861536E+02  0.67894861536E+02  0.00000000000E+00 0.  1.
          5    1    1    2  502    0  0.14137684767E+03  0.31449444609E+02  0.12109711393E+04  0.12196104586E+04  0.47000000000E+01 0. -1.
         -5    1    1    2    0  502 -0.15834565309E+03 -0.19116112944E+02  0.36694035457E+03  0.40013258482E+03  0.47000000000E+01 0.  1.
        -11    1    1    2    0    0 -0.21663591725E+02 -0.26332328578E+02  0.29066890207E+02  0.44806102721E+02  0.00000000000E+00 0. -1.
         11    1    1    2    0    0  0.38632397146E+02  0.13998996913E+02 -0.28316483467E+02  0.49902477491E+02  0.00000000000E+00 0.  1.
<mgrwt>
<rscale>  0 0.26089739E+03</rscale>
<asrwt>0</asrwt>
<pdfrwt beam="1">  1        2 0.25331639E+00 0.36573603E+03</pdfrwt>
<pdfrwt beam="2">  1       -2 0.10445365E-01 0.36573603E+03</pdfrwt>
<totfact> 0.69990806E+02</totfact>
</mgrwt>
</event>
<event>
 7    1  0.6419647E-006  0.1569066E+03  0.7546771E-02  0.1200291E+00
         -1   -1    0    0    0  501 -0.00000000000E+00  0.00000000000E+00  0.89380459499E+03  0.89380459499E+03  0.00000000000E+00 0.  1.
          1   -1    0    0  501    0  0.00000000000E+00 -0.00000000000E+00 -0.24630780287E+02  0.24630780287E+02  0.00000000000E+00 0. -1.
         23    2    1    2    0    0  0.75089260324E+02 -0.57920545117E+02  0.36337225353E+03  0.39580183223E+03  0.12500603664E+03 0.  0.
          5    1    3    3  502    0  0.67925153748E+02 -0.45512151695E+02  0.37027053263E+03  0.37921964585E+03  0.47000000000E+01 0. -1.
         -5    1    3    3    0  502  0.71641065755E+01 -0.12408393422E+02 -0.68982791054E+01  0.16582186374E+02  0.47000000000E+01 0. -1.
        -11    1    1    2    0    0 -0.35521940973E+02  0.76617013859E+02  0.38489083138E+03  0.39404685912E+03  0.00000000000E+00 0.  1.
         11    1    1    2    0    0 -0.39567319351E+02 -0.18696468742E+02  0.12091072979E+03  0.12858668393E+03  0.00000000000E+00 0. -1.
<mgrwt>
<rscale>  0 0.15014816E+03</rscale>
<asrwt>0</asrwt>
<pdfrwt beam="2">  1        1 0.37893515E-02 0.15690665E+03</pdfrwt>
<pdfrwt beam="1">  1       -1 0.13750837E+00 0.15690665E+03</pdfrwt>
<totfact> 0.11431470E+03</totfact>
</mgrwt>
</event>
<event>
 7    1  0.6419647E-006  0.1452954E+03  0.7546771E-02  0.1217592E+00
         -1   -1    0    0    0  501 -0.00000000000E+00  0.00000000000E+00  0.90933554877E+03  0.90933554877E+03  0.00000000000E+00 0.  1.
          1   -1    0    0  501    0  0.00000000000E+00 -0.00000000000E+00 -0.20363492065E+02  0.20363492065E+02  0.00000000000E+00 0. -1.
         23    2    1    2    0    0 -0.10768142701E+02 -0.73280533641E+02  0.35465101150E+03  0.38325981322E+03  0.12499901983E+03 0.  0.
          5    1    3    3  502    0 -0.28528824325E+02 -0.97122256057E+02  0.18477642289E+03  0.21073927706E+03  0.47000000000E+01 0. -1.
         -5    1    3    3    0  502  0.17760681623E+02  0.23841722416E+02  0.16987458862E+03  0.17252053616E+03  0.47000000000E+01 0. -1.
        -11    1    1    2    0    0  0.31397302580E+02  0.84811419714E+02  0.40473648540E+03  0.41471724118E+03  0.00000000000E+00 0.  1.
         11    1    1    2    0    0 -0.20629159879E+02 -0.11530886072E+02  0.12958455980E+03  0.13172198644E+03  0.00000000000E+00 0. -1.
<mgrwt>
<rscale>  0 0.13687833E+03</rscale>
<asrwt>0</asrwt>
<pdfrwt beam="2">  1        1 0.31328456E-02 0.14529537E+03</pdfrwt>
<pdfrwt beam="1">  1       -1 0.13989775E+00 0.14529537E+03</pdfrwt>
<totfact> 0.14210423E+03</totfact>
</mgrwt>
</event>
<event>
 7    1  0.6419647E-006  0.1143074E+03  0.7546771E-02  0.1264687E+00
         -2   -1    0    0    0  501 -0.00000000000E+00  0.00000000000E+00  0.27490698450E+02  0.27490698450E+02  0.00000000000E+00 0.  1.
          2   -1    0    0  501    0  0.00000000000E+00 -0.00000000000E+00 -0.39217112785E+03  0.39217112785E+03  0.00000000000E+00 0. -1.
         23    2    1    2    0    0  0.69833191052E+01  0.10357073598E+02 -0.23781796603E+03  0.26386278918E+03  0.11362284466E+03 0.  0.
          5    1    3    3  502    0  0.35399455415E+01 -0.23790327741E+02 -0.10030525112E+01  0.24527678708E+02  0.47000000000E+01 0. -1.
         -5    1    3    3    0  502  0.34433735637E+01  0.34147401338E+02 -0.23681491352E+03  0.23933511047E+03  0.47000000000E+01 0.  1.
        -11    1    1    2    0    0  0.33495562467E+02 -0.27696849543E+02 -0.43343886691E+02  0.61382087722E+02  0.00000000000E+00 0.  1.
         11    1    1    2    0    0 -0.40478881573E+02  0.17339775946E+02 -0.83518576683E+02  0.94416949402E+02  0.00000000000E+00 0. -1.
<mgrwt>
<rscale>  0 0.10780652E+03</rscale>
<asrwt>0</asrwt>
<pdfrwt beam="2">  1        2 0.60334014E-01 0.11430742E+03</pdfrwt>
<pdfrwt beam="1">  1       -2 0.42293386E-02 0.11430742E+03</pdfrwt>
<totfact> 0.19033862E+04</totfact>
</mgrwt>
</event>
<event>
 7    1  0.6419647E-006  0.1275460E+03  0.7546771E-02  0.1260799E+00
         -2   -1    0    0    0  501 -0.00000000000E+00  0.00000000000E+00  0.46081171832E+02  0.46081171832E+02  0.00000000000E+00 0.  1.
          2   -1    0    0  501    0  0.00000000000E+00 -0.00000000000E+00 -0.23648769390E+03  0.23648769390E+03  0.00000000000E+00 0. -1.
         23    2    1    2    0    0  0.24961104136E+02 -0.45583462886E+01 -0.16345754621E+03  0.20733153155E+03  0.12499663723E+03 0.  0.
          5    1    3    3  502    0  0.19702547849E+02  0.40056035040E+02 -0.15501249965E+03  0.16138042441E+03  0.47000000000E+01 0. -1.
         -5    1    3    3    0  502  0.52585562869E+01 -0.44614381329E+02 -0.84450465609E+01  0.45951107136E+02  0.47000000000E+01 0. -1.
        -11    1    1    2    0    0 -0.10266358951E+02 -0.13192537523E+02  0.18098854557E+02  0.24637567021E+02  0.00000000000E+00 0.  1.
         11    1    1    2    0    0 -0.14694745185E+02  0.17750883812E+02 -0.45047830411E+02  0.50599767162E+02  0.00000000000E+00 0. -1.
<mgrwt>
<rscale>  0 0.10987646E+03</rscale>
<asrwt>0</asrwt>
<pdfrwt beam="2">  1        2 0.36382722E-01 0.12754605E+03</pdfrwt>
<pdfrwt beam="1">  1       -2 0.70894110E-02 0.12754605E+03</pdfrwt>
<totfact> 0.15090861E+04</totfact>
</mgrwt>
</event>
<event>
 7    1  0.6419647E-006  0.1314692E+03  0.7546771E-02  0.1239662E+00
         -2   -1    0    0    0  501 -0.00000000000E+00  0.00000000000E+00  0.93787626541E+01  0.93787626541E+01  0.00000000000E+00 0.  1.
          2   -1    0    0  501    0  0.00000000000E+00 -0.00000000000E+00 -0.17185970537E+04  0.17185970537E+04  0.00000000000E+00 0. -1.
         23    2    1    2    0    0  0.15412606778E+02 -0.37684922540E+02 -0.13246726043E+04  0.13311805552E+04  0.12500584048E+03 0.  0.
          5    1    3    3  502    0 -0.39780213929E+02 -0.46964020266E+02 -0.98179067177E+03  0.98372917910E+03  0.47000000000E+01 0. -1.
         -5    1    3    3    0  502  0.55192820706E+02  0.92790977267E+01 -0.34288193252E+03  0.34745137611E+03  0.47000000000E+01 0. -1.
        -11    1    1    2    0    0  0.34739021434E+02  0.22524608667E+02 -0.22760883026E+03  0.23134376416E+03  0.00000000000E+00 0.  1.
         11    1    1    2    0    0 -0.50151628212E+02  0.15160313873E+02 -0.15693685651E+03  0.16545149700E+03  0.00000000000E+00 0. -1.
<mgrwt>
<rscale>  0 0.12210637E+03</rscale>
<asrwt>0</asrwt>
<pdfrwt beam="2">  1        2 0.26439955E+00 0.13146924E+03</pdfrwt>
<pdfrwt beam="1">  1       -2 0.14428865E-02 0.13146924E+03</pdfrwt>
<totfact> 0.12697833E+04</totfact>
</mgrwt>
</event>
<event>
 7    1  0.6419647E-006  0.2220112E+03  0.7546771E-02  0.1135706E+00
          2   -1    0    0  501    0  0.00000000000E+00  0.00000000000E+00  0.11875193870E+03  0.11875193870E+03  0.00000000000E+00 0. -1.
         -2   -1    0    0    0  501 -0.00000000000E+00 -0.00000000000E+00 -0.41432538091E+03  0.41432538091E+03  0.00000000000E+00 0.  1.
         23    2    1    2    0    0  0.18308194642E+03 -0.15055971621E+02 -0.80625862287E+02  0.23619800737E+03  0.12467272209E+03 0.  0.
          5    1    3    3  502    0  0.35799995540E+02 -0.58155287187E+02 -0.23133082014E+02  0.72255841230E+02  0.47000000000E+01 0. -1.
         -5    1    3    3    0  502  0.14728195088E+03  0.43099315565E+02 -0.57492780273E+02  0.16394216614E+03  0.47000000000E+01 0. -1.
        -11    1    1    2    0    0 -0.18221213528E+02 -0.73655313373E+01 -0.80802303943E+02  0.83158138488E+02  0.00000000000E+00 0.  1.
         11    1    1    2    0    0 -0.16486073289E+03  0.22421502959E+02 -0.13414527598E+03  0.21372117375E+03  0.00000000000E+00 0. -1.
<mgrwt>
<rscale>  0 0.21757203E+03</rscale>
<asrwt>0</asrwt>
<pdfrwt beam="1">  1        2 0.18269529E-01 0.22201119E+03</pdfrwt>
<pdfrwt beam="2">  1       -2 0.63742367E-01 0.22201119E+03</pdfrwt>
<totfact> 0.71695574E+02</totfact>
</mgrwt>
</event>
<event>
 6    1  0.6419647E-006  0.2242263E+03  0.7546771E-02  0.1174855E+00
          2   -1    0    0  501    0  0.00000000000E+00  0.00000000000E+00  0.71310798517E+03  0.71310798517E+03  0.00000000000E+00 0. -1.
         -2   -1    0    0    0  501 -0.00000000000E+00 -0.00000000000E+00 -0.93326065445E+02  0.93326065445E+02  0.00000000000E+00 0.  1.
          5    1    1    2  502    0 -0.50466481797E+02 -0.10697685027E+03  0.55283672361E+03  0.56536841550E+03  0.47000000000E+01 0. -1.
         -5    1    1    2    0  502  0.72539876786E+02  0.32367192705E+02  0.12121087306E+03  0.14499598145E+03  0.47000000000E+01 0.  1.
        -11    1    1    2    0    0 -0.21579593433E+02  0.59697250163E+02 -0.49200701244E+02  0.80312822966E+02  0.00000000000E+00 0.  1.
         11    1    1    2    0    0 -0.49380155549E+00  0.14912407405E+02 -0.50649757060E+01  0.15756830693E+02  0.00000000000E+00 0. -1.
<mgrwt>
<rscale>  0 0.17290187E+03</rscale>
<asrwt>0</asrwt>
<pdfrwt beam="1">  1        2 0.10970892E+00 0.22422626E+03</pdfrwt>
<pdfrwt beam="2">  1       -2 0.14357857E-01 0.22422626E+03</pdfrwt>
<totfact> 0.15070420E+03</totfact>
</mgrwt>
</event>
<event>
 7    1  0.6419647E-006  0.1592346E+03  0.7546771E-02  0.1196468E+00
          1   -1    0    0  501    0  0.00000000000E+00  0.00000000000E+00  0.46908257706E+03  0.46908257706E+03  0.00000000000E+00 0. -1.
         -1   -1    0    0    0  501 -0.00000000000E+00 -0.00000000000E+00 -0.50926452914E+02  0.50926452914E+02  0.00000000000E+00 0.  1.
         23    2    1    2    0    0 -0.90568495363E+02  0.39080252777E+02  0.29821161474E+03  0.33806186121E+03  0.12500294529E+03 0.  0.
          5    1    3    3  502    0 -0.83315932963E+02  0.32092287298E+02  0.30953916641E+03  0.32219255909E+03  0.47000000000E+01 0. -1.
         -5    1    3    3    0  502 -0.72525623999E+01  0.69879654785E+01 -0.11327551675E+02  0.15869302122E+02  0.47000000000E+01 0. -1.
        -11    1    1    2    0    0  0.67306150810E+01  0.25378919453E+02  0.68998534896E+01  0.27147720165E+02  0.00000000000E+00 0.  1.
         11    1    1    2    0    0  0.83837880282E+02 -0.64459172230E+02  0.11304465592E+03  0.15479944860E+03  0.00000000000E+00 0. -1.
<mgrwt>
<rscale>  0 0.15330656E+03</rscale>
<asrwt>0</asrwt>
<pdfrwt beam="1">  1        1 0.72166547E-01 0.15923459E+03</pdfrwt>
<pdfrwt beam="2">  1       -1 0.78348392E-02 0.15923459E+03</pdfrwt>
<totfact> 0.42575590E+03</totfact>
</mgrwt>
</event>
<event>
 7    1  0.6419647E-006  0.1261767E+03  0.7546771E-02  0.1250382E+00
         -2   -1    0    0    0  501 -0.00000000000E+00  0.00000000000E+00  0.71428596204E+02  0.71428596204E+02  0.00000000000E+00 0.  1.
          2   -1    0    0  501    0  0.00000000000E+00 -0.00000000000E+00 -0.45690057729E+03  0.45690057729E+03  0.00000000000E+00 0. -1.
         23    2    1    2    0    0  0.16683366459E+02 -0.37873762500E+01 -0.41549835969E+03  0.43423432184E+03  0.12501152115E+03 0.  0.
          5    1    3    3  502    0  0.32200845416E+02 -0.58388134241E+02 -0.18192156793E+03  0.19381335234E+03  0.47000000000E+01 0.  1.
         -5    1    3    3    0  502 -0.15517478957E+02  0.54600757991E+02 -0.23357679176E+03  0.24042096950E+03  0.47000000000E+01 0.  1.
        -11    1    1    2    0    0 -0.49778259136E+01  0.18409296544E+02  0.57648645718E+02  0.60721061447E+02  0.00000000000E+00 0.  1.
         11    1    1    2    0    0 -0.11705540545E+02 -0.14621920294E+02 -0.27622267119E+02  0.33373790215E+02  0.00000000000E+00 0. -1.
<mgrwt>
<rscale>  0 0.11568996E+03</rscale>
<asrwt>0</asrwt>
<pdfrwt beam="2">  1        2 0.70292396E-01 0.12617670E+03</pdfrwt>
<pdfrwt beam="1">  1       -2 0.10989015E-01 0.12617670E+03</pdfrwt>
<totfact> 0.37904217E+03</totfact>
</mgrwt>
</event>
<event>
 7    1  0.6419647E-006  0.2207967E+03  0.7546771E-02  0.1136706E+00
         -1   -1    0    0    0  501 -0.00000000000E+00  0.00000000000E+00  0.37554690782E+03  0.37554690782E+03  0.00000000000E+00 0.  1.
          1   -1    0    0  501    0  0.00000000000E+00 -0.00000000000E+00 -0.12163092671E+03  0.12163092671E+03  0.00000000000E+00 0. -1.
         23    2    1    2    0    0  0.75834982725E+02 -0.16545099655E+03  0.10057936767E+03  0.24262607798E+03  0.12500491051E+03 0.  0.
          5    1    3    3  502    0  0.14814382135E+02 -0.87614424919E+02 -0.15210681426E+02  0.90272964953E+02  0.47000000000E+01 0.  1.
         -5    1    3    3    0  502  0.61020600590E+02 -0.77836571636E+02  0.11579004909E+03  0.15235311303E+03  0.47000000000E+01 0.  1.
        -11    1    1    2    0    0 -0.12040077194E+02  0.92795175232E+02  0.12023067920E+03  0.15235263118E+03  0.00000000000E+00 0.  1.
         11    1    1    2    0    0 -0.63794905531E+02  0.72655821322E+02  0.33105934247E+02  0.10219912537E+03  0.00000000000E+00 0. -1.
<mgrwt>
<rscale>  0 0.21625585E+03</rscale>
<asrwt>0</asrwt>
<pdfrwt beam="2">  1        1 0.18712450E-01 0.22079675E+03</pdfrwt>
<pdfrwt beam="1">  1       -1 0.57776447E-01 0.22079675E+03</pdfrwt>
<totfact> 0.86936153E+02</totfact>
</mgrwt>
</event>
<event>
 7    1  0.6419647E-006  0.1840294E+03  0.7546771E-02  0.1169459E+00
         -1   -1    0    0    0  501 -0.00000000000E+00  0.00000000000E+00  0.10061319052E+03  0.10061319052E+03  0.00000000000E+00 0.  1.
          1   -1    0    0  501    0  0.00000000000E+00 -0.00000000000E+00 -0.29812633065E+03  0.29812633065E+03  0.00000000000E+00 0. -1.
         23    2    1    2    0    0 -0.13482646422E+03 -0.78993729828E+01 -0.11168459128E+03  0.21526790375E+03  0.12500498755E+03 0.  0.
          5    1    3    3  502    0 -0.54200958898E+02  0.57826455006E+02 -0.40452401312E+02  0.89107404944E+02  0.47000000000E+01 0. -1.
         -5    1    3    3    0  502 -0.80625505318E+02 -0.65725827989E+02 -0.71232189965E+02  0.12616049881E+03  0.47000000000E+01 0. -1.
        -11    1    1    2    0    0 -0.12450502005E+02  0.22466293184E+01 -0.15953873115E+02  0.20361444223E+02  0.00000000000E+00 0. -1.
         11    1    1    2    0    0  0.14727696622E+03  0.56527436644E+01 -0.69874675740E+02  0.16311017320E+03  0.00000000000E+00 0.  1.
<mgrwt>
<rscale>  0 0.17829952E+03</rscale>
<asrwt>0</asrwt>
<pdfrwt beam="2">  1        1 0.45865589E-01 0.18402941E+03</pdfrwt>
<pdfrwt beam="1">  1       -1 0.15478953E-01 0.18402941E+03</pdfrwt>
<totfact> 0.26547505E+03</totfact>
</mgrwt>
</event>
<event>
 7    1  0.6419647E-006  0.1642070E+03  0.7546771E-02  0.1191489E+00
          1   -1    0    0  501    0  0.00000000000E+00  0.00000000000E+00  0.10275878405E+04  0.10275878405E+04  0.00000000000E+00 0. -1.
         -1   -1    0    0    0  501 -0.00000000000E+00 -0.00000000000E+00 -0.34227824974E+02  0.34227824974E+02  0.00000000000E+00 0.  1.
         23    2    1    2    0    0  0.17499639597E+02 -0.10503992538E+03  0.83502986654E+03  0.85102222157E+03  0.12499728106E+03 0.  0.
          5    1    3    3  502    0  0.61300494153E+02 -0.31378764384E+02  0.23640835241E+03  0.24627906230E+03  0.47000000000E+01 0. -1.
         -5    1    3    3    0  502 -0.43800854556E+02 -0.73661161001E+02  0.59862151413E+03  0.60474315927E+03  0.47000000000E+01 0. -1.
        -11    1    1    2    0    0  0.13492821462E+02  0.27918960771E+01 -0.58018914173E+01  0.14950346441E+02  0.00000000000E+00 0.  1.
         11    1    1    2    0    0 -0.30992461059E+02  0.10224802931E+03  0.16413204042E+03  0.19584309749E+03  0.00000000000E+00 0. -1.
<mgrwt>
<rscale>  0 0.15755138E+03</rscale>
<asrwt>0</asrwt>
<pdfrwt beam="1">  1        1 0.15809041E+00 0.16420701E+03</pdfrwt>
<pdfrwt beam="2">  1       -1 0.52658200E-02 0.16420701E+03</pdfrwt>
<totfact> 0.24630416E+03</totfact>
</mgrwt>
</event>
<event>
 7    1  0.6419647E-006  0.1286547E+03  0.7546771E-02  0.1244093E+00
          2   -1    0    0  501    0  0.00000000000E+00  0.00000000000E+00  0.22118587535E+03  0.22118587535E+03  0.00000000000E+00 0. -1.
         -2   -1    0    0    0  501 -0.00000000000E+00 -0.00000000000E+00 -0.98279457932E+02  0.98279457932E+02  0.00000000000E+00 0.  1.
         23    2    1    2    0    0  0.30386033477E+02  0.19141770903E+01  0.16987702380E+03  0.21309675066E+03  0.12500018729E+03 0.  0.
          5    1    3    3  502    0  0.65553400376E+02  0.32023671624E+00  0.36720228857E+02  0.75284899281E+02  0.47000000000E+01 0. -1.
         -5    1    3    3    0  502 -0.35167366899E+02  0.15939403741E+01  0.13315679494E+03  0.13781185138E+03  0.47000000000E+01 0. -1.
        -11    1    1    2    0    0 -0.71104255089E+01  0.32258585526E+02  0.11306226245E+02  0.34914255584E+02  0.00000000000E+00 0. -1.
         11    1    1    2    0    0 -0.23275607968E+02 -0.34172762617E+02 -0.58276832629E+02  0.71454327037E+02  0.00000000000E+00 0.  1.
<mgrwt>
<rscale>  0 0.11939805E+03</rscale>
<asrwt>0</asrwt>
<pdfrwt beam="1">  1        2 0.34028596E-01 0.12865466E+03</pdfrwt>
<pdfrwt beam="2">  1       -2 0.15119917E-01 0.12865466E+03</pdfrwt>
<totfact> 0.49160423E+03</totfact>
</mgrwt>
</event>
<event>
 7    1  0.6419647E-006  0.1769965E+03  0.7546771E-02  0.1172830E+00
         -1   -1    0    0    0  501 -0.00000000000E+00  0.00000000000E+00  0.58837348306E+02  0.58837348306E+02  0.00000000000E+00 0.  1.
          1   -1    0    0  501    0  0.00000000000E+00 -0.00000000000E+00 -0.52483995888E+03  0.52483995888E+03  0.00000000000E+00 0. -1.
         23    2    1    2    0    0 -0.49820933491E+02  0.10186226551E+03 -0.27992423259E+03  0.32686429898E+03  0.12499858964E+03 0.  0.
          5    1    3    3  502    0 -0.58345882098E+01  0.10832537779E+03 -0.12479500244E+03  0.16542162050E+03  0.47000000000E+01 0. -1.
         -5    1    3    3    0  502 -0.43986345281E+02 -0.64631122783E+01 -0.15512923015E+03  0.16144267849E+03  0.47000000000E+01 0. -1.
        -11    1    1    2    0    0  0.29682245881E+02 -0.11480887021E+03 -0.19743875300E+03  0.23031320759E+03  0.00000000000E+00 0. -1.
         11    1    1    2    0    0  0.20138687609E+02  0.12946604701E+02  0.11360375022E+02  0.26499800614E+02  0.00000000000E+00 0.  1.
<mgrwt>
<rscale>  0 0.17490254E+03</rscale>
<asrwt>0</asrwt>
<pdfrwt beam="2">  1        1 0.80744610E-01 0.17699649E+03</pdfrwt>
<pdfrwt beam="1">  1       -1 0.90518996E-02 0.17699649E+03</pdfrwt>
<totfact> 0.29619875E+03</totfact>
</mgrwt>
</event>
<event>
 7    1  0.6419647E-006  0.1259559E+03  0.7546771E-02  0.1249319E+00
         -1   -1    0    0    0  501 -0.00000000000E+00  0.00000000000E+00  0.14460261540E+03  0.14460261540E+03  0.00000000000E+00 0.  1.
          1   -1    0    0  501    0  0.00000000000E+00 -0.00000000000E+00 -0.86099549253E+02  0.86099549253E+02  0.00000000000E+00 0. -1.
         23    2    1    2    0    0  0.22919088563E+01  0.15316285275E+02  0.81926697558E+01  0.12622209276E+03  0.12500022168E+03 0.  0.
          5    1    3    3  502    0 -0.20956860352E+02  0.18782502032E+02  0.61487367548E+02  0.67784649784E+02  0.47000000000E+01 0. -1.
         -5    1    3    3    0  502  0.23248769208E+02 -0.34662167563E+01 -0.53294697792E+02  0.58437442971E+02  0.47000000000E+01 0. -1.
        -11    1    1    2    0    0  0.13320029027E+02  0.15636001553E+02  0.63994662782E+02  0.67210301163E+02  0.00000000000E+00 0.  1.
         11    1    1    2    0    0 -0.15611937883E+02 -0.30952286828E+02 -0.13684266387E+02  0.37269770739E+02  0.00000000000E+00 0. -1.
<mgrwt>
<rscale>  0 0.11630584E+03</rscale>
<asrwt>0</asrwt>
<pdfrwt beam="2">  1        1 0.13246085E-01 0.12595593E+03</pdfrwt>
<pdfrwt beam="1">  1       -1 0.22246556E-01 0.12595593E+03</pdfrwt>
<totfact> 0.70027136E+03</totfact>
</mgrwt>
</event>
<event>
 7    1  0.6419647E-006  0.1203174E+03  0.7546771E-02  0.1250152E+00
         -2   -1    0    0    0  501 -0.00000000000E+00  0.00000000000E+00  0.28512318407E+02  0.28512318407E+02  0.00000000000E+00 0.  1.
          2   -1    0    0  501    0  0.00000000000E+00 -0.00000000000E+00 -0.54233396439E+03  0.54233396439E+03  0.00000000000E+00 0. -1.
         23    2    1    2    0    0  0.14670879940E+02  0.45525408747E+02 -0.39727989483E+03  0.41509950355E+03  0.11040147398E+03 0.  0.
          5    1    3    3  502    0 -0.58282447712E+01  0.69170819281E+02 -0.35780316544E+03  0.36450482284E+03  0.47000000000E+01 0. -1.
         -5    1    3    3    0  502  0.20499124711E+02 -0.23645410534E+02 -0.39476729388E+02  0.50594680712E+02  0.47000000000E+01 0.  1.
        -11    1    1    2    0    0 -0.20000977793E+02 -0.69978430478E+01 -0.11487880453E+03  0.11681673104E+03  0.00000000000E+00 0. -1.
         11    1    1    2    0    0  0.53300978532E+01 -0.38527565699E+02 -0.16629466266E+01  0.38930048206E+02  0.00000000000E+00 0.  1.
<mgrwt>
<rscale>  0 0.11582246E+03</rscale>
<asrwt>0</asrwt>
<pdfrwt beam="2">  1        2 0.83435994E-01 0.12031743E+03</pdfrwt>
<pdfrwt beam="1">  1       -2 0.43865105E-02 0.12031743E+03</pdfrwt>
<totfact> 0.12755290E+04</totfact>
</mgrwt>
</event>
<event>
 7    1  0.6419647E-006  0.1615583E+03  0.7546771E-02  0.1194673E+00
          1   -1    0    0  501    0  0.00000000000E+00  0.00000000000E+00  0.23387564044E+03  0.23387564044E+03  0.00000000000E+00 0. -1.
         -1   -1    0    0    0  501 -0.00000000000E+00 -0.00000000000E+00 -0.95467646557E+02  0.95467646557E+02  0.00000000000E+00 0.  1.
         23    2    1    2    0    0 -0.97758605561E+02  0.30077213800E+02  0.88772228128E+02  0.18434093746E+03  0.12505874214E+03 0.  0.
          5    1    3    3  502    0 -0.22331752466E+02  0.71521262301E+02  0.35799502695E+02  0.83172666919E+02  0.47000000000E+01 0. -1.
         -5    1    3    3    0  502 -0.75426853095E+02 -0.41444048501E+02  0.52972725433E+02  0.10116827054E+03  0.47000000000E+01 0. -1.
        -11    1    1    2    0    0  0.73571996090E+02 -0.61660180330E+02  0.40492685761E+02  0.10418480718E+03  0.00000000000E+00 0.  1.
         11    1    1    2    0    0  0.24186609471E+02  0.31582966530E+02  0.91430799940E+01  0.40817542360E+02  0.00000000000E+00 0. -1.
<mgrwt>
<rscale>  0 0.15481923E+03</rscale>
<asrwt>0</asrwt>
<pdfrwt beam="1">  1        1 0.35980868E-01 0.16155826E+03</pdfrwt>
<pdfrwt beam="2">  1       -1 0.14687330E-01 0.16155826E+03</pdfrwt>
<totfact> 0.38806521E+03</totfact>
</mgrwt>
</event>
<event>
 6    1  0.6419647E-006  0.1587879E+03  0.7546771E-02  0.1203420E+00
          2   -1    0    0  501    0  0.00000000000E+00  0.00000000000E+00  0.16293854704E+04  0.16293854704E+04  0.00000000000E+00 0. -1.
         -2   -1    0    0    0  501 -0.00000000000E+00 -0.00000000000E+00 -0.15625853037E+02  0.15625853037E+02  0.00000000000E+00 0.  1.
          5    1    1    2  502    0 -0.28386740767E+02 -0.93875302433E+01  0.10985290993E+04  0.10989459517E+04  0.47000000000E+01 0. -1.
         -5    1    1    2    0  502 -0.37331268324E+02  0.48692044499E+02  0.19991594254E+03  0.20917220865E+03  0.47000000000E+01 0.  1.
        -11    1    1    2    0    0  0.19859441845E+02 -0.58381224741E+02  0.11475088498E+03  0.13027098847E+03  0.00000000000E+00 0. -1.
         11    1    1    2    0    0  0.45858567247E+02  0.19076710485E+02  0.20056369055E+03  0.20662217461E+03  0.00000000000E+00 0.  1.
<mgrwt>
<rscale>  0 0.14762644E+03</rscale>
<asrwt>0</asrwt>
<pdfrwt beam="1">  1        2 0.25067455E+00 0.15878789E+03</pdfrwt>
<pdfrwt beam="2">  1       -2 0.24039787E-02 0.15878789E+03</pdfrwt>
<totfact> 0.67713269E+03</totfact>
</mgrwt>
</event>
<event>
 7    1  0.6419647E-006  0.1500396E+03  0.7546771E-02  0.1210160E+00
          1   -1    0    0  501    0  0.00000000000E+00  0.00000000000E+00  0.24799740630E+02  0.24799740630E+02  0.00000000000E+00 0. -1.
         -1   -1    0    0    0  501 -0.00000000000E+00 -0.00000000000E+00 -0.78269938033E+03  0.78269938033E+03  0.00000000000E+00 0.  1.
         23    2    1    2    0    0  0.79975764843E+02  0.22113328559E+02 -0.32753452245E+03  0.36026484400E+03  0.12500708844E+03 0.  0.
          5    1    3    3  502    0 -0.30780868403E+02 -0.97406725771E+01 -0.49840345462E+02  0.59569225257E+02  0.47000000000E+01 0.  1.
         -5    1    3    3    0  502  0.11075663325E+03  0.31854001136E+02 -0.27769417699E+03  0.30069561874E+03  0.47000000000E+01 0.  1.
        -11    1    1    2    0    0 -0.57052776008E+02 -0.55119552773E+02 -0.24348140783E+03  0.25607885565E+03  0.00000000000E+00 0. -1.
         11    1    1    2    0    0 -0.22922988835E+02  0.33006224214E+02 -0.18688370941E+03  0.19115542132E+03  0.00000000000E+00 0.  1.
<mgrwt>
<rscale>  0 0.14238139E+03</rscale>
<asrwt>0</asrwt>
<pdfrwt beam="1">  1        1 0.38153455E-02 0.15003964E+03</pdfrwt>
<pdfrwt beam="2">  1       -1 0.12041527E+00 0.15003964E+03</pdfrwt>
<totfact> 0.15600083E+03</totfact>
</mgrwt>
</event>
<event>
 7    1  0.6419647E-006  0.1196202E+03  0.7546771E-02  0.1256453E+00
         -1   -1    0    0    0  501 -0.00000000000E+00  0.00000000000E+00  0.64757652614E+02  0.64757652614E+02  0.00000000000E+00 0.  1.
          1   -1    0    0  501    0  0.00000000000E+00 -0.00000000000E+00 -0.18346312135E+03  0.18346312135E+03  0.00000000000E+00 0. -1.
         23    2    1    2    0    0 -0.89548076504E+01  0.23393900802E+02 -0.94240564127E+02  0.15228354797E+03  0.11696808061E+03 0.  0.
          5    1    3    3  502    0 -0.53047838176E+02  0.19113549069E+02 -0.91587423917E+02  0.10765568779E+03  0.47000000000E+01 0. -1.
         -5    1    3    3    0  502  0.44093030525E+02  0.42803517337E+01 -0.26531402100E+01  0.44627860187E+02  0.47000000000E+01 0.  1.
        -11    1    1    2    0    0 -0.27508014945E+02  0.11638946873E+02 -0.33161051952E+02  0.44629713613E+02  0.00000000000E+00 0. -1.
         11    1    1    2    0    0  0.36462822596E+02 -0.35032847676E+02  0.86961473417E+01  0.51307512379E+02  0.00000000000E+00 0.  1.
<mgrwt>
<rscale>  0 0.11225351E+03</rscale>
<asrwt>0</asrwt>
<pdfrwt beam="2">  1        1 0.28225095E-01 0.11962021E+03</pdfrwt>
<pdfrwt beam="1">  1       -1 0.99627159E-02 0.11962021E+03</pdfrwt>
<totfact> 0.93738550E+03</totfact>
</mgrwt>
</event>
<event>
 7    1  0.6419647E-006  0.2364698E+03  0.7546771E-02  0.1125006E+00
          2   -1    0    0  501    0  0.00000000000E+00  0.00000000000E+00  0.83398769068E+02  0.83398769068E+02  0.00000000000E+00 0. -1.
         -2   -1    0    0    0  501 -0.00000000000E+00 -0.00000000000E+00 -0.62613521843E+03  0.62613521843E+03  0.00000000000E+00 0.  1.
         23    2    1    2    0    0 -0.68899449729E+02  0.18853678205E+03 -0.27061070971E+03  0.35937183939E+03  0.12499884150E+03 0.  0.
          5    1    3    3  502    0 -0.47508267176E+02  0.19689286468E+03 -0.19884780781E+03  0.28387739657E+03  0.47000000000E+01 0.  1.
         -5    1    3    3    0  502 -0.21391182553E+02 -0.83560826251E+01 -0.71762901899E+02  0.75494442821E+02  0.47000000000E+01 0.  1.
        -11    1    1    2    0    0  0.21810077309E+02 -0.42243962162E+02 -0.13876164336E+03  0.14668001050E+03  0.00000000000E+00 0.  1.
         11    1    1    2    0    0  0.47089372420E+02 -0.14629281989E+03 -0.13336409629E+03  0.20348213761E+03  0.00000000000E+00 0. -1.
<mgrwt>
<rscale>  0 0.23233671E+03</rscale>
<asrwt>0</asrwt>
<pdfrwt beam="1">  1        2 0.12830580E-01 0.23646979E+03</pdfrwt>
<pdfrwt beam="2">  1       -2 0.96328493E-01 0.23646979E+03</pdfrwt>
<totfact> 0.44014695E+02</totfact>
</mgrwt>
</event>
<event>
 7    1  0.6419647E-006  0.1295915E+03  0.7546771E-02  0.1245017E+00
         -2   -1    0    0    0  501 -0.00000000000E+00  0.00000000000E+00  0.13386985501E+02  0.13386985501E+02  0.00000000000E+00 0. -1.
          2   -1    0    0  501    0  0.00000000000E+00 -0.00000000000E+00 -0.12039365436E+04  0.12039365436E+04  0.00000000000E+00 0.  1.
         23    2    1    2    0    0  0.22289160275E+02  0.25767873093E+02 -0.96802232400E+03  0.97665816803E+03  0.12503266558E+03 0.  0.
          5    1    3    3  502    0  0.66412766485E+02  0.18144204658E+02 -0.79083800459E+03  0.79384299910E+03  0.47000000000E+01 0. -1.
         -5    1    3    3    0  502 -0.44123606210E+02  0.76236684348E+01 -0.17718431940E+03  0.18281516892E+03  0.47000000000E+01 0. -1.
        -11    1    1    2    0    0 -0.33920981653E+02 -0.39829029045E+02 -0.21439660590E+03  0.22068731085E+03  0.00000000000E+00 0.  1.
         11    1    1    2    0    0  0.11631821378E+02  0.14061155952E+02 -0.81306281841E+01  0.19978050203E+02  0.00000000000E+00 0. -1.
<mgrwt>
<rscale>  0 0.11884383E+03</rscale>
<asrwt>0</asrwt>
<pdfrwt beam="2">  1        2 0.18522106E+00 0.12959150E+03</pdfrwt>
<pdfrwt beam="1">  1       -2 0.20595356E-02 0.12959150E+03</pdfrwt>
<totfact> 0.14142094E+04</totfact>
</mgrwt>
</event>
<event>
 7    1  0.6419647E-006  0.1550117E+03  0.7546771E-02  0.1198405E+00
         -2   -1    0    0    0  501 -0.00000000000E+00  0.00000000000E+00  0.19066858123E+02  0.19066858123E+02  0.00000000000E+00 0.  1.
          2   -1    0    0  501    0  0.00000000000E+00 -0.00000000000E+00 -0.11807612989E+04  0.11807612989E+04  0.00000000000E+00 0. -1.
         23    2    1    2    0    0  0.71060547847E+02 -0.80143051149E+02 -0.68875327025E+03  0.70598136372E+03  0.11205404292E+03 0.  0.
          5    1    3    3  502    0  0.26704717888E+02 -0.53701326774E+02 -0.60137104859E+03  0.60437256931E+03  0.47000000000E+01 0. -1.
         -5    1    3    3    0  502  0.44355829959E+02 -0.26441724375E+02 -0.87382221668E+02  0.10160879442E+03  0.47000000000E+01 0.  1.
        -11    1    1    2    0    0  0.22110693486E+02  0.55297758917E+01 -0.77964508608E+02  0.81227617165E+02  0.00000000000E+00 0.  1.
         11    1    1    2    0    0 -0.93171241332E+02  0.74613275257E+02 -0.39497666194E+03  0.41261917616E+03  0.00000000000E+00 0. -1.
<mgrwt>
<rscale>  0 0.15169546E+03</rscale>
<asrwt>0</asrwt>
<pdfrwt beam="2">  1        2 0.18165564E+00 0.15501167E+03</pdfrwt>
<pdfrwt beam="1">  1       -2 0.29333619E-02 0.15501167E+03</pdfrwt>
<totfact> 0.87674326E+03</totfact>
</mgrwt>
</event>
<event>
 7    1  0.6419647E-006  0.1401809E+03  0.7546771E-02  0.1223834E+00
         -3   -1    0    0    0  501 -0.00000000000E+00  0.00000000000E+00  0.92699703326E+02  0.92699703326E+02  0.00000000000E+00 0.  1.
          3   -1    0    0  501    0  0.00000000000E+00 -0.00000000000E+00 -0.20520542809E+03  0.20520542809E+03  0.00000000000E+00 0. -1.
         23    2    1    2    0    0 -0.56435691262E+02  0.28990710882E+02 -0.12182693107E+03  0.18572154294E+03  0.12500096725E+03 0.  0.
          5    1    3    3  502    0 -0.44061506240E+02 -0.28978641083E+02 -0.32193485901E+01  0.53043681777E+02  0.47000000000E+01 0. -1.
         -5    1    3    3    0  502 -0.12374185023E+02  0.57969351965E+02 -0.11860758248E+03  0.13267786117E+03  0.47000000000E+01 0. -1.
        -11    1    1    2    0    0  0.46471781099E+02 -0.60288842329E+02 -0.51422497798E+01  0.76294257194E+02  0.00000000000E+00 0. -1.
         11    1    1    2    0    0  0.99639101631E+01  0.31298131447E+02  0.14463456083E+02  0.35889331280E+02  0.00000000000E+00 0.  1.
<mgrwt>
<rscale>  0 0.13247164E+03</rscale>
<asrwt>0</asrwt>
<pdfrwt beam="2">  1        3 0.31570066E-01 0.14018092E+03</pdfrwt>
<pdfrwt beam="1">  1       -3 0.14261493E-01 0.14018092E+03</pdfrwt>
<totfact> 0.91643166E+02</totfact>
</mgrwt>
</event>
<event>
 7    1  0.6419647E-006  0.1702389E+03  0.7546771E-02  0.1183947E+00
         -1   -1    0    0    0  501 -0.00000000000E+00  0.00000000000E+00  0.19373115248E+02  0.19373115248E+02  0.00000000000E+00 0.  1.
          1   -1    0    0  501    0  0.00000000000E+00 -0.00000000000E+00 -0.15930322474E+04  0.15930322474E+04  0.00000000000E+00 0. -1.
         23    2    1    2    0    0 -0.91944852916E+02 -0.70018260382E+02 -0.11754225189E+04  0.11876865672E+04  0.12499948480E+03 0.  0.
          5    1    3    3  502    0  0.26973143379E+02 -0.75710603819E+01 -0.37358057985E+03  0.37465905976E+03  0.47000000000E+01 0.  1.
         -5    1    3    3    0  502 -0.11891799629E+03 -0.62447200000E+02 -0.80184193905E+03  0.81302750743E+03  0.47000000000E+01 0.  1.
        -11    1    1    2    0    0  0.63127085481E+02  0.80170039330E+02 -0.36740752362E+03  0.38131424382E+03  0.00000000000E+00 0. -1.
         11    1    1    2    0    0  0.28817767434E+02 -0.10151778948E+02 -0.30829089675E+02  0.43404551672E+02  0.00000000000E+00 0.  1.
<mgrwt>
<rscale>  0 0.16428025E+03</rscale>
<asrwt>0</asrwt>
<pdfrwt beam="2">  1        1 0.24508175E+00 0.17023890E+03</pdfrwt>
<pdfrwt beam="1">  1       -1 0.29804809E-02 0.17023890E+03</pdfrwt>
<totfact> 0.23627604E+03</totfact>
</mgrwt>
</event>
<event>
 7    1  0.6419647E-006  0.1606998E+03  0.7546771E-02  0.1195343E+00
          2   -1    0    0  501    0  0.00000000000E+00  0.00000000000E+00  0.63690927482E+03  0.63690927482E+03  0.00000000000E+00 0. -1.
         -2   -1    0    0    0  501 -0.00000000000E+00 -0.00000000000E+00 -0.44489000423E+02  0.44489000423E+02  0.00000000000E+00 0.  1.
         23    2    1    2    0    0 -0.81674864538E+01  0.10064350998E+03  0.47484929470E+03  0.50130456428E+03  0.12501435739E+03 0.  0.
          5    1    3    3  502    0 -0.44564899813E+02  0.43480752126E+02  0.84376861543E+02  0.10496738000E+03  0.47000000000E+01 0. -1.
         -5    1    3    3    0  502  0.36397413360E+02  0.57162757855E+02  0.39047243316E+03  0.39633718428E+03  0.47000000000E+01 0. -1.
        -11    1    1    2    0    0  0.33747094483E+02 -0.80208183019E+02  0.39752905790E+02  0.95668764641E+02  0.00000000000E+00 0.  1.
         11    1    1    2    0    0 -0.25579608030E+02 -0.20435326962E+02  0.77818073905E+02  0.84424946321E+02  0.00000000000E+00 0. -1.
<mgrwt>
<rscale>  0 0.15425245E+03</rscale>
<asrwt>0</asrwt>
<pdfrwt beam="1">  1        2 0.97986036E-01 0.16069976E+03</pdfrwt>
<pdfrwt beam="2">  1       -2 0.68444621E-02 0.16069976E+03</pdfrwt>
<totfact> 0.55272510E+03</totfact>
</mgrwt>
</event>
<event>
 7    1  0.6419647E-006  0.1269380E+03  0.7546771E-02  0.1243729E+00
         -1   -1    0    0    0  501 -0.00000000000E+00  0.00000000000E+00  0.16087411506E+02  0.16087411506E+02  0.00000000000E+00 0.  1.
          1   -1    0    0  501    0  0.00000000000E+00 -0.00000000000E+00 -0.80109434003E+03  0.80109434003E+03  0.00000000000E+00 0. -1.
         23    2    1    2    0    0 -0.80767612746E+01 -0.20582431247E+02 -0.43437053431E+03  0.45253841056E+03  0.12499752558E+03 0.  0.
          5    1    3    3  502    0 -0.55175930456E+02  0.11849852279E+02 -0.11654230412E+03  0.12957237726E+03  0.47000000000E+01 0. -1.
         -5    1    3    3    0  502  0.47099169182E+02 -0.32432283526E+02 -0.31782823019E+03  0.32296603329E+03  0.47000000000E+01 0. -1.
        -11    1    1    2    0    0  0.46491725104E+02 -0.13738248177E+02 -0.16178286203E+03  0.16889024369E+03  0.00000000000E+00 0. -1.
         11    1    1    2    0    0 -0.38414963830E+02  0.34320679424E+02 -0.18885353218E+03  0.19575309729E+03  0.00000000000E+00 0.  1.
<mgrwt>
<rscale>  0 0.11961789E+03</rscale>
<asrwt>0</asrwt>
<pdfrwt beam="2">  1        1 0.12324528E+00 0.12693798E+03</pdfrwt>
<pdfrwt beam="1">  1       -1 0.24749865E-02 0.12693798E+03</pdfrwt>
<totfact> 0.11000470E+04</totfact>
</mgrwt>
</event>
<event>
 7    1  0.6419647E-006  0.1385039E+03  0.7546771E-02  0.1227013E+00
         -1   -1    0    0    0  501 -0.00000000000E+00  0.00000000000E+00  0.40644154008E+02  0.40644154008E+02  0.00000000000E+00 0.  1.
          1   -1    0    0  501    0  0.00000000000E+00 -0.00000000000E+00 -0.41597946784E+03  0.41597946784E+03  0.00000000000E+00 0. -1.
         23    2    1    2    0    0 -0.59626429041E+02 -0.10615748232E+01 -0.27922152853E+03  0.31168574055E+03  0.12500760333E+03 0.  0.
          5    1    3    3  502    0  0.28053899240E+00 -0.45882101006E+02 -0.18819006720E+03  0.19375974114E+03  0.47000000000E+01 0. -1.
         -5    1    3    3    0  502 -0.59906968033E+02  0.44820526183E+02 -0.91031461328E+02  0.11792599941E+03  0.47000000000E+01 0. -1.
        -11    1    1    2    0    0  0.49478507182E+02 -0.37358124977E+01 -0.11371093681E+03  0.12406553154E+03  0.00000000000E+00 0. -1.
         11    1    1    2    0    0  0.10147921859E+02  0.47973873209E+01  0.17597151500E+02  0.20872349750E+02  0.00000000000E+00 0.  1.
<mgrwt>
<rscale>  0 0.13029856E+03</rscale>
<asrwt>0</asrwt>
<pdfrwt beam="2">  1        1 0.63996845E-01 0.13850393E+03</pdfrwt>
<pdfrwt beam="1">  1       -1 0.62529464E-02 0.13850393E+03</pdfrwt>
<totfact> 0.69172616E+03</totfact>
</mgrwt>
</event>
<event>
 7    1  0.6419647E-006  0.1333986E+03  0.7546771E-02  0.1236980E+00
         -3   -1    0    0    0  501 -0.00000000000E+00  0.00000000000E+00  0.16077770099E+03  0.16077770099E+03  0.00000000000E+00 0.  1.
          3   -1    0    0  501    0  0.00000000000E+00 -0.00000000000E+00 -0.83948767710E+02  0.83948767710E+02  0.00000000000E+00 0. -1.
         23    2    1    2    0    0  0.58372454278E+01  0.46219001942E+02  0.46636522185E+02  0.14131580612E+03  0.12499968913E+03 0.  0.
          5    1    3    3  502    0 -0.33843553169E+02  0.75220835372E+02  0.19154168351E+02  0.84808798661E+02  0.47000000000E+01 0. -1.
         -5    1    3    3    0  502  0.39680798596E+02 -0.29001833430E+02  0.27482353834E+02  0.56507007457E+02  0.47000000000E+01 0. -1.
        -11    1    1    2    0    0 -0.23351601216E+02 -0.24519920740E+02 -0.24652296920E+02  0.41883881576E+02  0.00000000000E+00 0. -1.
         11    1    1    2    0    0  0.17514355788E+02 -0.21699081202E+02  0.54844708020E+02  0.61526781010E+02  0.00000000000E+00 0.  1.
<mgrwt>
<rscale>  0 0.12378499E+03</rscale>
<asrwt>0</asrwt>
<pdfrwt beam="2">  1        3 0.12915195E-01 0.13339862E+03</pdfrwt>
<pdfrwt beam="1">  1       -3 0.24735031E-01 0.13339862E+03</pdfrwt>
<totfact> 0.16818866E+03</totfact>
</mgrwt>
</event>
<event>
 7    1  0.6419647E-006  0.1254908E+03  0.7546771E-02  0.1246455E+00
          2   -1    0    0  501    0  0.00000000000E+00  0.00000000000E+00  0.66155100991E+03  0.66155100991E+03  0.00000000000E+00 0. -1.
         -2   -1    0    0    0  501 -0.00000000000E+00 -0.00000000000E+00 -0.19076285775E+02  0.19076285775E+02  0.00000000000E+00 0.  1.
         23    2    1    2    0    0  0.16704661556E+02 -0.28232960704E+02  0.39398833420E+03  0.41349093796E+03  0.12112721619E+03 0.  0.
          5    1    3    3  502    0  0.60280411474E+02 -0.26299464977E+02  0.32582645900E+03  0.33243098720E+03  0.47000000000E+01 0. -1.
         -5    1    3    3    0  502 -0.43575749918E+02 -0.19334957264E+01  0.68161875195E+02  0.81059950757E+02  0.47000000000E+01 0.  1.
        -11    1    1    2    0    0  0.90036571502E+00  0.51318026018E+02  0.22193895720E+03  0.22779651265E+03  0.00000000000E+00 0. -1.
         11    1    1    2    0    0 -0.17605027271E+02 -0.23085065314E+02  0.26547432743E+02  0.39339845081E+02  0.00000000000E+00 0.  1.
<mgrwt>
<rscale>  0 0.11798730E+03</rscale>
<asrwt>0</asrwt>
<pdfrwt beam="1">  1        2 0.10177706E+00 0.12549083E+03</pdfrwt>
<pdfrwt beam="2">  1       -2 0.29348137E-02 0.12549083E+03</pdfrwt>
<totfact> 0.18489497E+04</totfact>
</mgrwt>
</event>
<event>
 7    1  0.6419647E-006  0.1297562E+03  0.7546771E-02  0.1240984E+00
         -1   -1    0    0    0  501 -0.00000000000E+00  0.00000000000E+00  0.28540345196E+02  0.28540345196E+02  0.00000000000E+00 0.  1.
          1   -1    0    0  501    0  0.00000000000E+00 -0.00000000000E+00 -0.53048673469E+03  0.53048673469E+03  0.00000000000E+00 0. -1.
         23    2    1    2    0    0  0.33344550394E+02  0.10055135488E+02 -0.38214364176E+03  0.40357209819E+03  0.12499484274E+03 0.  0.
          5    1    3    3  502    0 -0.17332211379E+02  0.19724353786E+02 -0.11038517523E+02  0.28868573790E+02  0.47000000000E+01 0. -1.
         -5    1    3    3    0  502  0.50676761773E+02 -0.96692182979E+01 -0.37110512423E+03  0.37470352440E+03  0.47000000000E+01 0. -1.
        -11    1    1    2    0    0  0.31574588436E+02 -0.11533194579E+02 -0.48550683142E+02  0.59051994426E+02  0.00000000000E+00 0. -1.
         11    1    1    2    0    0 -0.64919138830E+02  0.14780590911E+01 -0.71252064591E+02  0.96402987265E+02  0.00000000000E+00 0.  1.
<mgrwt>
<rscale>  0 0.12128984E+03</rscale>
<asrwt>0</asrwt>
<pdfrwt beam="2">  1        1 0.81613339E-01 0.12975622E+03</pdfrwt>
<pdfrwt beam="1">  1       -1 0.43908226E-02 0.12975622E+03</pdfrwt>
<totfact> 0.84989190E+03</totfact>
</mgrwt>
</event>
<event>
 7    1  0.6419647E-006  0.1376898E+03  0.7546771E-02  0.1228624E+00
          2   -1    0    0  501    0  0.00000000000E+00  0.00000000000E+00  0.12931127761E+04  0.12931127761E+04  0.00000000000E+00 0. -1.
         -2   -1    0    0    0  501 -0.00000000000E+00 -0.00000000000E+00 -0.12744501716E+02  0.12744501716E+02  0.00000000000E+00 0.  1.
         23    2    1    2    0    0  0.14042543743E+02 -0.56002271337E+02  0.91145977436E+03  0.92180117975E+03  0.12500018910E+03 0.  0.
          5    1    3    3  502    0 -0.52500283041E+02 -0.37535952086E+02  0.54817656290E+03  0.55198266416E+03  0.47000000000E+01 0. -1.
         -5    1    3    3    0  502  0.66542826784E+02 -0.18466319252E+02  0.36328321147E+03  0.36981851560E+03  0.47000000000E+01 0. -1.
        -11    1    1    2    0    0 -0.41120539143E+02  0.97660260693E+01  0.82686069422E+02  0.92861510223E+02  0.00000000000E+00 0. -1.
         11    1    1    2    0    0  0.27077995400E+02  0.46236245268E+02  0.28622243064E+03  0.29119458789E+03  0.00000000000E+00 0.  1.
<mgrwt>
<rscale>  0 0.12921598E+03</rscale>
<asrwt>0</asrwt>
<pdfrwt beam="1">  1        2 0.19894032E+00 0.13768985E+03</pdfrwt>
<pdfrwt beam="2">  1       -2 0.19606936E-02 0.13768985E+03</pdfrwt>
<totfact> 0.13625858E+04</totfact>
</mgrwt>
</event>
<event>
 7    1  0.6419647E-006  0.1394038E+03  0.7546771E-02  0.1225239E+00
         -1   -1    0    0    0  501 -0.00000000000E+00  0.00000000000E+00  0.27816686420E+03  0.27816686420E+03  0.00000000000E+00 0.  1.
          1   -1    0    0  501    0  0.00000000000E+00 -0.00000000000E+00 -0.56374748380E+02  0.56374748380E+02  0.00000000000E+00 0. -1.
         23    2    1    2    0    0 -0.17532097757E+02 -0.59151093036E+02  0.11171100681E+03  0.17864145686E+03  0.12500877892E+03 0.  0.
          5    1    3    3  502    0 -0.49626795662E+02 -0.62401386942E+02  0.12078488741E+03  0.14480273121E+03  0.47000000000E+01 0. -1.
         -5    1    3    3    0  502  0.32094697905E+02  0.32502939061E+01 -0.90738805987E+01  0.33838725644E+02  0.47000000000E+01 0. -1.
        -11    1    1    2    0    0 -0.83087052614E+01  0.55492877077E+02  0.16118851301E+02  0.58380744742E+02  0.00000000000E+00 0. -1.
         11    1    1    2    0    0  0.25840803018E+02  0.36582159588E+01  0.93962257704E+02  0.97519410978E+02  0.00000000000E+00 0.  1.
<mgrwt>
<rscale>  0 0.13150526E+03</rscale>
<asrwt>0</asrwt>
<pdfrwt beam="2">  1        1 0.86730384E-02 0.13940381E+03</pdfrwt>
<pdfrwt beam="1">  1       -1 0.42794901E-01 0.13940381E+03</pdfrwt>
<totfact> 0.40843433E+03</totfact>
</mgrwt>
</event>
<event>
 7    1  0.6419647E-006  0.1258987E+03  0.7546771E-02  0.1258743E+00
          2   -1    0    0  501    0  0.00000000000E+00  0.00000000000E+00  0.47128894734E+03  0.47128894734E+03  0.00000000000E+00 0. -1.
         -2   -1    0    0    0  501 -0.00000000000E+00 -0.00000000000E+00 -0.24086133262E+02  0.24086133262E+02  0.00000000000E+00 0.  1.
         23    2    1    2    0    0 -0.12790742013E+02  0.80476328598E+01  0.35000877463E+03  0.37196320015E+03  0.12498844935E+03 0.  0.
          5    1    3    3  502    0  0.29837129628E+02  0.36406601103E+01  0.14511544375E+02  0.33707323101E+02  0.47000000000E+01 0.  1.
         -5    1    3    3    0  502 -0.42627871641E+02  0.44069727495E+01  0.33549723025E+03  0.33825587704E+03  0.47000000000E+01 0.  1.
        -11    1    1    2    0    0  0.30132767388E+02 -0.31168220215E+02  0.38466570997E+02  0.57957904604E+02  0.00000000000E+00 0.  1.
         11    1    1    2    0    0 -0.17342025375E+02  0.23120587355E+02  0.58727468454E+02  0.65453975852E+02  0.00000000000E+00 0. -1.
<mgrwt>
<rscale>  0 0.11099225E+03</rscale>
<asrwt>0</asrwt>
<pdfrwt beam="1">  1        2 0.72505985E-01 0.12589869E+03</pdfrwt>
<pdfrwt beam="2">  1       -2 0.37055593E-02 0.12589869E+03</pdfrwt>
<totfact> 0.19178521E+04</totfact>
</mgrwt>
</event>
<event>
 7    1  0.6419647E-006  0.1261540E+03  0.7546771E-02  0.1254060E+00
          2   -1    0    0  501    0  0.00000000000E+00  0.00000000000E+00  0.86599279338E+03  0.86599279338E+03  0.00000000000E+00 0.  1.
         -2   -1    0    0    0  501 -0.00000000000E+00 -0.00000000000E+00 -0.14299295528E+02  0.14299295528E+02  0.00000000000E+00 0. -1.
         23    2    1    2    0    0 -0.16666324626E+02  0.37822874319E+01  0.65153378640E+03  0.66363476885E+03  0.12499103780E+03 0.  0.
          5    1    3    3  502    0 -0.49626647999E+02 -0.22424337320E+02  0.13912921016E+03  0.14948137749E+03  0.47000000000E+01 0. -1.
         -5    1    3    3    0  502  0.32960323373E+02  0.26206624752E+02  0.51240457624E+03  0.51415339136E+03  0.47000000000E+01 0. -1.
        -11    1    1    2    0    0 -0.28965208468E+02  0.16056845823E+02  0.83650759227E+02  0.89968078331E+02  0.00000000000E+00 0. -1.
         11    1    1    2    0    0  0.45631533094E+02 -0.19839133255E+02  0.11650895223E+03  0.12668924173E+03  0.00000000000E+00 0.  1.
<mgrwt>
<rscale>  0 0.11359169E+03</rscale>
<asrwt>0</asrwt>
<pdfrwt beam="1">  1        2 0.13322962E+00 0.12615400E+03</pdfrwt>
<pdfrwt beam="2">  1       -2 0.21998923E-02 0.12615400E+03</pdfrwt>
<totfact> 0.20296215E+04</totfact>
</mgrwt>
</event>
<event>
 7    1  0.6419647E-006  0.1271063E+03  0.7546771E-02  0.1244921E+00
          1   -1    0    0  501    0  0.00000000000E+00  0.00000000000E+00  0.14244354552E+03  0.14244354552E+03  0.00000000000E+00 0. -1.
         -1   -1    0    0    0  501 -0.00000000000E+00 -0.00000000000E+00 -0.11569980911E+03  0.11569980911E+03  0.00000000000E+00 0.  1.
         23    2    1    2    0    0 -0.22892331243E+02 -0.23816527260E+01  0.76995564092E+02  0.14860796465E+03  0.12500511657E+03 0.  0.
          5    1    3    3  502    0  0.40131759072E+02 -0.10524476981E+02  0.73816300492E+02  0.84807186725E+02  0.47000000000E+01 0.  1.
         -5    1    3    3    0  502 -0.63024090314E+02  0.81428242548E+01  0.31792635997E+01  0.63800777925E+02  0.47000000000E+01 0.  1.
        -11    1    1    2    0    0  0.19168755051E+02  0.18679825394E+02  0.22451352959E+02  0.34934800653E+02  0.00000000000E+00 0. -1.
         11    1    1    2    0    0  0.37235761911E+01 -0.16298172668E+02 -0.72703180642E+02  0.74600589324E+02  0.00000000000E+00 0.  1.
<mgrwt>
<rscale>  0 0.11890082E+03</rscale>
<asrwt>0</asrwt>
<pdfrwt beam="1">  1        1 0.21914392E-01 0.12710630E+03</pdfrwt>
<pdfrwt beam="2">  1       -1 0.17799971E-01 0.12710630E+03</pdfrwt>
<totfact> 0.52545229E+03</totfact>
</mgrwt>
</event>
<event>
 7    1  0.6419647E-006  0.1371134E+03  0.7546771E-02  0.1230867E+00
         -3   -1    0    0    0  501 -0.00000000000E+00  0.00000000000E+00  0.44979055270E+02  0.44979055270E+02  0.00000000000E+00 0.  1.
          3   -1    0    0  501    0  0.00000000000E+00 -0.00000000000E+00 -0.40100973725E+03  0.40100973725E+03  0.00000000000E+00 0. -1.
         23    2    1    2    0    0  0.38264523993E+02  0.41506393925E+02 -0.29683318129E+03  0.32697099620E+03  0.12495255224E+03 0.  0.
          5    1    3    3  502    0 -0.20544363308E+02 -0.32445475174E+02 -0.12458404808E+03  0.13045326657E+03  0.47000000000E+01 0. -1.
         -5    1    3    3    0  502  0.58808887302E+02  0.73951869099E+02 -0.17224913321E+03  0.19651772963E+03  0.47000000000E+01 0. -1.
        -11    1    1    2    0    0 -0.63727642499E+02 -0.43356594962E+02 -0.38536305819E+02  0.86174553154E+02  0.00000000000E+00 0.  1.
         11    1    1    2    0    0  0.25463118506E+02  0.18502010373E+01 -0.20661194879E+02  0.32843243167E+02  0.00000000000E+00 0. -1.
<mgrwt>
<rscale>  0 0.12772744E+03</rscale>
<asrwt>0</asrwt>
<pdfrwt beam="2">  1        3 0.61693807E-01 0.13711344E+03</pdfrwt>
<pdfrwt beam="1">  1       -3 0.69198545E-02 0.13711344E+03</pdfrwt>
<totfact> 0.81312879E+02</totfact>
</mgrwt>
</event>
<event>
 7    1  0.6419647E-006  0.1679969E+03  0.7546771E-02  0.1181196E+00
         -2   -1    0    0    0  501 -0.00000000000E+00  0.00000000000E+00  0.59197788530E+03  0.59197788530E+03  0.00000000000E+00 0.  1.
          2   -1    0    0  501    0  0.00000000000E+00 -0.00000000000E+00 -0.50753470322E+02  0.50753470322E+02  0.00000000000E+00 0. -1.
         23    2    1    2    0    0 -0.73418565947E+02 -0.75338733948E+02  0.17275672256E+03  0.23777282049E+03  0.12499927325E+03 0.  0.
          5    1    3    3  502    0 -0.10212609558E+03 -0.50731436241E+02  0.85637224183E+02  0.14268581635E+03  0.47000000000E+01 0.  1.
         -5    1    3    3    0  502  0.28707529634E+02 -0.24607297707E+02  0.87119498376E+02  0.95087004135E+02  0.47000000000E+01 0.  1.
        -11    1    1    2    0    0 -0.14924320617E+02 -0.14422734949E+02  0.65654676862E+01  0.21768233626E+02  0.00000000000E+00 0. -1.
         11    1    1    2    0    0  0.88342886564E+02  0.89761468897E+02  0.36190222473E+03  0.38319030151E+03  0.00000000000E+00 0.  1.
<mgrwt>
<rscale>  0 0.16682906E+03</rscale>
<asrwt>0</asrwt>
<pdfrwt beam="2">  1        2 0.78082266E-02 0.16799695E+03</pdfrwt>
<pdfrwt beam="1">  1       -2 0.91073516E-01 0.16799695E+03</pdfrwt>
<totfact> 0.91803842E+02</totfact>
</mgrwt>
</event>
<event>
 7    1  0.6419647E-006  0.1553062E+03  0.7546771E-02  0.1200109E+00
          1   -1    0    0  501    0  0.00000000000E+00  0.00000000000E+00  0.15723480649E+03  0.15723480649E+03  0.00000000000E+00 0. -1.
         -1   -1    0    0    0  501 -0.00000000000E+00 -0.00000000000E+00 -0.18263034792E+03  0.18263034792E+03  0.00000000000E+00 0.  1.
         23    2    1    2    0    0 -0.11699553694E+02  0.91423753870E+02  0.73216537353E+02  0.17169936952E+03  0.12499931929E+03 0.  0.
          5    1    3    3  502    0  0.47869996498E+02  0.81471893744E+02  0.41371332497E+02  0.10326123758E+03  0.47000000000E+01 0. -1.
         -5    1    3    3    0  502 -0.59569550192E+02  0.99518601263E+01  0.31845204856E+02  0.68438131932E+02  0.47000000000E+01 0. -1.
        -11    1    1    2    0    0 -0.90229750808E+01  0.20035443718E+02 -0.23494154186E+02  0.32168437407E+02  0.00000000000E+00 0.  1.
         11    1    1    2    0    0  0.20722528775E+02 -0.11145919759E+03 -0.75117924604E+02  0.13599734748E+03  0.00000000000E+00 0. -1.
<mgrwt>
<rscale>  0 0.15029701E+03</rscale>
<asrwt>0</asrwt>
<pdfrwt beam="1">  1        1 0.24189970E-01 0.15530619E+03</pdfrwt>
<pdfrwt beam="2">  1       -1 0.28096976E-01 0.15530619E+03</pdfrwt>
<totfact> 0.22312356E+03</totfact>
</mgrwt>
</event>
<event>
 6    1  0.6419647E-006  0.1456519E+03  0.7546771E-02  0.1223141E+00
          2   -1    0    0  501    0  0.00000000000E+00  0.00000000000E+00  0.43107052239E+03  0.43107052239E+03  0.00000000000E+00 0. -1.
         -2   -1    0    0    0  501 -0.00000000000E+00 -0.00000000000E+00 -0.37563861043E+02  0.37563861043E+02  0.00000000000E+00 0.  1.
          5    1    1    2  502    0  0.37570991874E+02 -0.17817108109E+02  0.23668920781E+03  0.24035993815E+03  0.47000000000E+01 0. -1.
         -5    1    1    2    0  502 -0.25281870095E+02  0.58548497027E+02  0.49880400707E+02  0.81100208596E+02  0.47000000000E+01 0.  1.
        -11    1    1    2    0    0  0.86360941420E+01 -0.44153275469E+02  0.11577014099E+03  0.12420474790E+03  0.00000000000E+00 0. -1.
         11    1    1    2    0    0 -0.20925215921E+02  0.34218865511E+01 -0.88330881580E+01  0.22969488791E+02  0.00000000000E+00 0.  1.
<mgrwt>
<rscale>  0 0.13295162E+03</rscale>
<asrwt>0</asrwt>
<pdfrwt beam="1">  1        2 0.66318538E-01 0.14565193E+03</pdfrwt>
<pdfrwt beam="2">  1       -2 0.57790558E-02 0.14565193E+03</pdfrwt>
<totfact> 0.10990322E+04</totfact>
</mgrwt>
</event>
<event>
 7    1  0.6419647E-006  0.1302964E+03  0.7546771E-02  0.1241621E+00
         -1   -1    0    0    0  501 -0.00000000000E+00  0.00000000000E+00  0.43364710478E+03  0.43364710478E+03  0.00000000000E+00 0.  1.
          1   -1    0    0  501    0  0.00000000000E+00 -0.00000000000E+00 -0.29686893587E+02  0.29686893587E+02  0.00000000000E+00 0. -1.
         23    2    1    2    0    0  0.36214710355E+02  0.63372289662E+01  0.22736517879E+03  0.26205357775E+03  0.12500194946E+03 0.  0.
          5    1    3    3  502    0 -0.36342008202E+02 -0.19466783316E+02  0.13744147971E+03  0.14356861620E+03  0.47000000000E+01 0. -1.
         -5    1    3    3    0  502  0.72556718557E+02  0.25804012282E+02  0.89923699079E+02  0.11848496155E+03  0.47000000000E+01 0. -1.
        -11    1    1    2    0    0 -0.53557661381E+02  0.12902599301E+02  0.16293558506E+03  0.17199681695E+03  0.00000000000E+00 0. -1.
         11    1    1    2    0    0  0.17342951026E+02 -0.19239828267E+02  0.13659447345E+02  0.29283603668E+02  0.00000000000E+00 0.  1.
<mgrwt>
<rscale>  0 0.12089905E+03</rscale>
<asrwt>0</asrwt>
<pdfrwt beam="2">  1        1 0.45672147E-02 0.13029640E+03</pdfrwt>
<pdfrwt beam="1">  1       -1 0.66714934E-01 0.13029640E+03</pdfrwt>
<totfact> 0.42559794E+03</totfact>
</mgrwt>
</event>
<event>
 6    1  0.6419647E-006  0.1413797E+03  0.7546771E-02  0.1231302E+00
          1   -1    0    0  501    0  0.00000000000E+00  0.00000000000E+00  0.69765785747E+02  0.69765785747E+02  0.00000000000E+00 0. -1.
         -1   -1    0    0    0  501 -0.00000000000E+00 -0.00000000000E+00 -0.40353251953E+03  0.40353251953E+03  0.00000000000E+00 0.  1.
          5    1    1    2  502    0 -0.98056378543E+01  0.30161593969E+02  0.53959219399E+02  0.62765911470E+02  0.47000000000E+01 0. -1.
         -5    1    1    2    0  502  0.11969085687E+02 -0.35180262275E+02 -0.70168385211E+02  0.79539940590E+02  0.47000000000E+01 0.  1.
        -11    1    1    2    0    0 -0.32312723526E+02  0.37123190447E+02 -0.16046379119E+03  0.16784180544E+03  0.00000000000E+00 0.  1.
         11    1    1    2    0    0  0.30149275693E+02 -0.32104522141E+02 -0.15709377679E+03  0.16315064778E+03  0.00000000000E+00 0. -1.
<mgrwt>
<rscale>  0 0.12744197E+03</rscale>
<asrwt>0</asrwt>
<pdfrwt beam="1">  1        1 0.10733198E-01 0.14137970E+03</pdfrwt>
<pdfrwt beam="2">  1       -1 0.62081926E-01 0.14137970E+03</pdfrwt>
<totfact> 0.15521973E+03</totfact>
</mgrwt>
</event>
<event>
 7    1  0.6419647E-006  0.1490905E+03  0.7546771E-02  0.1208371E+00
         -1   -1    0    0    0  501 -0.00000000000E+00  0.00000000000E+00  0.47339703340E+02  0.47339703340E+02  0.00000000000E+00 0.  1.
          1   -1    0    0  501    0  0.00000000000E+00 -0.00000000000E+00 -0.43171313832E+03  0.43171313832E+03  0.00000000000E+00 0. -1.
         23    2    1    2    0    0 -0.72757988062E+02 -0.36212244057E+02 -0.26146574070E+03  0.30098556311E+03  0.12499169651E+03 0.  0.
          5    1    3    3  502    0  0.23520909469E+02 -0.34879042896E+02 -0.35252233610E+02  0.55087120002E+02  0.47000000000E+01 0. -1.
         -5    1    3    3    0  502 -0.96278897531E+02 -0.13332011607E+01 -0.22621350709E+03  0.24589844311E+03  0.47000000000E+01 0. -1.
        -11    1    1    2    0    0  0.87747750041E+02  0.55638318440E+02 -0.10477677156E+03  0.14755833414E+03  0.00000000000E+00 0.  1.
         11    1    1    2    0    0 -0.14989761979E+02 -0.19426074383E+02 -0.18130922727E+02  0.30508944410E+02  0.00000000000E+00 0. -1.
<mgrwt>
<rscale>  0 0.14374952E+03</rscale>
<asrwt>0</asrwt>
<pdfrwt beam="2">  1        1 0.66417408E-01 0.14909049E+03</pdfrwt>
<pdfrwt beam="1">  1       -1 0.72830310E-02 0.14909049E+03</pdfrwt>
<totfact> 0.52719883E+03</totfact>
</mgrwt>
</event>
<event>
 7    1  0.6419647E-006  0.1547682E+03  0.7546771E-02  0.1203106E+00
          1   -1    0    0  501    0  0.00000000000E+00  0.00000000000E+00  0.61405625479E+02  0.61405625479E+02  0.00000000000E+00 0. -1.
         -1   -1    0    0    0  501 -0.00000000000E+00 -0.00000000000E+00 -0.32812372312E+03  0.32812372312E+03  0.00000000000E+00 0.  1.
         23    2    1    2    0    0 -0.86327464546E+02  0.29200335809E+02 -0.13950756930E+03  0.20836399901E+03  0.12509237965E+03 0.  0.
          5    1    3    3  502    0 -0.26808905273E+02  0.57863908739E+01  0.21428550941E+02  0.35120827392E+02  0.47000000000E+01 0.  1.
         -5    1    3    3    0  502 -0.59518559273E+02  0.23413944935E+02 -0.16093612024E+03  0.17324317162E+03  0.47000000000E+01 0.  1.
        -11    1    1    2    0    0  0.40325930360E+02 -0.32575660621E+02 -0.12461451953E+03  0.13496715453E+03  0.00000000000E+00 0.  1.
         11    1    1    2    0    0  0.46001534186E+02  0.33753248115E+01 -0.25960088165E+01  0.46198195060E+02  0.00000000000E+00 0. -1.
<mgrwt>
<rscale>  0 0.14787683E+03</rscale>
<asrwt>0</asrwt>
<pdfrwt beam="1">  1        1 0.94470196E-02 0.15476820E+03</pdfrwt>
<pdfrwt beam="2">  1       -1 0.50480571E-01 0.15476820E+03</pdfrwt>
<totfact> 0.27202115E+03</totfact>
</mgrwt>
</event>
<event>
 7    1  0.6419647E-006  0.1626866E+03  0.7546771E-02  0.1190865E+00
          2   -1    0    0  501    0  0.00000000000E+00  0.00000000000E+00  0.27113694004E+03  0.27113694004E+03  0.00000000000E+00 0. -1.
         -2   -1    0    0    0  501 -0.00000000000E+00 -0.00000000000E+00 -0.14212644298E+03  0.14212644298E+03  0.00000000000E+00 0.  1.
         23    2    1    2    0    0  0.53940313177E+02  0.99713718629E+02  0.19493741868E+03  0.25390458627E+03  0.11668144093E+03 0.  0.
          5    1    3    3  502    0 -0.27153663464E+02  0.71041270178E+02  0.83266841993E+02  0.11287001587E+03  0.47000000000E+01 0. -1.
         -5    1    3    3    0  502  0.81093976641E+02  0.28672448451E+02  0.11167057669E+03  0.14103457039E+03  0.47000000000E+01 0.  1.
        -11    1    1    2    0    0 -0.36178905129E+02 -0.46361184612E+02 -0.81970732510E+02  0.10088346546E+03  0.00000000000E+00 0.  1.
         11    1    1    2    0    0 -0.17761408048E+02 -0.53352534017E+02  0.16043810887E+02  0.58475331291E+02  0.00000000000E+00 0. -1.
<mgrwt>
<rscale>  0 0.15809477E+03</rscale>
<asrwt>0</asrwt>
<pdfrwt beam="1">  1        2 0.41713375E-01 0.16268664E+03</pdfrwt>
<pdfrwt beam="2">  1       -2 0.21865607E-01 0.16268664E+03</pdfrwt>
<totfact> 0.21563358E+03</totfact>
</mgrwt>
</event>
<event>
 7    1  0.6419647E-006  0.1649549E+03  0.7546771E-02  0.1191190E+00
          2   -1    0    0  501    0  0.00000000000E+00  0.00000000000E+00  0.45432638580E+03  0.45432638580E+03  0.00000000000E+00 0. -1.
         -2   -1    0    0    0  501 -0.00000000000E+00 -0.00000000000E+00 -0.51226655492E+02  0.51226655492E+02  0.00000000000E+00 0.  1.
         23    2    1    2    0    0  0.10272991056E+03 -0.32082796737E+02  0.24771646295E+03  0.29761311627E+03  0.12500952199E+03 0.  0.
          5    1    3    3  502    0  0.14390428057E+01  0.32603565305E+01 -0.13746190045E+02  0.14958225485E+02  0.47000000000E+01 0. -1.
         -5    1    3    3    0  502  0.10129086776E+03 -0.35343153267E+02  0.26146265299E+03  0.28265489078E+03  0.47000000000E+01 0. -1.
        -11    1    1    2    0    0 -0.98554136105E+02  0.44712773248E+02  0.88657332939E+02  0.13990093823E+03  0.00000000000E+00 0.  1.
         11    1    1    2    0    0 -0.41757744558E+01 -0.12629976511E+02  0.66725934420E+02  0.68038986789E+02  0.00000000000E+00 0. -1.
<mgrwt>
<rscale>  0 0.15781164E+03</rscale>
<asrwt>0</asrwt>
<pdfrwt beam="1">  1        2 0.69896364E-01 0.16495491E+03</pdfrwt>
<pdfrwt beam="2">  1       -2 0.78810242E-02 0.16495491E+03</pdfrwt>
<totfact> 0.65048937E+03</totfact>
</mgrwt>
</event>
<event>
 7    1  0.6419647E-006  0.1431249E+03  0.7546771E-02  0.1219775E+00
          2   -1    0    0  501    0  0.00000000000E+00  0.00000000000E+00  0.77219059042E+02  0.77219059042E+02  0.00000000000E+00 0. -1.
         -2   -1    0    0    0  501 -0.00000000000E+00 -0.00000000000E+00 -0.23582311889E+03  0.23582311889E+03  0.00000000000E+00 0.  1.
         23    2    1    2    0    0 -0.11423862555E+02  0.68753727825E+02 -0.40714682373E+02  0.14880325543E+03  0.12500857467E+03 0.  0.
          5    1    3    3  502    0 -0.49398269811E+02  0.47982440062E+02  0.22008888131E+02  0.72449877649E+02  0.47000000000E+01 0. -1.
         -5    1    3    3    0  502  0.37974407257E+02  0.20771287763E+02 -0.62723570504E+02  0.76353377782E+02  0.47000000000E+01 0. -1.
        -11    1    1    2    0    0 -0.33082957793E+01 -0.29235311657E+02  0.88033399114E+01  0.30710699475E+02  0.00000000000E+00 0. -1.
         11    1    1    2    0    0  0.14732158334E+02 -0.39518416167E+02 -0.12669271739E+03  0.13352822302E+03  0.00000000000E+00 0.  1.
<mgrwt>
<rscale>  0 0.13531558E+03</rscale>
<asrwt>0</asrwt>
<pdfrwt beam="1">  1        2 0.11879855E-01 0.14312485E+03</pdfrwt>
<pdfrwt beam="2">  1       -2 0.36280479E-01 0.14312485E+03</pdfrwt>
<totfact> 0.35679778E+03</totfact>
</mgrwt>
</event>
<event>
 7    1  0.6419647E-006  0.2169815E+03  0.7546771E-02  0.1139672E+00
          1   -1    0    0  501    0  0.00000000000E+00  0.00000000000E+00  0.15351563791E+04  0.15351563791E+04  0.00000000000E+00 0. -1.
         -1   -1    0    0    0  501 -0.00000000000E+00 -0.00000000000E+00 -0.31996137557E+02  0.31996137557E+02  0.00000000000E+00 0.  1.
         23    2    1    2    0    0 -0.27311768719E+02  0.17521487959E+03  0.10489316287E+04  0.10711389009E+04  0.12503917977E+03 0.  0.
          5    1    3    3  502    0 -0.18119537746E+02  0.32723816480E+01  0.37703952066E+03  0.37751810058E+03  0.47000000000E+01 0.  1.
         -5    1    3    3    0  502 -0.91922309728E+01  0.17194249794E+03  0.67189210807E+03  0.69362080029E+03  0.47000000000E+01 0.  1.
        -11    1    1    2    0    0  0.48891228831E+02 -0.16135843705E+03  0.34743346094E+03  0.38618247920E+03  0.00000000000E+00 0.  1.
         11    1    1    2    0    0 -0.21579460112E+02 -0.13856442536E+02  0.10679515190E+03  0.10983113661E+03  0.00000000000E+00 0. -1.
<mgrwt>
<rscale>  0 0.21240949E+03</rscale>
<asrwt>0</asrwt>
<pdfrwt beam="1">  1        1 0.23617785E+00 0.21698153E+03</pdfrwt>
<pdfrwt beam="2">  1       -1 0.49224839E-02 0.21698153E+03</pdfrwt>
<totfact> 0.12258734E+03</totfact>
</mgrwt>
</event>
<event>
 7    1  0.6419647E-006  0.2013836E+03  0.7546771E-02  0.1152634E+00
         -2   -1    0    0    0  501 -0.00000000000E+00  0.00000000000E+00  0.37166472807E+02  0.37166472807E+02  0.00000000000E+00 0.  1.
          2   -1    0    0  501    0  0.00000000000E+00 -0.00000000000E+00 -0.99893209925E+03  0.99893209925E+03  0.00000000000E+00 0. -1.
         23    2    1    2    0    0 -0.98065139835E+02 -0.12374796100E+03 -0.54178471162E+03  0.57800175334E+03  0.12500009448E+03 0.  0.
          5    1    3    3  502    0 -0.44076037119E+02 -0.18234475898E+02 -0.34438893314E+03  0.34770824038E+03  0.47000000000E+01 0. -1.
         -5    1    3    3    0  502 -0.53989102716E+02 -0.10551348510E+03 -0.19739577848E+03  0.23029351296E+03  0.47000000000E+01 0. -1.
        -11    1    1    2    0    0  0.63069939155E+02  0.59347947819E+02 -0.33434066863E+03  0.34537469339E+03  0.00000000000E+00 0. -1.
         11    1    1    2    0    0  0.34995200680E+02  0.64400013184E+02 -0.85640246191E+02  0.11272212532E+03  0.00000000000E+00 0.  1.
<mgrwt>
<rscale>  0 0.19660654E+03</rscale>
<asrwt>0</asrwt>
<pdfrwt beam="2">  1        2 0.15368185E+00 0.20138360E+03</pdfrwt>
<pdfrwt beam="1">  1       -2 0.57179194E-02 0.20138360E+03</pdfrwt>
<totfact> 0.41532933E+03</totfact>
</mgrwt>
</event>
<event>
 7    1  0.6419647E-006  0.1446167E+03  0.7546771E-02  0.1217134E+00
         -3   -1    0    0    0  501 -0.00000000000E+00  0.00000000000E+00  0.40082816502E+02  0.40082816502E+02  0.00000000000E+00 0.  1.
          3   -1    0    0  501    0  0.00000000000E+00 -0.00000000000E+00 -0.47059187344E+03  0.47059187344E+03  0.00000000000E+00 0. -1.
         23    2    1    2    0    0 -0.64151158283E+02  0.34246424309E+02 -0.31262345310E+03  0.34445232385E+03  0.12500316513E+03 0.  0.
          5    1    3    3  502    0 -0.25214367405E+02 -0.43987191179E+02 -0.70245274269E+02  0.86759010302E+02  0.47000000000E+01 0.  1.
         -5    1    3    3    0  502 -0.38936790879E+02  0.78233615488E+02 -0.24237817883E+03  0.25769331355E+03  0.47000000000E+01 0.  1.
        -11    1    1    2    0    0  0.41760108443E+02 -0.97524768727E+01  0.89484396756E+00  0.42893102103E+02  0.00000000000E+00 0.  1.
         11    1    1    2    0    0  0.22391049840E+02 -0.24493947437E+02 -0.11878044781E+03  0.12332926399E+03  0.00000000000E+00 0. -1.
<mgrwt>
<rscale>  0 0.13720940E+03</rscale>
<asrwt>0</asrwt>
<pdfrwt beam="2">  1        3 0.72398744E-01 0.14461667E+03</pdfrwt>
<pdfrwt beam="1">  1       -3 0.61665876E-02 0.14461667E+03</pdfrwt>
<totfact> 0.70496990E+02</totfact>
</mgrwt>
</event>
<event>
 7    1  0.6419647E-006  0.1874724E+03  0.7546771E-02  0.1165777E+00
          1   -1    0    0  501    0  0.00000000000E+00  0.00000000000E+00  0.53950033951E+03  0.53950033951E+03  0.00000000000E+00 0. -1.
         -1   -1    0    0    0  501 -0.00000000000E+00 -0.00000000000E+00 -0.29730855230E+03  0.29730855230E+03  0.00000000000E+00 0.  1.
         23    2    1    2    0    0  0.13528365604E+03 -0.34911090252E+02  0.49756979934E+03  0.53171570953E+03  0.12500175493E+03 0.  0.
          5    1    3    3  502    0  0.32646465591E+02  0.35991643724E+02  0.24691859627E+03  0.25169837767E+03  0.47000000000E+01 0.  1.
         -5    1    3    3    0  502  0.10263719045E+03 -0.70902733976E+02  0.25065120306E+03  0.28001733187E+03  0.47000000000E+01 0.  1.
        -11    1    1    2    0    0 -0.46706819444E+02  0.58818301273E+02 -0.11939490510E+03  0.14105411342E+03  0.00000000000E+00 0.  1.
         11    1    1    2    0    0 -0.88576836594E+02 -0.23907211021E+02 -0.13598310702E+03  0.16403906887E+03  0.00000000000E+00 0. -1.
<mgrwt>
<rscale>  0 0.18210977E+03</rscale>
<asrwt>0</asrwt>
<pdfrwt beam="1">  1        1 0.83000052E-01 0.18747237E+03</pdfrwt>
<pdfrwt beam="2">  1       -1 0.45739777E-01 0.18747237E+03</pdfrwt>
<totfact> 0.20178651E+02</totfact>
</mgrwt>
</event>
<event>
 7    1  0.6419647E-006  0.1412616E+03  0.7546771E-02  0.1221748E+00
         -1   -1    0    0    0  501 -0.00000000000E+00  0.00000000000E+00  0.14471268874E+02  0.14471268874E+02  0.00000000000E+00 0.  1.
          1   -1    0    0  501    0  0.00000000000E+00 -0.00000000000E+00 -0.12100265286E+04  0.12100265286E+04  0.00000000000E+00 0. -1.
         23    2    1    2    0    0 -0.58997194815E+02 -0.29149043836E+02 -0.81676686558E+03  0.82889261332E+03  0.12499806379E+03 0.  0.
          5    1    3    3  502    0 -0.57058372290E+02 -0.34631835890E+02 -0.81848910285E+03  0.82121953423E+03  0.47000000000E+01 0.  1.
         -5    1    3    3    0  502 -0.19388225251E+01  0.54827920539E+01  0.17222372750E+01  0.76730790900E+01  0.47000000000E+01 0.  1.
        -11    1    1    2    0    0  0.59998639031E+01 -0.17892925150E+02 -0.12761771494E+02  0.22781965432E+02  0.00000000000E+00 0.  1.
         11    1    1    2    0    0  0.52997330912E+02  0.47041968985E+02 -0.36602662269E+03  0.37282321876E+03  0.00000000000E+00 0. -1.
<mgrwt>
<rscale>  0 0.13392335E+03</rscale>
<asrwt>0</asrwt>
<pdfrwt beam="2">  1        1 0.18615798E+00 0.14126164E+03</pdfrwt>
<pdfrwt beam="1">  1       -1 0.22263484E-02 0.14126164E+03</pdfrwt>
<totfact> 0.64476344E+03</totfact>
</mgrwt>
</event>
<event>
 7    1  0.6419647E-006  0.1387958E+03  0.7546771E-02  0.1224868E+00
         -4   -1    0    0    0  501 -0.00000000000E+00  0.00000000000E+00  0.61169785086E+02  0.61169785086E+02  0.00000000000E+00 0.  1.
          4   -1    0    0  501    0  0.00000000000E+00 -0.00000000000E+00 -0.28657567253E+03  0.28657567253E+03  0.00000000000E+00 0. -1.
         23    2    1    2    0    0  0.40345985216E+02  0.44846957396E+02 -0.17736293596E+03  0.22521522050E+03  0.12500094552E+03 0.  0.
          5    1    3    3  502    0 -0.12361172871E+02  0.47805804404E+01 -0.15431423730E+03  0.15495362654E+03  0.47000000000E+01 0.  1.
         -5    1    3    3    0  502  0.52707158087E+02  0.40066376956E+02 -0.23048698660E+02  0.70261593961E+02  0.47000000000E+01 0.  1.
        -11    1    1    2    0    0 -0.29756945729E+02 -0.42210984042E+02 -0.76359027358E+02  0.92184293955E+02  0.00000000000E+00 0. -1.
         11    1    1    2    0    0 -0.10589039487E+02 -0.26359733543E+01  0.28316075880E+02  0.30345943155E+02  0.00000000000E+00 0.  1.
<mgrwt>
<rscale>  0 0.13175935E+03</rscale>
<asrwt>0</asrwt>
<pdfrwt beam="2">  1        4 0.44088565E-01 0.13879584E+03</pdfrwt>
<pdfrwt beam="1">  1       -4 0.94107362E-02 0.13879584E+03</pdfrwt>
<totfact> 0.70037821E+02</totfact>
</mgrwt>
</event>
<event>
 7    1  0.6419647E-006  0.1823548E+03  0.7546771E-02  0.1170952E+00
          1   -1    0    0  501    0  0.00000000000E+00  0.00000000000E+00  0.10161480545E+03  0.10161480545E+03  0.00000000000E+00 0. -1.
         -1   -1    0    0    0  501 -0.00000000000E+00 -0.00000000000E+00 -0.33004557281E+03  0.33004557281E+03  0.00000000000E+00 0.  1.
         23    2    1    2    0    0 -0.70691612429E+02  0.11238768877E+03 -0.45543532630E+02  0.18795608587E+03  0.12499992078E+03 0.  0.
          5    1    3    3  502    0 -0.82810577004E+02  0.63392221523E+02 -0.75719261071E+02  0.12896380078E+03  0.47000000000E+01 0. -1.
         -5    1    3    3    0  502  0.12118964575E+02  0.48995467251E+02  0.30175728441E+02  0.58992285093E+02  0.47000000000E+01 0. -1.
        -11    1    1    2    0    0  0.51738453740E+02 -0.54716559128E+01 -0.68059161045E+02  0.85667123308E+02  0.00000000000E+00 0. -1.
         11    1    1    2    0    0  0.18953158689E+02 -0.10691603286E+03 -0.11482807368E+03  0.15803716909E+03  0.00000000000E+00 0.  1.
<mgrwt>
<rscale>  0 0.17678386E+03</rscale>
<asrwt>0</asrwt>
<pdfrwt beam="1">  1        1 0.15633047E-01 0.18235481E+03</pdfrwt>
<pdfrwt beam="2">  1       -1 0.50776241E-01 0.18235481E+03</pdfrwt>
<totfact> 0.13933837E+03</totfact>
</mgrwt>
</event>
<event>
 7    1  0.6419647E-006  0.1293088E+03  0.7546771E-02  0.1243062E+00
         -2   -1    0    0    0  501 -0.00000000000E+00  0.00000000000E+00  0.76633976483E+02  0.76633976483E+02  0.00000000000E+00 0.  1.
          2   -1    0    0  501    0  0.00000000000E+00 -0.00000000000E+00 -0.16556487796E+03  0.16556487796E+03  0.00000000000E+00 0. -1.
         23    2    1    2    0    0 -0.27479844706E+02 -0.17557480965E+02 -0.51010811774E+02  0.13900669189E+03  0.12512933496E+03 0.  0.
          5    1    3    3  502    0  0.11456163802E+02 -0.62092919552E+02 -0.42558464860E+01  0.63458463398E+02  0.47000000000E+01 0.  1.
         -5    1    3    3    0  502 -0.38936008508E+02  0.44535438587E+02 -0.46754965288E+02  0.75548228489E+02  0.47000000000E+01 0.  1.
        -11    1    1    2    0    0  0.18089123059E+02 -0.30140421867E+02  0.82942716584E+01  0.36117258280E+02  0.00000000000E+00 0.  1.
         11    1    1    2    0    0  0.93907216472E+01  0.47697902832E+02 -0.46214361363E+02  0.67074904277E+02  0.00000000000E+00 0. -1.
<mgrwt>
<rscale>  0 0.12002107E+03</rscale>
<asrwt>0</asrwt>
<pdfrwt beam="2">  1        2 0.25471520E-01 0.12930877E+03</pdfrwt>
<pdfrwt beam="1">  1       -2 0.11789843E-01 0.12930877E+03</pdfrwt>
<totfact> 0.10052869E+04</totfact>
</mgrwt>
</event>
<event>
 7    1  0.6419647E-006  0.3282322E+03  0.7546771E-02  0.1072912E+00
         -4   -1    0    0    0  501 -0.00000000000E+00  0.00000000000E+00  0.99811861051E+02  0.99811861051E+02  0.00000000000E+00 0.  1.
          4   -1    0    0  501    0  0.00000000000E+00 -0.00000000000E+00 -0.11629852642E+04  0.11629852642E+04  0.00000000000E+00 0. -1.
         23    2    1    2    0    0  0.24916079831E+03  0.17670605213E+03 -0.73418497310E+03  0.80421633953E+03  0.12012582470E+03 0.  0.
          5    1    3    3  502    0  0.17021500061E+03  0.18153321270E+03 -0.54817211919E+03  0.60203174003E+03  0.47000000000E+01 0. -1.
         -5    1    3    3    0  502  0.78945797696E+02 -0.48271605711E+01 -0.18601285391E+03  0.20218459949E+03  0.47000000000E+01 0.  1.
        -11    1    1    2    0    0 -0.34587014575E+02 -0.10854189128E+02 -0.90298144248E+02  0.97302774131E+02  0.00000000000E+00 0. -1.
         11    1    1    2    0    0 -0.21457378373E+03 -0.16585186300E+03 -0.23869028580E+03  0.36127801160E+03  0.00000000000E+00 0.  1.
<mgrwt>
<rscale>  0 0.32602008E+03</rscale>
<asrwt>0</asrwt>
<pdfrwt beam="2">  1        4 0.17892080E+00 0.32823215E+03</pdfrwt>
<pdfrwt beam="1">  1       -4 0.15355672E-01 0.32823215E+03</pdfrwt>
<totfact> 0.13204228E+01</totfact>
</mgrwt>
</event>
<event>
 7    1  0.6419647E-006  0.1503910E+03  0.7546771E-02  0.1212352E+00
          1   -1    0    0  501    0  0.00000000000E+00  0.00000000000E+00  0.12685394999E+03  0.12685394999E+03  0.00000000000E+00 0. -1.
         -1   -1    0    0    0  501 -0.00000000000E+00 -0.00000000000E+00 -0.13930967689E+03  0.13930967689E+03  0.00000000000E+00 0.  1.
         23    2    1    2    0    0  0.80248601697E+02 -0.23532052241E+02 -0.11779584095E+02  0.15085157215E+03  0.12499537056E+03 0.  0.
          5    1    3    3  502    0  0.89078029893E+01 -0.44673040337E+02 -0.49384165467E+02  0.67349204048E+02  0.47000000000E+01 0. -1.
         -5    1    3    3    0  502  0.71340798708E+02  0.21140988096E+02  0.37604581373E+02  0.83502368099E+02  0.47000000000E+01 0. -1.
        -11    1    1    2    0    0 -0.20599376305E+02 -0.25923754452E+02 -0.15273049707E+02  0.36464248194E+02  0.00000000000E+00 0.  1.
         11    1    1    2    0    0 -0.59649225392E+02  0.49455806693E+02  0.14596906901E+02  0.78847806543E+02  0.00000000000E+00 0. -1.
<mgrwt>
<rscale>  0 0.14072883E+03</rscale>
<asrwt>0</asrwt>
<pdfrwt beam="1">  1        1 0.19515992E-01 0.15039095E+03</pdfrwt>
<pdfrwt beam="2">  1       -1 0.21432258E-01 0.15039095E+03</pdfrwt>
<totfact> 0.45669551E+03</totfact>
</mgrwt>
</event>
<event>
 7    1  0.6419647E-006  0.1254458E+03  0.7546771E-02  0.1250019E+00
          1   -1    0    0  501    0  0.00000000000E+00  0.00000000000E+00  0.31095111535E+03  0.31095111535E+03  0.00000000000E+00 0. -1.
         -1   -1    0    0    0  501 -0.00000000000E+00 -0.00000000000E+00 -0.39176315614E+02  0.39176315614E+02  0.00000000000E+00 0.  1.
         23    2    1    2    0    0 -0.13715977726E+01 -0.10459194572E+02  0.18882200726E+03  0.22669452679E+03  0.12500152806E+03 0.  0.
          5    1    3    3  502    0 -0.43717629606E+02  0.37990340133E+02  0.11355791758E+03  0.12756170164E+03  0.47000000000E+01 0.  1.
         -5    1    3    3    0  502  0.42346031834E+02 -0.48449534705E+02  0.75264089689E+02  0.99132825148E+02  0.47000000000E+01 0.  1.
        -11    1    1    2    0    0  0.39702292737E+02 -0.17118413413E+02  0.30833886778E+02  0.53104055402E+02  0.00000000000E+00 0.  1.
         11    1    1    2    0    0 -0.38330694964E+02  0.27577607985E+02  0.52118905693E+02  0.70328848769E+02  0.00000000000E+00 0. -1.
<mgrwt>
<rscale>  0 0.11589971E+03</rscale>
<asrwt>0</asrwt>
<pdfrwt beam="1">  1        1 0.47838631E-01 0.12544584E+03</pdfrwt>
<pdfrwt beam="2">  1       -1 0.60271257E-02 0.12544584E+03</pdfrwt>
<totfact> 0.10437530E+04</totfact>
</mgrwt>
</event>
<event>
 7    1  0.6419647E-006  0.1295848E+03  0.7546771E-02  0.1242435E+00
         -2   -1    0    0    0  501 -0.00000000000E+00  0.00000000000E+00  0.27152285637E+02  0.27152285637E+02  0.00000000000E+00 0.  1.
          2   -1    0    0  501    0  0.00000000000E+00 -0.00000000000E+00 -0.13856035887E+04  0.13856035887E+04  0.00000000000E+00 0. -1.
         23    2    1    2    0    0 -0.14139723584E+02 -0.31099079325E+02 -0.12847513974E+04  0.12912700637E+04  0.12500055900E+03 0.  0.
          5    1    3    3  502    0  0.46289535138E+02  0.10522163925E+02 -0.29910059374E+03  0.30288065665E+03  0.47000000000E+01 0.  1.
         -5    1    3    3    0  502 -0.60429258722E+02 -0.41621243251E+02 -0.98565080371E+03  0.98838940709E+03  0.47000000000E+01 0.  1.
        -11    1    1    2    0    0 -0.15866385367E+02  0.11132050570E+02  0.15796855579E+02  0.25004107276E+02  0.00000000000E+00 0.  1.
         11    1    1    2    0    0  0.30006108951E+02  0.19967028755E+02 -0.89496761226E+02  0.96481703352E+02  0.00000000000E+00 0. -1.
<mgrwt>
<rscale>  0 0.12040210E+03</rscale>
<asrwt>0</asrwt>
<pdfrwt beam="2">  1        2 0.21316982E+00 0.12958481E+03</pdfrwt>
<pdfrwt beam="1">  1       -2 0.41772740E-02 0.12958481E+03</pdfrwt>
<totfact> 0.39979700E+03</totfact>
</mgrwt>
</event>
<event>
 7    1  0.6419647E-006  0.1251294E+03  0.7546771E-02  0.1253359E+00
          2   -1    0    0  501    0  0.00000000000E+00  0.00000000000E+00  0.51667765693E+02  0.51667765693E+02  0.00000000000E+00 0. -1.
         -2   -1    0    0    0  501 -0.00000000000E+00 -0.00000000000E+00 -0.26556838745E+03  0.26556838745E+03  0.00000000000E+00 0.  1.
         23    2    1    2    0    0  0.35677582729E+01  0.43001497484E+01 -0.55438609828E+02  0.13686049543E+03  0.12500454217E+03 0.  0.
          5    1    3    3  502    0 -0.18822478327E+01  0.38827284416E+02 -0.83214879077E+02  0.91966879755E+02  0.47000000000E+01 0.  1.
         -5    1    3    3    0  502  0.54500061056E+01 -0.34527134668E+02  0.27776269249E+02  0.44893615674E+02  0.47000000000E+01 0.  1.
        -11    1    1    2    0    0 -0.24364253707E+02  0.16051650474E+02 -0.14571639648E+03  0.14860868260E+03  0.00000000000E+00 0.  1.
         11    1    1    2    0    0  0.20796495434E+02 -0.20351800223E+02 -0.12745615450E+02  0.31766975113E+02  0.00000000000E+00 0. -1.
<mgrwt>
<rscale>  0 0.11398762E+03</rscale>
<asrwt>0</asrwt>
<pdfrwt beam="1">  1        2 0.79488870E-02 0.12512936E+03</pdfrwt>
<pdfrwt beam="2">  1       -2 0.40856675E-01 0.12512936E+03</pdfrwt>
<totfact> 0.46369467E+03</totfact>
</mgrwt>
</event>
<event>
 7    1  0.6419647E-006  0.1337960E+03  0.7546771E-02  0.1234028E+00
         -2   -1    0    0    0  501 -0.00000000000E+00  0.00000000000E+00  0.99997278972E+02  0.99997278972E+02  0.00000000000E+00 0.  1.
          2   -1    0    0  501    0  0.00000000000E+00 -0.00000000000E+00 -0.18610453902E+03  0.18610453902E+03  0.00000000000E+00 0. -1.
         23    2    1    2    0    0  0.21793193294E+02 -0.42430633858E+02 -0.11673307371E+03  0.17756119974E+03  0.12500426868E+03 0.  0.
          5    1    3    3  502    0 -0.58366488693E+01  0.42577762760E+01 -0.12249930259E+03  0.12280213460E+03  0.47000000000E+01 0.  1.
         -5    1    3    3    0  502  0.27629842163E+02 -0.46688410134E+02  0.57662288721E+01  0.54759065133E+02  0.47000000000E+01 0.  1.
        -11    1    1    2    0    0  0.15267703747E+02 -0.14163434985E+02  0.35024944573E+02  0.40748649188E+02  0.00000000000E+00 0.  1.
         11    1    1    2    0    0 -0.37060897041E+02  0.56594068843E+02 -0.43991309100E+01  0.67791969071E+02  0.00000000000E+00 0. -1.
<mgrwt>
<rscale>  0 0.12566856E+03</rscale>
<asrwt>0</asrwt>
<pdfrwt beam="2">  1        2 0.28631468E-01 0.13379600E+03</pdfrwt>
<pdfrwt beam="1">  1       -2 0.15384197E-01 0.13379600E+03</pdfrwt>
<totfact> 0.57716036E+03</totfact>
</mgrwt>
</event>
<event>
 7    1  0.1362035E-005  0.1782453E+03  0.7546771E-02  0.1175353E+00
         -2   -1    0    0    0  501 -0.00000000000E+00  0.00000000000E+00  0.16700809095E+02  0.16700809095E+02  0.00000000000E+00 0.  1.
          2   -1    0    0  501    0  0.00000000000E+00 -0.00000000000E+00 -0.16936387950E+04  0.16936387950E+04  0.00000000000E+00 0. -1.
         23    2    1    2    0    0 -0.16260148732E+02 -0.12602366213E+03 -0.98813869423E+03  0.10040863776E+04  0.12500007551E+03 0.  0.
          5    1    3    3  502    0  0.18227956937E+02 -0.23476230871E+02 -0.41434143797E+02  0.51208105825E+02  0.47000000000E+01 0. -1.
         -5    1    3    3    0  502 -0.34488105669E+02 -0.10254743126E+03 -0.94670455043E+03  0.95287827181E+03  0.47000000000E+01 0. -1.
        -11    1    1    2    0    0  0.35602335806E+02  0.11907203414E+03 -0.65506906703E+03  0.66675419625E+03  0.00000000000E+00 0. -1.
         11    1    1    2    0    0 -0.19342187075E+02  0.69516279890E+01 -0.33730224620E+02  0.39499030184E+02  0.00000000000E+00 0.  1.
<mgrwt>
<rscale>  0 0.17241458E+03</rscale>
<asrwt>0</asrwt>
<pdfrwt beam="2">  1        2 0.26055979E+00 0.17824527E+03</pdfrwt>
<pdfrwt beam="1">  1       -2 0.25693554E-02 0.17824527E+03</pdfrwt>
<totfact> 0.57027815E+03</totfact>
</mgrwt>
</event>
<event>
 7    1  0.6419647E-006  0.1502963E+03  0.7546771E-02  0.1208093E+00
         -2   -1    0    0    0  501 -0.00000000000E+00  0.00000000000E+00  0.34152664934E+03  0.34152664934E+03  0.00000000000E+00 0.  1.
          2   -1    0    0  501    0  0.00000000000E+00 -0.00000000000E+00 -0.87123024505E+02  0.87123024505E+02  0.00000000000E+00 0. -1.
         23    2    1    2    0    0  0.35227837426E+02  0.75667485485E+02  0.66307835686E+01  0.15044246999E+03  0.12498960195E+03 0.  0.
          5    1    3    3  502    0  0.64026733831E+02 -0.32747824887E+01 -0.87839543297E+01  0.64879848174E+02  0.47000000000E+01 0.  1.
         -5    1    3    3    0  502 -0.28798896405E+02  0.78942267974E+02  0.15414737898E+02  0.85562621813E+02  0.47000000000E+01 0.  1.
        -11    1    1    2    0    0 -0.67352057933E+02 -0.39229214815E+02  0.15331192115E+03  0.17198772099E+03  0.00000000000E+00 0.  1.
         11    1    1    2    0    0  0.32124220507E+02 -0.36438270670E+02  0.94460920114E+02  0.10621948287E+03  0.00000000000E+00 0. -1.
<mgrwt>
<rscale>  0 0.14396365E+03</rscale>
<asrwt>0</asrwt>
<pdfrwt beam="2">  1        2 0.13403542E-01 0.15029627E+03</pdfrwt>
<pdfrwt beam="1">  1       -2 0.52542561E-01 0.15029627E+03</pdfrwt>
<totfact> 0.15154024E+03</totfact>
</mgrwt>
</event>
<event>
 7    1  0.6419647E-006  0.1725096E+03  0.7546771E-02  0.1182063E+00
         -1   -1    0    0    0  501 -0.00000000000E+00  0.00000000000E+00  0.40788479051E+02  0.40788479051E+02  0.00000000000E+00 0.  1.
          1   -1    0    0  501    0  0.00000000000E+00 -0.00000000000E+00 -0.80952943020E+03  0.80952943020E+03  0.00000000000E+00 0. -1.
         23    2    1    2    0    0 -0.61446304918E+01 -0.11872515518E+03 -0.60726382327E+03  0.63129147142E+03  0.12500460743E+03 0.  0.
          5    1    3    3  502    0 -0.55225592678E+02 -0.44221604572E+02 -0.38970575679E+03  0.39610362694E+03  0.47000000000E+01 0.  1.
         -5    1    3    3    0  502  0.49080962186E+02 -0.74503550607E+02 -0.21755806648E+03  0.23518784448E+03  0.47000000000E+01 0.  1.
        -11    1    1    2    0    0 -0.35693484353E+01  0.60344407584E+02 -0.14575066183E+03  0.15778923664E+03  0.00000000000E+00 0. -1.
         11    1    1    2    0    0  0.97139789271E+01  0.58380747595E+02 -0.15726466060E+02  0.61237201202E+02  0.00000000000E+00 0.  1.
<mgrwt>
<rscale>  0 0.16601979E+03</rscale>
<asrwt>0</asrwt>
<pdfrwt beam="2">  1        1 0.12454299E+00 0.17250963E+03</pdfrwt>
<pdfrwt beam="1">  1       -1 0.62751508E-02 0.17250963E+03</pdfrwt>
<totfact> 0.27915228E+03</totfact>
</mgrwt>
</event>
<event>
 7    1  0.6419647E-006  0.1436008E+03  0.7546771E-02  0.1218855E+00
         -1   -1    0    0    0  501 -0.00000000000E+00  0.00000000000E+00  0.94165935774E+02  0.94165935774E+02  0.00000000000E+00 0.  1.
          1   -1    0    0  501    0  0.00000000000E+00 -0.00000000000E+00 -0.17819605034E+03  0.17819605034E+03  0.00000000000E+00 0. -1.
         23    2    1    2    0    0  0.53134754445E+02 -0.46602301477E+02 -0.49108688001E+02  0.15176578934E+03  0.12500445969E+03 0.  0.
          5    1    3    3  502    0  0.16434721817E+00  0.31549989552E+02 -0.47507659890E+02  0.57223217307E+02  0.47000000000E+01 0.  1.
         -5    1    3    3    0  502  0.52970407226E+02 -0.78152291029E+02 -0.16010281111E+01  0.94542572029E+02  0.47000000000E+01 0.  1.
        -11    1    1    2    0    0  0.18432153297E+02 -0.12459217409E+01  0.12504609165E+02  0.22308335807E+02  0.00000000000E+00 0.  1.
         11    1    1    2    0    0 -0.71566907741E+02  0.47848223218E+02 -0.47426035726E+02  0.98287860967E+02  0.00000000000E+00 0. -1.
<mgrwt>
<rscale>  0 0.13597114E+03</rscale>
<asrwt>0</asrwt>
<pdfrwt beam="2">  1        1 0.27414777E-01 0.14360081E+03</pdfrwt>
<pdfrwt beam="1">  1       -1 0.14487067E-01 0.14360081E+03</pdfrwt>
<totfact> 0.55282605E+03</totfact>
</mgrwt>
</event>
<event>
 7    1  0.6419647E-006  0.1347173E+03  0.7546771E-02  0.1232020E+00
         -1   -1    0    0    0  501 -0.00000000000E+00  0.00000000000E+00  0.42406041754E+02  0.42406041754E+02  0.00000000000E+00 0.  1.
          1   -1    0    0  501    0  0.00000000000E+00 -0.00000000000E+00 -0.40856527307E+03  0.40856527307E+03  0.00000000000E+00 0. -1.
         23    2    1    2    0    0  0.42567618575E+02  0.26713768977E+02 -0.29133279772E+03  0.32097283599E+03  0.12499253901E+03 0.  0.
          5    1    3    3  502    0 -0.44120310948E+02  0.18359459637E+01 -0.96010904634E+02  0.10578353532E+03  0.47000000000E+01 0.  1.
         -5    1    3    3    0  502  0.86687929523E+02  0.24877823013E+02 -0.19532189309E+03  0.21518930067E+03  0.47000000000E+01 0.  1.
        -11    1    1    2    0    0 -0.11288403302E+02  0.15372122349E+02  0.16150744801E+02  0.24991533611E+02  0.00000000000E+00 0.  1.
         11    1    1    2    0    0 -0.31279215273E+02 -0.42085891326E+02 -0.90977178396E+02  0.10500694523E+03  0.00000000000E+00 0. -1.
<mgrwt>
<rscale>  0 0.12697124E+03</rscale>
<asrwt>0</asrwt>
<pdfrwt beam="2">  1        1 0.62856196E-01 0.13471734E+03</pdfrwt>
<pdfrwt beam="1">  1       -1 0.65240064E-02 0.13471734E+03</pdfrwt>
<totfact> 0.66306228E+03</totfact>
</mgrwt>
</event>
<event>
 7    1  0.6419647E-006  0.1984697E+03  0.7546771E-02  0.1155582E+00
         -2   -1    0    0    0  501 -0.00000000000E+00  0.00000000000E+00  0.43001301873E+02  0.43001301873E+02  0.00000000000E+00 0.  1.
          2   -1    0    0  501    0  0.00000000000E+00 -0.00000000000E+00 -0.91682135461E+03  0.91682135461E+03  0.00000000000E+00 0. -1.
         23    2    1    2    0    0  0.14834964421E+03 -0.41937897448E+02 -0.60932336287E+03  0.64083162293E+03  0.12499521682E+03 0.  0.
          5    1    3    3  502    0  0.93655569113E+02 -0.16142083592E+02 -0.15077709676E+03  0.17829120953E+03  0.47000000000E+01 0.  1.
         -5    1    3    3    0  502  0.54694075100E+02 -0.25795813856E+02 -0.45854626611E+03  0.46254041340E+03  0.47000000000E+01 0.  1.
        -11    1    1    2    0    0 -0.50294699580E+02 -0.29392838415E+01 -0.24799046390E+02  0.56153262569E+02  0.00000000000E+00 0.  1.
         11    1    1    2    0    0 -0.98054944634E+02  0.44877181290E+02 -0.23969764348E+03  0.26283777099E+03  0.00000000000E+00 0. -1.
<mgrwt>
<rscale>  0 0.19322731E+03</rscale>
<asrwt>0</asrwt>
<pdfrwt beam="2">  1        2 0.14104944E+00 0.19846967E+03</pdfrwt>
<pdfrwt beam="1">  1       -2 0.66155848E-02 0.19846967E+03</pdfrwt>
<totfact> 0.37335583E+03</totfact>
</mgrwt>
</event>
<event>
 7    1  0.8323685E-006  0.1302250E+03  0.7546771E-02  0.1241029E+00
         -3   -1    0    0    0  501 -0.00000000000E+00  0.00000000000E+00  0.10292983911E+03  0.10292983911E+03  0.00000000000E+00 0.  1.
          3   -1    0    0  501    0  0.00000000000E+00 -0.00000000000E+00 -0.12661754428E+03  0.12661754428E+03  0.00000000000E+00 0. -1.
         23    2    1    2    0    0 -0.27783977806E+02 -0.23699510247E+02 -0.18123352327E+02  0.13148002001E+03  0.12499969421E+03 0.  0.
          5    1    3    3  502    0 -0.63908286393E+02 -0.36148247891E+01  0.27423204094E+02  0.69795831901E+02  0.47000000000E+01 0.  1.
         -5    1    3    3    0  502  0.36124308587E+02 -0.20084685457E+02 -0.45546556421E+02  0.61684188108E+02  0.47000000000E+01 0.  1.
        -11    1    1    2    0    0  0.10025694729E+02  0.37261719467E+02  0.34780247080E+02  0.51948203813E+02  0.00000000000E+00 0.  1.
         11    1    1    2    0    0  0.17758283077E+02 -0.13562209221E+02 -0.40344599916E+02  0.46119159567E+02  0.00000000000E+00 0. -1.
<mgrwt>
<rscale>  0 0.12126256E+03</rscale>
<asrwt>0</asrwt>
<pdfrwt beam="2">  1        3 0.19479622E-01 0.13022496E+03</pdfrwt>
<pdfrwt beam="1">  1       -3 0.15835360E-01 0.13022496E+03</pdfrwt>
<totfact> 0.18105392E+03</totfact>
</mgrwt>
</event>
<event>
 7    1  0.6419647E-006  0.1756976E+03  0.7546771E-02  0.1178295E+00
          1   -1    0    0  501    0  0.00000000000E+00  0.00000000000E+00  0.35370316898E+02  0.35370316898E+02  0.00000000000E+00 0. -1.
         -1   -1    0    0    0  501 -0.00000000000E+00 -0.00000000000E+00 -0.76377398864E+03  0.76377398864E+03  0.00000000000E+00 0.  1.
         23    2    1    2    0    0  0.26190923462E+02 -0.12065899005E+03 -0.36626126503E+03  0.40622280731E+03  0.12500039425E+03 0.  0.
          5    1    3    3  502    0 -0.12249892092E+01 -0.12191525228E+02 -0.22766795533E+03  0.22804587646E+03  0.47000000000E+01 0.  1.
         -5    1    3    3    0  502  0.27415912671E+02 -0.10846746482E+03 -0.13859330970E+03  0.17817693084E+03  0.47000000000E+01 0.  1.
        -11    1    1    2    0    0  0.53990083082E+01  0.12070701770E+03 -0.28390320442E+03  0.30854556048E+03  0.00000000000E+00 0.  1.
         11    1    1    2    0    0 -0.31589931770E+02 -0.48027652880E-01 -0.78239202299E+02  0.84375937757E+02  0.00000000000E+00 0. -1.
<mgrwt>
<rscale>  0 0.16957208E+03</rscale>
<asrwt>0</asrwt>
<pdfrwt beam="1">  1        1 0.54415875E-02 0.17569762E+03</pdfrwt>
<pdfrwt beam="2">  1       -1 0.11750368E+00 0.17569762E+03</pdfrwt>
<totfact> 0.10185055E+03</totfact>
</mgrwt>
</event>
<event>
 7    1  0.6419647E-006  0.1309590E+03  0.7546771E-02  0.1239335E+00
          2   -1    0    0  501    0  0.00000000000E+00  0.00000000000E+00  0.64563231847E+02  0.64563231847E+02  0.00000000000E+00 0. -1.
         -2   -1    0    0    0  501 -0.00000000000E+00 -0.00000000000E+00 -0.20594234703E+03  0.20594234703E+03  0.00000000000E+00 0.  1.
         23    2    1    2    0    0  0.22351202197E+02 -0.31846977190E+02 -0.78527635096E+02  0.15269858603E+03  0.12504584162E+03 0.  0.
          5    1    3    3  502    0  0.50198203070E+01  0.42058517799E+02  0.10379806930E+01  0.42629624902E+02  0.47000000000E+01 0. -1.
         -5    1    3    3    0  502  0.17331381890E+02 -0.73905494989E+02 -0.79565615789E+02  0.11006896113E+03  0.47000000000E+01 0. -1.
        -11    1    1    2    0    0  0.25698845435E+02  0.30970811933E+02 -0.56446402124E+02  0.69324008549E+02  0.00000000000E+00 0.  1.
         11    1    1    2    0    0 -0.48050047632E+02  0.87616525710E+00 -0.64050779639E+01  0.48482984300E+02  0.00000000000E+00 0. -1.
<mgrwt>
<rscale>  0 0.12230953E+03</rscale>
<asrwt>0</asrwt>
<pdfrwt beam="1">  1        2 0.99328050E-02 0.13095903E+03</pdfrwt>
<pdfrwt beam="2">  1       -2 0.31683438E-01 0.13095903E+03</pdfrwt>
<totfact> 0.56553173E+03</totfact>
</mgrwt>
</event>
<event>
 7    1  0.6419647E-006  0.1300069E+03  0.7546771E-02  0.1240794E+00
         -2   -1    0    0    0  501 -0.00000000000E+00  0.00000000000E+00  0.10923027392E+02  0.10923027392E+02  0.00000000000E+00 0.  1.
          2   -1    0    0  501    0  0.00000000000E+00 -0.00000000000E+00 -0.17780976389E+04  0.17780976389E+04  0.00000000000E+00 0. -1.
         23    2    1    2    0    0  0.34146621160E+02  0.10676686942E+02 -0.14719397046E+04  0.14776698875E+04  0.12498727579E+03 0.  0.
          5    1    3    3  502    0  0.61034149058E+02  0.42195925367E+02 -0.12233952639E+04  0.12256523672E+04  0.47000000000E+01 0.  1.
         -5    1    3    3    0  502 -0.26887527897E+02 -0.31519238425E+02 -0.24854444073E+03  0.25201752035E+03  0.47000000000E+01 0.  1.
        -11    1    1    2    0    0 -0.53992349688E+02 -0.36628343885E+02 -0.17537373253E+03  0.18711695664E+03  0.00000000000E+00 0.  1.
         11    1    1    2    0    0  0.19845728528E+02  0.25951656943E+02 -0.11986117431E+03  0.12423382207E+03  0.00000000000E+00 0. -1.
<mgrwt>
<rscale>  0 0.12140683E+03</rscale>
<asrwt>0</asrwt>
<pdfrwt beam="2">  1        2 0.27355336E+00 0.13000693E+03</pdfrwt>
<pdfrwt beam="1">  1       -2 0.16804665E-02 0.13000693E+03</pdfrwt>
<totfact> 0.95000022E+03</totfact>
</mgrwt>
</event>
<event>
 7    1  0.6419647E-006  0.1829477E+03  0.7546771E-02  0.1170843E+00
         -1   -1    0    0    0  501 -0.00000000000E+00  0.00000000000E+00  0.17789970980E+02  0.17789970980E+02  0.00000000000E+00 0.  1.
          1   -1    0    0  501    0  0.00000000000E+00 -0.00000000000E+00 -0.17758329123E+04  0.17758329123E+04  0.00000000000E+00 0. -1.
         23    2    1    2    0    0  0.10077555861E+02 -0.13320360966E+03 -0.11703535682E+04  0.11845663081E+04  0.12500042053E+03 0.  0.
          5    1    3    3  502    0 -0.27153837525E+02 -0.48813835187E+02 -0.15154352919E+03  0.16157862680E+03  0.47000000000E+01 0. -1.
         -5    1    3    3    0  502  0.37231393386E+02 -0.84389774470E+02 -0.10188100390E+04  0.10229876814E+04  0.47000000000E+01 0. -1.
        -11    1    1    2    0    0 -0.25334954092E+02  0.10404011986E+03 -0.54354807735E+03  0.55399523358E+03  0.00000000000E+00 0.  1.
         11    1    1    2    0    0  0.15257398231E+02  0.29163489802E+02 -0.44141295829E+02  0.55061341571E+02  0.00000000000E+00 0. -1.
<mgrwt>
<rscale>  0 0.17689434E+03</rscale>
<asrwt>0</asrwt>
<pdfrwt beam="2">  1        1 0.27320510E+00 0.18294771E+03</pdfrwt>
<pdfrwt beam="1">  1       -1 0.27369183E-02 0.18294771E+03</pdfrwt>
<totfact> 0.20407824E+03</totfact>
</mgrwt>
</event>
<event>
 7    1  0.6419647E-006  0.1438887E+03  0.7546771E-02  0.1218452E+00
         -2   -1    0    0    0  501 -0.00000000000E+00  0.00000000000E+00  0.35439455267E+02  0.35439455267E+02  0.00000000000E+00 0.  1.
          2   -1    0    0  501    0  0.00000000000E+00 -0.00000000000E+00 -0.53963270177E+03  0.53963270177E+03  0.00000000000E+00 0. -1.
         23    2    1    2    0    0 -0.56711715031E+01  0.71066779156E+02 -0.37486706742E+03  0.40153364021E+03  0.12498518591E+03 0.  0.
          5    1    3    3  502    0 -0.11084285996E+02 -0.20875362112E+02 -0.11602855480E+02  0.26746184674E+02  0.47000000000E+01 0.  1.
         -5    1    3    3    0  502  0.54131144928E+01  0.91942141268E+02 -0.36326421194E+03  0.37478745553E+03  0.47000000000E+01 0.  1.
        -11    1    1    2    0    0  0.17418000938E+02 -0.57268483601E+01 -0.98768422854E+02  0.10045588535E+03  0.00000000000E+00 0. -1.
         11    1    1    2    0    0 -0.11746829435E+02 -0.65339930796E+02 -0.30557756233E+02  0.73082631481E+02  0.00000000000E+00 0.  1.
<mgrwt>
<rscale>  0 0.13626017E+03</rscale>
<asrwt>0</asrwt>
<pdfrwt beam="2">  1        2 0.83020408E-01 0.14388866E+03</pdfrwt>
<pdfrwt beam="1">  1       -2 0.54522244E-02 0.14388866E+03</pdfrwt>
<totfact> 0.93764549E+03</totfact>
</mgrwt>
</event>
<event>
 7    1  0.6419647E-006  0.2124336E+03  0.7546771E-02  0.1143266E+00
          1   -1    0    0  501    0  0.00000000000E+00  0.00000000000E+00  0.22400774307E+03  0.22400774307E+03  0.00000000000E+00 0. -1.
         -1   -1    0    0    0  501 -0.00000000000E+00 -0.00000000000E+00 -0.19057461056E+03  0.19057461056E+03  0.00000000000E+00 0.  1.
         23    2    1    2    0    0 -0.10292996341E+03  0.13750711272E+03  0.52722672753E+02  0.21887828458E+03  0.12500095929E+03 0.  0.
          5    1    3    3  502    0 -0.12976572314E+03  0.11858730341E+03  0.58254993148E+02  0.18525071028E+03  0.47000000000E+01 0.  1.
         -5    1    3    3    0  502  0.26835759729E+02  0.18919809310E+02 -0.55323203944E+01  0.33627574303E+02  0.47000000000E+01 0.  1.
        -11    1    1    2    0    0 -0.24903766562E+01 -0.65190997298E+02 -0.18688781578E+02  0.67862645553E+02  0.00000000000E+00 0.  1.
         11    1    1    2    0    0  0.10542034007E+03 -0.72316115421E+02 -0.60075866767E+00  0.12784142349E+03  0.00000000000E+00 0. -1.
<mgrwt>
<rscale>  0 0.20786786E+03</rscale>
<asrwt>0</asrwt>
<pdfrwt beam="1">  1        1 0.34462729E-01 0.21243357E+03</pdfrwt>
<pdfrwt beam="2">  1       -1 0.29319171E-01 0.21243357E+03</pdfrwt>
<totfact> 0.13428846E+03</totfact>
</mgrwt>
</event>
<event>
 7    1  0.6419647E-006  0.1261565E+03  0.7546771E-02  0.1248943E+00
          1   -1    0    0  501    0  0.00000000000E+00  0.00000000000E+00  0.56802707289E+03  0.56802707289E+03  0.00000000000E+00 0. -1.
         -1   -1    0    0    0  501 -0.00000000000E+00 -0.00000000000E+00 -0.31825498354E+02  0.31825498354E+02  0.00000000000E+00 0.  1.
         23    2    1    2    0    0 -0.14592061700E+02  0.88059121086E+01  0.47004739895E+03  0.48668266658E+03  0.12499995338E+03 0.  0.
          5    1    3    3  502    0  0.99479985767E+01  0.57258982362E+02  0.13250348429E+03  0.14476469558E+03  0.47000000000E+01 0. -1.
         -5    1    3    3    0  502 -0.24540060277E+02 -0.48453070254E+02  0.33754391466E+03  0.34191797101E+03  0.47000000000E+01 0. -1.
        -11    1    1    2    0    0 -0.32221318874E+02 -0.25751917702E+02  0.22667455581E+02  0.47065785852E+02  0.00000000000E+00 0. -1.
         11    1    1    2    0    0  0.46813380574E+02  0.16946005593E+02  0.43486720010E+02  0.66104118809E+02  0.00000000000E+00 0.  1.
<mgrwt>
<rscale>  0 0.11652455E+03</rscale>
<asrwt>0</asrwt>
<pdfrwt beam="1">  1        1 0.87388773E-01 0.12615649E+03</pdfrwt>
<pdfrwt beam="2">  1       -1 0.48962309E-02 0.12615649E+03</pdfrwt>
<totfact> 0.65986289E+03</totfact>
</mgrwt>
</event>
<event>
 6    1  0.6419647E-006  0.2447692E+03  0.7546771E-02  0.1143009E+00
         -1   -1    0    0    0  501 -0.00000000000E+00  0.00000000000E+00  0.25393712079E+03  0.25393712079E+03  0.00000000000E+00 0.  1.
          1   -1    0    0  501    0  0.00000000000E+00 -0.00000000000E+00 -0.16012205324E+03  0.16012205324E+03  0.00000000000E+00 0. -1.
          5    1    1    2  502    0  0.12590152426E+03  0.22585045391E+02  0.15744460387E+02  0.12896222749E+03  0.47000000000E+01 0. -1.
         -5    1    1    2    0  502 -0.90219888052E+02 -0.66034012655E+02 -0.31798191762E+02  0.11633285876E+03  0.47000000000E+01 0.  1.
        -11    1    1    2    0    0  0.10222192157E+02  0.30853904786E+02  0.11627688606E+03  0.12073429871E+03  0.00000000000E+00 0.  1.
         11    1    1    2    0    0 -0.45903828366E+02  0.12595062478E+02 -0.64080871448E+01  0.48029789073E+02  0.00000000000E+00 0. -1.
<mgrwt>
<rscale>  0 0.20818847E+03</rscale>
<asrwt>0</asrwt>
<pdfrwt beam="2">  1        1 0.24634162E-01 0.24476919E+03</pdfrwt>
<pdfrwt beam="1">  1       -1 0.39067249E-01 0.24476919E+03</pdfrwt>
<totfact> 0.12528923E+03</totfact>
</mgrwt>
</event>
<event>
 7    1  0.6419647E-006  0.1436134E+03  0.7546771E-02  0.1219141E+00
         -2   -1    0    0    0  501 -0.00000000000E+00  0.00000000000E+00  0.52386256229E+02  0.52386256229E+02  0.00000000000E+00 0.  1.
          2   -1    0    0  501    0  0.00000000000E+00 -0.00000000000E+00 -0.32080626412E+03  0.32080626412E+03  0.00000000000E+00 0. -1.
         23    2    1    2    0    0 -0.68634286470E+02 -0.16922041851E+02 -0.13323286020E+03  0.19589743832E+03  0.12501116160E+03 0.  0.
          5    1    3    3  502    0 -0.18950167593E+02 -0.65425063786E+02 -0.38605738988E+02  0.78434946969E+02  0.47000000000E+01 0. -1.
         -5    1    3    3    0  502 -0.49684118878E+02  0.48503021935E+02 -0.94627121210E+02  0.11746249135E+03  0.47000000000E+01 0. -1.
        -11    1    1    2    0    0  0.73759517619E+01 -0.32946560727E+02 -0.56376366444E+02  0.65712823875E+02  0.00000000000E+00 0.  1.
         11    1    1    2    0    0  0.61258334709E+02  0.49868602578E+02 -0.78810781250E+02  0.11158225816E+03  0.00000000000E+00 0. -1.
<mgrwt>
<rscale>  0 0.13576721E+03</rscale>
<asrwt>0</asrwt>
<pdfrwt beam="2">  1        2 0.49354809E-01 0.14361341E+03</pdfrwt>
<pdfrwt beam="1">  1       -2 0.80594242E-02 0.14361341E+03</pdfrwt>
<totfact> 0.90467998E+03</totfact>
</mgrwt>
</event>
<event>
 7    1  0.6419647E-006  0.1377456E+03  0.7546771E-02  0.1237088E+00
          2   -1    0    0  501    0  0.00000000000E+00  0.00000000000E+00  0.56535285981E+03  0.56535285981E+03  0.00000000000E+00 0. -1.
         -2   -1    0    0    0  501 -0.00000000000E+00 -0.00000000000E+00 -0.23213230079E+02  0.23213230079E+02  0.00000000000E+00 0.  1.
         23    2    1    2    0    0  0.38054219179E+02  0.43594817949E+02  0.36288922840E+03  0.38815260278E+03  0.12500087684E+03 0.  0.
          5    1    3    3  502    0 -0.25544343658E+02  0.29977713851E+02  0.27946806384E+03  0.28226878242E+03  0.47000000000E+01 0. -1.
         -5    1    3    3    0  502  0.63598562837E+02  0.13617104098E+02  0.83421164559E+02  0.10588382037E+03  0.47000000000E+01 0. -1.
        -11    1    1    2    0    0 -0.91039558765E+01 -0.77965328786E+01 -0.30674561319E+01  0.12372438105E+02  0.00000000000E+00 0.  1.
         11    1    1    2    0    0 -0.28950263302E+02 -0.35798285070E+02  0.18231785747E+03  0.18804104900E+03  0.00000000000E+00 0. -1.
<mgrwt>
<rscale>  0 0.12371735E+03</rscale>
<asrwt>0</asrwt>
<pdfrwt beam="1">  1        2 0.86977353E-01 0.13774560E+03</pdfrwt>
<pdfrwt beam="2">  1       -2 0.35712666E-02 0.13774560E+03</pdfrwt>
<totfact> 0.16696814E+04</totfact>
</mgrwt>
</event>
<event>
 7    1  0.6419647E-006  0.1403379E+03  0.7546771E-02  0.1223895E+00
          1   -1    0    0  501    0  0.00000000000E+00  0.00000000000E+00  0.29219053947E+03  0.29219053947E+03  0.00000000000E+00 0. -1.
         -1   -1    0    0    0  501 -0.00000000000E+00 -0.00000000000E+00 -0.61519540338E+02  0.61519540338E+02  0.00000000000E+00 0.  1.
         23    2    1    2    0    0  0.57207865645E+02  0.28224362396E+02  0.18783795458E+03  0.23447348834E+03  0.12500146011E+03 0.  0.
          5    1    3    3  502    0 -0.28135490541E+01 -0.45112544493E+02  0.59521952704E+02  0.74886651565E+02  0.47000000000E+01 0.  1.
         -5    1    3    3    0  502  0.60021414699E+02  0.73336906889E+02  0.12831600188E+03  0.15958683678E+03  0.47000000000E+01 0.  1.
        -11    1    1    2    0    0 -0.91830669972E+01  0.24720287818E+02 -0.12169595516E+02  0.29043422738E+02  0.00000000000E+00 0.  1.
         11    1    1    2    0    0 -0.48024798647E+02 -0.52944650214E+02  0.55002640070E+02  0.90193168733E+02  0.00000000000E+00 0. -1.
<mgrwt>
<rscale>  0 0.13242899E+03</rscale>
<asrwt>0</asrwt>
<pdfrwt beam="1">  1        1 0.44952390E-01 0.14033788E+03</pdfrwt>
<pdfrwt beam="2">  1       -1 0.94645448E-02 0.14033788E+03</pdfrwt>
<totfact> 0.57629777E+03</totfact>
</mgrwt>
</event>
<event>
 7    1  0.6419647E-006  0.1430597E+03  0.7546771E-02  0.1218763E+00
          4   -1    0    0  501    0  0.00000000000E+00  0.00000000000E+00  0.51457016711E+03  0.51457016711E+03  0.00000000000E+00 0. -1.
         -4   -1    0    0    0  501 -0.00000000000E+00 -0.00000000000E+00 -0.34441397872E+02  0.34441397872E+02  0.00000000000E+00 0.  1.
         23    2    1    2    0    0 -0.69479018516E+02 -0.37586265349E+01  0.32174409955E+03  0.35211551949E+03  0.12499844871E+03 0.  0.
          5    1    3    3  502    0 -0.75670471362E+02  0.61042401790E+00  0.80048050176E+02  0.11025503703E+03  0.47000000000E+01 0.  1.
         -5    1    3    3    0  502  0.61914528457E+01 -0.43690505528E+01  0.24169604937E+03  0.24186048246E+03  0.47000000000E+01 0.  1.
        -11    1    1    2    0    0  0.37439732262E+02 -0.40414559311E+02  0.45265125067E+02  0.71302185825E+02  0.00000000000E+00 0.  1.
         11    1    1    2    0    0  0.32039286254E+02  0.44173185846E+02  0.11311954462E+03  0.12559385966E+03  0.00000000000E+00 0. -1.
<mgrwt>
<rscale>  0 0.13603731E+03</rscale>
<asrwt>0</asrwt>
<pdfrwt beam="1">  1        4 0.79164635E-01 0.14305968E+03</pdfrwt>
<pdfrwt beam="2">  1       -4 0.52986770E-02 0.14305968E+03</pdfrwt>
<totfact> 0.53049086E+02</totfact>
</mgrwt>
</event>
<event>
 7    1  0.6419647E-006  0.2257386E+03  0.7546771E-02  0.1132859E+00
         -2   -1    0    0    0  501 -0.00000000000E+00  0.00000000000E+00  0.17263055465E+03  0.17263055465E+03  0.00000000000E+00 0.  1.
          2   -1    0    0  501    0  0.00000000000E+00 -0.00000000000E+00 -0.30115530513E+03  0.30115530513E+03  0.00000000000E+00 0. -1.
         23    2    1    2    0    0  0.14514676700E+02 -0.18739871664E+03 -0.13833840162E+03  0.26475537741E+03  0.12501576568E+03 0.  0.
          5    1    3    3  502    0 -0.52742247371E+00 -0.18545131848E+03 -0.15499721180E+03  0.24174096750E+03  0.47000000000E+01 0. -1.
         -5    1    3    3    0  502  0.15042099173E+02 -0.19473981536E+01  0.16658810178E+02  0.23014409914E+02  0.47000000000E+01 0. -1.
        -11    1    1    2    0    0  0.24947552432E+02  0.12311635476E+03  0.33430747427E+02  0.12999089220E+03  0.00000000000E+00 0. -1.
         11    1    1    2    0    0 -0.39462229132E+02  0.64282361878E+02 -0.23617096292E+02  0.79039590168E+02  0.00000000000E+00 0.  1.
<mgrwt>
<rscale>  0 0.22137926E+03</rscale>
<asrwt>0</asrwt>
<pdfrwt beam="2">  1        2 0.46331585E-01 0.22573856E+03</pdfrwt>
<pdfrwt beam="1">  1       -2 0.26558547E-01 0.22573856E+03</pdfrwt>
<totfact> 0.13835785E+03</totfact>
</mgrwt>
</event>
<event>
 7    1  0.6419647E-006  0.1270045E+03  0.7546771E-02  0.1246860E+00
          2   -1    0    0  501    0  0.00000000000E+00  0.00000000000E+00  0.76914283417E+02  0.76914283417E+02  0.00000000000E+00 0. -1.
         -2   -1    0    0    0  501 -0.00000000000E+00 -0.00000000000E+00 -0.16644081682E+03  0.16644081682E+03  0.00000000000E+00 0.  1.
         23    2    1    2    0    0 -0.69013699957E+01 -0.21397066694E+02 -0.24902307201E+02  0.12942283354E+03  0.12499872626E+03 0.  0.
          5    1    3    3  502    0 -0.49895578136E+02  0.41866095989E+01 -0.51992374876E+02  0.72335285046E+02  0.47000000000E+01 0.  1.
         -5    1    3    3    0  502  0.42994208140E+02 -0.25583676293E+02  0.27090067676E+02  0.57087548493E+02  0.47000000000E+01 0.  1.
        -11    1    1    2    0    0 -0.93476624507E-01 -0.25398188962E+02 -0.61471934623E+02  0.66512220582E+02  0.00000000000E+00 0.  1.
         11    1    1    2    0    0  0.69948466202E+01  0.46795255656E+02 -0.31522915769E+01  0.47420046113E+02  0.00000000000E+00 0. -1.
<mgrwt>
<rscale>  0 0.11774732E+03</rscale>
<asrwt>0</asrwt>
<pdfrwt beam="1">  1        2 0.11832967E-01 0.12700451E+03</pdfrwt>
<pdfrwt beam="2">  1       -2 0.25606279E-01 0.12700451E+03</pdfrwt>
<totfact> 0.66659189E+03</totfact>
</mgrwt>
</event>
<event>
 7    1  0.6419647E-006  0.1281915E+03  0.7546771E-02  0.1243703E+00
         -4   -1    0    0    0  501 -0.00000000000E+00  0.00000000000E+00  0.70844777201E+02  0.70844777201E+02  0.00000000000E+00 0.  1.
          4   -1    0    0  501    0  0.00000000000E+00 -0.00000000000E+00 -0.18137186174E+03  0.18137186174E+03  0.00000000000E+00 0. -1.
         23    2    1    2    0    0 -0.54729062363E+01  0.27820074002E+02 -0.76027082095E+02  0.14904085007E+03  0.12501659313E+03 0.  0.
          5    1    3    3  502    0 -0.35044363481E+02 -0.32841386139E+02 -0.64282048760E+02  0.80379946803E+02  0.47000000000E+01 0. -1.
         -5    1    3    3    0  502  0.29571457244E+02  0.60661460141E+02 -0.11745033335E+02  0.68660903271E+02  0.47000000000E+01 0. -1.
        -11    1    1    2    0    0  0.31192351546E+02 -0.15952574214E+02 -0.57064605278E+02  0.66961306696E+02  0.00000000000E+00 0. -1.
         11    1    1    2    0    0 -0.25719445309E+02 -0.11867499788E+02  0.22564602830E+02  0.36214482174E+02  0.00000000000E+00 0.  1.
<mgrwt>
<rscale>  0 0.11963329E+03</rscale>
<asrwt>0</asrwt>
<pdfrwt beam="2">  1        4 0.27903363E-01 0.12819149E+03</pdfrwt>
<pdfrwt beam="1">  1       -4 0.10899197E-01 0.12819149E+03</pdfrwt>
<totfact> 0.13009258E+03</totfact>
</mgrwt>
</event>
<event>
 7    1  0.6419647E-006  0.1402150E+03  0.7546771E-02  0.1223830E+00
          1   -1    0    0  501    0  0.00000000000E+00  0.00000000000E+00  0.39939163603E+03  0.39939163603E+03  0.00000000000E+00 0. -1.
         -1   -1    0    0    0  501 -0.00000000000E+00 -0.00000000000E+00 -0.42382374136E+02  0.42382374136E+02  0.00000000000E+00 0.  1.
         23    2    1    2    0    0 -0.40639988501E+02  0.48769801154E+02  0.25234672494E+03  0.28868515849E+03  0.12502059421E+03 0.  0.
          5    1    3    3  502    0  0.30542146523E+02  0.43090483507E+02  0.17699108593E+03  0.18476348931E+03  0.47000000000E+01 0. -1.
         -5    1    3    3    0  502 -0.71182135024E+02  0.56793176467E+01  0.75355639011E+02  0.10392166919E+03  0.47000000000E+01 0. -1.
        -11    1    1    2    0    0 -0.17087465028E+02 -0.26580489276E+02  0.92466902408E-01  0.31599247164E+02  0.00000000000E+00 0.  1.
         11    1    1    2    0    0  0.57727453530E+02 -0.22189311878E+02  0.10457007005E+03  0.12148960450E+03  0.00000000000E+00 0. -1.
<mgrwt>
<rscale>  0 0.13247417E+03</rscale>
<asrwt>0</asrwt>
<pdfrwt beam="1">  1        1 0.61444865E-01 0.14021502E+03</pdfrwt>
<pdfrwt beam="2">  1       -1 0.65203655E-02 0.14021502E+03</pdfrwt>
<totfact> 0.68458897E+03</totfact>
</mgrwt>
</event>
<event>
 7    1  0.6419647E-006  0.1555562E+03  0.7546771E-02  0.1202688E+00
          2   -1    0    0  501    0  0.00000000000E+00  0.00000000000E+00  0.18001035709E+03  0.18001035709E+03  0.00000000000E+00 0. -1.
         -2   -1    0    0    0  501 -0.00000000000E+00 -0.00000000000E+00 -0.11942407135E+03  0.11942407135E+03  0.00000000000E+00 0.  1.
         23    2    1    2    0    0  0.72620377139E+02 -0.57439230487E+02  0.70646049707E+02  0.17084673005E+03  0.12499902581E+03 0.  0.
          5    1    3    3  502    0 -0.17767648744E+01 -0.25592281486E+01 -0.32076802713E+02  0.32568663074E+02  0.47000000000E+01 0.  1.
         -5    1    3    3    0  502  0.74397142013E+02 -0.54880002338E+02  0.10272285242E+03  0.13827806697E+03  0.47000000000E+01 0.  1.
        -11    1    1    2    0    0 -0.47205168340E+02  0.62058331289E+00  0.28713131949E+02  0.55255379720E+02  0.00000000000E+00 0. -1.
         11    1    1    2    0    0 -0.25415208799E+02  0.56818647174E+02 -0.38772895917E+02  0.73332318678E+02  0.00000000000E+00 0.  1.
<mgrwt>
<rscale>  0 0.14821158E+03</rscale>
<asrwt>0</asrwt>
<pdfrwt beam="1">  1        2 0.27693901E-01 0.15555623E+03</pdfrwt>
<pdfrwt beam="2">  1       -2 0.18372934E-01 0.15555623E+03</pdfrwt>
<totfact> 0.45001063E+03</totfact>
</mgrwt>
</event>
<event>
 7    1  0.6419647E-006  0.1363880E+03  0.7546771E-02  0.1237681E+00
         -1   -1    0    0    0  501 -0.00000000000E+00  0.00000000000E+00  0.31506862002E+02  0.31506862002E+02  0.00000000000E+00 0.  1.
          1   -1    0    0  501    0  0.00000000000E+00 -0.00000000000E+00 -0.42668974858E+03  0.42668974858E+03  0.00000000000E+00 0. -1.
         23    2    1    2    0    0  0.54400448552E+01  0.54288471812E+02 -0.27830984148E+03  0.30993233551E+03  0.12499940988E+03 0.  0.
          5    1    3    3  502    0 -0.37473140848E+02  0.23275591936E+02 -0.24626432070E+02  0.50739931233E+02  0.47000000000E+01 0. -1.
         -5    1    3    3    0  502  0.42913185703E+02  0.31012879876E+02 -0.25368340941E+03  0.25919240428E+03  0.47000000000E+01 0. -1.
        -11    1    1    2    0    0 -0.19848843205E+02 -0.55700574957E+02 -0.43324861871E+02  0.73304667540E+02  0.00000000000E+00 0.  1.
         11    1    1    2    0    0  0.14408798350E+02  0.14121031446E+01 -0.73548183229E+02  0.74959607533E+02  0.00000000000E+00 0. -1.
<mgrwt>
<rscale>  0 0.12334371E+03</rscale>
<asrwt>0</asrwt>
<pdfrwt beam="2">  1        1 0.65644576E-01 0.13638799E+03</pdfrwt>
<pdfrwt beam="1">  1       -1 0.48472096E-02 0.13638799E+03</pdfrwt>
<totfact> 0.97662341E+03</totfact>
</mgrwt>
</event>
<event>
 7    1  0.6419647E-006  0.1329644E+03  0.7546771E-02  0.1236155E+00
         -1   -1    0    0    0  501 -0.00000000000E+00  0.00000000000E+00  0.20646537642E+02  0.20646537642E+02  0.00000000000E+00 0.  1.
          1   -1    0    0  501    0  0.00000000000E+00 -0.00000000000E+00 -0.79763672258E+03  0.79763672258E+03  0.00000000000E+00 0. -1.
         23    2    1    2    0    0  0.34007006840E+02 -0.29945635671E+02 -0.59682561895E+03  0.61145756081E+03  0.12500524638E+03 0.  0.
          5    1    3    3  502    0  0.43552823267E+02  0.33517222234E+02 -0.14616354228E+03  0.15622459375E+03  0.47000000000E+01 0.  1.
         -5    1    3    3    0  502 -0.95458164278E+01 -0.63462857904E+02 -0.45066207668E+03  0.45523296706E+03  0.47000000000E+01 0.  1.
        -11    1    1    2    0    0 -0.32154595771E+02 -0.28337092843E+02 -0.85542011069E+02  0.95678338811E+02  0.00000000000E+00 0. -1.
         11    1    1    2    0    0 -0.18524110688E+01  0.58282728513E+02 -0.94622554914E+02  0.11114736060E+03  0.00000000000E+00 0.  1.
<mgrwt>
<rscale>  0 0.12430793E+03</rscale>
<asrwt>0</asrwt>
<pdfrwt beam="2">  1        1 0.12271334E+00 0.13296439E+03</pdfrwt>
<pdfrwt beam="1">  1       -1 0.31763905E-02 0.13296439E+03</pdfrwt>
<totfact> 0.77293825E+03</totfact>
</mgrwt>
</event>
<event>
 7    1  0.6419647E-006  0.1690693E+03  0.7546771E-02  0.1184987E+00
         -2   -1    0    0    0  501 -0.00000000000E+00  0.00000000000E+00  0.10011919814E+03  0.10011919814E+03  0.00000000000E+00 0. -1.
          2   -1    0    0  501    0  0.00000000000E+00 -0.00000000000E+00 -0.67389732183E+03  0.67389732183E+03  0.00000000000E+00 0.  1.
         23    2    1    2    0    0 -0.10578091840E+03 -0.42053424405E+02 -0.60094450960E+03  0.62427456535E+03  0.12500534437E+03 0.  0.
          5    1    3    3  502    0 -0.32311788780E+02 -0.69719586020E+02 -0.41969678552E+03  0.42669937209E+03  0.47000000000E+01 0.  1.
         -5    1    3    3    0  502 -0.73469129619E+02  0.27666161614E+02 -0.18124772408E+03  0.19757519326E+03  0.47000000000E+01 0.  1.
        -11    1    1    2    0    0  0.18765582631E+02 -0.28553429104E+02 -0.10574427680E+01  0.34184259394E+02  0.00000000000E+00 0.  1.
         11    1    1    2    0    0  0.87015335768E+02  0.70606853510E+02  0.28223828680E+02  0.11555769523E+03  0.00000000000E+00 0. -1.
<mgrwt>
<rscale>  0 0.16333062E+03</rscale>
<asrwt>0</asrwt>
<pdfrwt beam="2">  1        2 0.10367651E+00 0.16906930E+03</pdfrwt>
<pdfrwt beam="1">  1       -2 0.15402954E-01 0.16906930E+03</pdfrwt>
<totfact> 0.14323800E+03</totfact>
</mgrwt>
</event>
<event>
 7    1  0.6419647E-006  0.1437803E+03  0.7546771E-02  0.1218648E+00
          1   -1    0    0  501    0  0.00000000000E+00  0.00000000000E+00  0.10882479912E+04  0.10882479912E+04  0.00000000000E+00 0. -1.
         -1   -1    0    0    0  501 -0.00000000000E+00 -0.00000000000E+00 -0.15568431320E+02  0.15568431320E+02  0.00000000000E+00 0.  1.
         23    2    1    2    0    0  0.41529115974E+02 -0.57684935408E+02  0.54524336702E+03  0.56388217389E+03  0.12498222879E+03 0.  0.
          5    1    3    3  502    0  0.36398389518E+02 -0.11063417002E+02  0.48898919606E+03  0.49048931264E+03  0.47000000000E+01 0.  1.
         -5    1    3    3    0  502  0.51307264559E+01 -0.46621518405E+02  0.56254170960E+02  0.73392861252E+02  0.47000000000E+01 0.  1.
        -11    1    1    2    0    0 -0.25937489787E+02  0.82317729560E+02  0.40028634987E+03  0.40948519371E+03  0.00000000000E+00 0.  1.
         11    1    1    2    0    0 -0.15591626187E+02 -0.24632794153E+02  0.12714984295E+03  0.13044905488E+03  0.00000000000E+00 0. -1.
<mgrwt>
<rscale>  0 0.13611916E+03</rscale>
<asrwt>0</asrwt>
<pdfrwt beam="1">  1        1 0.16742271E+00 0.14378031E+03</pdfrwt>
<pdfrwt beam="2">  1       -1 0.23951441E-02 0.14378031E+03</pdfrwt>
<totfact> 0.70539184E+03</totfact>
</mgrwt>
</event>
<event>
 7    1  0.6419647E-006  0.1738221E+03  0.7546771E-02  0.1179910E+00
          1   -1    0    0  501    0  0.00000000000E+00  0.00000000000E+00  0.84966972126E+03  0.84966972126E+03  0.00000000000E+00 0. -1.
         -1   -1    0    0    0  501 -0.00000000000E+00 -0.00000000000E+00 -0.31368713172E+02  0.31368713172E+02  0.00000000000E+00 0.  1.
         23    2    1    2    0    0  0.32884094284E+02 -0.11622374764E+03  0.46891695117E+03  0.50009722532E+03  0.12499921801E+03 0.  0.
          5    1    3    3  502    0  0.76469474566E+02 -0.69855627354E+02  0.35136881211E+03  0.36634617691E+03  0.47000000000E+01 0. -1.
         -5    1    3    3    0  502 -0.43585380282E+02 -0.46368120290E+02  0.11754813906E+03  0.13375104841E+03  0.47000000000E+01 0. -1.
        -11    1    1    2    0    0  0.22696173914E+02  0.85152947328E+02  0.20054242883E+03  0.21905115044E+03  0.00000000000E+00 0. -1.
         11    1    1    2    0    0 -0.55580268198E+02  0.31070800315E+02  0.14884162809E+03  0.16189005867E+03  0.00000000000E+00 0.  1.
<mgrwt>
<rscale>  0 0.16803724E+03</rscale>
<asrwt>0</asrwt>
<pdfrwt beam="1">  1        1 0.13071840E+00 0.17382212E+03</pdfrwt>
<pdfrwt beam="2">  1       -1 0.48259565E-02 0.17382212E+03</pdfrwt>
<totfact> 0.38353554E+03</totfact>
</mgrwt>
</event>
<event>
 7    1  0.6419647E-006  0.1256854E+03  0.7546771E-02  0.1249740E+00
         -1   -1    0    0    0  501 -0.00000000000E+00  0.00000000000E+00  0.32305705736E+02  0.32305705736E+02  0.00000000000E+00 0.  1.
          1   -1    0    0  501    0  0.00000000000E+00 -0.00000000000E+00 -0.55253788220E+03  0.55253788220E+03  0.00000000000E+00 0. -1.
         23    2    1    2    0    0 -0.13000729982E+02 -0.17923038515E+01 -0.45634695679E+03  0.47333854254E+03  0.12499839821E+03 0.  0.
          5    1    3    3  502    0  0.45379012167E+02  0.40292697353E+01 -0.33877913570E+03  0.34186091111E+03  0.47000000000E+01 0.  1.
         -5    1    3    3    0  502 -0.58379742148E+02 -0.58215735868E+01 -0.11756782109E+03  0.13147763144E+03  0.47000000000E+01 0.  1.
        -11    1    1    2    0    0 -0.47599036556E+01 -0.42940898815E+02 -0.32164200015E+02  0.53861983221E+02  0.00000000000E+00 0.  1.
         11    1    1    2    0    0  0.17760633637E+02  0.44733202666E+02 -0.31721019660E+02  0.57643062169E+02  0.00000000000E+00 0. -1.
<mgrwt>
<rscale>  0 0.11606143E+03</rscale>
<asrwt>0</asrwt>
<pdfrwt beam="2">  1        1 0.85005824E-01 0.12568544E+03</pdfrwt>
<pdfrwt beam="1">  1       -1 0.49701088E-02 0.12568544E+03</pdfrwt>
<totfact> 0.66952666E+03</totfact>
</mgrwt>
</event>
<event>
 7    1  0.6419647E-006  0.1263073E+03  0.7546771E-02  0.1248078E+00
          2   -1    0    0  501    0  0.00000000000E+00  0.00000000000E+00  0.12919372911E+03  0.12919372911E+03  0.00000000000E+00 0.  1.
         -2   -1    0    0    0  501 -0.00000000000E+00 -0.00000000000E+00 -0.93416537895E+02  0.93416537895E+02  0.00000000000E+00 0. -1.
         23    2    1    2    0    0 -0.10198800696E+02  0.15386414648E+02  0.26511741448E+02  0.12905971369E+03  0.12495111033E+03 0.  0.
          5    1    3    3  502    0  0.54593691306E+02  0.24902662864E+02  0.18195457113E+02  0.62879077662E+02  0.47000000000E+01 0.  1.
         -5    1    3    3    0  502 -0.64792492001E+02 -0.95162482154E+01  0.83162843349E+01  0.66180636027E+02  0.47000000000E+01 0.  1.
        -11    1    1    2    0    0  0.36485390029E+02 -0.71477348610E+01 -0.28471655320E+02  0.46828505804E+02  0.00000000000E+00 0. -1.
         11    1    1    2    0    0 -0.26286589333E+02 -0.82386797875E+01  0.37737105088E+02  0.46722047513E+02  0.00000000000E+00 0.  1.
<mgrwt>
<rscale>  0 0.11703016E+03</rscale>
<asrwt>0</asrwt>
<pdfrwt beam="1">  1        2 0.19875958E-01 0.12630731E+03</pdfrwt>
<pdfrwt beam="2">  1       -2 0.14371775E-01 0.12630731E+03</pdfrwt>
<totfact> 0.96202827E+03</totfact>
</mgrwt>
</event>
<event>
 6    1  0.6419647E-006  0.2437833E+03  0.7546771E-02  0.1142862E+00
          1   -1    0    0  501    0  0.00000000000E+00  0.00000000000E+00  0.75813086317E+03  0.75813086317E+03  0.00000000000E+00 0. -1.
         -1   -1    0    0    0  501 -0.00000000000E+00 -0.00000000000E+00 -0.46138471548E+02  0.46138471548E+02  0.00000000000E+00 0.  1.
          5    1    1    2  502    0 -0.40383934435E+02 -0.14244232272E+03  0.38601265846E+03  0.41345923614E+03  0.47000000000E+01 0. -1.
         -5    1    1    2    0  502  0.62160961196E+02  0.51968234188E+02  0.88937023880E+02  0.12040168885E+03  0.47000000000E+01 0.  1.
        -11    1    1    2    0    0 -0.49135728903E+02  0.87551501450E+02  0.20433254518E+03  0.22766504844E+03  0.00000000000E+00 0.  1.
         11    1    1    2    0    0  0.27358702143E+02  0.29225870793E+01  0.32710164095E+02  0.42743361277E+02  0.00000000000E+00 0. -1.
<mgrwt>
<rscale>  0 0.20837218E+03</rscale>
<asrwt>0</asrwt>
<pdfrwt beam="1">  1        1 0.11663551E+00 0.24378328E+03</pdfrwt>
<pdfrwt beam="2">  1       -1 0.70982269E-02 0.24378328E+03</pdfrwt>
<totfact> 0.25787460E+03</totfact>
</mgrwt>
</event>
<event>
 7    1  0.6419647E-006  0.2096027E+03  0.7546771E-02  0.1145704E+00
         -1   -1    0    0    0  501 -0.00000000000E+00  0.00000000000E+00  0.70701695343E+02  0.70701695343E+02  0.00000000000E+00 0.  1.
          1   -1    0    0  501    0  0.00000000000E+00 -0.00000000000E+00 -0.59770800103E+03  0.59770800103E+03  0.00000000000E+00 0. -1.
         23    2    1    2    0    0  0.12998095872E+03 -0.10682436877E+03 -0.34915636634E+03  0.40723884819E+03  0.12500726350E+03 0.  0.
          5    1    3    3  502    0  0.21888724341E+02 -0.90571922307E+02 -0.10995161391E+03  0.14420068226E+03  0.47000000000E+01 0.  1.
         -5    1    3    3    0  502  0.10809223438E+03 -0.16252446460E+02 -0.23920475243E+03  0.26303816593E+03  0.47000000000E+01 0.  1.
        -11    1    1    2    0    0 -0.78741179794E+02  0.89999562789E+02 -0.16820985891E+03  0.20638471681E+03  0.00000000000E+00 0. -1.
         11    1    1    2    0    0 -0.51239778925E+02  0.16824805977E+02 -0.96400804408E+01  0.54786131378E+02  0.00000000000E+00 0.  1.
<mgrwt>
<rscale>  0 0.20485785E+03</rscale>
<asrwt>0</asrwt>
<pdfrwt beam="2">  1        1 0.91955073E-01 0.20960275E+03</pdfrwt>
<pdfrwt beam="1">  1       -1 0.10877184E-01 0.20960275E+03</pdfrwt>
<totfact> 0.18801385E+03</totfact>
</mgrwt>
</event>
<event>
 7    1  0.6419647E-006  0.1487708E+03  0.7546771E-02  0.1211481E+00
         -1   -1    0    0    0  501 -0.00000000000E+00  0.00000000000E+00  0.16724145807E+03  0.16724145807E+03  0.00000000000E+00 0.  1.
          1   -1    0    0  501    0  0.00000000000E+00 -0.00000000000E+00 -0.11370367899E+03  0.11370367899E+03  0.00000000000E+00 0. -1.
         23    2    1    2    0    0  0.51795539378E+02 -0.61821244923E+02  0.11563323670E+01  0.14877528734E+03  0.12501241856E+03 0.  0.
          5    1    3    3  502    0  0.41542775011E+02 -0.99667985658E+02  0.92019787880E+01  0.10847246625E+03  0.47000000000E+01 0.  1.
         -5    1    3    3    0  502  0.10252764367E+02  0.37846740735E+02 -0.80456464210E+01  0.40302821089E+02  0.47000000000E+01 0.  1.
        -11    1    1    2    0    0 -0.10799218510E+02  0.76449280484E+02  0.39784894130E+02  0.86855934788E+02  0.00000000000E+00 0.  1.
         11    1    1    2    0    0 -0.40996320868E+02 -0.14628035561E+02  0.12596552581E+02  0.45313914927E+02  0.00000000000E+00 0. -1.
<mgrwt>
<rscale>  0 0.14138241E+03</rscale>
<asrwt>0</asrwt>
<pdfrwt beam="2">  1        1 0.17492874E-01 0.14877079E+03</pdfrwt>
<pdfrwt beam="1">  1       -1 0.25729455E-01 0.14877079E+03</pdfrwt>
<totfact> 0.38943478E+03</totfact>
</mgrwt>
</event>
<event>
 7    1  0.6419647E-006  0.1250388E+03  0.7546771E-02  0.1250090E+00
         -1   -1    0    0    0  501 -0.00000000000E+00  0.00000000000E+00  0.16480036429E+02  0.16480036429E+02  0.00000000000E+00 0.  1.
          1   -1    0    0  501    0  0.00000000000E+00 -0.00000000000E+00 -0.91794661629E+03  0.91794661629E+03  0.00000000000E+00 0. -1.
         23    2    1    2    0    0 -0.19329295124E+01 -0.24497616287E+01 -0.72125712425E+03  0.73201539595E+03  0.12499985229E+03 0.  0.
          5    1    3    3  502    0 -0.14218985638E+02  0.54710826925E+02 -0.21443630242E+03  0.22181179394E+03  0.47000000000E+01 0. -1.
         -5    1    3    3    0  502  0.12286056125E+02 -0.57160588554E+02 -0.50682082184E+03  0.51020360201E+03  0.47000000000E+01 0. -1.
        -11    1    1    2    0    0 -0.14319496527E+02  0.34254008858E+02 -0.29194934042E+02  0.47230596835E+02  0.00000000000E+00 0.  1.
         11    1    1    2    0    0  0.16252426040E+02 -0.31804247229E+02 -0.15101452156E+03  0.15518065993E+03  0.00000000000E+00 0. -1.
<mgrwt>
<rscale>  0 0.11585857E+03</rscale>
<asrwt>0</asrwt>
<pdfrwt beam="2">  1        1 0.14122257E+00 0.12503880E+03</pdfrwt>
<pdfrwt beam="1">  1       -1 0.25353900E-02 0.12503880E+03</pdfrwt>
<totfact> 0.85922936E+03</totfact>
</mgrwt>
</event>
<event>
 7    1  0.6419647E-006  0.1307784E+03  0.7546771E-02  0.1239218E+00
          2   -1    0    0  501    0  0.00000000000E+00  0.00000000000E+00  0.85753800937E+02  0.85753800937E+02  0.00000000000E+00 0. -1.
         -2   -1    0    0    0  501 -0.00000000000E+00 -0.00000000000E+00 -0.19447603771E+03  0.19447603771E+03  0.00000000000E+00 0.  1.
         23    2    1    2    0    0  0.71416350079E+01  0.37808984912E+02  0.20593338433E+01  0.13079457732E+03  0.12498983282E+03 0.  0.
          5    1    3    3  502    0 -0.23855073111E+02 -0.39510093490E+02  0.82987368575E+01  0.47128240304E+02  0.47000000000E+01 0.  1.
         -5    1    3    3    0  502  0.30996708119E+02  0.77319078401E+02 -0.62394030142E+01  0.83666337012E+02  0.47000000000E+01 0.  1.
        -11    1    1    2    0    0 -0.33077679921E+02 -0.12452234526E+02 -0.10732996024E+03  0.11299960805E+03  0.00000000000E+00 0.  1.
         11    1    1    2    0    0  0.25936044913E+02 -0.25356750386E+02 -0.34516103734E+01  0.36435653281E+02  0.00000000000E+00 0. -1.
<mgrwt>
<rscale>  0 0.12238205E+03</rscale>
<asrwt>0</asrwt>
<pdfrwt beam="1">  1        2 0.13192892E-01 0.13077836E+03</pdfrwt>
<pdfrwt beam="2">  1       -2 0.29919391E-01 0.13077836E+03</pdfrwt>
<totfact> 0.44514564E+03</totfact>
</mgrwt>
</event>
<event>
 7    1  0.6419647E-006  0.1306347E+03  0.7546771E-02  0.1240018E+00
          1   -1    0    0  501    0  0.00000000000E+00  0.00000000000E+00  0.13732071202E+03  0.13732071202E+03  0.00000000000E+00 0. -1.
         -1   -1    0    0    0  501 -0.00000000000E+00 -0.00000000000E+00 -0.10188492704E+03  0.10188492704E+03  0.00000000000E+00 0.  1.
         23    2    1    2    0    0 -0.36147024771E+02 -0.11567048115E+02  0.48500576884E+02  0.13934752522E+03  0.12500009130E+03 0.  0.
          5    1    3    3  502    0 -0.59931982508E+02  0.18790300055E+02  0.70631802125E+02  0.94635402334E+02  0.47000000000E+01 0.  1.
         -5    1    3    3    0  502  0.23784957737E+02 -0.30357348170E+02 -0.22131225241E+02  0.44712122887E+02  0.47000000000E+01 0.  1.
        -11    1    1    2    0    0  0.47690378453E+01  0.39973969711E+02 -0.33947753816E+02  0.52660345285E+02  0.00000000000E+00 0.  1.
         11    1    1    2    0    0  0.31377986926E+02 -0.28406921595E+02  0.20882961913E+02  0.47197768552E+02  0.00000000000E+00 0. -1.
<mgrwt>
<rscale>  0 0.12188562E+03</rscale>
<asrwt>0</asrwt>
<pdfrwt beam="1">  1        1 0.21126263E-01 0.13063471E+03</pdfrwt>
<pdfrwt beam="2">  1       -1 0.15674604E-01 0.13063471E+03</pdfrwt>
<totfact> 0.67391915E+03</totfact>
</mgrwt>
</event>
<event>
 7    1  0.6419647E-006  0.1320279E+03  0.7546771E-02  0.1238552E+00
         -1   -1    0    0    0  501 -0.00000000000E+00  0.00000000000E+00  0.22541863972E+03  0.22541863972E+03  0.00000000000E+00 0.  1.
          1   -1    0    0  501    0  0.00000000000E+00 -0.00000000000E+00 -0.67929475126E+02  0.67929475126E+02  0.00000000000E+00 0. -1.
         23    2    1    2    0    0  0.40364479552E+02 -0.13102396073E+02  0.36181668495E+02  0.13689590738E+03  0.12502164745E+03 0.  0.
          5    1    3    3  502    0  0.31077288560E+02 -0.68652975506E+02  0.20111890196E+02  0.78138383892E+02  0.47000000000E+01 0. -1.
         -5    1    3    3    0  502  0.92871909915E+01  0.55550579433E+02  0.16069778299E+02  0.58757523488E+02  0.47000000000E+01 0. -1.
        -11    1    1    2    0    0 -0.65545899421E+01 -0.36397232379E+02  0.61576326082E+02  0.71828720634E+02  0.00000000000E+00 0.  1.
         11    1    1    2    0    0 -0.33809889610E+02  0.49499628451E+02  0.59731170020E+02  0.84623486835E+02  0.00000000000E+00 0. -1.
<mgrwt>
<rscale>  0 0.12279778E+03</rscale>
<asrwt>0</asrwt>
<pdfrwt beam="2">  1        1 0.10450689E-01 0.13202794E+03</pdfrwt>
<pdfrwt beam="1">  1       -1 0.34679790E-01 0.13202794E+03</pdfrwt>
<totfact> 0.45829728E+03</totfact>
</mgrwt>
</event>
<event>
 7    1  0.6419647E-006  0.1524432E+03  0.7546771E-02  0.1206390E+00
         -2   -1    0    0    0  501 -0.00000000000E+00  0.00000000000E+00  0.27193827512E+02  0.27193827512E+02  0.00000000000E+00 0.  1.
          2   -1    0    0  501    0  0.00000000000E+00 -0.00000000000E+00 -0.93137395395E+03  0.93137395395E+03  0.00000000000E+00 0. -1.
         23    2    1    2    0    0 -0.86192439708E+02 -0.13571369947E+02 -0.71724247576E+03  0.73326373458E+03  0.12500246664E+03 0.  0.
          5    1    3    3  502    0  0.15034011085E+02  0.28487790541E+02 -0.75632787712E+02  0.82340659921E+02  0.47000000000E+01 0.  1.
         -5    1    3    3    0  502 -0.10122645079E+03 -0.42059160489E+02 -0.64160968805E+03  0.65092307466E+03  0.47000000000E+01 0.  1.
        -11    1    1    2    0    0  0.69359657079E+02  0.49427499744E+02 -0.14016327434E+03  0.16401092414E+03  0.00000000000E+00 0. -1.
         11    1    1    2    0    0  0.16832782629E+02 -0.35856129797E+02 -0.46774376338E+02  0.61293122753E+02  0.00000000000E+00 0.  1.
<mgrwt>
<rscale>  0 0.14528439E+03</rscale>
<asrwt>0</asrwt>
<pdfrwt beam="2">  1        2 0.14328828E+00 0.15244322E+03</pdfrwt>
<pdfrwt beam="1">  1       -2 0.41836664E-02 0.15244322E+03</pdfrwt>
<totfact> 0.72510096E+03</totfact>
</mgrwt>
</event>
<event>
 7    1  0.6419647E-006  0.1276704E+03  0.7546771E-02  0.1245795E+00
         -1   -1    0    0    0  501 -0.00000000000E+00  0.00000000000E+00  0.22739402817E+02  0.22739402817E+02  0.00000000000E+00 0.  1.
          1   -1    0    0  501    0  0.00000000000E+00 -0.00000000000E+00 -0.75534524668E+03  0.75534524668E+03  0.00000000000E+00 0. -1.
         23    2    1    2    0    0 -0.14000362217E+02  0.21879869637E+02 -0.61079314176E+03  0.62399358039E+03  0.12499995005E+03 0.  0.
          5    1    3    3  502    0  0.11046209384E+02  0.11282997624E+02 -0.58791271395E+03  0.58814349779E+03  0.47000000000E+01 0. -1.
         -5    1    3    3    0  502 -0.25046571601E+02  0.10596872013E+02 -0.22880427816E+02  0.35850082600E+02  0.47000000000E+01 0. -1.
        -11    1    1    2    0    0 -0.12648183510E+02 -0.51613654471E+02 -0.81941604978E+02  0.97664591845E+02  0.00000000000E+00 0.  1.
         11    1    1    2    0    0  0.26648545726E+02  0.29733784834E+02 -0.39871097119E+02  0.56426477255E+02  0.00000000000E+00 0. -1.
<mgrwt>
<rscale>  0 0.11837944E+03</rscale>
<asrwt>0</asrwt>
<pdfrwt beam="2">  1        1 0.11620697E+00 0.12767038E+03</pdfrwt>
<pdfrwt beam="1">  1       -1 0.34983694E-02 0.12767038E+03</pdfrwt>
<totfact> 0.72628563E+03</totfact>
</mgrwt>
</event>
<event>
 7    1  0.6419647E-006  0.1323152E+03  0.7546771E-02  0.1234625E+00
         -1   -1    0    0    0  501 -0.00000000000E+00  0.00000000000E+00  0.12960285579E+03  0.12960285579E+03  0.00000000000E+00 0.  1.
          1   -1    0    0  501    0  0.00000000000E+00 -0.00000000000E+00 -0.12022773156E+03  0.12022773156E+03  0.00000000000E+00 0. -1.
         23    2    1    2    0    0 -0.47025313857E+01 -0.43215015359E+02 -0.31290414182E+02  0.13596473381E+03  0.12497066643E+03 0.  0.
          5    1    3    3  502    0  0.25225786097E+02 -0.17788769254E+01 -0.68103344461E+02  0.72798765196E+02  0.47000000000E+01 0.  1.
         -5    1    3    3    0  502 -0.29928317483E+02 -0.41436138434E+02  0.36812930278E+02  0.63165968617E+02  0.47000000000E+01 0.  1.
        -11    1    1    2    0    0  0.49022532053E+02  0.78630215777E+01  0.18026426869E+02  0.52820335316E+02  0.00000000000E+00 0.  1.
         11    1    1    2    0    0 -0.44320000667E+02  0.35351993781E+02  0.22639111549E+02  0.61045518223E+02  0.00000000000E+00 0. -1.
<mgrwt>
<rscale>  0 0.12528485E+03</rscale>
<asrwt>0</asrwt>
<pdfrwt beam="2">  1        1 0.18496574E-01 0.13231523E+03</pdfrwt>
<pdfrwt beam="1">  1       -1 0.19938901E-01 0.13231523E+03</pdfrwt>
<totfact> 0.54517768E+03</totfact>
</mgrwt>
</event>
<event>
 7    1  0.6419647E-006  0.1251466E+03  0.7546771E-02  0.1248843E+00
          1   -1    0    0  501    0  0.00000000000E+00  0.00000000000E+00  0.25595168213E+02  0.25595168213E+02  0.00000000000E+00 0. -1.
         -1   -1    0    0    0  501 -0.00000000000E+00 -0.00000000000E+00 -0.47774103007E+03  0.47774103007E+03  0.00000000000E+00 0.  1.
         23    2    1    2    0    0 -0.30918749824E+01  0.51449000756E+01 -0.22600648689E+03  0.25834204332E+03  0.12500259815E+03 0.  0.
          5    1    3    3  502    0  0.13576377337E+02  0.46864494579E+02 -0.30604561113E+02  0.57786919235E+02  0.47000000000E+01 0.  1.
         -5    1    3    3    0  502 -0.16668252319E+02 -0.41719594503E+02 -0.19540192578E+03  0.20055512409E+03  0.47000000000E+01 0.  1.
        -11    1    1    2    0    0  0.41134877257E+02  0.31211189587E+01 -0.17980062934E+03  0.18447245274E+03  0.00000000000E+00 0.  1.
         11    1    1    2    0    0 -0.38043002275E+02 -0.82660190344E+01 -0.46338745632E+02  0.60521702219E+02  0.00000000000E+00 0. -1.
<mgrwt>
<rscale>  0 0.11658295E+03</rscale>
<asrwt>0</asrwt>
<pdfrwt beam="1">  1        1 0.39377187E-02 0.12514663E+03</pdfrwt>
<pdfrwt beam="2">  1       -1 0.73498611E-01 0.12514663E+03</pdfrwt>
<totfact> 0.42979404E+03</totfact>
</mgrwt>
</event>
<event>
 7    1  0.6419647E-006  0.1370899E+03  0.7546771E-02  0.1229125E+00
          2   -1    0    0  501    0  0.00000000000E+00  0.00000000000E+00  0.12345515366E+03  0.12345515366E+03  0.00000000000E+00 0. -1.
         -2   -1    0    0    0  501 -0.00000000000E+00 -0.00000000000E+00 -0.12325314195E+03  0.12325314195E+03  0.00000000000E+00 0.  1.
         23    2    1    2    0    0 -0.73727338541E+01 -0.55805370466E+02  0.17602086591E+02  0.13821534622E+03  0.12500020761E+03 0.  0.
          5    1    3    3  502    0 -0.74800472606E-01  0.16223376946E+01  0.63805592142E+02  0.63999071581E+02  0.47000000000E+01 0.  1.
         -5    1    3    3    0  502 -0.72979333815E+01 -0.57427708160E+02 -0.46203505551E+02  0.74216274639E+02  0.47000000000E+01 0.  1.
        -11    1    1    2    0    0  0.66454211898E+00 -0.14120062295E+02 -0.33556634563E+02  0.36412436044E+02  0.00000000000E+00 0.  1.
         11    1    1    2    0    0  0.67081917351E+01  0.69925432760E+02  0.16156559688E+02  0.72080513345E+02  0.00000000000E+00 0. -1.
<mgrwt>
<rscale>  0 0.12888130E+03</rscale>
<asrwt>0</asrwt>
<pdfrwt beam="1">  1        2 0.18993101E-01 0.13708993E+03</pdfrwt>
<pdfrwt beam="2">  1       -2 0.18962022E-01 0.13708993E+03</pdfrwt>
<totfact> 0.64495658E+03</totfact>
</mgrwt>
</event>
<event>
 7    1  0.6419647E-006  0.1524503E+03  0.7546771E-02  0.1206757E+00
         -2   -1    0    0    0  501 -0.00000000000E+00  0.00000000000E+00  0.52638473661E+02  0.52638473661E+02  0.00000000000E+00 0.  1.
          2   -1    0    0  501    0  0.00000000000E+00 -0.00000000000E+00 -0.36741844589E+03  0.36741844589E+03  0.00000000000E+00 0. -1.
         23    2    1    2    0    0  0.52080105934E+02 -0.70028293843E+02 -0.15593450650E+03  0.21807489077E+03  0.12499915317E+03 0.  0.
          5    1    3    3  502    0  0.77915552003E+02 -0.90237291892E+02 -0.12241514904E+03  0.17094198082E+03  0.47000000000E+01 0.  1.
         -5    1    3    3    0  502 -0.25835446069E+02  0.20208998049E+02 -0.33519357463E+02  0.47132909951E+02  0.47000000000E+01 0.  1.
        -11    1    1    2    0    0  0.73288099285E+01  0.48310309324E+02 -0.27187825316E+02  0.55917575836E+02  0.00000000000E+00 0.  1.
         11    1    1    2    0    0 -0.59408915862E+02  0.21717984519E+02 -0.13165764041E+03  0.14606445294E+03  0.00000000000E+00 0. -1.
<mgrwt>
<rscale>  0 0.14499877E+03</rscale>
<asrwt>0</asrwt>
<pdfrwt beam="2">  1        2 0.56525912E-01 0.15245028E+03</pdfrwt>
<pdfrwt beam="1">  1       -2 0.80982270E-02 0.15245028E+03</pdfrwt>
<totfact> 0.78028653E+03</totfact>
</mgrwt>
</event>
<event>
 7    1  0.6419647E-006  0.1949690E+03  0.7546771E-02  0.1160052E+00
         -2   -1    0    0    0  501 -0.00000000000E+00  0.00000000000E+00  0.18588204491E+03  0.18588204491E+03  0.00000000000E+00 0.  1.
          2   -1    0    0  501    0  0.00000000000E+00 -0.00000000000E+00 -0.17996245509E+03  0.17996245509E+03  0.00000000000E+00 0. -1.
         23    2    1    2    0    0  0.65630150604E+02 -0.13446235106E+03  0.19056912381E+02  0.19589817156E+03  0.12500194875E+03 0.  0.
          5    1    3    3  502    0  0.64663839699E+02 -0.12678714883E+03  0.59589107374E+02  0.15436756457E+03  0.47000000000E+01 0. -1.
         -5    1    3    3    0  502  0.96631090537E+00 -0.76752022252E+01 -0.40532194993E+02  0.41530606989E+02  0.47000000000E+01 0. -1.
        -11    1    1    2    0    0 -0.54585194903E+02  0.26142255351E+02 -0.63171674984E+01  0.60851192450E+02  0.00000000000E+00 0.  1.
         11    1    1    2    0    0 -0.11044955702E+02  0.10832009571E+03 -0.68201550663E+01  0.10909513598E+03  0.00000000000E+00 0. -1.
<mgrwt>
<rscale>  0 0.18824646E+03</rscale>
<asrwt>0</asrwt>
<pdfrwt beam="2">  1        2 0.27686532E-01 0.19496904E+03</pdfrwt>
<pdfrwt beam="1">  1       -2 0.28597238E-01 0.19496904E+03</pdfrwt>
<totfact> 0.21108637E+03</totfact>
</mgrwt>
</event>
<event>
 7    1  0.6419647E-006  0.1637052E+03  0.7546771E-02  0.1191105E+00
          2   -1    0    0  501    0  0.00000000000E+00  0.00000000000E+00  0.26566140419E+03  0.26566140419E+03  0.00000000000E+00 0. -1.
         -2   -1    0    0    0  501 -0.00000000000E+00 -0.00000000000E+00 -0.11240919139E+03  0.11240919139E+03  0.00000000000E+00 0.  1.
         23    2    1    2    0    0 -0.72566673164E+02  0.76867098130E+02  0.16932686392E+03  0.23552278677E+03  0.12499969366E+03 0.  0.
          5    1    3    3  502    0 -0.58700791016E+02  0.11037604774E+03  0.11431426573E+03  0.16946532427E+03  0.47000000000E+01 0. -1.
         -5    1    3    3    0  502 -0.13865882148E+02 -0.33508949613E+02  0.55012598196E+02  0.66057462502E+02  0.47000000000E+01 0. -1.
        -11    1    1    2    0    0 -0.19157295493E+02 -0.54104732612E+01  0.11582504276E+02  0.23031057223E+02  0.00000000000E+00 0. -1.
         11    1    1    2    0    0  0.91723968657E+02 -0.71456624869E+02 -0.27657155409E+02  0.11951675158E+03  0.00000000000E+00 0.  1.
<mgrwt>
<rscale>  0 0.15788550E+03</rscale>
<asrwt>0</asrwt>
<pdfrwt beam="1">  1        2 0.40870985E-01 0.16370521E+03</pdfrwt>
<pdfrwt beam="2">  1       -2 0.17293722E-01 0.16370521E+03</pdfrwt>
<totfact> 0.32792022E+03</totfact>
</mgrwt>
</event>
<event>
 7    1  0.6419647E-006  0.1426133E+03  0.7546771E-02  0.1220527E+00
         -1   -1    0    0    0  501 -0.00000000000E+00  0.00000000000E+00  0.67962892618E+02  0.67962892618E+02  0.00000000000E+00 0.  1.
          1   -1    0    0  501    0  0.00000000000E+00 -0.00000000000E+00 -0.33373355828E+03  0.33373355828E+03  0.00000000000E+00 0. -1.
         23    2    1    2    0    0  0.29991300925E+02  0.61842355828E+02 -0.24864182451E+03  0.28663793881E+03  0.12495837694E+03 0.  0.
          5    1    3    3  502    0 -0.22454338001E+02  0.74922295854E+02 -0.91889303387E+02  0.12076125947E+03  0.47000000000E+01 0.  1.
         -5    1    3    3    0  502  0.52445638926E+02 -0.13079940027E+02 -0.15675252112E+03  0.16587667935E+03  0.47000000000E+01 0.  1.
        -11    1    1    2    0    0  0.15776038089E+02 -0.51868358495E+02 -0.35434179925E+02  0.64767206962E+02  0.00000000000E+00 0.  1.
         11    1    1    2    0    0 -0.45767339014E+02 -0.99739973326E+01  0.18305338770E+02  0.50291305121E+02  0.00000000000E+00 0. -1.
<mgrwt>
<rscale>  0 0.13478235E+03</rscale>
<asrwt>0</asrwt>
<pdfrwt beam="2">  1        1 0.51343625E-01 0.14261329E+03</pdfrwt>
<pdfrwt beam="1">  1       -1 0.10455830E-01 0.14261329E+03</pdfrwt>
<totfact> 0.42003200E+03</totfact>
</mgrwt>
</event>
<event>
 7    1  0.6419647E-006  0.1307364E+03  0.7546771E-02  0.1239745E+00
         -4   -1    0    0    0  501 -0.00000000000E+00  0.00000000000E+00  0.11229290697E+03  0.11229290697E+03  0.00000000000E+00 0.  1.
          4   -1    0    0  501    0  0.00000000000E+00 -0.00000000000E+00 -0.11850493817E+03  0.11850493817E+03  0.00000000000E+00 0. -1.
         23    2    1    2    0    0 -0.28637325119E+02 -0.25436869687E+02 -0.12167858035E+02  0.13130137944E+03  0.12499945898E+03 0.  0.
          5    1    3    3  502    0 -0.73550443244E+02 -0.39242933371E+02 -0.67370352581E+01  0.83768449699E+02  0.47000000000E+01 0. -1.
         -5    1    3    3    0  502  0.44913118125E+02  0.13806063684E+02 -0.54308227773E+01  0.47532929745E+02  0.47000000000E+01 0. -1.
        -11    1    1    2    0    0  0.57796472423E+02 -0.37518506199E+01  0.85740534921E+00  0.57924465915E+02  0.00000000000E+00 0.  1.
         11    1    1    2    0    0 -0.29159147304E+02  0.29188720307E+02  0.50984214838E+01  0.41571999786E+02  0.00000000000E+00 0. -1.
<mgrwt>
<rscale>  0 0.12205465E+03</rscale>
<asrwt>0</asrwt>
<pdfrwt beam="2">  1        4 0.18231529E-01 0.13073636E+03</pdfrwt>
<pdfrwt beam="1">  1       -4 0.17275832E-01 0.13073636E+03</pdfrwt>
<totfact> 0.12791175E+03</totfact>
</mgrwt>
</event>
<event>
 6    1  0.6419647E-006  0.1289215E+03  0.7546771E-02  0.1243554E+00
         -1   -1    0    0    0  501 -0.00000000000E+00  0.00000000000E+00  0.44531443166E+02  0.44531443166E+02  0.00000000000E+00 0.  1.
          1   -1    0    0  501    0  0.00000000000E+00 -0.00000000000E+00 -0.73130173822E+03  0.73130173822E+03  0.00000000000E+00 0. -1.
          5    1    1    2  502    0 -0.86440510943E+01  0.65437394586E+02 -0.48295116875E+03  0.48746353056E+03  0.47000000000E+01 0. -1.
         -5    1    1    2    0  502  0.38091651630E+01 -0.53776884085E+02 -0.18221731286E+03  0.19008340829E+03  0.47000000000E+01 0.  1.
        -11    1    1    2    0    0  0.23121922593E+02 -0.25561980786E+02  0.27488753272E+02  0.44087069788E+02  0.00000000000E+00 0.  1.
         11    1    1    2    0    0 -0.18287036662E+02  0.13901470285E+02 -0.49090566716E+02  0.54199172747E+02  0.00000000000E+00 0. -1.
<mgrwt>
<rscale>  0 0.11972348E+03</rscale>
<asrwt>0</asrwt>
<pdfrwt beam="2">  1        1 0.11250796E+00 0.12892147E+03</pdfrwt>
<pdfrwt beam="1">  1       -1 0.68509914E-02 0.12892147E+03</pdfrwt>
<totfact> 0.28233623E+03</totfact>
</mgrwt>
</event>
<event>
 7    1  0.6419647E-006  0.1295455E+03  0.7546771E-02  0.1242897E+00
          1   -1    0    0  501    0  0.00000000000E+00  0.00000000000E+00  0.14951557157E+04  0.14951557157E+04  0.00000000000E+00 0. -1.
         -1   -1    0    0    0  501 -0.00000000000E+00 -0.00000000000E+00 -0.15659206558E+02  0.15659206558E+02  0.00000000000E+00 0.  1.
         23    2    1    2    0    0  0.26853838456E+01  0.33876021828E+02  0.13079296395E+04  0.13143294789E+04  0.12500896468E+03 0.  0.
          5    1    3    3  502    0 -0.51280145252E+02  0.31015942593E+02  0.37170374311E+03  0.37653340441E+03  0.47000000000E+01 0.  1.
         -5    1    3    3    0  502  0.53965529098E+02  0.28600792347E+01  0.93622589635E+03  0.93779607452E+03  0.47000000000E+01 0.  1.
        -11    1    1    2    0    0  0.33893964794E+02 -0.44168003195E+02  0.81191841128E+02  0.98446576484E+02  0.00000000000E+00 0.  1.
         11    1    1    2    0    0 -0.36579348640E+02  0.10291981367E+02  0.90375028562E+02  0.98038866858E+02  0.00000000000E+00 0. -1.
<mgrwt>
<rscale>  0 0.12012153E+03</rscale>
<asrwt>0</asrwt>
<pdfrwt beam="1">  1        1 0.23002384E+00 0.12954550E+03</pdfrwt>
<pdfrwt beam="2">  1       -1 0.24091099E-02 0.12954550E+03</pdfrwt>
<totfact> 0.37119793E+03</totfact>
</mgrwt>
</event>
<event>
 7    1  0.6419647E-006  0.1674841E+03  0.7546771E-02  0.1187451E+00
          2   -1    0    0  501    0  0.00000000000E+00  0.00000000000E+00  0.55233499570E+03  0.55233499570E+03  0.00000000000E+00 0. -1.
         -2   -1    0    0    0  501 -0.00000000000E+00 -0.00000000000E+00 -0.44184093702E+02  0.44184093702E+02  0.00000000000E+00 0.  1.
         23    2    1    2    0    0 -0.10934302274E+03  0.21640934937E+02  0.24394044755E+03  0.29590180072E+03  0.12500682794E+03 0.  0.
          5    1    3    3  502    0 -0.10936725511E+02  0.57045812950E+02  0.12189470647E+03  0.13510827585E+03  0.47000000000E+01 0.  1.
         -5    1    3    3    0  502 -0.98406297228E+02 -0.35404878013E+02  0.12204574109E+03  0.16079352486E+03  0.47000000000E+01 0.  1.
        -11    1    1    2    0    0  0.46208093537E+02  0.25149231985E+02  0.50529473614E+02  0.72944495896E+02  0.00000000000E+00 0.  1.
         11    1    1    2    0    0  0.63134929202E+02 -0.46790166921E+02  0.21368098083E+03  0.22767279278E+03  0.00000000000E+00 0. -1.
<mgrwt>
<rscale>  0 0.16110819E+03</rscale>
<asrwt>0</asrwt>
<pdfrwt beam="1">  1        2 0.84974610E-01 0.16748413E+03</pdfrwt>
<pdfrwt beam="2">  1       -2 0.67975533E-02 0.16748413E+03</pdfrwt>
<totfact> 0.65876880E+03</totfact>
</mgrwt>
</event>
<event>
 7    1  0.6419647E-006  0.1311261E+03  0.7546771E-02  0.1239060E+00
          2   -1    0    0  501    0  0.00000000000E+00  0.00000000000E+00  0.25953618566E+03  0.25953618566E+03  0.00000000000E+00 0. -1.
         -2   -1    0    0    0  501 -0.00000000000E+00 -0.00000000000E+00 -0.71959462870E+02  0.71959462870E+02  0.00000000000E+00 0.  1.
         23    2    1    2    0    0  0.10116974766E+02  0.38336185216E+02  0.19093293906E+03  0.23162347451E+03  0.12498812124E+03 0.  0.
          5    1    3    3  502    0 -0.10538945453E+02  0.81579241898E+02  0.13080128880E+03  0.15458754552E+03  0.47000000000E+01 0. -1.
         -5    1    3    3    0  502  0.20655920219E+02 -0.43243056682E+02  0.60131650261E+02  0.77035928984E+02  0.47000000000E+01 0. -1.
        -11    1    1    2    0    0 -0.38215434430E+02 -0.30818430436E+02  0.28474133481E+02  0.56753602183E+02  0.00000000000E+00 0. -1.
         11    1    1    2    0    0  0.28098459665E+02 -0.75177547802E+01 -0.31830349748E+02  0.43118571840E+02  0.00000000000E+00 0.  1.
<mgrwt>
<rscale>  0 0.12248039E+03</rscale>
<asrwt>0</asrwt>
<pdfrwt beam="1">  1        2 0.39928644E-01 0.13112607E+03</pdfrwt>
<pdfrwt beam="2">  1       -2 0.11070687E-01 0.13112607E+03</pdfrwt>
<totfact> 0.68500787E+03</totfact>
</mgrwt>
</event>
<event>
 7    1  0.6419647E-006  0.1401261E+03  0.7546771E-02  0.1223029E+00
          1   -1    0    0  501    0  0.00000000000E+00  0.00000000000E+00  0.18856135138E+02  0.18856135138E+02  0.00000000000E+00 0.  1.
         -1   -1    0    0    0  501 -0.00000000000E+00 -0.00000000000E+00 -0.85506146812E+03  0.85506146812E+03  0.00000000000E+00 0. -1.
         23    2    1    2    0    0 -0.61830865439E+02  0.13645941085E+02 -0.45886057723E+03  0.47977949075E+03  0.12500425106E+03 0.  0.
          5    1    3    3  502    0  0.12276957402E+00 -0.24814870572E+02 -0.33514562168E+03  0.33609592471E+03  0.47000000000E+01 0. -1.
         -5    1    3    3    0  502 -0.61953635013E+02  0.38460811657E+02 -0.12371495554E+03  0.14368356604E+03  0.47000000000E+01 0. -1.
        -11    1    1    2    0    0 -0.22599206009E+02 -0.11058435582E+02 -0.48745129562E+02  0.54855271085E+02  0.00000000000E+00 0.  1.
         11    1    1    2    0    0  0.84430071448E+02 -0.25875055039E+01 -0.32859962619E+03  0.33928284142E+03  0.00000000000E+00 0. -1.
<mgrwt>
<rscale>  0 0.13302930E+03</rscale>
<asrwt>0</asrwt>
<pdfrwt beam="1">  1        1 0.29009440E-02 0.14012612E+03</pdfrwt>
<pdfrwt beam="2">  1       -1 0.13154791E+00 0.14012612E+03</pdfrwt>
<totfact> 0.18382733E+03</totfact>
</mgrwt>
</event>
<event>
 7    1  0.6419647E-006  0.2867994E+03  0.7546771E-02  0.1093772E+00
         -3   -1    0    0    0  501 -0.00000000000E+00  0.00000000000E+00  0.17347449366E+03  0.17347449366E+03  0.00000000000E+00 0.  1.
          3   -1    0    0  501    0  0.00000000000E+00 -0.00000000000E+00 -0.45340746565E+03  0.45340746565E+03  0.00000000000E+00 0. -1.
         23    2    1    2    0    0 -0.15826545930E+03  0.20391948505E+03 -0.14995186857E+03  0.32363478611E+03  0.12499119929E+03 0.  0.
          5    1    3    3  502    0 -0.13877812049E+03  0.13109702772E+03 -0.48274535634E+02  0.19697288695E+03  0.47000000000E+01 0. -1.
         -5    1    3    3    0  502 -0.19487338815E+02  0.72822457332E+02 -0.10167733293E+03  0.12666189916E+03  0.47000000000E+01 0. -1.
        -11    1    1    2    0    0  0.62354819781E+02 -0.13406959800E+03 -0.36774051049E+02  0.15236505994E+03  0.00000000000E+00 0.  1.
         11    1    1    2    0    0  0.95910639524E+02 -0.69849887046E+02 -0.93207052373E+02  0.15088211327E+03  0.00000000000E+00 0. -1.
<mgrwt>
<rscale>  0 0.28353880E+03</rscale>
<asrwt>0</asrwt>
<pdfrwt beam="2">  1        3 0.69754994E-01 0.28679943E+03</pdfrwt>
<pdfrwt beam="1">  1       -3 0.26688384E-01 0.28679943E+03</pdfrwt>
<totfact> 0.67099723E+01</totfact>
</mgrwt>
</event>
<event>
 7    1  0.6419647E-006  0.1555122E+03  0.7546771E-02  0.1201853E+00
          3   -1    0    0  501    0  0.00000000000E+00  0.00000000000E+00  0.60332069530E+03  0.60332069530E+03  0.00000000000E+00 0. -1.
         -3   -1    0    0    0  501 -0.00000000000E+00 -0.00000000000E+00 -0.34000951811E+02  0.34000951811E+02  0.00000000000E+00 0.  1.
         23    2    1    2    0    0 -0.25929070570E+02  0.88806956936E+02  0.29490234021E+03  0.33339380998E+03  0.12500019989E+03 0.  0.
          5    1    3    3  502    0  0.50034616171E+02  0.36589700601E+02  0.10011074371E+03  0.11784107947E+03  0.47000000000E+01 0.  1.
         -5    1    3    3    0  502 -0.75963686742E+02  0.52217256335E+02  0.19479159651E+03  0.21555273051E+03  0.47000000000E+01 0.  1.
        -11    1    1    2    0    0  0.30661705402E+02  0.72266605764E+01  0.42775812550E+02  0.53123770014E+02  0.00000000000E+00 0. -1.
         11    1    1    2    0    0 -0.47326348315E+01 -0.96033617513E+02  0.23164159073E+03  0.25080406711E+03  0.00000000000E+00 0.  1.
<mgrwt>
<rscale>  0 0.14888251E+03</rscale>
<asrwt>0</asrwt>
<pdfrwt beam="1">  1        3 0.92818561E-01 0.15551219E+03</pdfrwt>
<pdfrwt beam="2">  1       -3 0.52309161E-02 0.15551219E+03</pdfrwt>
<totfact> 0.53851220E+02</totfact>
</mgrwt>
</event>
<event>
 7    1  0.6419647E-006  0.1366863E+03  0.7546771E-02  0.1229908E+00
          1   -1    0    0  501    0  0.00000000000E+00  0.00000000000E+00  0.24386682352E+03  0.24386682352E+03  0.00000000000E+00 0. -1.
         -1   -1    0    0    0  501 -0.00000000000E+00 -0.00000000000E+00 -0.20957365590E+03  0.20957365590E+03  0.00000000000E+00 0.  1.
         23    2    1    2    0    0 -0.39121192905E+02  0.39094107700E+02  0.20852952653E+03  0.24933455422E+03  0.12499735799E+03 0.  0.
          5    1    3    3  502    0  0.34470820487E+02 -0.11084518027E+02  0.11247639907E+03  0.11825453206E+03  0.47000000000E+01 0. -1.
         -5    1    3    3    0  502 -0.73592013392E+02  0.50178625727E+02  0.96053127455E+02  0.13108002216E+03  0.47000000000E+01 0. -1.
        -11    1    1    2    0    0  0.66361585197E+02 -0.42140727075E+02 -0.13550385789E+03  0.15665566179E+03  0.00000000000E+00 0.  1.
         11    1    1    2    0    0 -0.27240392292E+02  0.30466193755E+01 -0.38732501015E+02  0.47450263400E+02  0.00000000000E+00 0. -1.
<mgrwt>
<rscale>  0 0.12836099E+03</rscale>
<asrwt>0</asrwt>
<pdfrwt beam="1">  1        1 0.37517973E-01 0.13668634E+03</pdfrwt>
<pdfrwt beam="2">  1       -1 0.32242101E-01 0.13668634E+03</pdfrwt>
<totfact> 0.10198984E+03</totfact>
</mgrwt>
</event>
<event>
 7    1  0.6419647E-006  0.1273622E+03  0.7546771E-02  0.1238968E+00
          4   -1    0    0  501    0  0.00000000000E+00  0.00000000000E+00  0.27193256979E+03  0.27193256979E+03  0.00000000000E+00 0. -1.
         -4   -1    0    0    0  501 -0.00000000000E+00 -0.00000000000E+00 -0.51469654140E+02  0.51469654140E+02  0.00000000000E+00 0.  1.
         23    2    1    2    0    0 -0.58467737317E+01 -0.23748136457E+02  0.11368672991E+03  0.17072139036E+03  0.12499184701E+03 0.  0.
          5    1    3    3  502    0 -0.74074683023E+01  0.42915447387E+02  0.63357246941E+01  0.44258757535E+02  0.47000000000E+01 0.  1.
         -5    1    3    3    0  502  0.15606945706E+01 -0.66663583844E+02  0.10735100522E+03  0.12646263282E+03  0.47000000000E+01 0.  1.
        -11    1    1    2    0    0  0.34772818463E+01  0.51139313518E+02  0.11336016846E+03  0.12441000229E+03  0.00000000000E+00 0. -1.
         11    1    1    2    0    0  0.23694918855E+01 -0.27391177061E+02 -0.65839827309E+01  0.28270831279E+02  0.00000000000E+00 0.  1.
<mgrwt>
<rscale>  0 0.12253794E+03</rscale>
<asrwt>0</asrwt>
<pdfrwt beam="1">  1        4 0.41835779E-01 0.12736216E+03</pdfrwt>
<pdfrwt beam="2">  1       -4 0.79184085E-02 0.12736216E+03</pdfrwt>
<totfact> 0.10179787E+03</totfact>
</mgrwt>
</event>
<event>
 7    1  0.6419647E-006  0.1437409E+03  0.7546771E-02  0.1218814E+00
         -1   -1    0    0    0  501 -0.00000000000E+00  0.00000000000E+00  0.27381787656E+02  0.27381787656E+02  0.00000000000E+00 0.  1.
          1   -1    0    0  501    0  0.00000000000E+00 -0.00000000000E+00 -0.68215450195E+03  0.68215450195E+03  0.00000000000E+00 0. -1.
         23    2    1    2    0    0  0.65267935790E+02  0.27845912183E+02 -0.47280801273E+03  0.49417492619E+03  0.12500456995E+03 0.  0.
          5    1    3    3  502    0  0.92446544466E+02  0.17355958065E+02 -0.21550446348E+03  0.23518472876E+03  0.47000000000E+01 0. -1.
         -5    1    3    3    0  502 -0.27178608676E+02  0.10489954118E+02 -0.25730354925E+03  0.25899019743E+03  0.47000000000E+01 0. -1.
        -11    1    1    2    0    0 -0.21680056246E+02 -0.45030404553E+02 -0.15136175505E+03  0.15939931952E+03  0.00000000000E+00 0. -1.
         11    1    1    2    0    0 -0.43587879544E+02  0.17184492370E+02 -0.30602946518E+02  0.55962043893E+02  0.00000000000E+00 0.  1.
<mgrwt>
<rscale>  0 0.13600081E+03</rscale>
<asrwt>0</asrwt>
<pdfrwt beam="2">  1        1 0.10494684E+00 0.14374088E+03</pdfrwt>
<pdfrwt beam="1">  1       -1 0.42125831E-02 0.14374088E+03</pdfrwt>
<totfact> 0.64483908E+03</totfact>
</mgrwt>
</event>
<event>
 7    1  0.6419647E-006  0.3861145E+03  0.7546771E-02  0.1049583E+00
         -2   -1    0    0    0  501 -0.00000000000E+00  0.00000000000E+00  0.74033435126E+02  0.74033435126E+02  0.00000000000E+00 0.  1.
          2   -1    0    0  501    0  0.00000000000E+00 -0.00000000000E+00 -0.21819430713E+04  0.21819430713E+04  0.00000000000E+00 0. -1.
         23    2    1    2    0    0 -0.36018494677E+03  0.60939526388E+02 -0.14226826727E+04  0.14741473375E+04  0.12505024445E+03 0.  0.
          5    1    3    3  502    0 -0.81061103941E+02 -0.15506219833E+02 -0.51036652267E+03  0.51701781679E+03  0.47000000000E+01 0.  1.
         -5    1    3    3    0  502 -0.27912384283E+03  0.76445746222E+02 -0.91231615008E+03  0.95712952072E+03  0.47000000000E+01 0.  1.
        -11    1    1    2    0    0  0.45456431613E+02  0.17656902567E+02 -0.58789948018E+02  0.76382664075E+02  0.00000000000E+00 0.  1.
         11    1    1    2    0    0  0.31472851516E+03 -0.78596428955E+02 -0.62643701543E+03  0.70544650484E+03  0.00000000000E+00 0. -1.
<mgrwt>
<rscale>  0 0.38367746E+03</rscale>
<asrwt>0</asrwt>
<pdfrwt beam="2">  1        2 0.33568350E+00 0.38611447E+03</pdfrwt>
<pdfrwt beam="1">  1       -2 0.11389761E-01 0.38611447E+03</pdfrwt>
<totfact> 0.31430971E+02</totfact>
</mgrwt>
</event>
<event>
 7    1  0.6419647E-006  0.1355904E+03  0.7546771E-02  0.1231346E+00
          2   -1    0    0  501    0  0.00000000000E+00  0.00000000000E+00  0.24898679828E+03  0.24898679828E+03  0.00000000000E+00 0.  1.
         -2   -1    0    0    0  501 -0.00000000000E+00 -0.00000000000E+00 -0.93914836431E+02  0.93914836431E+02  0.00000000000E+00 0. -1.
         23    2    1    2    0    0 -0.50332569654E+02 -0.14972516748E+02  0.18833856378E+03  0.23206932820E+03  0.12500885832E+03 0.  0.
          5    1    3    3  502    0 -0.51192461668E+02 -0.86982049624E+01  0.20612287822E+03  0.21261481093E+03  0.47000000000E+01 0.  1.
         -5    1    3    3    0  502  0.85989201332E+00 -0.62743117852E+01 -0.17784314433E+02  0.19454517278E+02  0.47000000000E+01 0.  1.
        -11    1    1    2    0    0  0.60893371932E+02  0.21654467964E+02  0.10357204005E+02  0.65453727188E+02  0.00000000000E+00 0.  1.
         11    1    1    2    0    0 -0.10560802277E+02 -0.66819512161E+01 -0.43623805937E+02  0.45378579321E+02  0.00000000000E+00 0. -1.
<mgrwt>
<rscale>  0 0.12741279E+03</rscale>
<asrwt>0</asrwt>
<pdfrwt beam="1">  1        2 0.38305661E-01 0.13559041E+03</pdfrwt>
<pdfrwt beam="2">  1       -2 0.14448436E-01 0.13559041E+03</pdfrwt>
<totfact> 0.46795115E+03</totfact>
</mgrwt>
</event>
<event>
 7    1  0.6419647E-006  0.1586261E+03  0.7546771E-02  0.1198257E+00
         -1   -1    0    0    0  501 -0.00000000000E+00  0.00000000000E+00  0.25313863593E+02  0.25313863593E+02  0.00000000000E+00 0.  1.
          1   -1    0    0  501    0  0.00000000000E+00 -0.00000000000E+00 -0.90046420355E+03  0.90046420355E+03  0.00000000000E+00 0. -1.
         23    2    1    2    0    0  0.94896320097E+02  0.23051627707E+02 -0.59236784929E+03  0.61323887990E+03  0.12500226333E+03 0.  0.
          5    1    3    3  502    0  0.41155793175E+02 -0.49625859147E+01 -0.40874912716E+02  0.58406121771E+02  0.47000000000E+01 0. -1.
         -5    1    3    3    0  502  0.53740526922E+02  0.28014213621E+02 -0.55149293657E+03  0.55483275813E+03  0.47000000000E+01 0. -1.
        -11    1    1    2    0    0 -0.27812150365E+02 -0.63051238029E+01 -0.86198416821E+01  0.29792146024E+02  0.00000000000E+00 0.  1.
         11    1    1    2    0    0 -0.67084169732E+02 -0.16746503904E+02 -0.27416264898E+03  0.28274704122E+03  0.00000000000E+00 0. -1.
<mgrwt>
<rscale>  0 0.15181795E+03</rscale>
<asrwt>0</asrwt>
<pdfrwt beam="2">  1        1 0.13853294E+00 0.15862615E+03</pdfrwt>
<pdfrwt beam="1">  1       -1 0.38944410E-02 0.15862615E+03</pdfrwt>
<totfact> 0.47902657E+03</totfact>
</mgrwt>
</event>
<event>
 7    1  0.6419647E-006  0.1210883E+03  0.7546771E-02  0.1248585E+00
          1   -1    0    0  501    0  0.00000000000E+00  0.00000000000E+00  0.69519469956E+03  0.69519469956E+03  0.00000000000E+00 0. -1.
         -1   -1    0    0    0  501 -0.00000000000E+00 -0.00000000000E+00 -0.61246767227E+02  0.61246767227E+02  0.00000000000E+00 0.  1.
         23    2    1    2    0    0  0.30042617191E+02 -0.40622893322E+02  0.64031189893E+03  0.65166071895E+03  0.11004356590E+03 0.  0.
          5    1    3    3  502    0 -0.92010008265E+01 -0.61230545766E+01  0.52316320774E+03  0.52330104352E+03  0.47000000000E+01 0. -1.
         -5    1    3    3    0  502  0.39243618018E+02 -0.34499838746E+02  0.11714869119E+03  0.12835967543E+03  0.47000000000E+01 0.  1.
        -11    1    1    2    0    0  0.22848705021E+02  0.27137228549E+02  0.23508588330E+02  0.42557563602E+02  0.00000000000E+00 0. -1.
         11    1    1    2    0    0 -0.52891322212E+02  0.13485664773E+02 -0.29872554924E+02  0.62223184244E+02  0.00000000000E+00 0.  1.
<mgrwt>
<rscale>  0 0.11673370E+03</rscale>
<asrwt>0</asrwt>
<pdfrwt beam="1">  1        1 0.10695303E+00 0.12108825E+03</pdfrwt>
<pdfrwt beam="2">  1       -1 0.94225801E-02 0.12108825E+03</pdfrwt>
<totfact> 0.18754556E+03</totfact>
</mgrwt>
</event>
<event>
 7    1  0.6419647E-006  0.1669899E+03  0.7546771E-02  0.1186226E+00
         -2   -1    0    0    0  501 -0.00000000000E+00  0.00000000000E+00  0.23301123172E+02  0.23301123172E+02  0.00000000000E+00 0. -1.
          2   -1    0    0  501    0  0.00000000000E+00 -0.00000000000E+00 -0.14663891311E+04  0.14663891311E+04  0.00000000000E+00 0.  1.
         23    2    1    2    0    0 -0.59049340824E+02  0.93665052445E+02 -0.11393228139E+04  0.11514955945E+04  0.12500265329E+03 0.  0.
          5    1    3    3  502    0  0.17707978195E+02  0.58645062479E+01 -0.57037518637E+03  0.57069949024E+03  0.47000000000E+01 0. -1.
         -5    1    3    3    0  502 -0.76757319019E+02  0.87800546197E+02 -0.56894762748E+03  0.58079610428E+03  0.47000000000E+01 0. -1.
        -11    1    1    2    0    0  0.29375232998E+01 -0.16844549888E+02  0.26939962261E+01  0.17309694386E+02  0.00000000000E+00 0. -1.
         11    1    1    2    0    0  0.56111817524E+02 -0.76820502557E+02 -0.30645919033E+03  0.32088496539E+03  0.00000000000E+00 0.  1.
<mgrwt>
<rscale>  0 0.16220806E+03</rscale>
<asrwt>0</asrwt>
<pdfrwt beam="2">  1        2 0.22559835E+00 0.16698991E+03</pdfrwt>
<pdfrwt beam="1">  1       -2 0.35847879E-02 0.16698991E+03</pdfrwt>
<totfact> 0.45738627E+03</totfact>
</mgrwt>
</event>
<event>
 6    1  0.6419647E-006  0.1539425E+03  0.7546771E-02  0.1220589E+00
          2   -1    0    0  501    0  0.00000000000E+00  0.00000000000E+00  0.98060487122E+03  0.98060487122E+03  0.00000000000E+00 0. -1.
         -2   -1    0    0    0  501 -0.00000000000E+00 -0.00000000000E+00 -0.16107959258E+02  0.16107959258E+02  0.00000000000E+00 0.  1.
          5    1    1    2  502    0 -0.18024298226E+02 -0.30825984152E+01  0.70248432631E+03  0.70273799987E+03  0.47000000000E+01 0. -1.
         -5    1    1    2    0  502  0.27976295021E+01  0.24822488614E+02  0.11938082646E+02  0.28081853377E+02  0.47000000000E+01 0.  1.
        -11    1    1    2    0    0 -0.94102863551E+01  0.28692296770E+02  0.12830202084E+03  0.13180747299E+03  0.00000000000E+00 0. -1.
         11    1    1    2    0    0  0.24636955079E+02 -0.50432186969E+02  0.12177248215E+03  0.13408550424E+03  0.00000000000E+00 0.  1.
<mgrwt>
<rscale>  0 0.13473864E+03</rscale>
<asrwt>0</asrwt>
<pdfrwt beam="1">  1        2 0.15086224E+00 0.15394246E+03</pdfrwt>
<pdfrwt beam="2">  1       -2 0.24781483E-02 0.15394246E+03</pdfrwt>
<totfact> 0.14676263E+04</totfact>
</mgrwt>
</event>
<event>
 7    1  0.6419647E-006  0.2737769E+03  0.7546771E-02  0.1101079E+00
         -1   -1    0    0    0  501 -0.00000000000E+00  0.00000000000E+00  0.17335019831E+03  0.17335019831E+03  0.00000000000E+00 0.  1.
          1   -1    0    0  501    0  0.00000000000E+00 -0.00000000000E+00 -0.41164065643E+03  0.41164065643E+03  0.00000000000E+00 0. -1.
         23    2    1    2    0    0 -0.13812340205E+02  0.24318111220E+03 -0.12913395186E+03  0.30270345602E+03  0.12500388269E+03 0.  0.
          5    1    3    3  502    0 -0.47895602875E+02  0.29570288895E+02 -0.16878090243E+02  0.58952105055E+02  0.47000000000E+01 0. -1.
         -5    1    3    3    0  502  0.34083262670E+02  0.21361082331E+03 -0.11225586162E+03  0.24375135096E+03  0.47000000000E+01 0. -1.
        -11    1    1    2    0    0 -0.22046466144E+02 -0.20933483814E+03 -0.81255530564E+02  0.22563151902E+03  0.00000000000E+00 0.  1.
         11    1    1    2    0    0  0.35858806349E+02 -0.33846274062E+02 -0.27900975697E+02  0.56655879708E+02  0.00000000000E+00 0. -1.
<mgrwt>
<rscale>  0 0.27035110E+03</rscale>
<asrwt>0</asrwt>
<pdfrwt beam="2">  1        1 0.63329331E-01 0.27377693E+03</pdfrwt>
<pdfrwt beam="1">  1       -1 0.26669261E-01 0.27377693E+03</pdfrwt>
<totfact> 0.73128614E+02</totfact>
</mgrwt>
</event>
<event>
 7    1  0.6419647E-006  0.1357414E+03  0.7546771E-02  0.1231316E+00
         -1   -1    0    0    0  501 -0.00000000000E+00  0.00000000000E+00  0.18357534584E+02  0.18357534584E+02  0.00000000000E+00 0.  1.
          1   -1    0    0  501    0  0.00000000000E+00 -0.00000000000E+00 -0.79310223126E+03  0.79310223126E+03  0.00000000000E+00 0. -1.
         23    2    1    2    0    0 -0.41946227030E+02  0.32264402257E+02 -0.42189584563E+03  0.44319502015E+03  0.12500097485E+03 0.  0.
          5    1    3    3  502    0 -0.53667062727E+02  0.38742425264E+02 -0.42372102026E+03  0.42888544175E+03  0.47000000000E+01 0. -1.
         -5    1    3    3    0  502  0.11720835697E+02 -0.64780230072E+01  0.18251746306E+01  0.14309578399E+02  0.47000000000E+01 0. -1.
        -11    1    1    2    0    0  0.11880054600E+02 -0.61473202996E+02 -0.23437758764E+03  0.24259625713E+03  0.00000000000E+00 0. -1.
         11    1    1    2    0    0  0.30066172430E+02  0.29208800739E+02 -0.11847126341E+03  0.12566848857E+03  0.00000000000E+00 0.  1.
<mgrwt>
<rscale>  0 0.12743266E+03</rscale>
<asrwt>0</asrwt>
<pdfrwt beam="2">  1        1 0.12201573E+00 0.13574138E+03</pdfrwt>
<pdfrwt beam="1">  1       -1 0.28242360E-02 0.13574138E+03</pdfrwt>
<totfact> 0.92613267E+03</totfact>
</mgrwt>
</event>
<event>
 7    1  0.6419647E-006  0.2070305E+03  0.7546771E-02  0.1147838E+00
          1   -1    0    0  501    0  0.00000000000E+00  0.00000000000E+00  0.17507307619E+03  0.17507307619E+03  0.00000000000E+00 0. -1.
         -1   -1    0    0    0  501 -0.00000000000E+00 -0.00000000000E+00 -0.22541173961E+03  0.22541173961E+03  0.00000000000E+00 0.  1.
         23    2    1    2    0    0 -0.38132341959E+02 -0.16056636631E+03 -0.81452309466E+01  0.20719065076E+03  0.12500394986E+03 0.  0.
          5    1    3    3  502    0 -0.82176567422E+02 -0.12707381659E+03 -0.31587117875E+01  0.15143582983E+03  0.47000000000E+01 0. -1.
         -5    1    3    3    0  502  0.44044225464E+02 -0.33492549720E+02 -0.49865191591E+01  0.55754820928E+02  0.47000000000E+01 0. -1.
        -11    1    1    2    0    0 -0.18307870897E+02  0.12321807812E+02 -0.25606972957E+02  0.33804173538E+02  0.00000000000E+00 0.  1.
         11    1    1    2    0    0  0.56440212855E+02  0.14824455849E+03 -0.16586459522E+02  0.15948999150E+03  0.00000000000E+00 0. -1.
<mgrwt>
<rscale>  0 0.20226934E+03</rscale>
<asrwt>0</asrwt>
<pdfrwt beam="1">  1        1 0.26934319E-01 0.20703048E+03</pdfrwt>
<pdfrwt beam="2">  1       -1 0.34678729E-01 0.20703048E+03</pdfrwt>
<totfact> 0.13734206E+03</totfact>
</mgrwt>
</event>
<event>
 7    1  0.6419647E-006  0.1347961E+03  0.7546771E-02  0.1232763E+00
         -2   -1    0    0    0  501 -0.00000000000E+00  0.00000000000E+00  0.41121320175E+02  0.41121320175E+02  0.00000000000E+00 0.  1.
          2   -1    0    0  501    0  0.00000000000E+00 -0.00000000000E+00 -0.42134130640E+03  0.42134130640E+03  0.00000000000E+00 0. -1.
         23    2    1    2    0    0  0.50018574251E+02 -0.65560264252E+01 -0.30572159557E+03  0.33411927732E+03  0.12500063293E+03 0.  0.
          5    1    3    3  502    0 -0.30349294403E+01  0.24275758326E+02 -0.24957044155E+03  0.25081072253E+03  0.47000000000E+01 0.  1.
         -5    1    3    3    0  502  0.53053503691E+02 -0.30831784752E+02 -0.56151154012E+02  0.83308554793E+02  0.47000000000E+01 0.  1.
        -11    1    1    2    0    0 -0.12676562830E+02 -0.27406939993E+01  0.21393682218E+02  0.25017919330E+02  0.00000000000E+00 0.  1.
         11    1    1    2    0    0 -0.37342011421E+02  0.92967204245E+01 -0.95892072873E+02  0.10332542992E+03  0.00000000000E+00 0. -1.
<mgrwt>
<rscale>  0 0.12648699E+03</rscale>
<asrwt>0</asrwt>
<pdfrwt beam="2">  1        2 0.64821738E-01 0.13479613E+03</pdfrwt>
<pdfrwt beam="1">  1       -2 0.63263571E-02 0.13479613E+03</pdfrwt>
<totfact> 0.97647394E+03</totfact>
</mgrwt>
</event>
<event>
 7    1  0.6419647E-006  0.1304840E+03  0.7546771E-02  0.1240334E+00
          3   -1    0    0  501    0  0.00000000000E+00  0.00000000000E+00  0.35957235522E+03  0.35957235522E+03  0.00000000000E+00 0. -1.
         -3   -1    0    0    0  501 -0.00000000000E+00 -0.00000000000E+00 -0.48647342237E+02  0.48647342237E+02  0.00000000000E+00 0.  1.
         23    2    1    2    0    0  0.36029682760E+02  0.10158816480E+02  0.27280759896E+03  0.30240712543E+03  0.12499897548E+03 0.  0.
          5    1    3    3  502    0 -0.34855341833E+02 -0.28210589384E+02  0.13897452704E+03  0.14610524074E+03  0.47000000000E+01 0. -1.
         -5    1    3    3    0  502  0.70885024593E+02  0.38369405864E+02  0.13383307192E+03  0.15630188469E+03  0.47000000000E+01 0. -1.
        -11    1    1    2    0    0 -0.17802603657E+02 -0.12786045101E+02  0.67592570557E+02  0.71057520650E+02  0.00000000000E+00 0. -1.
         11    1    1    2    0    0 -0.18227079103E+02  0.26272286212E+01 -0.29475156537E+02  0.34755051370E+02  0.00000000000E+00 0.  1.
<mgrwt>
<rscale>  0 0.12169049E+03</rscale>
<asrwt>0</asrwt>
<pdfrwt beam="1">  1        3 0.55318822E-01 0.13048404E+03</pdfrwt>
<pdfrwt beam="2">  1       -3 0.74842067E-02 0.13048404E+03</pdfrwt>
<totfact> 0.88883536E+02</totfact>
</mgrwt>
</event>
<event>
 7    1  0.6419647E-006  0.1559288E+03  0.7546771E-02  0.1200829E+00
         -1   -1    0    0    0  501 -0.00000000000E+00  0.00000000000E+00  0.52401354040E+02  0.52401354040E+02  0.00000000000E+00 0.  1.
          1   -1    0    0  501    0  0.00000000000E+00 -0.00000000000E+00 -0.43602532038E+03  0.43602532038E+03  0.00000000000E+00 0. -1.
         23    2    1    2    0    0 -0.95077288423E+02 -0.13113648974E+02 -0.27891864485E+03  0.31954561168E+03  0.12289071948E+03 0.  0.
          5    1    3    3  502    0 -0.54758727352E+02  0.42481261509E+02 -0.66163517660E+02  0.95931626014E+02  0.47000000000E+01 0. -1.
         -5    1    3    3    0  502 -0.40318561071E+02 -0.55594910483E+02 -0.21275512719E+03  0.22361398567E+03  0.47000000000E+01 0. -1.
        -11    1    1    2    0    0 -0.63518804848E+00  0.33769036416E+02 -0.35344930242E+02  0.48887783526E+02  0.00000000000E+00 0.  1.
         11    1    1    2    0    0  0.95712476472E+02 -0.20655387441E+02 -0.69360391244E+02  0.11999327921E+03  0.00000000000E+00 0. -1.
<mgrwt>
<rscale>  0 0.14971072E+03</rscale>
<asrwt>0</asrwt>
<pdfrwt beam="2">  1        1 0.67080823E-01 0.15592879E+03</pdfrwt>
<pdfrwt beam="1">  1       -1 0.80617462E-02 0.15592879E+03</pdfrwt>
<totfact> 0.44754708E+03</totfact>
</mgrwt>
</event>
<event>
 7    1  0.6419647E-006  0.1381497E+03  0.7546771E-02  0.1227085E+00
         -1   -1    0    0    0  501 -0.00000000000E+00  0.00000000000E+00  0.70756299383E+02  0.70756299383E+02  0.00000000000E+00 0.  1.
          1   -1    0    0  501    0  0.00000000000E+00 -0.00000000000E+00 -0.21691021225E+03  0.21691021225E+03  0.00000000000E+00 0. -1.
         23    2    1    2    0    0 -0.58744691873E+02  0.32308531763E+01 -0.90332361274E+02  0.16506141489E+03  0.12499583176E+03 0.  0.
          5    1    3    3  502    0 -0.18443433808E+02  0.26613274218E+02  0.24612907209E+02  0.40942787112E+02  0.47000000000E+01 0.  1.
         -5    1    3    3    0  502 -0.40301258065E+02 -0.23382421042E+02 -0.11494526848E+03  0.12411862778E+03  0.47000000000E+01 0.  1.
        -11    1    1    2    0    0  0.25797755337E+02 -0.27702518498E+02 -0.69670748583E+02  0.79290396138E+02  0.00000000000E+00 0. -1.
         11    1    1    2    0    0  0.32946936535E+02  0.24471665322E+02  0.13849196994E+02  0.43314700600E+02  0.00000000000E+00 0.  1.
<mgrwt>
<rscale>  0 0.13025025E+03</rscale>
<asrwt>0</asrwt>
<pdfrwt beam="2">  1        1 0.33370802E-01 0.13814968E+03</pdfrwt>
<pdfrwt beam="1">  1       -1 0.10885585E-01 0.13814968E+03</pdfrwt>
<totfact> 0.67222709E+03</totfact>
</mgrwt>
</event>
<event>
 7    1  0.6419647E-006  0.1495493E+03  0.7546771E-02  0.1208383E+00
         -1   -1    0    0    0  501 -0.00000000000E+00  0.00000000000E+00  0.28360959590E+02  0.28360959590E+02  0.00000000000E+00 0.  1.
          1   -1    0    0  501    0  0.00000000000E+00 -0.00000000000E+00 -0.67751611751E+03  0.67751611751E+03  0.00000000000E+00 0. -1.
         23    2    1    2    0    0  0.34402281630E+02  0.80280785038E+02 -0.35730361393E+03  0.38733816473E+03  0.12139382150E+03 0.  0.
          5    1    3    3  502    0 -0.27014959161E+02 -0.11206638084E+02 -0.14608444925E+03  0.14905754952E+03  0.47000000000E+01 0. -1.
         -5    1    3    3    0  502  0.61417240792E+02  0.91487423122E+02 -0.21121916468E+03  0.23828061521E+03  0.47000000000E+01 0.  1.
        -11    1    1    2    0    0  0.31786263546E+02 -0.34893436231E+02 -0.11623574632E+03  0.12545384476E+03  0.00000000000E+00 0.  1.
         11    1    1    2    0    0 -0.66188545177E+02 -0.45387348807E+02 -0.17561579767E+03  0.19308506761E+03  0.00000000000E+00 0. -1.
<mgrwt>
<rscale>  0 0.14373992E+03</rscale>
<asrwt>0</asrwt>
<pdfrwt beam="2">  1        1 0.10423325E+00 0.14954926E+03</pdfrwt>
<pdfrwt beam="1">  1       -1 0.43632247E-02 0.14954926E+03</pdfrwt>
<totfact> 0.61950675E+03</totfact>
</mgrwt>
</event>
<event>
 7    1  0.6419647E-006  0.1175735E+03  0.7546771E-02  0.1249658E+00
         -1   -1    0    0    0  501 -0.00000000000E+00  0.00000000000E+00  0.25591027114E+03  0.25591027114E+03  0.00000000000E+00 0.  1.
          1   -1    0    0  501    0  0.00000000000E+00 -0.00000000000E+00 -0.16206899822E+03  0.16206899822E+03  0.00000000000E+00 0. -1.
         23    2    1    2    0    0 -0.32122726923E+02  0.71727910519E+00 -0.12538166692E+03  0.17188396173E+03  0.11309796562E+03 0.  0.
          5    1    3    3  502    0 -0.30595459293E+02 -0.50063174668E+02 -0.97106489688E+02  0.11355247213E+03  0.47000000000E+01 0. -1.
         -5    1    3    3    0  502 -0.15272676294E+01  0.50780453773E+02 -0.28275177230E+02  0.58331489603E+02  0.47000000000E+01 0.  1.
        -11    1    1    2    0    0  0.51240462559E+02 -0.34082845051E+02  0.75957348735E+02  0.97758601447E+02  0.00000000000E+00 0.  1.
         11    1    1    2    0    0 -0.19117735636E+02  0.33365565946E+02  0.14326559111E+03  0.14833670618E+03  0.00000000000E+00 0. -1.
<mgrwt>
<rscale>  0 0.11610854E+03</rscale>
<asrwt>0</asrwt>
<pdfrwt beam="2">  1        1 0.24933692E-01 0.11757353E+03</pdfrwt>
<pdfrwt beam="1">  1       -1 0.39370811E-01 0.11757353E+03</pdfrwt>
<totfact> 0.11976420E+03</totfact>
</mgrwt>
</event>
<event>
 7    1  0.6419647E-006  0.1502453E+03  0.7546771E-02  0.1217032E+00
          3   -1    0    0  501    0  0.00000000000E+00  0.00000000000E+00  0.45327114532E+03  0.45327114532E+03  0.00000000000E+00 0. -1.
         -3   -1    0    0    0  501 -0.00000000000E+00 -0.00000000000E+00 -0.35991832957E+02  0.35991832957E+02  0.00000000000E+00 0.  1.
         23    2    1    2    0    0  0.82605898139E+02  0.11216809187E+02  0.26048890971E+03  0.30071266949E+03  0.12499634513E+03 0.  0.
          5    1    3    3  502    0  0.81549733948E+02  0.54023274377E+02  0.22319394140E+03  0.24373448414E+03  0.47000000000E+01 0.  1.
         -5    1    3    3    0  502  0.10561641907E+01 -0.42806465190E+02  0.37294968308E+02  0.56978185352E+02  0.47000000000E+01 0.  1.
        -11    1    1    2    0    0 -0.90799519536E+02 -0.11787743974E+00  0.13918149216E+03  0.16618078831E+03  0.00000000000E+00 0. -1.
         11    1    1    2    0    0  0.81936213971E+01 -0.11098931747E+02  0.17608910500E+02  0.22369520481E+02  0.00000000000E+00 0.  1.
<mgrwt>
<rscale>  0 0.13728290E+03</rscale>
<asrwt>0</asrwt>
<pdfrwt beam="1">  1        3 0.69734018E-01 0.15024526E+03</pdfrwt>
<pdfrwt beam="2">  1       -3 0.55372054E-02 0.15024526E+03</pdfrwt>
<totfact> 0.91194307E+02</totfact>
</mgrwt>
</event>
<event>
 7    1  0.6419647E-006  0.1995284E+03  0.7546771E-02  0.1153727E+00
          2   -1    0    0  501    0  0.00000000000E+00  0.00000000000E+00  0.16306660660E+03  0.16306660660E+03  0.00000000000E+00 0. -1.
         -2   -1    0    0    0  501 -0.00000000000E+00 -0.00000000000E+00 -0.24441256115E+03  0.24441256115E+03  0.00000000000E+00 0.  1.
         23    2    1    2    0    0  0.12561523030E+03 -0.91686952637E+02  0.15545823593E+02  0.20013306623E+03  0.12500355275E+03 0.  0.
          5    1    3    3  502    0  0.11014431026E+03 -0.99234983487E+02 -0.29897455551E+02  0.15131192577E+03  0.47000000000E+01 0.  1.
         -5    1    3    3    0  502  0.15470920040E+02  0.75480308503E+01  0.45443279145E+02  0.48821140462E+02  0.47000000000E+01 0.  1.
        -11    1    1    2    0    0 -0.63384482495E+02 -0.95190709835E+01 -0.40647537946E+02  0.75897481346E+02  0.00000000000E+00 0. -1.
         11    1    1    2    0    0 -0.62230747809E+02  0.10120602362E+03 -0.56244240204E+02  0.13144862018E+03  0.00000000000E+00 0.  1.
<mgrwt>
<rscale>  0 0.19534531E+03</rscale>
<asrwt>0</asrwt>
<pdfrwt beam="1">  1        2 0.25087170E-01 0.19952837E+03</pdfrwt>
<pdfrwt beam="2">  1       -2 0.37601933E-01 0.19952837E+03</pdfrwt>
<totfact> 0.14239829E+03</totfact>
</mgrwt>
</event>
<event>
 7    1  0.6419647E-006  0.1268867E+03  0.7546771E-02  0.1245377E+00
         -1   -1    0    0    0  501 -0.00000000000E+00  0.00000000000E+00  0.15623824577E+02  0.15623824577E+02  0.00000000000E+00 0.  1.
          1   -1    0    0  501    0  0.00000000000E+00 -0.00000000000E+00 -0.80247994637E+03  0.80247994637E+03  0.00000000000E+00 0. -1.
         23    2    1    2    0    0 -0.19189771535E+02 -0.28385941919E+02 -0.43290536880E+03  0.45111783410E+03  0.12217296297E+03 0.  0.
          5    1    3    3  502    0 -0.68051709333E+02 -0.12703545965E+02 -0.17779448607E+03  0.19085435416E+03  0.47000000000E+01 0. -1.
         -5    1    3    3    0  502  0.48861937798E+02 -0.15682395954E+02 -0.25511088272E+03  0.26026347994E+03  0.47000000000E+01 0.  1.
        -11    1    1    2    0    0  0.53430190389E+02  0.23654294926E+02 -0.16856748012E+03  0.17840769678E+03  0.00000000000E+00 0.  1.
         11    1    1    2    0    0 -0.34240418855E+02  0.47316469930E+01 -0.18538327287E+03  0.18857824007E+03  0.00000000000E+00 0. -1.
<mgrwt>
<rscale>  0 0.11862847E+03</rscale>
<asrwt>0</asrwt>
<pdfrwt beam="2">  1        1 0.12345849E+00 0.12688673E+03</pdfrwt>
<pdfrwt beam="1">  1       -1 0.24036646E-02 0.12688673E+03</pdfrwt>
<totfact> 0.11445503E+04</totfact>
</mgrwt>
</event>
<event>
 7    1  0.6419647E-006  0.1506322E+03  0.7546771E-02  0.1209946E+00
         -2   -1    0    0    0  501 -0.00000000000E+00  0.00000000000E+00  0.27429662764E+02  0.27429662764E+02  0.00000000000E+00 0. -1.
          2   -1    0    0  501    0  0.00000000000E+00 -0.00000000000E+00 -0.72159665219E+03  0.72159665219E+03  0.00000000000E+00 0.  1.
         23    2    1    2    0    0 -0.81487625833E+02 -0.20535938434E+02 -0.48074918381E+03  0.50379542267E+03  0.12501236834E+03 0.  0.
          5    1    3    3  502    0 -0.71137012498E+02 -0.65335550920E+02 -0.24185056152E+03  0.26046687480E+03  0.47000000000E+01 0. -1.
         -5    1    3    3    0  502 -0.10350613335E+02  0.44799612486E+02 -0.23889862229E+03  0.24332854787E+03  0.47000000000E+01 0. -1.
        -11    1    1    2    0    0  0.20032500744E+02 -0.20477595252E+02 -0.12679426853E+02  0.31327318089E+02  0.00000000000E+00 0. -1.
         11    1    1    2    0    0  0.61455125089E+02  0.41013533686E+02 -0.20073837876E+03  0.21390357419E+03  0.00000000000E+00 0.  1.
<mgrwt>
<rscale>  0 0.14254403E+03</rscale>
<asrwt>0</asrwt>
<pdfrwt beam="2">  1        2 0.11101486E+00 0.15063217E+03</pdfrwt>
<pdfrwt beam="1">  1       -2 0.42199484E-02 0.15063217E+03</pdfrwt>
<totfact> 0.98768344E+03</totfact>
</mgrwt>
</event>
<event>
 7    1  0.6419647E-006  0.1780654E+03  0.7546771E-02  0.1175644E+00
          2   -1    0    0  501    0  0.00000000000E+00  0.00000000000E+00  0.12979820040E+03  0.12979820040E+03  0.00000000000E+00 0. -1.
         -2   -1    0    0    0  501 -0.00000000000E+00 -0.00000000000E+00 -0.21764795854E+03  0.21764795854E+03  0.00000000000E+00 0.  1.
         23    2    1    2    0    0 -0.13565056695E+02  0.12609646606E+03 -0.25314321498E+02  0.17985581464E+03  0.12499187842E+03 0.  0.
          5    1    3    3  502    0  0.41863542909E+02  0.11191421180E+03 -0.26309314980E+02  0.12244025924E+03  0.47000000000E+01 0. -1.
         -5    1    3    3    0  502 -0.55428599604E+02  0.14182254263E+02  0.99499348253E+00  0.57415555402E+02  0.47000000000E+01 0. -1.
        -11    1    1    2    0    0  0.50584981995E+02 -0.62020794387E+02 -0.43881399944E+02  0.91274293209E+02  0.00000000000E+00 0. -1.
         11    1    1    2    0    0 -0.37019925300E+02 -0.64075671672E+02 -0.18654036697E+02  0.76316051093E+02  0.00000000000E+00 0.  1.
<mgrwt>
<rscale>  0 0.17213034E+03</rscale>
<asrwt>0</asrwt>
<pdfrwt beam="1">  1        2 0.19968954E-01 0.17806544E+03</pdfrwt>
<pdfrwt beam="2">  1       -2 0.33484301E-01 0.17806544E+03</pdfrwt>
<totfact> 0.22766013E+03</totfact>
</mgrwt>
</event>
<event>
 7    1  0.6419647E-006  0.1532132E+03  0.7546771E-02  0.1204424E+00
         -2   -1    0    0    0  501 -0.00000000000E+00  0.00000000000E+00  0.16719622383E+03  0.16719622383E+03  0.00000000000E+00 0.  1.
          2   -1    0    0  501    0  0.00000000000E+00 -0.00000000000E+00 -0.11931845502E+03  0.11931845502E+03  0.00000000000E+00 0. -1.
         23    2    1    2    0    0 -0.66157855428E+02 -0.58936729882E+02  0.28454773039E+02  0.15583313661E+03  0.12499556950E+03 0.  0.
          5    1    3    3  502    0 -0.28094288529E+02 -0.23488018402E+02 -0.49652398189E+02  0.61874281429E+02  0.47000000000E+01 0. -1.
         -5    1    3    3    0  502 -0.38063566899E+02 -0.35448711479E+02  0.78107171227E+02  0.93958855186E+02  0.47000000000E+01 0. -1.
        -11    1    1    2    0    0  0.28745479759E+02 -0.24461834402E+02  0.35984940373E+01  0.37916132558E+02  0.00000000000E+00 0. -1.
         11    1    1    2    0    0  0.37412375669E+02  0.83398564284E+02  0.15824501739E+02  0.92765409680E+02  0.00000000000E+00 0.  1.
<mgrwt>
<rscale>  0 0.14682942E+03</rscale>
<asrwt>0</asrwt>
<pdfrwt beam="2">  1        2 0.18356685E-01 0.15321323E+03</pdfrwt>
<pdfrwt beam="1">  1       -2 0.25722496E-01 0.15321323E+03</pdfrwt>
<totfact> 0.39989612E+03</totfact>
</mgrwt>
</event>
<event>
 7    1  0.6419647E-006  0.1482511E+03  0.7546771E-02  0.1211657E+00
          1   -1    0    0  501    0  0.00000000000E+00  0.00000000000E+00  0.14023437606E+03  0.14023437606E+03  0.00000000000E+00 0. -1.
         -1   -1    0    0    0  501 -0.00000000000E+00 -0.00000000000E+00 -0.13342243634E+03  0.13342243634E+03  0.00000000000E+00 0.  1.
         23    2    1    2    0    0 -0.60640172382E+02 -0.51739699000E+02  0.24342206904E+02  0.15023621287E+03  0.12499659860E+03 0.  0.
          5    1    3    3  502    0  0.34345421706E+02 -0.58470934239E+01  0.27437698554E+02  0.44594997428E+02  0.47000000000E+01 0. -1.
         -5    1    3    3    0  502 -0.94985594089E+02 -0.45892605576E+02 -0.30954916498E+01  0.10564121544E+03  0.47000000000E+01 0. -1.
        -11    1    1    2    0    0  0.11508315047E+02 -0.12019148325E+02  0.26786375067E+02  0.31534285007E+02  0.00000000000E+00 0. -1.
         11    1    1    2    0    0  0.49131857335E+02  0.63758847326E+02 -0.44316642245E+02  0.91886314527E+02  0.00000000000E+00 0.  1.
<mgrwt>
<rscale>  0 0.14125013E+03</rscale>
<asrwt>0</asrwt>
<pdfrwt beam="1">  1        1 0.21574519E-01 0.14825106E+03</pdfrwt>
<pdfrwt beam="2">  1       -1 0.20526529E-01 0.14825106E+03</pdfrwt>
<totfact> 0.43069109E+03</totfact>
</mgrwt>
</event>
<event>
 6    1  0.6419647E-006  0.3281207E+03  0.7546771E-02  0.1077028E+00
          3   -1    0    0  501    0  0.00000000000E+00  0.00000000000E+00  0.33083804734E+04  0.33083804734E+04  0.00000000000E+00 0. -1.
         -3   -1    0    0    0  501 -0.00000000000E+00 -0.00000000000E+00 -0.37094046931E+02  0.37094046931E+02  0.00000000000E+00 0.  1.
          5    1    1    2  502    0  0.88221537282E+02 -0.12810795338E+02  0.11140596103E+04  0.11176305568E+04  0.47000000000E+01 0. -1.
         -5    1    1    2    0  502  0.56780654801E+02 -0.21658550382E+03  0.14119228055E+04  0.14295738603E+04  0.47000000000E+01 0.  1.
        -11    1    1    2    0    0 -0.15076803593E+03  0.19351395783E+03  0.59399058444E+03  0.64265345789E+03  0.00000000000E+00 0. -1.
         11    1    1    2    0    0  0.57658438484E+01  0.35882341323E+02  0.15131342613E+03  0.15561664532E+03  0.00000000000E+00 0.  1.
<mgrwt>
<rscale>  0 0.31702308E+03</rscale>
<asrwt>0</asrwt>
<pdfrwt beam="1">  1        3 0.50898138E+00 0.32812067E+03</pdfrwt>
<pdfrwt beam="2">  1       -3 0.57067791E-02 0.32812067E+03</pdfrwt>
<totfact> 0.17649621E+00</totfact>
</mgrwt>
</event>
<event>
 7    1  0.6419647E-006  0.1254002E+03  0.7546771E-02  0.1250194E+00
          1   -1    0    0  501    0  0.00000000000E+00  0.00000000000E+00  0.36783401005E+03  0.36783401005E+03  0.00000000000E+00 0. -1.
         -1   -1    0    0    0  501 -0.00000000000E+00 -0.00000000000E+00 -0.35806240941E+02  0.35806240941E+02  0.00000000000E+00 0.  1.
         23    2    1    2    0    0  0.35883458724E+01 -0.93663930058E+01  0.25544070444E+03  0.28456133538E+03  0.12499837825E+03 0.  0.
          5    1    3    3  502    0 -0.19383788569E+02  0.27198742719E+02  0.98191666850E+01  0.35128462807E+02  0.47000000000E+01 0. -1.
         -5    1    3    3    0  502  0.22972134442E+02 -0.36565135725E+02  0.24562153776E+03  0.24943287258E+03  0.47000000000E+01 0. -1.
        -11    1    1    2    0    0  0.10586992878E+02 -0.35702400909E+02  0.12137382997E+02  0.39167102457E+02  0.00000000000E+00 0.  1.
         11    1    1    2    0    0 -0.14175338750E+02  0.45068793915E+02  0.64449681667E+02  0.79911813148E+02  0.00000000000E+00 0. -1.
<mgrwt>
<rscale>  0 0.11579803E+03</rscale>
<asrwt>0</asrwt>
<pdfrwt beam="1">  1        1 0.56589845E-01 0.12540016E+03</pdfrwt>
<pdfrwt beam="2">  1       -1 0.55086527E-02 0.12540016E+03</pdfrwt>
<totfact> 0.96819695E+03</totfact>
</mgrwt>
</event>
<event>
 6    1  0.6419647E-006  0.1765178E+03  0.7546771E-02  0.1194200E+00
          1   -1    0    0  501    0  0.00000000000E+00  0.00000000000E+00  0.26701715980E+03  0.26701715980E+03  0.00000000000E+00 0. -1.
         -1   -1    0    0    0  501 -0.00000000000E+00 -0.00000000000E+00 -0.17028099961E+03  0.17028099961E+03  0.00000000000E+00 0.  1.
          5    1    1    2  502    0 -0.31861873907E+02 -0.24834339668E+02  0.17030918961E+03  0.17509778268E+03  0.47000000000E+01 0. -1.
         -5    1    1    2    0  502  0.59203396527E+02  0.71618532605E+02  0.45090001467E+02  0.10338981867E+03  0.47000000000E+01 0.  1.
        -11    1    1    2    0    0  0.24522649915E+02 -0.47027104794E+02 -0.68744348119E+02  0.86825654863E+02  0.00000000000E+00 0.  1.
         11    1    1    2    0    0 -0.51864172535E+02  0.24291185725E+00 -0.49918682763E+02  0.71984903193E+02  0.00000000000E+00 0. -1.
<mgrwt>
<rscale>  0 0.15522134E+03</rscale>
<asrwt>0</asrwt>
<pdfrwt beam="1">  1        1 0.41079563E-01 0.17651780E+03</pdfrwt>
<pdfrwt beam="2">  1       -1 0.26197077E-01 0.17651780E+03</pdfrwt>
<totfact> 0.12976287E+03</totfact>
</mgrwt>
</event>
<event>
 7    1  0.6419647E-006  0.1787055E+03  0.7546771E-02  0.1173491E+00
         -1   -1    0    0    0  501 -0.00000000000E+00  0.00000000000E+00  0.29810191363E+02  0.29810191363E+02  0.00000000000E+00 0.  1.
          1   -1    0    0  501    0  0.00000000000E+00 -0.00000000000E+00 -0.12068520595E+04  0.12068520595E+04  0.00000000000E+00 0. -1.
         23    2    1    2    0    0  0.11326790666E+03 -0.58999325989E+02 -0.88563035563E+03  0.90348036213E+03  0.12500039515E+03 0.  0.
          5    1    3    3  502    0  0.48531566170E+02 -0.91830646796E+02 -0.45306787027E+03  0.46484488346E+03  0.47000000000E+01 0.  1.
         -5    1    3    3    0  502  0.64736340494E+02  0.32831320806E+02 -0.43256248536E+03  0.43863547867E+03  0.47000000000E+01 0.  1.
        -11    1    1    2    0    0 -0.10068113298E+03  0.24279144750E+02 -0.12312689802E+03  0.16089251202E+03  0.00000000000E+00 0.  1.
         11    1    1    2    0    0 -0.12586773687E+02  0.34720181239E+02 -0.16828461452E+03  0.17228937675E+03  0.00000000000E+00 0. -1.
<mgrwt>
<rscale>  0 0.17424550E+03</rscale>
<asrwt>0</asrwt>
<pdfrwt beam="2">  1        1 0.18566952E+00 0.17870545E+03</pdfrwt>
<pdfrwt beam="1">  1       -1 0.45861839E-02 0.17870545E+03</pdfrwt>
<totfact> 0.22614171E+03</totfact>
</mgrwt>
</event>
<event>
 7    1  0.6419647E-006  0.1347791E+03  0.7546771E-02  0.1233415E+00
         -1   -1    0    0    0  501 -0.00000000000E+00  0.00000000000E+00  0.48281474013E+02  0.48281474013E+02  0.00000000000E+00 0.  1.
          1   -1    0    0  501    0  0.00000000000E+00 -0.00000000000E+00 -0.36910922596E+03  0.36910922596E+03  0.00000000000E+00 0. -1.
         23    2    1    2    0    0  0.22392054063E+02  0.45142897823E+02 -0.27135255616E+03  0.30298122361E+03  0.12500450718E+03 0.  0.
          5    1    3    3  502    0  0.42706146463E+02  0.80131430263E+02 -0.21513619725E+03  0.23356055837E+03  0.47000000000E+01 0.  1.
         -5    1    3    3    0  502 -0.20314092400E+02 -0.34988532441E+02 -0.56216358911E+02  0.69420665234E+02  0.47000000000E+01 0.  1.
        -11    1    1    2    0    0  0.11244079961E+02  0.23651934654E+02 -0.83493319669E+01  0.27487355117E+02  0.00000000000E+00 0.  1.
         11    1    1    2    0    0 -0.33636134024E+02 -0.68794832476E+02 -0.41125863824E+02  0.86922121251E+02  0.00000000000E+00 0. -1.
<mgrwt>
<rscale>  0 0.12606471E+03</rscale>
<asrwt>0</asrwt>
<pdfrwt beam="2">  1        1 0.56786034E-01 0.13477912E+03</pdfrwt>
<pdfrwt beam="1">  1       -1 0.74279191E-02 0.13477912E+03</pdfrwt>
<totfact> 0.62021607E+03</totfact>
</mgrwt>
</event>
<event>
 7    1  0.6419647E-006  0.1667286E+03  0.7546771E-02  0.1188755E+00
          1   -1    0    0  501    0  0.00000000000E+00  0.00000000000E+00  0.15880346399E+04  0.15880346399E+04  0.00000000000E+00 0. -1.
         -1   -1    0    0    0  501 -0.00000000000E+00 -0.00000000000E+00 -0.16676875985E+02  0.16676875985E+02  0.00000000000E+00 0.  1.
         23    2    1    2    0    0 -0.91459478575E+02  0.61666677981E+02  0.11029024956E+04  0.11154337022E+04  0.12502325293E+03 0.  0.
          5    1    3    3  502    0 -0.58960620324E+01 -0.19532359070E+02  0.53407172852E+03  0.53448197145E+03  0.47000000000E+01 0.  1.
         -5    1    3    3    0  502 -0.85563416543E+02  0.81199037052E+02  0.56883076709E+03  0.58095173075E+03  0.47000000000E+01 0.  1.
        -11    1    1    2    0    0  0.26193562642E+02 -0.65988326052E+02  0.17991225053E+03  0.19341401136E+03  0.00000000000E+00 0.  1.
         11    1    1    2    0    0  0.65265915934E+02  0.43216480706E+01  0.28854301778E+03  0.29586380234E+03  0.00000000000E+00 0. -1.
<mgrwt>
<rscale>  0 0.15994839E+03</rscale>
<asrwt>0</asrwt>
<pdfrwt beam="1">  1        1 0.24431290E+00 0.16672861E+03</pdfrwt>
<pdfrwt beam="2">  1       -1 0.25656745E-02 0.16672861E+03</pdfrwt>
<totfact> 0.29625687E+03</totfact>
</mgrwt>
</event>
<event>
 7    1  0.6419647E-006  0.1185034E+03  0.7546771E-02  0.1322640E+00
         -2   -1    0    0    0  501 -0.00000000000E+00  0.00000000000E+00  0.57511797777E+01  0.57511797777E+01  0.00000000000E+00 0.  1.
          2   -1    0    0  501    0  0.00000000000E+00 -0.00000000000E+00 -0.11113001664E+04  0.11113001664E+04  0.00000000000E+00 0. -1.
         23    2    1    2    0    0  0.21711261168E+02 -0.15786922567E+02 -0.10267875276E+04  0.10336032535E+04  0.11542293078E+03 0.  0.
          5    1    3    3  502    0  0.41566028081E+02  0.21819424967E+02 -0.86399817360E+03  0.86528536101E+03  0.47000000000E+01 0. -1.
         -5    1    3    3    0  502 -0.19854766913E+02 -0.37606347534E+02 -0.16278935404E+03  0.16831789249E+03  0.47000000000E+01 0.  1.
        -11    1    1    2    0    0 -0.11272225159E+02  0.43431454109E+01 -0.33980974008E+02  0.36064283809E+02  0.00000000000E+00 0. -1.
         11    1    1    2    0    0 -0.10439036009E+02  0.11443777156E+02 -0.44780485023E+02  0.47383808916E+02  0.00000000000E+00 0.  1.
<mgrwt>
<rscale>  0 0.82302935E+02</rscale>
<asrwt>0</asrwt>
<pdfrwt beam="2">  1        2 0.17096932E+00 0.11850341E+03</pdfrwt>
<pdfrwt beam="1">  1       -2 0.88479654E-03 0.11850341E+03</pdfrwt>
<totfact> 0.53212842E+04</totfact>
</mgrwt>
</event>
<event>
 7    1  0.6419647E-006  0.1335960E+03  0.7546771E-02  0.1234240E+00
          2   -1    0    0  501    0  0.00000000000E+00  0.00000000000E+00  0.12484237190E+03  0.12484237190E+03  0.00000000000E+00 0. -1.
         -2   -1    0    0    0  501 -0.00000000000E+00 -0.00000000000E+00 -0.13387831649E+03  0.13387831649E+03  0.00000000000E+00 0.  1.
         23    2    1    2    0    0 -0.35368280467E+02  0.31246981434E+02  0.45536855364E+02  0.14114353554E+03  0.12498241203E+03 0.  0.
          5    1    3    3  502    0  0.38395258613E+02 -0.10880413435E+02  0.38708290654E+02  0.55794274311E+02  0.47000000000E+01 0.  1.
         -5    1    3    3    0  502 -0.73763539081E+02  0.42127394869E+02  0.68285647099E+01  0.85349261228E+02  0.47000000000E+01 0.  1.
        -11    1    1    2    0    0  0.45769559047E+02 -0.93041830502E+01 -0.73297238356E+02  0.86913206753E+02  0.00000000000E+00 0.  1.
         11    1    1    2    0    0 -0.10401278579E+02 -0.21942798384E+02  0.18724438395E+02  0.30663946097E+02  0.00000000000E+00 0. -1.
<mgrwt>
<rscale>  0 0.12553210E+03</rscale>
<asrwt>0</asrwt>
<pdfrwt beam="1">  1        2 0.19206519E-01 0.13359600E+03</pdfrwt>
<pdfrwt beam="2">  1       -2 0.20596664E-01 0.13359600E+03</pdfrwt>
<totfact> 0.55282272E+03</totfact>
</mgrwt>
</event>
<event>
 7    1  0.6419647E-006  0.1959462E+03  0.7546771E-02  0.1157703E+00
         -3   -1    0    0    0  501 -0.00000000000E+00  0.00000000000E+00  0.21493717684E+03  0.21493717684E+03  0.00000000000E+00 0.  1.
          3   -1    0    0  501    0  0.00000000000E+00 -0.00000000000E+00 -0.35097582792E+03  0.35097582792E+03  0.00000000000E+00 0. -1.
         23    2    1    2    0    0  0.62399517196E+02  0.13738761151E+03 -0.27760619642E+03  0.33979424360E+03  0.12500348854E+03 0.  0.
          5    1    3    3  502    0  0.67777931682E+02  0.15431674554E+03 -0.27296673831E+03  0.32084332033E+03  0.47000000000E+01 0. -1.
         -5    1    3    3    0  502 -0.53784144857E+01 -0.16929134024E+02 -0.46394581103E+01  0.18950923269E+02  0.47000000000E+01 0. -1.
        -11    1    1    2    0    0 -0.49321452287E+02 -0.84964532108E+02  0.14128977662E+03  0.17208828650E+03  0.00000000000E+00 0.  1.
         11    1    1    2    0    0 -0.13078064909E+02 -0.52423079406E+02  0.27776872529E+00  0.54030474656E+02  0.00000000000E+00 0. -1.
<mgrwt>
<rscale>  0 0.19084349E+03</rscale>
<asrwt>0</asrwt>
<pdfrwt beam="2">  1        3 0.53996281E-01 0.19594624E+03</pdfrwt>
<pdfrwt beam="1">  1       -3 0.33067258E-01 0.19594624E+03</pdfrwt>
<totfact> 0.74602512E+01</totfact>
</mgrwt>
</event>
<event>
 7    1  0.6419647E-006  0.1595757E+03  0.7546771E-02  0.1197422E+00
          2   -1    0    0  501    0  0.00000000000E+00  0.00000000000E+00  0.22714493746E+03  0.22714493746E+03  0.00000000000E+00 0. -1.
         -2   -1    0    0    0  501 -0.00000000000E+00 -0.00000000000E+00 -0.29501678702E+03  0.29501678702E+03  0.00000000000E+00 0.  1.
         23    2    1    2    0    0 -0.97333731464E+02 -0.19150216968E+02  0.18015225818E+03  0.24066416701E+03  0.12499527616E+03 0.  0.
          5    1    3    3  502    0 -0.14845361462E+02  0.44866201353E+02  0.93600743630E+02  0.10495975414E+03  0.47000000000E+01 0. -1.
         -5    1    3    3    0  502 -0.82488370002E+02 -0.64016418322E+02  0.86551514552E+02  0.13570441287E+03  0.47000000000E+01 0. -1.
        -11    1    1    2    0    0  0.44620014610E+02 -0.14877209318E+02 -0.19102461983E+03  0.19672997342E+03  0.00000000000E+00 0.  1.
         11    1    1    2    0    0  0.52713716854E+02  0.34027426286E+02 -0.56999487919E+02  0.84767584059E+02  0.00000000000E+00 0. -1.
<mgrwt>
<rscale>  0 0.15250992E+03</rscale>
<asrwt>0</asrwt>
<pdfrwt beam="1">  1        2 0.34945375E-01 0.15957570E+03</pdfrwt>
<pdfrwt beam="2">  1       -2 0.45387198E-01 0.15957570E+03</pdfrwt>
<totfact> 0.68783407E+02</totfact>
</mgrwt>
</event>
<event>
 7    1  0.6419647E-006  0.1629355E+03  0.7546771E-02  0.1192888E+00
         -1   -1    0    0    0  501 -0.00000000000E+00  0.00000000000E+00  0.73649678764E+02  0.73649678764E+02  0.00000000000E+00 0.  1.
          1   -1    0    0  501    0  0.00000000000E+00 -0.00000000000E+00 -0.30769756503E+03  0.30769756503E+03  0.00000000000E+00 0. -1.
         23    2    1    2    0    0 -0.96192301903E+02 -0.40859207847E+02 -0.12874350847E+03  0.20766042817E+03  0.12500211456E+03 0.  0.
          5    1    3    3  502    0 -0.12592419866E+03 -0.29297367817E+02 -0.91854366098E+02  0.15866491150E+03  0.47000000000E+01 0.  1.
         -5    1    3    3    0  502  0.29731896757E+02 -0.11561840030E+02 -0.36889142370E+02  0.48995516677E+02  0.47000000000E+01 0.  1.
        -11    1    1    2    0    0  0.67556373214E+02  0.34587343104E+02 -0.11914847750E+03  0.14126750354E+03  0.00000000000E+00 0. -1.
         11    1    1    2    0    0  0.28635928689E+02  0.62718647432E+01  0.13844099705E+02  0.32419312082E+02  0.00000000000E+00 0.  1.
<mgrwt>
<rscale>  0 0.15634305E+03</rscale>
<asrwt>0</asrwt>
<pdfrwt beam="2">  1        1 0.47338087E-01 0.16293545E+03</pdfrwt>
<pdfrwt beam="1">  1       -1 0.11330720E-01 0.16293545E+03</pdfrwt>
<totfact> 0.41346532E+03</totfact>
</mgrwt>
</event>
<event>
 7    1  0.6419647E-006  0.1269388E+03  0.7546771E-02  0.1249752E+00
         -1   -1    0    0    0  501 -0.00000000000E+00  0.00000000000E+00  0.18523738551E+03  0.18523738551E+03  0.00000000000E+00 0.  1.
          1   -1    0    0  501    0  0.00000000000E+00 -0.00000000000E+00 -0.63154253767E+02  0.63154253767E+02  0.00000000000E+00 0. -1.
         23    2    1    2    0    0  0.86984026084E+01 -0.35446150560E+02  0.81583741434E+02  0.15089523512E+03  0.12157867131E+03 0.  0.
          5    1    3    3  502    0 -0.42374109128E+02  0.23593809791E+02  0.32008923365E+02  0.58300035676E+02  0.47000000000E+01 0. -1.
         -5    1    3    3    0  502  0.51072511737E+02 -0.59039960351E+02  0.49574818070E+02  0.92595199443E+02  0.47000000000E+01 0.  1.
        -11    1    1    2    0    0 -0.11015900860E+02  0.48118301654E+02 -0.55545253087E+01  0.49674679438E+02  0.00000000000E+00 0. -1.
         11    1    1    2    0    0  0.23174982516E+01 -0.12672151095E+02  0.46053915616E+02  0.47821724719E+02  0.00000000000E+00 0.  1.
<mgrwt>
<rscale>  0 0.11605413E+03</rscale>
<asrwt>0</asrwt>
<pdfrwt beam="2">  1        1 0.97160391E-02 0.12693882E+03</pdfrwt>
<pdfrwt beam="1">  1       -1 0.28498059E-01 0.12693882E+03</pdfrwt>
<totfact> 0.70110377E+03</totfact>
</mgrwt>
</event>
<event>
 7    1  0.6419647E-006  0.2888133E+03  0.7546771E-02  0.1093116E+00
         -2   -1    0    0    0  501 -0.00000000000E+00  0.00000000000E+00  0.11003647106E+03  0.11003647106E+03  0.00000000000E+00 0.  1.
          2   -1    0    0  501    0  0.00000000000E+00 -0.00000000000E+00 -0.74889952916E+03  0.74889952916E+03  0.00000000000E+00 0. -1.
         23    2    1    2    0    0  0.25235794738E+03  0.64052034597E+02 -0.41670020073E+03  0.50700314443E+03  0.12500373766E+03 0.  0.
          5    1    3    3  502    0  0.21083213205E+03  0.30761213138E+02 -0.39599704520E+03  0.44970233482E+03  0.47000000000E+01 0.  1.
         -5    1    3    3    0  502  0.41525815335E+02  0.33290821459E+02 -0.20703155530E+02  0.57300809606E+02  0.47000000000E+01 0.  1.
        -11    1    1    2    0    0 -0.11284044768E+03 -0.19870514672E+02 -0.15002567427E+03  0.18877369235E+03  0.00000000000E+00 0. -1.
         11    1    1    2    0    0 -0.13951749970E+03 -0.44181519924E+02 -0.72137183105E+02  0.16315916343E+03  0.00000000000E+00 0.  1.
<mgrwt>
<rscale>  0 0.28476246E+03</rscale>
<asrwt>0</asrwt>
<pdfrwt beam="2">  1        2 0.11521531E+00 0.28881332E+03</pdfrwt>
<pdfrwt beam="1">  1       -2 0.16928688E-01 0.28881332E+03</pdfrwt>
<totfact> 0.10794981E+03</totfact>
</mgrwt>
</event>
<event>
 7    1  0.6419647E-006  0.1715654E+03  0.7546771E-02  0.1182615E+00
         -3   -1    0    0    0  501 -0.00000000000E+00  0.00000000000E+00  0.28660068435E+03  0.28660068435E+03  0.00000000000E+00 0.  1.
          3   -1    0    0  501    0  0.00000000000E+00 -0.00000000000E+00 -0.13270254323E+03  0.13270254323E+03  0.00000000000E+00 0. -1.
         23    2    1    2    0    0 -0.10574858533E+03  0.51262765608E+02 -0.38870475598E+02  0.17591365984E+03  0.12499626958E+03 0.  0.
          5    1    3    3  502    0 -0.88412854196E+02  0.76244018229E+02  0.10954216910E+02  0.11735445441E+03  0.47000000000E+01 0. -1.
         -5    1    3    3    0  502 -0.17335731135E+02 -0.24981252621E+02 -0.49824692509E+02  0.58559205425E+02  0.47000000000E+01 0. -1.
        -11    1    1    2    0    0  0.11161207704E+03 -0.15908411236E+02  0.14495353248E+03  0.18363512700E+03  0.00000000000E+00 0.  1.
         11    1    1    2    0    0 -0.58634917134E+01 -0.35354354372E+02  0.47815084237E+02  0.59754440745E+02  0.00000000000E+00 0. -1.
<mgrwt>
<rscale>  0 0.16550806E+03</rscale>
<asrwt>0</asrwt>
<pdfrwt beam="2">  1        3 0.20415776E-01 0.17156544E+03</pdfrwt>
<pdfrwt beam="1">  1       -3 0.44092413E-01 0.17156544E+03</pdfrwt>
<totfact> 0.26648365E+02</totfact>
</mgrwt>
</event>
<event>
 7    1  0.6419647E-006  0.1434639E+03  0.7546771E-02  0.1219582E+00
          3   -1    0    0  501    0  0.00000000000E+00  0.00000000000E+00  0.32475691488E+03  0.32475691488E+03  0.00000000000E+00 0. -1.
         -3   -1    0    0    0  501 -0.00000000000E+00 -0.00000000000E+00 -0.52695975657E+02  0.52695975657E+02  0.00000000000E+00 0.  1.
         23    2    1    2    0    0  0.37321057426E+01 -0.70235947725E+02  0.18444153862E+03  0.23366764764E+03  0.12503947945E+03 0.  0.
          5    1    3    3  502    0 -0.51258308864E+02  0.30395071398E+01  0.61036691123E+02  0.79901317226E+02  0.47000000000E+01 0.  1.
         -5    1    3    3    0  502  0.54990414606E+02 -0.73275454865E+02  0.12340484750E+03  0.15376633042E+03  0.47000000000E+01 0.  1.
        -11    1    1    2    0    0 -0.20574138809E+02 -0.28764990463E+01  0.60565659875E+02  0.64029435345E+02  0.00000000000E+00 0.  1.
         11    1    1    2    0    0  0.16842033067E+02  0.73112446771E+02  0.27053740730E+02  0.79755807551E+02  0.00000000000E+00 0. -1.
<mgrwt>
<rscale>  0 0.13545265E+03</rscale>
<asrwt>0</asrwt>
<pdfrwt beam="1">  1        3 0.49962601E-01 0.14346389E+03</pdfrwt>
<pdfrwt beam="2">  1       -3 0.81070733E-02 0.14346389E+03</pdfrwt>
<totfact> 0.97229252E+02</totfact>
</mgrwt>
</event>
<event>
 7    1  0.6419647E-006  0.1751251E+03  0.7546771E-02  0.1178693E+00
         -1   -1    0    0    0  501 -0.00000000000E+00  0.00000000000E+00  0.14346936433E+04  0.14346936433E+04  0.00000000000E+00 0.  1.
          1   -1    0    0  501    0  0.00000000000E+00 -0.00000000000E+00 -0.18715287657E+02  0.18715287657E+02  0.00000000000E+00 0. -1.
         23    2    1    2    0    0 -0.33289655185E+02 -0.11805914917E+03  0.74751697019E+03  0.76775673557E+03  0.12499048144E+03 0.  0.
          5    1    3    3  502    0 -0.15932055308E+02  0.70593690260E+01  0.12511541927E+02  0.21961187554E+02  0.47000000000E+01 0.  1.
         -5    1    3    3    0  502 -0.17357599877E+02 -0.12511851819E+03  0.73500542826E+03  0.74579554801E+03  0.47000000000E+01 0.  1.
        -11    1    1    2    0    0 -0.14027653894E+02  0.96501677453E+02  0.49714944151E+03  0.50662305121E+03  0.00000000000E+00 0.  1.
         11    1    1    2    0    0  0.47317309079E+02  0.21557471715E+02  0.17131194392E+03  0.17902914415E+03  0.00000000000E+00 0. -1.
<mgrwt>
<rscale>  0 0.16919212E+03</rscale>
<asrwt>0</asrwt>
<pdfrwt beam="2">  1        1 0.28792762E-02 0.17512505E+03</pdfrwt>
<pdfrwt beam="1">  1       -1 0.22072201E+00 0.17512505E+03</pdfrwt>
<totfact> 0.43963938E+02</totfact>
</mgrwt>
</event>
<event>
 7    1  0.6419647E-006  0.1275457E+03  0.7546771E-02  0.1246497E+00
          4   -1    0    0  501    0  0.00000000000E+00  0.00000000000E+00  0.28579293891E+02  0.28579293891E+02  0.00000000000E+00 0.  1.
         -4   -1    0    0    0  501 -0.00000000000E+00 -0.00000000000E+00 -0.44295430988E+03  0.44295430988E+03  0.00000000000E+00 0. -1.
         23    2    1    2    0    0 -0.24454826994E+02  0.29684673181E+01 -0.19350930388E+03  0.23176228175E+03  0.12514413367E+03 0.  0.
          5    1    3    3  502    0 -0.62869508176E+02  0.38964128365E+02 -0.10193883377E+03  0.12603330587E+03  0.47000000000E+01 0.  1.
         -5    1    3    3    0  502  0.38414681182E+02 -0.35995661047E+02 -0.91570470109E+02  0.10572897588E+03  0.47000000000E+01 0.  1.
        -11    1    1    2    0    0  0.38967482062E+02 -0.17723567224E+02 -0.21358354335E+03  0.21783140151E+03  0.00000000000E+00 0. -1.
         11    1    1    2    0    0 -0.14512655068E+02  0.14755099906E+02 -0.72821687583E+01  0.21939920515E+02  0.00000000000E+00 0.  1.
<mgrwt>
<rscale>  0 0.11796225E+03</rscale>
<asrwt>0</asrwt>
<pdfrwt beam="1">  1        4 0.43968145E-02 0.12754570E+03</pdfrwt>
<pdfrwt beam="2">  1       -4 0.68146816E-01 0.12754570E+03</pdfrwt>
<totfact> 0.96888599E+02</totfact>
</mgrwt>
</event>
<event>
 7    1  0.6419647E-006  0.1322189E+03  0.7546771E-02  0.1237092E+00
          3   -1    0    0  501    0  0.00000000000E+00  0.00000000000E+00  0.61548751584E+02  0.61548751584E+02  0.00000000000E+00 0. -1.
         -3   -1    0    0    0  501 -0.00000000000E+00 -0.00000000000E+00 -0.22175815590E+03  0.22175815590E+03  0.00000000000E+00 0.  1.
         23    2    1    2    0    0 -0.40103597286E+02 -0.15711116600E+02 -0.94636283733E+02  0.16259721442E+03  0.12500676078E+03 0.  0.
          5    1    3    3  502    0 -0.57388310362E+02  0.28715454954E+02 -0.96807740084E+01  0.65067679418E+02  0.47000000000E+01 0. -1.
         -5    1    3    3    0  502  0.17284713076E+02 -0.44426571554E+02 -0.84955509725E+02  0.97529535007E+02  0.47000000000E+01 0. -1.
        -11    1    1    2    0    0 -0.71608086194E+01  0.22811457375E+02  0.14131756074E+02  0.27773121852E+02  0.00000000000E+00 0. -1.
         11    1    1    2    0    0  0.47264405906E+02 -0.71003407749E+01 -0.79704876653E+02  0.92936571203E+02  0.00000000000E+00 0.  1.
<mgrwt>
<rscale>  0 0.12371479E+03</rscale>
<asrwt>0</asrwt>
<pdfrwt beam="1">  1        3 0.94690386E-02 0.13221886E+03</pdfrwt>
<pdfrwt beam="2">  1       -3 0.34116640E-01 0.13221886E+03</pdfrwt>
<totfact> 0.15576219E+03</totfact>
</mgrwt>
</event>
<event>
 6    1  0.6419647E-006  0.1883821E+03  0.7546771E-02  0.1169913E+00
          2   -1    0    0  501    0  0.00000000000E+00  0.00000000000E+00  0.42155149040E+03  0.42155149040E+03  0.00000000000E+00 0. -1.
         -2   -1    0    0    0  501 -0.00000000000E+00 -0.00000000000E+00 -0.10665861729E+03  0.10665861729E+03  0.00000000000E+00 0.  1.
          5    1    1    2  502    0  0.31732608994E+02 -0.26719278907E+02  0.26898827077E+03  0.27220885025E+03  0.47000000000E+01 0. -1.
         -5    1    1    2    0  502  0.87006778313E+02  0.12421603488E+02  0.58777720001E+02  0.10583660083E+03  0.47000000000E+01 0.  1.
        -11    1    1    2    0    0 -0.10516322047E+03 -0.57612986540E+01 -0.41023278024E+02  0.11302833646E+03  0.00000000000E+00 0.  1.
         11    1    1    2    0    0 -0.13576166833E+02  0.20058974073E+02  0.28150160356E+02  0.37136320157E+02  0.00000000000E+00 0. -1.
<mgrwt>
<rscale>  0 0.17783664E+03</rscale>
<asrwt>0</asrwt>
<pdfrwt beam="1">  1        2 0.64854075E-01 0.18838211E+03</pdfrwt>
<pdfrwt beam="2">  1       -2 0.16409018E-01 0.18838211E+03</pdfrwt>
<totfact> 0.21928586E+03</totfact>
</mgrwt>
</event>
<event>
 7    1  0.6419647E-006  0.1459790E+03  0.7546771E-02  0.1216078E+00
         -1   -1    0    0    0  501 -0.00000000000E+00  0.00000000000E+00  0.41792831089E+02  0.41792831089E+02  0.00000000000E+00 0.  1.
          1   -1    0    0  501    0  0.00000000000E+00 -0.00000000000E+00 -0.42172097931E+03  0.42172097931E+03  0.00000000000E+00 0. -1.
         23    2    1    2    0    0  0.67465964728E+02 -0.33583555946E+02 -0.17609773031E+03  0.22873627308E+03  0.12502143967E+03 0.  0.
          5    1    3    3  502    0  0.99605228849E+02 -0.13578341278E+02 -0.15593173489E+03  0.18558655370E+03  0.47000000000E+01 0. -1.
         -5    1    3    3    0  502 -0.32139264121E+02 -0.20005214668E+02 -0.20165995418E+02  0.43149719389E+02  0.47000000000E+01 0. -1.
        -11    1    1    2    0    0 -0.71399619652E+02  0.16186846342E+01 -0.81898950764E+02  0.10866445584E+03  0.00000000000E+00 0.  1.
         11    1    1    2    0    0  0.39336549244E+01  0.31964871312E+02 -0.12193146715E+03  0.12611308148E+03  0.00000000000E+00 0. -1.
<mgrwt>
<rscale>  0 0.13797643E+03</rscale>
<asrwt>0</asrwt>
<pdfrwt beam="2">  1        1 0.64880150E-01 0.14597901E+03</pdfrwt>
<pdfrwt beam="1">  1       -1 0.64296664E-02 0.14597901E+03</pdfrwt>
<totfact> 0.65412508E+03</totfact>
</mgrwt>
</event>
<event>
 7    1  0.6419647E-006  0.1467508E+03  0.7546771E-02  0.1210903E+00
         -1   -1    0    0    0  501 -0.00000000000E+00  0.00000000000E+00  0.71084769856E+02  0.71084769856E+02  0.00000000000E+00 0.  1.
          1   -1    0    0  501    0  0.00000000000E+00 -0.00000000000E+00 -0.62166997616E+03  0.62166997616E+03  0.00000000000E+00 0. -1.
         23    2    1    2    0    0 -0.59199163851E+02  0.67589338222E+02 -0.54524762324E+03  0.56465100696E+03  0.11602986415E+03 0.  0.
          5    1    3    3  502    0 -0.84359001304E+02  0.12953722777E+02 -0.35046592480E+03  0.36073909475E+03  0.47000000000E+01 0. -1.
         -5    1    3    3    0  502  0.25159837453E+02  0.54635615445E+02 -0.19478169843E+03  0.20391191221E+03  0.47000000000E+01 0.  1.
        -11    1    1    2    0    0  0.45481227509E+02 -0.50685241547E+02  0.39167338438E+02  0.78559634462E+02  0.00000000000E+00 0.  1.
         11    1    1    2    0    0  0.13717936342E+02 -0.16904096675E+02 -0.44504921509E+02  0.49544104597E+02  0.00000000000E+00 0. -1.
<mgrwt>
<rscale>  0 0.14181802E+03</rscale>
<asrwt>0</asrwt>
<pdfrwt beam="2">  1        1 0.95641538E-01 0.14675077E+03</pdfrwt>
<pdfrwt beam="1">  1       -1 0.10936118E-01 0.14675077E+03</pdfrwt>
<totfact> 0.17541420E+03</totfact>
</mgrwt>
</event>
<event>
 7    1  0.6419647E-006  0.1864748E+03  0.7546771E-02  0.1166062E+00
         -2   -1    0    0    0  501 -0.00000000000E+00  0.00000000000E+00  0.34672534093E+03  0.34672534093E+03  0.00000000000E+00 0.  1.
          2   -1    0    0  501    0  0.00000000000E+00 -0.00000000000E+00 -0.91043793283E+02  0.91043793283E+02  0.00000000000E+00 0. -1.
         23    2    1    2    0    0  0.12670780987E+03 -0.55620312226E+02  0.12444098560E+03  0.22418390292E+03  0.12499750085E+03 0.  0.
          5    1    3    3  502    0  0.84550477062E+02  0.52472621822E+01  0.12368727615E+03  0.14998983037E+03  0.47000000000E+01 0. -1.
         -5    1    3    3    0  502  0.42157332807E+02 -0.60867574408E+02  0.75370944180E+00  0.74194072550E+02  0.47000000000E+01 0. -1.
        -11    1    1    2    0    0 -0.97804516456E+02  0.78841651127E+02  0.12255926885E+03  0.17550642089E+03  0.00000000000E+00 0.  1.
         11    1    1    2    0    0 -0.28903293413E+02 -0.23221338901E+02  0.86812932036E+01  0.38078810409E+02  0.00000000000E+00 0. -1.
<mgrwt>
<rscale>  0 0.18181076E+03</rscale>
<asrwt>0</asrwt>
<pdfrwt beam="2">  1        2 0.14006738E-01 0.18647483E+03</pdfrwt>
<pdfrwt beam="1">  1       -2 0.53342360E-01 0.18647483E+03</pdfrwt>
<totfact> 0.14066125E+03</totfact>
</mgrwt>
</event>
<event>
 7    1  0.6419647E-006  0.1330544E+03  0.7546771E-02  0.1236125E+00
          2   -1    0    0  501    0  0.00000000000E+00  0.00000000000E+00  0.32615400971E+03  0.32615400971E+03  0.00000000000E+00 0.  1.
         -2   -1    0    0    0  501 -0.00000000000E+00 -0.00000000000E+00 -0.42149741193E+02  0.42149741193E+02  0.00000000000E+00 0. -1.
         23    2    1    2    0    0  0.36681628194E+02 -0.27109341941E+02  0.16300575850E+03  0.21041468194E+03  0.12499201095E+03 0.  0.
          5    1    3    3  502    0  0.11982668162E+02 -0.91223485262E+01 -0.19628416333E+02  0.25182658848E+02  0.47000000000E+01 0.  1.
         -5    1    3    3    0  502  0.24698960032E+02 -0.17986993415E+02  0.18263417484E+03  0.18523202309E+03  0.47000000000E+01 0.  1.
        -11    1    1    2    0    0 -0.15256888508E+02 -0.21192603300E+02  0.95898566607E+02  0.99390312198E+02  0.00000000000E+00 0.  1.
         11    1    1    2    0    0 -0.21424739686E+02  0.48301945241E+02  0.25099943406E+02  0.58498756770E+02  0.00000000000E+00 0. -1.
<mgrwt>
<rscale>  0 0.12432683E+03</rscale>
<asrwt>0</asrwt>
<pdfrwt beam="1">  1        2 0.50177538E-01 0.13305435E+03</pdfrwt>
<pdfrwt beam="2">  1       -2 0.64845758E-02 0.13305435E+03</pdfrwt>
<totfact> 0.12340464E+04</totfact>
</mgrwt>
</event>
<event>
 7    1  0.6419647E-006  0.1183684E+03  0.7546771E-02  0.1255260E+00
         -2   -1    0    0    0  501 -0.00000000000E+00  0.00000000000E+00  0.13973888724E+03  0.13973888724E+03  0.00000000000E+00 0.  1.
          2   -1    0    0  501    0  0.00000000000E+00 -0.00000000000E+00 -0.10882454461E+03  0.10882454461E+03  0.00000000000E+00 0. -1.
         23    2    1    2    0    0  0.33937087729E+02 -0.12451592839E+01 -0.42848166353E+02  0.12588500820E+03  0.11339221130E+03 0.  0.
          5    1    3    3  502    0 -0.33150913033E+02 -0.27710548152E+01 -0.47808192735E+02  0.58432654161E+02  0.47000000000E+01 0. -1.
         -5    1    3    3    0  502  0.67088000762E+02  0.15258955313E+01  0.49600263817E+01  0.67452354037E+02  0.47000000000E+01 0.  1.
        -11    1    1    2    0    0  0.22745758446E+02 -0.20837519226E+02  0.56594795319E+01  0.31362420878E+02  0.00000000000E+00 0. -1.
         11    1    1    2    0    0 -0.56682846175E+02  0.22082678510E+02  0.68103029460E+02  0.91316002772E+02  0.00000000000E+00 0.  1.
<mgrwt>
<rscale>  0 0.11291770E+03</rscale>
<asrwt>0</asrwt>
<pdfrwt beam="2">  1        2 0.16742238E-01 0.11836837E+03</pdfrwt>
<pdfrwt beam="1">  1       -2 0.21498290E-01 0.11836837E+03</pdfrwt>
<totfact> 0.59619815E+03</totfact>
</mgrwt>
</event>
<event>
 7    1  0.7863415E-006  0.1507912E+03  0.7546771E-02  0.1208558E+00
          2   -1    0    0  501    0  0.00000000000E+00  0.00000000000E+00  0.70167959553E+03  0.70167959553E+03  0.00000000000E+00 0. -1.
         -2   -1    0    0    0  501 -0.00000000000E+00 -0.00000000000E+00 -0.27271291539E+02  0.27271291539E+02  0.00000000000E+00 0.  1.
         23    2    1    2    0    0 -0.73632038168E+02 -0.41119387468E+02  0.41128549634E+03  0.43805676637E+03  0.12500195996E+03 0.  0.
          5    1    3    3  502    0 -0.16811758500E+02 -0.58246391541E+02  0.75047035929E+02  0.96588948401E+02  0.47000000000E+01 0. -1.
         -5    1    3    3    0  502 -0.56820279668E+02  0.17127004074E+02  0.33623846041E+03  0.34146781797E+03  0.47000000000E+01 0. -1.
        -11    1    1    2    0    0  0.46781670144E+02 -0.20173901135E+02  0.70517390353E+02  0.86995478565E+02  0.00000000000E+00 0.  1.
         11    1    1    2    0    0  0.26850368024E+02  0.61293288602E+02  0.19260541729E+03  0.20389864213E+03  0.00000000000E+00 0. -1.
<mgrwt>
<rscale>  0 0.14360575E+03</rscale>
<asrwt>0</asrwt>
<pdfrwt beam="1">  1        2 0.10795069E+00 0.15079115E+03</pdfrwt>
<pdfrwt beam="2">  1       -2 0.41955839E-02 0.15079115E+03</pdfrwt>
<totfact> 0.10303132E+04</totfact>
</mgrwt>
</event>
<event>
 7    1  0.6419647E-006  0.1742743E+03  0.7546771E-02  0.1176619E+00
         -1   -1    0    0    0  501 -0.00000000000E+00  0.00000000000E+00  0.12684322840E+04  0.12684322840E+04  0.00000000000E+00 0.  1.
          1   -1    0    0  501    0  0.00000000000E+00 -0.00000000000E+00 -0.23992464527E+02  0.23992464527E+02  0.00000000000E+00 0. -1.
         23    2    1    2    0    0 -0.11361566994E+03  0.42884203724E+02  0.47235277489E+03  0.50347659913E+03  0.12499586612E+03 0.  0.
          5    1    3    3  502    0 -0.12958868727E+03  0.62545653226E+02  0.43414350411E+03  0.45739245595E+03  0.47000000000E+01 0.  1.
         -5    1    3    3    0  502  0.15973017331E+02 -0.19661449502E+02  0.38209270780E+02  0.46084143180E+02  0.47000000000E+01 0.  1.
        -11    1    1    2    0    0  0.58248096430E+01  0.29874993719E+02  0.10596279362E+03  0.11024770877E+03  0.00000000000E+00 0. -1.
         11    1    1    2    0    0  0.10779086029E+03 -0.72759197443E+02  0.66612425092E+03  0.67870044058E+03  0.00000000000E+00 0.  1.
<mgrwt>
<rscale>  0 0.17118370E+03</rscale>
<asrwt>0</asrwt>
<pdfrwt beam="2">  1        1 0.36911494E-02 0.17427433E+03</pdfrwt>
<pdfrwt beam="1">  1       -1 0.19514338E+00 0.17427433E+03</pdfrwt>
<totfact> 0.45715967E+02</totfact>
</mgrwt>
</event>
<event>
 7    1  0.6419647E-006  0.5966714E+03  0.7546771E-02  0.9912336E-01
         -1   -1    0    0    0  501 -0.00000000000E+00  0.00000000000E+00  0.11003946235E+03  0.11003946235E+03  0.00000000000E+00 0.  1.
          1   -1    0    0  501    0  0.00000000000E+00 -0.00000000000E+00 -0.80883882814E+03  0.80883882814E+03  0.00000000000E+00 0. -1.
         23    2    1    2    0    0  0.36088884898E+02 -0.74274646030E+02 -0.62747699768E+03  0.64312727500E+03  0.11430738636E+03 0.  0.
          5    1    3    3  502    0  0.65650916975E+02 -0.37311259375E+02 -0.21513588608E+03  0.22805199507E+03  0.47000000000E+01 0. -1.
         -5    1    3    3    0  502 -0.29562032077E+02 -0.36963386655E+02 -0.41234111160E+03  0.41507527993E+03  0.47000000000E+01 0.  1.
        -11    1    1    2    0    0  0.41761158709E+02  0.56422218034E+02  0.78905692092E+02  0.10561046023E+03  0.00000000000E+00 0.  1.
         11    1    1    2    0    0 -0.77850043607E+02  0.17852427996E+02 -0.15022806020E+03  0.17014055526E+03  0.00000000000E+00 0. -1.
<mgrwt>
<rscale>  0 0.59667140E+03</rscale>
<asrwt>0</asrwt>
<pdfrwt beam="2">  1        1 0.12443674E+00 0.59667140E+03</pdfrwt>
<pdfrwt beam="1">  1       -1 0.16929148E-01 0.59667140E+03</pdfrwt>
<totfact> 0.59260782E+02</totfact>
</mgrwt>
</event>
<event>
 7    1  0.6419647E-006  0.1366292E+03  0.7546771E-02  0.1230093E+00
         -2   -1    0    0    0  501 -0.00000000000E+00  0.00000000000E+00  0.21851668896E+02  0.21851668896E+02  0.00000000000E+00 0.  1.
          2   -1    0    0  501    0  0.00000000000E+00 -0.00000000000E+00 -0.85459291843E+03  0.85459291843E+03  0.00000000000E+00 0. -1.
         23    2    1    2    0    0 -0.49389890755E+02  0.24582632649E+02 -0.65810623099E+03  0.67213938848E+03  0.12499551648E+03 0.  0.
          5    1    3    3  502    0 -0.65907314195E+01 -0.46927975081E+02 -0.15483272906E+03  0.16199054471E+03  0.47000000000E+01 0. -1.
         -5    1    3    3    0  502 -0.42799159336E+02  0.71510607730E+02 -0.50327350193E+03  0.51014884377E+03  0.47000000000E+01 0. -1.
        -11    1    1    2    0    0  0.28184553759E+02  0.25088449685E+01 -0.21002985751E+01  0.28373837029E+02  0.00000000000E+00 0.  1.
         11    1    1    2    0    0  0.21205336997E+02 -0.27091477617E+02 -0.17253471996E+03  0.17593136181E+03  0.00000000000E+00 0. -1.
<mgrwt>
<rscale>  0 0.12823869E+03</rscale>
<asrwt>0</asrwt>
<pdfrwt beam="2">  1        2 0.13147582E+00 0.13662923E+03</pdfrwt>
<pdfrwt beam="1">  1       -2 0.33617956E-02 0.13662923E+03</pdfrwt>
<totfact> 0.11158579E+04</totfact>
</mgrwt>
</event>
<event>
 7    1  0.6419647E-006  0.1302454E+03  0.7546771E-02  0.1241366E+00
          2   -1    0    0  501    0  0.00000000000E+00  0.00000000000E+00  0.14633245622E+03  0.14633245622E+03  0.00000000000E+00 0. -1.
         -2   -1    0    0    0  501 -0.00000000000E+00 -0.00000000000E+00 -0.10718478128E+03  0.10718478128E+03  0.00000000000E+00 0.  1.
         23    2    1    2    0    0  0.99167082270E+01  0.35209870687E+02  0.74552013413E+02  0.15007286805E+03  0.12500314767E+03 0.  0.
          5    1    3    3  502    0 -0.10701604278E+02  0.79926211644E+02  0.45639522782E+02  0.92778120706E+02  0.47000000000E+01 0. -1.
         -5    1    3    3    0  502  0.20618312505E+02 -0.44716340958E+02  0.28912490631E+02  0.57294747348E+02  0.47000000000E+01 0. -1.
        -11    1    1    2    0    0  0.36305816100E+01  0.23727013109E+02 -0.35640908430E+02  0.42970066646E+02  0.00000000000E+00 0. -1.
         11    1    1    2    0    0 -0.13547289837E+02 -0.58936883795E+02  0.23656996014E+00  0.60474302797E+02  0.00000000000E+00 0.  1.
<mgrwt>
<rscale>  0 0.12105565E+03</rscale>
<asrwt>0</asrwt>
<pdfrwt beam="1">  1        2 0.22512686E-01 0.13024540E+03</pdfrwt>
<pdfrwt beam="2">  1       -2 0.16489966E-01 0.13024540E+03</pdfrwt>
<totfact> 0.66964463E+03</totfact>
</mgrwt>
</event>
<event>
 7    1  0.6419647E-006  0.1568412E+03  0.7546771E-02  0.1200961E+00
         -2   -1    0    0    0  501 -0.00000000000E+00  0.00000000000E+00  0.18320469682E+02  0.18320469682E+02  0.00000000000E+00 0.  1.
          2   -1    0    0  501    0  0.00000000000E+00 -0.00000000000E+00 -0.13560296949E+04  0.13560296949E+04  0.00000000000E+00 0. -1.
         23    2    1    2    0    0 -0.89903883199E+02 -0.29848985523E+02 -0.10057205370E+04  0.10178766982E+04  0.12500201637E+03 0.  0.
          5    1    3    3  502    0 -0.46975040617E+02 -0.78055036345E+02 -0.64096837414E+03  0.64742705364E+03  0.47000000000E+01 0. -1.
         -5    1    3    3    0  502 -0.42928842581E+02  0.48206050822E+02 -0.36475216282E+03  0.37044964454E+03  0.47000000000E+01 0. -1.
        -11    1    1    2    0    0  0.15873077881E+02 -0.12888305229E+01 -0.10841473429E+01  0.15962175948E+02  0.00000000000E+00 0.  1.
         11    1    1    2    0    0  0.74030805318E+02  0.31137816046E+02 -0.33090454092E+03  0.34051129045E+03  0.00000000000E+00 0. -1.
<mgrwt>
<rscale>  0 0.14960366E+03</rscale>
<asrwt>0</asrwt>
<pdfrwt beam="2">  1        2 0.20861997E+00 0.15684124E+03</pdfrwt>
<pdfrwt beam="1">  1       -2 0.28185335E-02 0.15684124E+03</pdfrwt>
<totfact> 0.74597565E+03</totfact>
</mgrwt>
</event>
<event>
 7    1  0.6419647E-006  0.1283809E+03  0.7546771E-02  0.1245970E+00
          2   -1    0    0  501    0  0.00000000000E+00  0.00000000000E+00  0.38387923686E+03  0.38387923686E+03  0.00000000000E+00 0. -1.
         -2   -1    0    0    0  501 -0.00000000000E+00 -0.00000000000E+00 -0.32898328964E+02  0.32898328964E+02  0.00000000000E+00 0.  1.
         23    2    1    2    0    0 -0.24424337522E+02 -0.16223281023E+02  0.24115109409E+03  0.27319497512E+03  0.12498760393E+03 0.  0.
          5    1    3    3  502    0  0.39422560796E+02  0.10091303144E+02  0.29411597894E+02  0.50429205720E+02  0.47000000000E+01 0. -1.
         -5    1    3    3    0  502 -0.63846898318E+02 -0.26314584166E+02  0.21173949620E+03  0.22276576940E+03  0.47000000000E+01 0. -1.
        -11    1    1    2    0    0 -0.25436379489E+02  0.54612095157E+01  0.80814084781E+02  0.84898471775E+02  0.00000000000E+00 0. -1.
         11    1    1    2    0    0  0.49860717010E+02  0.10762071507E+02  0.29015729021E+02  0.58684118930E+02  0.00000000000E+00 0.  1.
<mgrwt>
<rscale>  0 0.11827484E+03</rscale>
<asrwt>0</asrwt>
<pdfrwt beam="1">  1        2 0.59058341E-01 0.12838086E+03</pdfrwt>
<pdfrwt beam="2">  1       -2 0.50612816E-02 0.12838086E+03</pdfrwt>
<totfact> 0.15049861E+04</totfact>
</mgrwt>
</event>
<event>
 7    1  0.6419647E-006  0.1298195E+03  0.7546771E-02  0.1242338E+00
          2   -1    0    0  501    0  0.00000000000E+00  0.00000000000E+00  0.48984911627E+03  0.48984911627E+03  0.00000000000E+00 0. -1.
         -2   -1    0    0    0  501 -0.00000000000E+00 -0.00000000000E+00 -0.27585194738E+02  0.27585194738E+02  0.00000000000E+00 0.  1.
         23    2    1    2    0    0 -0.78368670598E+01  0.34169487584E+02  0.32335453004E+03  0.34844116388E+03  0.12499648884E+03 0.  0.
          5    1    3    3  502    0 -0.39660445852E+02  0.70599648458E+02  0.19532167107E+03  0.21149445977E+03  0.47000000000E+01 0.  1.
         -5    1    3    3    0  502  0.31823578792E+02 -0.36430160873E+02  0.12803285897E+03  0.13694670410E+03  0.47000000000E+01 0.  1.
        -11    1    1    2    0    0 -0.22123032176E+02 -0.26852940863E+02  0.13314874486E+03  0.13761939269E+03  0.00000000000E+00 0. -1.
         11    1    1    2    0    0  0.29959899236E+02 -0.73165467210E+01  0.57606466332E+01  0.31373754442E+02  0.00000000000E+00 0.  1.
<mgrwt>
<rscale>  0 0.12046143E+03</rscale>
<asrwt>0</asrwt>
<pdfrwt beam="1">  1        2 0.75361396E-01 0.12981946E+03</pdfrwt>
<pdfrwt beam="2">  1       -2 0.42438765E-02 0.12981946E+03</pdfrwt>
<totfact> 0.15077032E+04</totfact>
</mgrwt>
</event>
<event>
 6    1  0.6419647E-006  0.1698363E+03  0.7546771E-02  0.1197250E+00
         -4   -1    0    0    0  501 -0.00000000000E+00  0.00000000000E+00  0.16653634973E+03  0.16653634973E+03  0.00000000000E+00 0.  1.
          4   -1    0    0  501    0  0.00000000000E+00 -0.00000000000E+00 -0.11826924810E+03  0.11826924810E+03  0.00000000000E+00 0. -1.
          5    1    1    2  502    0  0.27480148450E+02  0.56493492517E+01 -0.49408678028E+02  0.57012114241E+02  0.47000000000E+01 0. -1.
         -5    1    1    2    0  502 -0.59765186160E+02 -0.59490213167E+02  0.78485259227E+02  0.11529522477E+03  0.47000000000E+01 0.  1.
        -11    1    1    2    0    0 -0.17409730820E+02 -0.19372888629E+01 -0.21258550268E+02  0.27545921202E+02  0.00000000000E+00 0.  1.
         11    1    1    2    0    0  0.49694768529E+02  0.55778152778E+02  0.40449070694E+02  0.84952337616E+02  0.00000000000E+00 0. -1.
<mgrwt>
<rscale>  0 0.15265330E+03</rscale>
<asrwt>0</asrwt>
<pdfrwt beam="2">  1        4 0.18195269E-01 0.16983631E+03</pdfrwt>
<pdfrwt beam="1">  1       -4 0.25620977E-01 0.16983631E+03</pdfrwt>
<totfact> 0.66188932E+02</totfact>
</mgrwt>
</event>
<event>
 7    1  0.6419647E-006  0.1348484E+03  0.7546771E-02  0.1231954E+00
          1   -1    0    0  501    0  0.00000000000E+00  0.00000000000E+00  0.12927484014E+03  0.12927484014E+03  0.00000000000E+00 0. -1.
         -1   -1    0    0    0  501 -0.00000000000E+00 -0.00000000000E+00 -0.13144820099E+03  0.13144820099E+03  0.00000000000E+00 0.  1.
         23    2    1    2    0    0 -0.50581174871E+02  0.59000956419E+00  0.48244055073E+02  0.14321864937E+03  0.12500115726E+03 0.  0.
          5    1    3    3  502    0 -0.12377631337E+02 -0.55547857691E+02  0.48852460301E+02  0.75149338846E+02  0.47000000000E+01 0. -1.
         -5    1    3    3    0  502 -0.38203543533E+02  0.56137867255E+02 -0.60840522746E+00  0.68069310525E+02  0.47000000000E+01 0. -1.
        -11    1    1    2    0    0  0.21582706432E+02 -0.39929896784E+02  0.25162040670E+01  0.45459225214E+02  0.00000000000E+00 0. -1.
         11    1    1    2    0    0  0.28998468439E+02  0.39339887220E+02 -0.52933619986E+02  0.72045166549E+02  0.00000000000E+00 0.  1.
<mgrwt>
<rscale>  0 0.12701427E+03</rscale>
<asrwt>0</asrwt>
<pdfrwt beam="1">  1        1 0.19888437E-01 0.13484841E+03</pdfrwt>
<pdfrwt beam="2">  1       -1 0.20222800E-01 0.13484841E+03</pdfrwt>
<totfact> 0.48647365E+03</totfact>
</mgrwt>
</event>
<event>
 7    1  0.6419647E-006  0.1310088E+03  0.7546771E-02  0.1239288E+00
          1   -1    0    0  501    0  0.00000000000E+00  0.00000000000E+00  0.11598827186E+04  0.11598827186E+04  0.00000000000E+00 0. -1.
         -1   -1    0    0    0  501 -0.00000000000E+00 -0.00000000000E+00 -0.11469246878E+02  0.11469246878E+02  0.00000000000E+00 0.  1.
         23    2    1    2    0    0  0.15778325913E+02 -0.35908817162E+02  0.66398842470E+03  0.67678943330E+03  0.12499964067E+03 0.  0.
          5    1    3    3  502    0 -0.18699095026E+01 -0.77854473223E+02  0.30172418221E+03  0.31164785847E+03  0.47000000000E+01 0. -1.
         -5    1    3    3    0  502  0.17648235416E+02  0.41945656060E+02  0.36226424250E+03  0.36514157483E+03  0.47000000000E+01 0. -1.
        -11    1    1    2    0    0 -0.39149810019E+02  0.55553428020E+02  0.36658214434E+03  0.37282886092E+03  0.00000000000E+00 0.  1.
         11    1    1    2    0    0  0.23371484105E+02 -0.19644610857E+02  0.11784290265E+03  0.12173367123E+03  0.00000000000E+00 0. -1.
<mgrwt>
<rscale>  0 0.12233869E+03</rscale>
<asrwt>0</asrwt>
<pdfrwt beam="1">  1        1 0.17844340E+00 0.13100881E+03</pdfrwt>
<pdfrwt beam="2">  1       -1 0.17645004E-02 0.13100881E+03</pdfrwt>
<totfact> 0.97255765E+03</totfact>
</mgrwt>
</event>
<event>
 6    1  0.6419647E-006  0.2086089E+03  0.7546771E-02  0.1166668E+00
          1   -1    0    0  501    0  0.00000000000E+00  0.00000000000E+00  0.14072001578E+04  0.14072001578E+04  0.00000000000E+00 0. -1.
         -1   -1    0    0    0  501 -0.00000000000E+00 -0.00000000000E+00 -0.63573774268E+02  0.63573774268E+02  0.00000000000E+00 0.  1.
          5    1    1    2  502    0  0.83534519663E+02  0.36718099585E+02  0.83099053497E+03  0.83599856102E+03  0.47000000000E+01 0. -1.
         -5    1    1    2    0  502 -0.10133495447E+03  0.33508093661E+02  0.50462814890E+03  0.51581316773E+03  0.47000000000E+01 0.  1.
        -11    1    1    2    0    0  0.42272313441E+02 -0.48978560826E+02 -0.28017843464E+02  0.70504237154E+02  0.00000000000E+00 0.  1.
         11    1    1    2    0    0 -0.24471878638E+02 -0.21247632419E+02  0.36025543108E+02  0.48457966153E+02  0.00000000000E+00 0. -1.
<mgrwt>
<rscale>  0 0.18117796E+03</rscale>
<asrwt>0</asrwt>
<pdfrwt beam="1">  1        1 0.21649231E+00 0.20860892E+03</pdfrwt>
<pdfrwt beam="2">  1       -1 0.97805817E-02 0.20860892E+03</pdfrwt>
<totfact> 0.52633190E+02</totfact>
</mgrwt>
</event>
<event>
 6    1  0.6419647E-006  0.3606130E+03  0.7546771E-02  0.1098148E+00
          2   -1    0    0  501    0  0.00000000000E+00  0.00000000000E+00  0.96024261826E+03  0.96024261826E+03  0.00000000000E+00 0. -1.
         -2   -1    0    0    0  501 -0.00000000000E+00 -0.00000000000E+00 -0.13787780681E+03  0.13787780681E+03  0.00000000000E+00 0.  1.
          5    1    1    2  502    0 -0.19600434970E+03  0.46434949330E+02  0.72509058243E+03  0.75256385267E+03  0.47000000000E+01 0. -1.
         -5    1    1    2    0  502  0.12576288673E+03 -0.40051466236E+01  0.16315290695E+03  0.20609052847E+03  0.47000000000E+01 0.  1.
        -11    1    1    2    0    0  0.73682802901E+02 -0.25145650309E+02 -0.83762886240E+02  0.11435768572E+03  0.00000000000E+00 0.  1.
         11    1    1    2    0    0 -0.34413399361E+01 -0.17284152397E+02  0.17884208309E+02  0.25108358200E+02  0.00000000000E+00 0. -1.
<mgrwt>
<rscale>  0 0.27554458E+03</rscale>
<asrwt>0</asrwt>
<pdfrwt beam="1">  1        2 0.14772963E+00 0.36061299E+03</pdfrwt>
<pdfrwt beam="2">  1       -2 0.21211971E-01 0.36061299E+03</pdfrwt>
<totfact> 0.52687599E+02</totfact>
</mgrwt>
</event>
<event>
 7    1  0.6419647E-006  0.1510187E+03  0.7546771E-02  0.1204718E+00
          1   -1    0    0  501    0  0.00000000000E+00  0.00000000000E+00  0.27223789019E+03  0.27223789019E+03  0.00000000000E+00 0. -1.
         -1   -1    0    0    0  501 -0.00000000000E+00 -0.00000000000E+00 -0.82971378754E+02  0.82971378754E+02  0.00000000000E+00 0.  1.
         23    2    1    2    0    0 -0.71515227687E+02 -0.65994389881E+02  0.15584615385E+03  0.21701304941E+03  0.11548572490E+03 0.  0.
          5    1    3    3  502    0 -0.74097121044E+02  0.18365344503E+01  0.11723129929E+03  0.13877688474E+03  0.47000000000E+01 0. -1.
         -5    1    3    3    0  502  0.25818933562E+01 -0.67830924331E+02  0.38614854564E+02  0.78236164668E+02  0.47000000000E+01 0.  1.
        -11    1    1    2    0    0  0.58154091434E+02  0.68893512790E+00 -0.94804054121E+01  0.58925809871E+02  0.00000000000E+00 0.  1.
         11    1    1    2    0    0  0.13361136253E+02  0.65305454753E+02  0.42900762991E+02  0.79270409660E+02  0.00000000000E+00 0. -1.
<mgrwt>
<rscale>  0 0.14659716E+03</rscale>
<asrwt>0</asrwt>
<pdfrwt beam="1">  1        1 0.41882752E-01 0.15101867E+03</pdfrwt>
<pdfrwt beam="2">  1       -1 0.12764828E-01 0.15101867E+03</pdfrwt>
<totfact> 0.39875824E+03</totfact>
</mgrwt>
</event>
<event>
 7    1  0.6419647E-006  0.1848077E+03  0.7546771E-02  0.1168385E+00
          1   -1    0    0  501    0  0.00000000000E+00  0.00000000000E+00  0.10829196095E+03  0.10829196095E+03  0.00000000000E+00 0. -1.
         -1   -1    0    0    0  501 -0.00000000000E+00 -0.00000000000E+00 -0.47119576551E+03  0.47119576551E+03  0.00000000000E+00 0.  1.
         23    2    1    2    0    0  0.13301810444E+03 -0.28985736014E+02 -0.40082394923E+01  0.18485119000E+03  0.12497962819E+03 0.  0.
          5    1    3    3  502    0  0.14957598652E+03 -0.11001037855E+01 -0.14717585714E+02  0.15037580690E+03  0.47000000000E+01 0. -1.
         -5    1    3    3    0  502 -0.16557882081E+02 -0.27885632228E+02  0.10709346221E+02  0.34475383105E+02  0.47000000000E+01 0. -1.
        -11    1    1    2    0    0 -0.90897667511E+02 -0.25917576321E+02 -0.22050585780E+03  0.23991027499E+03  0.00000000000E+00 0. -1.
         11    1    1    2    0    0 -0.42120436926E+02  0.54903312335E+02 -0.13838970726E+03  0.15472626147E+03  0.00000000000E+00 0.  1.
<mgrwt>
<rscale>  0 0.17940048E+03</rscale>
<asrwt>0</asrwt>
<pdfrwt beam="1">  1        1 0.16660302E-01 0.18480773E+03</pdfrwt>
<pdfrwt beam="2">  1       -1 0.72491655E-01 0.18480773E+03</pdfrwt>
<totfact> 0.64759837E+02</totfact>
</mgrwt>
</event>
<event>
 7    1  0.6419647E-006  0.2007538E+03  0.7546771E-02  0.1153825E+00
          2   -1    0    0  501    0  0.00000000000E+00  0.00000000000E+00  0.97822284323E+02  0.97822284323E+02  0.00000000000E+00 0. -1.
         -2   -1    0    0    0  501 -0.00000000000E+00 -0.00000000000E+00 -0.38070916245E+03  0.38070916245E+03  0.00000000000E+00 0.  1.
         23    2    1    2    0    0  0.14754461730E+02 -0.15639080467E+03 -0.10837607482E+03  0.22813910507E+03  0.12500519885E+03 0.  0.
          5    1    3    3  502    0  0.61877403742E+02 -0.36862392746E+02 -0.39905191873E+02  0.82475229198E+02  0.47000000000E+01 0. -1.
         -5    1    3    3    0  502 -0.47122942012E+02 -0.11952841192E+03 -0.68470882950E+02  0.14566387587E+03  0.47000000000E+01 0. -1.
        -11    1    1    2    0    0  0.30033710213E+02  0.72597255368E+02 -0.47611066972E+02  0.91865112716E+02  0.00000000000E+00 0.  1.
         11    1    1    2    0    0 -0.44788171942E+02  0.83793549303E+02 -0.12689973633E+03  0.15852722899E+03  0.00000000000E+00 0. -1.
<mgrwt>
<rscale>  0 0.19523202E+03</rscale>
<asrwt>0</asrwt>
<pdfrwt beam="1">  1        2 0.15049582E-01 0.20075377E+03</pdfrwt>
<pdfrwt beam="2">  1       -2 0.58570641E-01 0.20075377E+03</pdfrwt>
<totfact> 0.10701852E+03</totfact>
</mgrwt>
</event>
<event>
 7    1  0.6419647E-006  0.2225707E+03  0.7546771E-02  0.1135322E+00
         -1   -1    0    0    0  501 -0.00000000000E+00  0.00000000000E+00  0.68018921894E+03  0.68018921894E+03  0.00000000000E+00 0.  1.
          1   -1    0    0  501    0  0.00000000000E+00 -0.00000000000E+00 -0.67424035348E+02  0.67424035348E+02  0.00000000000E+00 0. -1.
         23    2    1    2    0    0 -0.16454041463E+03  0.82724005120E+02  0.29926134400E+03  0.37295454059E+03  0.12498371199E+03 0.  0.
          5    1    3    3  502    0  0.79713732535E+01  0.44088824142E+02  0.72975255818E+02  0.85760393932E+02  0.47000000000E+01 0.  1.
         -5    1    3    3    0  502 -0.17251178788E+03  0.38635180978E+02  0.22628608819E+03  0.28719414666E+03  0.47000000000E+01 0.  1.
        -11    1    1    2    0    0  0.81448520799E+02 -0.23468245742E+02  0.67599284283E+02  0.10841717269E+03  0.00000000000E+00 0. -1.
         11    1    1    2    0    0  0.83091893828E+02 -0.59255759378E+02  0.24590455531E+03  0.26624154101E+03  0.00000000000E+00 0.  1.
<mgrwt>
<rscale>  0 0.21808024E+03</rscale>
<asrwt>0</asrwt>
<pdfrwt beam="2">  1        1 0.10372929E-01 0.22257075E+03</pdfrwt>
<pdfrwt beam="1">  1       -1 0.10464449E+00 0.22257075E+03</pdfrwt>
<totfact> 0.55545769E+02</totfact>
</mgrwt>
</event>
<event>
 7    1  0.6419647E-006  0.1963716E+03  0.7546771E-02  0.1157253E+00
         -1   -1    0    0    0  501 -0.00000000000E+00  0.00000000000E+00  0.12807322061E+03  0.12807322061E+03  0.00000000000E+00 0.  1.
          1   -1    0    0  501    0  0.00000000000E+00 -0.00000000000E+00 -0.27806513160E+03  0.27806513160E+03  0.00000000000E+00 0. -1.
         23    2    1    2    0    0  0.14330139524E+03 -0.49014007860E+02 -0.49248507071E+02  0.20245300410E+03  0.12499656225E+03 0.  0.
          5    1    3    3  502    0  0.50152196133E+02  0.41354309890E+02 -0.54529819241E+01  0.65400663111E+02  0.47000000000E+01 0. -1.
         -5    1    3    3    0  502  0.93149199106E+02 -0.90368317750E+02 -0.43795525147E+02  0.13705234099E+03  0.47000000000E+01 0. -1.
        -11    1    1    2    0    0 -0.45065680366E+02  0.81819338887E+01 -0.84436148863E+02  0.96058954938E+02  0.00000000000E+00 0. -1.
         11    1    1    2    0    0 -0.98235714873E+02  0.40832073971E+02 -0.16307255052E+02  0.10762639318E+03  0.00000000000E+00 0.  1.
<mgrwt>
<rscale>  0 0.19134572E+03</rscale>
<asrwt>0</asrwt>
<pdfrwt beam="2">  1        1 0.42779251E-01 0.19637160E+03</pdfrwt>
<pdfrwt beam="1">  1       -1 0.19703573E-01 0.19637160E+03</pdfrwt>
<totfact> 0.19727980E+03</totfact>
</mgrwt>
</event>
<event>
 7    1  0.6419647E-006  0.1372307E+03  0.7546771E-02  0.1228896E+00
          1   -1    0    0  501    0  0.00000000000E+00  0.00000000000E+00  0.31575122517E+02  0.31575122517E+02  0.00000000000E+00 0. -1.
         -1   -1    0    0    0  501 -0.00000000000E+00 -0.00000000000E+00 -0.47455066133E+03  0.47455066133E+03  0.00000000000E+00 0.  1.
         23    2    1    2    0    0 -0.55660183638E+02 -0.10438191305E+02 -0.26139729034E+03  0.29523010161E+03  0.12500103048E+03 0.  0.
          5    1    3    3  502    0 -0.29134702240E+02 -0.65251406173E+02 -0.17795169606E+03  0.19182146129E+03  0.47000000000E+01 0.  1.
         -5    1    3    3    0  502 -0.26525481397E+02  0.54813214868E+02 -0.83445594276E+02  0.10340864031E+03  0.47000000000E+01 0.  1.
        -11    1    1    2    0    0  0.37863122545E+02  0.41994221071E+02 -0.53681908584E+02  0.77967159506E+02  0.00000000000E+00 0. -1.
         11    1    1    2    0    0  0.17797061092E+02 -0.31556029767E+02 -0.12789633989E+03  0.13292852273E+03  0.00000000000E+00 0.  1.
<mgrwt>
<rscale>  0 0.12903443E+03</rscale>
<asrwt>0</asrwt>
<pdfrwt beam="1">  1        1 0.48577113E-02 0.13723072E+03</pdfrwt>
<pdfrwt beam="2">  1       -1 0.73007792E-01 0.13723072E+03</pdfrwt>
<totfact> 0.32854230E+03</totfact>
</mgrwt>
</event>
<event>
 7    1  0.6419647E-006  0.1493181E+03  0.7546771E-02  0.1210465E+00
          3   -1    0    0  501    0  0.00000000000E+00  0.00000000000E+00  0.15850720542E+03  0.15850720542E+03  0.00000000000E+00 0. -1.
         -3   -1    0    0    0  501 -0.00000000000E+00 -0.00000000000E+00 -0.13453703298E+03  0.13453703298E+03  0.00000000000E+00 0.  1.
         23    2    1    2    0    0 -0.18217531573E+02 -0.79590832134E+02  0.66197080567E+02  0.16333385589E+03  0.12501726275E+03 0.  0.
          5    1    3    3  502    0  0.13401819584E+02 -0.34847181933E+02 -0.32911548756E+02  0.49991948335E+02  0.47000000000E+01 0. -1.
         -5    1    3    3    0  502 -0.31619351157E+02 -0.44743650201E+02  0.99108629323E+02  0.11334190755E+03  0.47000000000E+01 0. -1.
        -11    1    1    2    0    0  0.60983587528E+01  0.94802285828E+02 -0.14885753070E+02  0.96157417926E+02  0.00000000000E+00 0. -1.
         11    1    1    2    0    0  0.12119172820E+02 -0.15211453695E+02 -0.27341155050E+02  0.33552964590E+02  0.00000000000E+00 0.  1.
<mgrwt>
<rscale>  0 0.14214983E+03</rscale>
<asrwt>0</asrwt>
<pdfrwt beam="1">  1        3 0.24385724E-01 0.14931810E+03</pdfrwt>
<pdfrwt beam="2">  1       -3 0.20698005E-01 0.14931810E+03</pdfrwt>
<totfact> 0.77793972E+02</totfact>
</mgrwt>
</event>
<event>
 7    1  0.6419647E-006  0.1666074E+03  0.7546771E-02  0.1186197E+00
         -2   -1    0    0    0  501 -0.00000000000E+00  0.00000000000E+00  0.44697828616E+03  0.44697828616E+03  0.00000000000E+00 0.  1.
          2   -1    0    0  501    0  0.00000000000E+00 -0.00000000000E+00 -0.79194859240E+02  0.79194859240E+02  0.00000000000E+00 0. -1.
         23    2    1    2    0    0 -0.50071987241E+01  0.11605100370E+03  0.48539937278E+02  0.17353428504E+03  0.11943665716E+03 0.  0.
          5    1    3    3  502    0 -0.52331729942E+02  0.14568725268E+02  0.16764183318E+02  0.57043716192E+02  0.47000000000E+01 0. -1.
         -5    1    3    3    0  502  0.47324531218E+02  0.10148227843E+03  0.31775753960E+02  0.11649056885E+03  0.47000000000E+01 0.  1.
        -11    1    1    2    0    0  0.29389048672E+02  0.30327156798E+00  0.45132358461E+02  0.53858499197E+02  0.00000000000E+00 0.  1.
         11    1    1    2    0    0 -0.24381849948E+02 -0.11635427527E+03  0.27411113119E+03  0.29878036117E+03  0.00000000000E+00 0. -1.
<mgrwt>
<rscale>  0 0.16223447E+03</rscale>
<asrwt>0</asrwt>
<pdfrwt beam="2">  1        2 0.12183825E-01 0.16660739E+03</pdfrwt>
<pdfrwt beam="1">  1       -2 0.68765889E-01 0.16660739E+03</pdfrwt>
<totfact> 0.97943377E+02</totfact>
</mgrwt>
</event>
<event>
 7    1  0.6419647E-006  0.1565579E+03  0.7546771E-02  0.1200648E+00
          1   -1    0    0  501    0  0.00000000000E+00  0.00000000000E+00  0.21615877267E+04  0.21615877267E+04  0.00000000000E+00 0. -1.
         -1   -1    0    0    0  501 -0.00000000000E+00 -0.00000000000E+00 -0.13675087758E+02  0.13675087758E+02  0.00000000000E+00 0.  1.
         23    2    1    2    0    0  0.24155207586E+01  0.94233460348E+02  0.17323963389E+04  0.17394560834E+04  0.12499844554E+03 0.  0.
          5    1    3    3  502    0 -0.31215459529E+02 -0.10425580521E+02  0.17187856314E+03  0.17506406859E+03  0.47000000000E+01 0.  1.
         -5    1    3    3    0  502  0.33630980288E+02  0.10465904087E+03  0.15605177758E+04  0.15643920148E+04  0.47000000000E+01 0.  1.
        -11    1    1    2    0    0 -0.41293478835E+02 -0.23790662784E+02  0.11012880963E+03  0.11999792391E+03  0.00000000000E+00 0.  1.
         11    1    1    2    0    0  0.38877958077E+02 -0.70442797564E+02  0.30538749039E+03  0.31580880709E+03  0.00000000000E+00 0. -1.
<mgrwt>
<rscale>  0 0.14985787E+03</rscale>
<asrwt>0</asrwt>
<pdfrwt beam="1">  1        1 0.33255169E+00 0.15655795E+03</pdfrwt>
<pdfrwt beam="2">  1       -1 0.21038614E-02 0.15655795E+03</pdfrwt>
<totfact> 0.16955321E+03</totfact>
</mgrwt>
</event>
<event>
 6    1  0.6419647E-006  0.2138880E+03  0.7546771E-02  0.1167248E+00
          2   -1    0    0  501    0  0.00000000000E+00  0.00000000000E+00  0.10034409647E+04  0.10034409647E+04  0.00000000000E+00 0. -1.
         -2   -1    0    0    0  501 -0.00000000000E+00 -0.00000000000E+00 -0.26767032917E+02  0.26767032917E+02  0.00000000000E+00 0.  1.
          5    1    1    2  502    0 -0.32493170668E+02  0.46095859742E+01  0.71079798503E+03  0.71157074135E+03  0.47000000000E+01 0. -1.
         -5    1    1    2    0  502 -0.12974983735E+02 -0.42650365809E+02  0.18586563938E+02  0.48527871018E+02  0.47000000000E+01 0.  1.
        -11    1    1    2    0    0 -0.11533336430E+02 -0.22259291415E+02  0.46002307645E+02  0.52389943808E+02  0.00000000000E+00 0.  1.
         11    1    1    2    0    0  0.57001490833E+02  0.60300071250E+02  0.20128707514E+03  0.21771944141E+03  0.00000000000E+00 0. -1.
<mgrwt>
<rscale>  0 0.18057493E+03</rscale>
<asrwt>0</asrwt>
<pdfrwt beam="1">  1        2 0.15437550E+00 0.21388801E+03</pdfrwt>
<pdfrwt beam="2">  1       -2 0.41180058E-02 0.21388801E+03</pdfrwt>
<totfact> 0.67987198E+03</totfact>
</mgrwt>
</event>
<event>
 7    1  0.6419647E-006  0.1443885E+03  0.7546771E-02  0.1217317E+00
         -3   -1    0    0    0  501 -0.00000000000E+00  0.00000000000E+00  0.24042245629E+03  0.24042245629E+03  0.00000000000E+00 0.  1.
          3   -1    0    0  501    0  0.00000000000E+00 -0.00000000000E+00 -0.20585369945E+03  0.20585369945E+03  0.00000000000E+00 0. -1.
         23    2    1    2    0    0 -0.12404798602E+02  0.72517860719E+02 -0.16222820449E+03  0.21717739333E+03  0.12423892583E+03 0.  0.
          5    1    3    3  502    0 -0.20491753386E+01  0.10138566168E+03 -0.15505733246E+03  0.18533245227E+03  0.47000000000E+01 0. -1.
         -5    1    3    3    0  502 -0.10355623263E+02 -0.28867800963E+02 -0.71708720251E+01  0.31844941062E+02  0.47000000000E+01 0.  1.
        -11    1    1    2    0    0 -0.18342040688E+02 -0.83105585998E+01  0.33853419655E+00  0.20139772746E+02  0.00000000000E+00 0. -1.
         11    1    1    2    0    0  0.30746839290E+02 -0.64207302119E+02  0.19645842713E+03  0.20895898966E+03  0.00000000000E+00 0.  1.
<mgrwt>
<rscale>  0 0.13707733E+03</rscale>
<asrwt>0</asrwt>
<pdfrwt beam="2">  1        3 0.31669800E-01 0.14438847E+03</pdfrwt>
<pdfrwt beam="1">  1       -3 0.36988070E-01 0.14438847E+03</pdfrwt>
<totfact> 0.16527905E+02</totfact>
</mgrwt>
</event>
<event>
 7    1  0.6419647E-006  0.1352619E+03  0.7546771E-02  0.1230565E+00
         -2   -1    0    0    0  501 -0.00000000000E+00  0.00000000000E+00  0.39521143220E+02  0.39521143220E+02  0.00000000000E+00 0.  1.
          2   -1    0    0  501    0  0.00000000000E+00 -0.00000000000E+00 -0.43270787771E+03  0.43270787771E+03  0.00000000000E+00 0. -1.
         23    2    1    2    0    0  0.51128684806E+02 -0.68564534709E+01 -0.30126556498E+03  0.33023735395E+03  0.12503845783E+03 0.  0.
          5    1    3    3  502    0  0.18637786668E+02 -0.62364662787E+02 -0.19811346326E+03  0.20858512071E+03  0.47000000000E+01 0. -1.
         -5    1    3    3    0  502  0.32490898138E+02  0.55508209316E+02 -0.10315210172E+03  0.12165223324E+03  0.47000000000E+01 0. -1.
        -11    1    1    2    0    0 -0.77629390807E+02 -0.68179214219E+01 -0.60358222572E+02  0.98569373548E+02  0.00000000000E+00 0. -1.
         11    1    1    2    0    0  0.26500706002E+02  0.13674374893E+02 -0.31562946934E+02  0.43422293427E+02  0.00000000000E+00 0.  1.
<mgrwt>
<rscale>  0 0.12792664E+03</rscale>
<asrwt>0</asrwt>
<pdfrwt beam="2">  1        2 0.66570444E-01 0.13526185E+03</pdfrwt>
<pdfrwt beam="1">  1       -2 0.60801758E-02 0.13526185E+03</pdfrwt>
<totfact> 0.10081388E+04</totfact>
</mgrwt>
</event>
<event>
 7    1  0.6419647E-006  0.1475114E+03  0.7546771E-02  0.1213249E+00
          2   -1    0    0  501    0  0.00000000000E+00  0.00000000000E+00  0.41141593358E+03  0.41141593358E+03  0.00000000000E+00 0. -1.
         -2   -1    0    0    0  501 -0.00000000000E+00 -0.00000000000E+00 -0.52022683375E+02  0.52022683375E+02  0.00000000000E+00 0.  1.
         23    2    1    2    0    0 -0.19224104144E+02 -0.74916669084E+02  0.28885016452E+03  0.32433630756E+03  0.12560871536E+03 0.  0.
          5    1    3    3  502    0 -0.75884824235E+01  0.21332505422E+02  0.16679940031E+03  0.16839474694E+03  0.47000000000E+01 0. -1.
         -5    1    3    3    0  502 -0.11635621720E+02 -0.96249174506E+02  0.12205076421E+03  0.15594156063E+03  0.47000000000E+01 0. -1.
        -11    1    1    2    0    0  0.32234135061E+02  0.43756653827E+02  0.86183846774E+02  0.10188885936E+03  0.00000000000E+00 0. -1.
         11    1    1    2    0    0 -0.13010030917E+02  0.31160015257E+02 -0.15640761093E+02  0.37213450026E+02  0.00000000000E+00 0.  1.
<mgrwt>
<rscale>  0 0.14005969E+03</rscale>
<asrwt>0</asrwt>
<pdfrwt beam="1">  1        2 0.63294757E-01 0.14751143E+03</pdfrwt>
<pdfrwt beam="2">  1       -2 0.80034900E-02 0.14751143E+03</pdfrwt>
<totfact> 0.70256176E+03</totfact>
</mgrwt>
</event>
<event>
 7    1  0.6419647E-006  0.1296676E+03  0.7546771E-02  0.1248926E+00
         -2   -1    0    0    0  501 -0.00000000000E+00  0.00000000000E+00  0.17191963213E+03  0.17191963213E+03  0.00000000000E+00 0.  1.
          2   -1    0    0  501    0  0.00000000000E+00 -0.00000000000E+00 -0.12544507507E+03  0.12544507507E+03  0.00000000000E+00 0. -1.
         23    2    1    2    0    0 -0.34172422412E+02 -0.45266402049E+01 -0.74653958036E+02  0.14962248856E+03  0.12500172282E+03 0.  0.
          5    1    3    3  502    0 -0.18346675441E+02 -0.12807957736E+02  0.33137848959E+02  0.40259797748E+02  0.47000000000E+01 0. -1.
         -5    1    3    3    0  502 -0.15825746971E+02  0.82813175311E+01 -0.10779180699E+03  0.10936269082E+03  0.47000000000E+01 0. -1.
        -11    1    1    2    0    0 -0.19287955885E+02  0.16627296894E+02  0.62463841736E+02  0.67455346480E+02  0.00000000000E+00 0.  1.
         11    1    1    2    0    0  0.53460378297E+02 -0.12100656689E+02  0.58664673358E+02  0.80286872153E+02  0.00000000000E+00 0. -1.
<mgrwt>
<rscale>  0 0.11653452E+03</rscale>
<asrwt>0</asrwt>
<pdfrwt beam="2">  1        2 0.19299242E-01 0.12966756E+03</pdfrwt>
<pdfrwt beam="1">  1       -2 0.26449174E-01 0.12966756E+03</pdfrwt>
<totfact> 0.35621174E+03</totfact>
</mgrwt>
</event>
<event>
 7    1  0.6419647E-006  0.1265285E+03  0.7546771E-02  0.1248388E+00
          2   -1    0    0  501    0  0.00000000000E+00  0.00000000000E+00  0.12433379732E+04  0.12433379732E+04  0.00000000000E+00 0. -1.
         -2   -1    0    0    0  501 -0.00000000000E+00 -0.00000000000E+00 -0.97928058124E+01  0.97928058124E+01  0.00000000000E+00 0.  1.
         23    2    1    2    0    0  0.18261724270E+02  0.74327302291E+01  0.79801211201E+03  0.80798068073E+03  0.12498285267E+03 0.  0.
          5    1    3    3  502    0 -0.48299540474E+00  0.40034053941E+02  0.86199499839E+02  0.95159878794E+02  0.47000000000E+01 0.  1.
         -5    1    3    3    0  502  0.18744719674E+02 -0.32601323712E+02  0.71181261217E+03  0.71282080194E+03  0.47000000000E+01 0.  1.
        -11    1    1    2    0    0  0.36610790226E+02 -0.62363436412E+01  0.17838074107E+03  0.18220573736E+03  0.00000000000E+00 0.  1.
         11    1    1    2    0    0 -0.54872514496E+02 -0.11963865878E+01  0.25715231435E+03  0.26294436096E+03  0.00000000000E+00 0. -1.
<mgrwt>
<rscale>  0 0.11684868E+03</rscale>
<asrwt>0</asrwt>
<pdfrwt beam="1">  1        2 0.19128264E+00 0.12652845E+03</pdfrwt>
<pdfrwt beam="2">  1       -2 0.15065865E-02 0.12652845E+03</pdfrwt>
<totfact> 0.21107923E+04</totfact>
</mgrwt>
</event>
<event>
 7    1  0.6419647E-006  0.1263437E+03  0.7546771E-02  0.1251451E+00
         -1   -1    0    0    0  501 -0.00000000000E+00  0.00000000000E+00  0.27535906004E+02  0.27535906004E+02  0.00000000000E+00 0.  1.
          1   -1    0    0  501    0  0.00000000000E+00 -0.00000000000E+00 -0.53061996898E+03  0.53061996898E+03  0.00000000000E+00 0. -1.
         23    2    1    2    0    0  0.18358310880E+02  0.96967493012E+00 -0.41732378488E+03  0.43602967742E+03  0.12499908128E+03 0.  0.
          5    1    3    3  502    0  0.25228841444E+02  0.28403758812E+02 -0.40142711401E+03  0.40324816902E+03  0.47000000000E+01 0.  1.
         -5    1    3    3    0  502 -0.68705305633E+01 -0.27434083882E+02 -0.15896670872E+02  0.32781508407E+02  0.47000000000E+01 0.  1.
        -11    1    1    2    0    0 -0.23302483769E+02 -0.11068308112E+02 -0.10040311016E+03  0.10366435127E+03  0.00000000000E+00 0. -1.
         11    1    1    2    0    0  0.49441728888E+01  0.10098633182E+02  0.14642832062E+02  0.18461846292E+02  0.00000000000E+00 0.  1.
<mgrwt>
<rscale>  0 0.11507484E+03</rscale>
<asrwt>0</asrwt>
<pdfrwt beam="2">  1        1 0.81633843E-01 0.12634373E+03</pdfrwt>
<pdfrwt beam="1">  1       -1 0.42362932E-02 0.12634373E+03</pdfrwt>
<totfact> 0.89392447E+03</totfact>
</mgrwt>
</event>
<event>
 7    1  0.6419647E-006  0.1308102E+03  0.7546771E-02  0.1240256E+00
         -1   -1    0    0    0  501 -0.00000000000E+00  0.00000000000E+00  0.40597629708E+02  0.40597629708E+02  0.00000000000E+00 0.  1.
          1   -1    0    0  501    0  0.00000000000E+00 -0.00000000000E+00 -0.48507708145E+03  0.48507708145E+03  0.00000000000E+00 0. -1.
         23    2    1    2    0    0  0.38505234094E+02  0.20764297484E+01 -0.39435936231E+03  0.41548840988E+03  0.12499738995E+03 0.  0.
          5    1    3    3  502    0 -0.29238163659E+02  0.33223171825E+02 -0.23889105448E+03  0.24300138945E+03  0.47000000000E+01 0. -1.
         -5    1    3    3    0  502  0.67743397754E+02 -0.31146742076E+02 -0.15546830782E+03  0.17248702044E+03  0.47000000000E+01 0. -1.
        -11    1    1    2    0    0 -0.10542511584E+02  0.87184548957E+01 -0.71864932500E+02  0.73155481883E+02  0.00000000000E+00 0. -1.
         11    1    1    2    0    0 -0.27962722510E+02 -0.10794884644E+02  0.21744843069E+02  0.37030819391E+02  0.00000000000E+00 0.  1.
<mgrwt>
<rscale>  0 0.12173876E+03</rscale>
<asrwt>0</asrwt>
<pdfrwt beam="2">  1        1 0.74627243E-01 0.13081021E+03</pdfrwt>
<pdfrwt beam="1">  1       -1 0.62457892E-02 0.13081021E+03</pdfrwt>
<totfact> 0.56725771E+03</totfact>
</mgrwt>
</event>
<event>
 7    1  0.6419647E-006  0.1822180E+03  0.7546771E-02  0.1171199E+00
          2   -1    0    0  501    0  0.00000000000E+00  0.00000000000E+00  0.56646195787E+03  0.56646195787E+03  0.00000000000E+00 0. -1.
         -2   -1    0    0    0  501 -0.00000000000E+00 -0.00000000000E+00 -0.61118841521E+02  0.61118841521E+02  0.00000000000E+00 0.  1.
         23    2    1    2    0    0 -0.76504459936E+02 -0.10827417092E+03  0.38824786423E+03  0.42888202137E+03  0.12500862248E+03 0.  0.
          5    1    3    3  502    0 -0.51992648655E+01 -0.56867701529E+01  0.21523640982E+03  0.21542556445E+03  0.47000000000E+01 0.  1.
         -5    1    3    3    0  502 -0.71305195071E+02 -0.10258740076E+03  0.17301145441E+03  0.21345645691E+03  0.47000000000E+01 0.  1.
        -11    1    1    2    0    0  0.36254083741E+02  0.54177907866E+02  0.11385081992E+03  0.13119303901E+03  0.00000000000E+00 0.  1.
         11    1    1    2    0    0  0.40250376196E+02  0.54096263052E+02  0.32444322066E+01  0.67505739018E+02  0.00000000000E+00 0. -1.
<mgrwt>
<rscale>  0 0.17653568E+03</rscale>
<asrwt>0</asrwt>
<pdfrwt beam="1">  1        2 0.87147990E-01 0.18221796E+03</pdfrwt>
<pdfrwt beam="2">  1       -2 0.94028991E-02 0.18221796E+03</pdfrwt>
<totfact> 0.38813089E+03</totfact>
</mgrwt>
</event>
<event>
 7    1  0.6419647E-006  0.1356641E+03  0.7546771E-02  0.1231872E+00
          2   -1    0    0  501    0  0.00000000000E+00  0.00000000000E+00  0.21651541112E+03  0.21651541112E+03  0.00000000000E+00 0. -1.
         -2   -1    0    0    0  501 -0.00000000000E+00 -0.00000000000E+00 -0.66728358356E+02  0.66728358356E+02  0.00000000000E+00 0.  1.
         23    2    1    2    0    0 -0.50251510814E+02  0.15947082432E+02  0.77365579039E+02  0.15617357574E+03  0.12500091664E+03 0.  0.
          5    1    3    3  502    0  0.15681130922E+02  0.26246745010E+02 -0.20875340037E+02  0.37318350878E+02  0.47000000000E+01 0. -1.
         -5    1    3    3    0  502 -0.65932641735E+02 -0.10299662578E+02  0.98240919076E+02  0.11885522486E+03  0.47000000000E+01 0. -1.
        -11    1    1    2    0    0  0.57021976988E+01  0.21565026065E+02 -0.11362310117E+02  0.25033327764E+02  0.00000000000E+00 0.  1.
         11    1    1    2    0    0  0.44549313115E+02 -0.37512108496E+02  0.83783783837E+02  0.10203686597E+03  0.00000000000E+00 0. -1.
<mgrwt>
<rscale>  0 0.12706819E+03</rscale>
<asrwt>0</asrwt>
<pdfrwt beam="1">  1        2 0.33310063E-01 0.13566412E+03</pdfrwt>
<pdfrwt beam="2">  1       -2 0.10265901E-01 0.13566412E+03</pdfrwt>
<totfact> 0.93880624E+03</totfact>
</mgrwt>
</event>
<event>
 7    1  0.6419647E-006  0.3067341E+03  0.7546771E-02  0.1082964E+00
         -2   -1    0    0    0  501 -0.00000000000E+00  0.00000000000E+00  0.15692287696E+03  0.15692287696E+03  0.00000000000E+00 0.  1.
          2   -1    0    0  501    0  0.00000000000E+00 -0.00000000000E+00 -0.61183666870E+03  0.61183666870E+03  0.00000000000E+00 0. -1.
         23    2    1    2    0    0  0.24840806442E+03  0.13719123792E+03 -0.31369912625E+03  0.43874018797E+03  0.11643800282E+03 0.  0.
          5    1    3    3  502    0  0.18427771297E+03  0.92304293728E+02 -0.29187681569E+03  0.35734090680E+03  0.47000000000E+01 0. -1.
         -5    1    3    3    0  502  0.64130351458E+02  0.44886944190E+02 -0.21822310557E+02  0.81399281169E+02  0.47000000000E+01 0.  1.
        -11    1    1    2    0    0 -0.32463334891E+02 -0.31719684055E+02 -0.62278159104E+02  0.77062153942E+02  0.00000000000E+00 0. -1.
         11    1    1    2    0    0 -0.21594472953E+03 -0.10547155386E+03 -0.78936506389E+02  0.25295720375E+03  0.00000000000E+00 0.  1.
<mgrwt>
<rscale>  0 0.30459848E+03</rscale>
<asrwt>0</asrwt>
<pdfrwt beam="2">  1        2 0.94128717E-01 0.30673410E+03</pdfrwt>
<pdfrwt beam="1">  1       -2 0.24141981E-01 0.30673410E+03</pdfrwt>
<totfact> 0.74786886E+02</totfact>
</mgrwt>
</event>
<event>
 6    1  0.6419647E-006  0.1666785E+03  0.7546771E-02  0.1203786E+00
          1   -1    0    0  501    0  0.00000000000E+00  0.00000000000E+00  0.35895557214E+02  0.35895557214E+02  0.00000000000E+00 0. -1.
         -1   -1    0    0    0  501 -0.00000000000E+00 -0.00000000000E+00 -0.50195402682E+03  0.50195402682E+03  0.00000000000E+00 0.  1.
          5    1    1    2  502    0  0.15394509844E+02  0.47439258207E+01  0.16521110609E+02  0.23548521425E+02  0.47000000000E+01 0. -1.
         -5    1    1    2    0  502 -0.53580833790E+02  0.11080695330E+02 -0.30261781298E+03  0.30756026774E+03  0.47000000000E+01 0.  1.
        -11    1    1    2    0    0  0.32691517874E+02 -0.45007777096E+02 -0.54733370556E+02  0.78039587342E+02  0.00000000000E+00 0. -1.
         11    1    1    2    0    0  0.54948060723E+01  0.29183155945E+02 -0.12522839668E+03  0.12870120753E+03  0.00000000000E+00 0.  1.
<mgrwt>
<rscale>  0 0.14733505E+03</rscale>
<asrwt>0</asrwt>
<pdfrwt beam="1">  1        1 0.55223936E-02 0.16667845E+03</pdfrwt>
<pdfrwt beam="2">  1       -1 0.77223694E-01 0.16667845E+03</pdfrwt>
<totfact> 0.24866843E+03</totfact>
</mgrwt>
</event>
<event>
 7    1  0.6419647E-006  0.1383606E+03  0.7546771E-02  0.1227988E+00
          2   -1    0    0  501    0  0.00000000000E+00  0.00000000000E+00  0.58037860367E+02  0.58037860367E+02  0.00000000000E+00 0. -1.
         -2   -1    0    0    0  501 -0.00000000000E+00 -0.00000000000E+00 -0.25857931577E+03  0.25857931577E+03  0.00000000000E+00 0.  1.
         23    2    1    2    0    0  0.56186377355E+02 -0.19011377229E+02 -0.11254931029E+03  0.17835643032E+03  0.12500131010E+03 0.  0.
          5    1    3    3  502    0 -0.39956298050E+02 -0.97453246502E+01 -0.28785435029E+02  0.50419920430E+02  0.47000000000E+01 0. -1.
         -5    1    3    3    0  502  0.96142675405E+02 -0.92660525785E+01 -0.83763875259E+02  0.12793650989E+03  0.47000000000E+01 0. -1.
        -11    1    1    2    0    0  0.55800081897E+00  0.43592218249E+02 -0.46789461844E+02  0.63951908465E+02  0.00000000000E+00 0.  1.
         11    1    1    2    0    0 -0.56744378174E+02 -0.24580841020E+02 -0.41202683272E+02  0.74308837351E+02  0.00000000000E+00 0. -1.
<mgrwt>
<rscale>  0 0.12964203E+03</rscale>
<asrwt>0</asrwt>
<pdfrwt beam="1">  1        2 0.89289017E-02 0.13836065E+03</pdfrwt>
<pdfrwt beam="2">  1       -2 0.39781433E-01 0.13836065E+03</pdfrwt>
<totfact> 0.42486727E+03</totfact>
</mgrwt>
</event>
<event>
 6    1  0.6419647E-006  0.2993739E+03  0.7546771E-02  0.1085554E+00
          2   -1    0    0  501    0  0.00000000000E+00  0.00000000000E+00  0.79725758531E+03  0.79725758531E+03  0.00000000000E+00 0.  1.
         -2   -1    0    0    0  501 -0.00000000000E+00 -0.00000000000E+00 -0.28104060989E+02  0.28104060989E+02  0.00000000000E+00 0. -1.
          5    1    1    2  502    0 -0.60579411626E+02  0.73795474021E+02  0.51041143606E+03  0.51928562580E+03  0.47000000000E+01 0.  1.
         -5    1    1    2    0  502 -0.43136082391E+01 -0.66912811204E+01 -0.63444058201E+01  0.11212579734E+02  0.47000000000E+01 0. -1.
        -11    1    1    2    0    0  0.16239871528E+02 -0.77485077928E+02  0.15452125516E+03  0.17362168362E+03  0.00000000000E+00 0.  1.
         11    1    1    2    0    0  0.48653148337E+02  0.10380885027E+02  0.11056523892E+03  0.12124175714E+03  0.00000000000E+00 0. -1.
<mgrwt>
<rscale>  0 0.29937385E+03</rscale>
<asrwt>0</asrwt>
<pdfrwt beam="1">  1        2 0.12265500E+00 0.29937385E+03</pdfrwt>
<pdfrwt beam="2">  1       -2 0.43237023E-02 0.29937385E+03</pdfrwt>
<totfact> 0.87061449E+03</totfact>
</mgrwt>
</event>
<event>
 7    1  0.6419647E-006  0.2485329E+03  0.7546771E-02  0.1117850E+00
         -2   -1    0    0    0  501 -0.00000000000E+00  0.00000000000E+00  0.85170109342E+02  0.85170109342E+02  0.00000000000E+00 0.  1.
          2   -1    0    0  501    0  0.00000000000E+00 -0.00000000000E+00 -0.85759592975E+03  0.85759592975E+03  0.00000000000E+00 0. -1.
         23    2    1    2    0    0 -0.18406531319E+03 -0.11068028455E+03 -0.62388770625E+03  0.67156865476E+03  0.12505368101E+03 0.  0.
          5    1    3    3  502    0 -0.11129605989E+03 -0.66347781235E+02 -0.52581397752E+03  0.54156372661E+03  0.47000000000E+01 0.  1.
         -5    1    3    3    0  502 -0.72769253303E+02 -0.44332503313E+02 -0.98073728732E+02  0.13000492815E+03  0.47000000000E+01 0.  1.
        -11    1    1    2    0    0  0.11885889115E+03  0.32344115366E+02 -0.98129430972E+02  0.15748956482E+03  0.00000000000E+00 0. -1.
         11    1    1    2    0    0  0.65206422036E+02  0.78336169182E+02 -0.50408683180E+02  0.11370781951E+03  0.00000000000E+00 0.  1.
<mgrwt>
<rscale>  0 0.24293908E+03</rscale>
<asrwt>0</asrwt>
<pdfrwt beam="2">  1        2 0.13193784E+00 0.24853287E+03</pdfrwt>
<pdfrwt beam="1">  1       -2 0.13103094E-01 0.24853287E+03</pdfrwt>
<totfact> 0.13877646E+03</totfact>
</mgrwt>
</event>
<event>
 7    1  0.6419647E-006  0.1394580E+03  0.7546771E-02  0.1225317E+00
          1   -1    0    0  501    0  0.00000000000E+00  0.00000000000E+00  0.24213133816E+03  0.24213133816E+03  0.00000000000E+00 0. -1.
         -1   -1    0    0    0  501 -0.00000000000E+00 -0.00000000000E+00 -0.79554526407E+02  0.79554526407E+02  0.00000000000E+00 0.  1.
         23    2    1    2    0    0  0.30140625083E+02 -0.53992617239E+02  0.15906568614E+03  0.21154297501E+03  0.12499951109E+03 0.  0.
          5    1    3    3  502    0  0.17139322940E+01  0.31365708793E+02  0.37399728325E+01  0.31981598597E+02  0.47000000000E+01 0.  1.
         -5    1    3    3    0  502  0.28426692789E+02 -0.85358326032E+02  0.15532571330E+03  0.17956137641E+03  0.47000000000E+01 0.  1.
        -11    1    1    2    0    0 -0.32771037118E+02 -0.91942356128E+01 -0.23514087125E+02  0.41368915089E+02  0.00000000000E+00 0.  1.
         11    1    1    2    0    0  0.26304120355E+01  0.63186852851E+02  0.27025212743E+02  0.68773974471E+02  0.00000000000E+00 0. -1.
<mgrwt>
<rscale>  0 0.13145180E+03</rscale>
<asrwt>0</asrwt>
<pdfrwt beam="1">  1        1 0.37250975E-01 0.13945801E+03</pdfrwt>
<pdfrwt beam="2">  1       -1 0.12239158E-01 0.13945801E+03</pdfrwt>
<totfact> 0.48999152E+03</totfact>
</mgrwt>
</event>
<event>
 6    1  0.6419647E-006  0.4679044E+03  0.7546771E-02  0.1023269E+00
         -2   -1    0    0    0  501 -0.00000000000E+00  0.00000000000E+00  0.42341514207E+03  0.42341514207E+03  0.00000000000E+00 0.  1.
          2   -1    0    0  501    0  0.00000000000E+00 -0.00000000000E+00 -0.18431684787E+04  0.18431684787E+04  0.00000000000E+00 0. -1.
          5    1    1    2  502    0  0.60230340761E+02 -0.36184382663E+03 -0.14266779585E+04  0.14730888418E+04  0.47000000000E+01 0. -1.
         -5    1    1    2    0  502  0.66755707806E+02 -0.68360581977E+02 -0.25085221395E+03  0.26847423887E+03  0.47000000000E+01 0.  1.
        -11    1    1    2    0    0 -0.13451915067E+03  0.38925107880E+03  0.25241232566E+03  0.48303600941E+03  0.00000000000E+00 0.  1.
         11    1    1    2    0    0  0.75331021035E+01  0.40953329802E+02  0.53645100774E+01  0.41984530693E+02  0.00000000000E+00 0. -1.
<mgrwt>
<rscale>  0 0.46525111E+03</rscale>
<asrwt>0</asrwt>
<pdfrwt beam="2">  1        2 0.28356438E+00 0.46790435E+03</pdfrwt>
<pdfrwt beam="1">  1       -2 0.65140792E-01 0.46790435E+03</pdfrwt>
<totfact> 0.19196592E+01</totfact>
</mgrwt>
</event>
<event>
 7    1  0.6419647E-006  0.1183524E+03  0.7546771E-02  0.1256593E+00
          4   -1    0    0  501    0  0.00000000000E+00  0.00000000000E+00  0.45307969067E+02  0.45307969067E+02  0.00000000000E+00 0. -1.
         -4   -1    0    0    0  501 -0.00000000000E+00 -0.00000000000E+00 -0.26252269506E+03  0.26252269506E+03  0.00000000000E+00 0.  1.
         23    2    1    2    0    0  0.66885955479E+01  0.27007053141E+02 -0.89662612182E+02  0.14848124241E+03  0.11503554710E+03 0.  0.
          5    1    3    3  502    0  0.41735014178E+02  0.56800723207E+02 -0.65383143893E+02  0.96255800192E+02  0.47000000000E+01 0. -1.
         -5    1    3    3    0  502 -0.35046418630E+02 -0.29793670067E+02 -0.24279468290E+02  0.52225442222E+02  0.47000000000E+01 0.  1.
        -11    1    1    2    0    0  0.24170336616E+02 -0.37377134452E+00  0.12951824866E+01  0.24207899017E+02  0.00000000000E+00 0. -1.
         11    1    1    2    0    0 -0.30858932163E+02 -0.26633281796E+02 -0.12884729630E+03  0.13514152270E+03  0.00000000000E+00 0.  1.
<mgrwt>
<rscale>  0 0.11217556E+03</rscale>
<asrwt>0</asrwt>
<pdfrwt beam="1">  1        4 0.69704568E-02 0.11835242E+03</pdfrwt>
<pdfrwt beam="2">  1       -4 0.40388107E-01 0.11835242E+03</pdfrwt>
<totfact> 0.13239970E+03</totfact>
</mgrwt>
</event>
<event>
 7    1  0.6419647E-006  0.1291600E+03  0.7546771E-02  0.1242786E+00
          2   -1    0    0  501    0  0.00000000000E+00  0.00000000000E+00  0.18332772558E+04  0.18332772558E+04  0.00000000000E+00 0. -1.
         -2   -1    0    0    0  501 -0.00000000000E+00 -0.00000000000E+00 -0.88732531471E+01  0.88732531471E+01  0.00000000000E+00 0.  1.
         23    2    1    2    0    0 -0.32432301804E+02 -0.21134903272E+01  0.14382555933E+04  0.14440434434E+04  0.12500397464E+03 0.  0.
          5    1    3    3  502    0  0.51404235249E+00 -0.56152870898E+02  0.41317438933E+03  0.41699949059E+03  0.47000000000E+01 0.  1.
         -5    1    3    3    0  502 -0.32946344156E+02  0.54039380570E+02  0.10250812039E+04  0.10270439528E+04  0.47000000000E+01 0.  1.
        -11    1    1    2    0    0  0.15844555085E+02  0.43724759565E+02  0.26264409396E+03  0.26672987200E+03  0.00000000000E+00 0. -1.
         11    1    1    2    0    0  0.16587746718E+02 -0.41611269238E+02  0.12350431542E+03  0.13137719359E+03  0.00000000000E+00 0.  1.
<mgrwt>
<rscale>  0 0.12018869E+03</rscale>
<asrwt>0</asrwt>
<pdfrwt beam="1">  1        2 0.28204235E+00 0.12916004E+03</pdfrwt>
<pdfrwt beam="2">  1       -2 0.13651173E-02 0.12916004E+03</pdfrwt>
<totfact> 0.12009249E+04</totfact>
</mgrwt>
</event>
<event>
 7    1  0.6419647E-006  0.1453251E+03  0.7546771E-02  0.1216355E+00
          1   -1    0    0  501    0  0.00000000000E+00  0.00000000000E+00  0.12792204980E+03  0.12792204980E+03  0.00000000000E+00 0. -1.
         -1   -1    0    0    0  501 -0.00000000000E+00 -0.00000000000E+00 -0.14035471180E+03  0.14035471180E+03  0.00000000000E+00 0.  1.
         23    2    1    2    0    0  0.24667091252E+02 -0.70181981824E+02 -0.33170566845E+02  0.14906265755E+03  0.12484155321E+03 0.  0.
          5    1    3    3  502    0  0.69072453171E+02 -0.17258771015E+02 -0.35675749307E+02  0.79772915533E+02  0.47000000000E+01 0. -1.
         -5    1    3    3    0  502 -0.44405361919E+02 -0.52923210810E+02  0.25051824611E+01  0.69289742017E+02  0.47000000000E+01 0. -1.
        -11    1    1    2    0    0  0.16497267557E+02 -0.51560363898E+01  0.28162079671E+02  0.33043112436E+02  0.00000000000E+00 0. -1.
         11    1    1    2    0    0 -0.41164358809E+02  0.75338018214E+02 -0.74241748308E+01  0.86170991619E+02  0.00000000000E+00 0.  1.
<mgrwt>
<rscale>  0 0.13777465E+03</rscale>
<asrwt>0</asrwt>
<pdfrwt beam="1">  1        1 0.19680315E-01 0.14532512E+03</pdfrwt>
<pdfrwt beam="2">  1       -1 0.21593033E-01 0.14532512E+03</pdfrwt>
<totfact> 0.44550725E+03</totfact>
</mgrwt>
</event>
<event>
 7    1  0.6419647E-006  0.2295963E+03  0.7546771E-02  0.1130065E+00
         -2   -1    0    0    0  501 -0.00000000000E+00  0.00000000000E+00  0.10307527514E+03  0.10307527514E+03  0.00000000000E+00 0. -1.
          2   -1    0    0  501    0  0.00000000000E+00 -0.00000000000E+00 -0.52563281970E+03  0.52563281970E+03  0.00000000000E+00 0.  1.
         23    2    1    2    0    0 -0.11510524322E+03  0.15440783359E+03 -0.31703788258E+03  0.39144283657E+03  0.12499391672E+03 0.  0.
          5    1    3    3  502    0 -0.32864952451E+02  0.10047363097E+02 -0.15673103463E+03  0.16052339960E+03  0.47000000000E+01 0.  1.
         -5    1    3    3    0  502 -0.82240290770E+02  0.14436047050E+03 -0.16030684796E+03  0.23091943697E+03  0.47000000000E+01 0.  1.
        -11    1    1    2    0    0  0.64638516773E+02 -0.13716679551E+03 -0.10407661420E+03  0.18391522304E+03  0.00000000000E+00 0.  1.
         11    1    1    2    0    0  0.50466726448E+02 -0.17241038081E+02 -0.14430477712E+01  0.53350035233E+02  0.00000000000E+00 0. -1.
<mgrwt>
<rscale>  0 0.22520003E+03</rscale>
<asrwt>0</asrwt>
<pdfrwt beam="2">  1        2 0.80866588E-01 0.22959633E+03</pdfrwt>
<pdfrwt beam="1">  1       -2 0.15857735E-01 0.22959633E+03</pdfrwt>
<totfact> 0.18269531E+03</totfact>
</mgrwt>
</event>
<event>
 7    1  0.6419647E-006  0.1844277E+03  0.7546771E-02  0.1168868E+00
         -2   -1    0    0    0  501 -0.00000000000E+00  0.00000000000E+00  0.24776829271E+02  0.24776829271E+02  0.00000000000E+00 0.  1.
          2   -1    0    0  501    0  0.00000000000E+00 -0.00000000000E+00 -0.14795707640E+04  0.14795707640E+04  0.00000000000E+00 0. -1.
         23    2    1    2    0    0 -0.12781709460E+03 -0.45293592566E+02 -0.10783542239E+04  0.10940116171E+04  0.12499946803E+03 0.  0.
          5    1    3    3  502    0 -0.63461557080E+02 -0.81467735711E+01 -0.87681576310E+03  0.87915966216E+03  0.47000000000E+01 0. -1.
         -5    1    3    3    0  502 -0.64355537524E+02 -0.37146818995E+02 -0.20153846075E+03  0.21485195492E+03  0.47000000000E+01 0. -1.
        -11    1    1    2    0    0  0.46692740022E+02  0.27083003240E+02 -0.50358755586E+02  0.73822119310E+02  0.00000000000E+00 0.  1.
         11    1    1    2    0    0  0.81124354582E+02  0.18210589326E+02 -0.32608095533E+03  0.33651385692E+03  0.00000000000E+00 0. -1.
<mgrwt>
<rscale>  0 0.17890398E+03</rscale>
<asrwt>0</asrwt>
<pdfrwt beam="2">  1        2 0.22762632E+00 0.18442773E+03</pdfrwt>
<pdfrwt beam="1">  1       -2 0.38118191E-02 0.18442773E+03</pdfrwt>
<totfact> 0.41145256E+03</totfact>
</mgrwt>
</event>
<event>
 7    1  0.6419647E-006  0.1252236E+03  0.7546771E-02  0.1249523E+00
         -2   -1    0    0    0  501 -0.00000000000E+00  0.00000000000E+00  0.13131968820E+03  0.13131968820E+03  0.00000000000E+00 0.  1.
          2   -1    0    0  501    0  0.00000000000E+00 -0.00000000000E+00 -0.98574740621E+02  0.98574740621E+02  0.00000000000E+00 0. -1.
         23    2    1    2    0    0  0.69214436602E+01 -0.37120863643E+01 -0.13959133080E+02  0.12599927603E+03  0.12497709469E+03 0.  0.
          5    1    3    3  502    0  0.44206705380E+02  0.43730541253E+02 -0.19203182173E+02  0.65249101484E+02  0.47000000000E+01 0. -1.
         -5    1    3    3    0  502 -0.37285261720E+02 -0.47442627617E+02  0.52440490926E+01  0.60750174549E+02  0.47000000000E+01 0. -1.
        -11    1    1    2    0    0  0.29760177460E+02  0.11026713089E+02  0.56877063879E+02  0.65132610569E+02  0.00000000000E+00 0.  1.
         11    1    1    2    0    0 -0.36681621120E+02 -0.73146267243E+01 -0.10172983217E+02  0.38762542224E+02  0.00000000000E+00 0. -1.
<mgrwt>
<rscale>  0 0.11618729E+03</rscale>
<asrwt>0</asrwt>
<pdfrwt beam="2">  1        2 0.15165345E-01 0.12522364E+03</pdfrwt>
<pdfrwt beam="1">  1       -2 0.20203029E-01 0.12522364E+03</pdfrwt>
<totfact> 0.74613595E+03</totfact>
</mgrwt>
</event>
<event>
 7    1  0.6419647E-006  0.1249979E+03  0.7546771E-02  0.1248672E+00
          2   -1    0    0  501    0  0.00000000000E+00  0.00000000000E+00  0.47852507822E+03  0.47852507822E+03  0.00000000000E+00 0.  1.
         -2   -1    0    0    0  501 -0.00000000000E+00 -0.00000000000E+00 -0.63292633509E+02  0.63292633509E+02  0.00000000000E+00 0. -1.
         23    2    1    2    0    0 -0.60601390977E-01  0.16676245820E+00  0.42815761390E+03  0.44603073960E+03  0.12499778736E+03 0.  0.
          5    1    3    3  502    0  0.34034121032E+02  0.25017682594E+02  0.50541233568E+02  0.66035688286E+02  0.47000000000E+01 0. -1.
         -5    1    3    3    0  502 -0.34094722423E+02 -0.24850920136E+02  0.37761638033E+03  0.37999505132E+03  0.47000000000E+01 0. -1.
        -11    1    1    2    0    0  0.17507299445E+02 -0.32245172669E+02  0.24009481372E+02  0.43848738751E+02  0.00000000000E+00 0.  1.
         11    1    1    2    0    0 -0.17446698054E+02  0.32078410211E+02 -0.36934650558E+02  0.51938233379E+02  0.00000000000E+00 0. -1.
<mgrwt>
<rscale>  0 0.11668261E+03</rscale>
<asrwt>0</asrwt>
<pdfrwt beam="1">  1        2 0.73619240E-01 0.12499791E+03</pdfrwt>
<pdfrwt beam="2">  1       -2 0.97373285E-02 0.12499791E+03</pdfrwt>
<totfact> 0.43582603E+03</totfact>
</mgrwt>
</event>
<event>
 7    1  0.6419647E-006  0.1271343E+03  0.7546771E-02  0.1249210E+00
         -2   -1    0    0    0  501 -0.00000000000E+00  0.00000000000E+00  0.16454479309E+02  0.16454479309E+02  0.00000000000E+00 0.  1.
          2   -1    0    0  501    0  0.00000000000E+00 -0.00000000000E+00 -0.71719791322E+03  0.71719791322E+03  0.00000000000E+00 0. -1.
         23    2    1    2    0    0 -0.20862923002E+02 -0.10215550632E+02 -0.37853991881E+03  0.39931892253E+03  0.12499405079E+03 0.  0.
          5    1    3    3  502    0  0.48044209657E+02  0.12422935764E+02 -0.10411944205E+03  0.11543623187E+03  0.47000000000E+01 0. -1.
         -5    1    3    3    0  502 -0.68907132659E+02 -0.22638486396E+02 -0.27442047675E+03  0.28388269067E+03  0.47000000000E+01 0. -1.
        -11    1    1    2    0    0 -0.23444515721E+02 -0.20672219850E+02 -0.16954002768E+03  0.17239723599E+03  0.00000000000E+00 0. -1.
         11    1    1    2    0    0  0.44307438723E+02  0.30887770482E+02 -0.15266348742E+03  0.16193623400E+03  0.00000000000E+00 0.  1.
<mgrwt>
<rscale>  0 0.11636888E+03</rscale>
<asrwt>0</asrwt>
<pdfrwt beam="2">  1        2 0.11033813E+00 0.12713431E+03</pdfrwt>
<pdfrwt beam="1">  1       -2 0.25314586E-02 0.12713431E+03</pdfrwt>
<totfact> 0.20891507E+04</totfact>
</mgrwt>
</event>
<event>
 7    1  0.6419647E-006  0.1250639E+03  0.7546771E-02  0.1242413E+00
          2   -1    0    0  501    0  0.00000000000E+00  0.00000000000E+00  0.49948279092E+03  0.49948279092E+03  0.00000000000E+00 0. -1.
         -2   -1    0    0    0  501 -0.00000000000E+00 -0.00000000000E+00 -0.30238151885E+02  0.30238151885E+02  0.00000000000E+00 0.  1.
         23    2    1    2    0    0  0.52824316727E+01 -0.57721645541E+02  0.33605480016E+03  0.35857190989E+03  0.11082099712E+03 0.  0.
          5    1    3    3  502    0  0.12222795324E+02 -0.42389655683E+02  0.33808236168E+03  0.34098101547E+03  0.47000000000E+01 0. -1.
         -5    1    3    3    0  502 -0.69403636517E+01 -0.15331989858E+02 -0.20275615208E+01  0.17590894416E+02  0.47000000000E+01 0.  1.
        -11    1    1    2    0    0  0.55613252759E-01 -0.22829122831E+02  0.12724578169E+02  0.26135929899E+02  0.00000000000E+00 0. -1.
         11    1    1    2    0    0 -0.53380449254E+01  0.80550768372E+02  0.12046526070E+03  0.14501310301E+03  0.00000000000E+00 0.  1.
<mgrwt>
<rscale>  0 0.12041576E+03</rscale>
<asrwt>0</asrwt>
<pdfrwt beam="1">  1        2 0.76843501E-01 0.12506393E+03</pdfrwt>
<pdfrwt beam="2">  1       -2 0.46520237E-02 0.12506393E+03</pdfrwt>
<totfact> 0.12832816E+04</totfact>
</mgrwt>
</event>
<event>
 7    1  0.6419647E-006  0.2280066E+03  0.7546771E-02  0.1131007E+00
          4   -1    0    0  501    0  0.00000000000E+00  0.00000000000E+00  0.15412707914E+03  0.15412707914E+03  0.00000000000E+00 0. -1.
         -4   -1    0    0    0  501 -0.00000000000E+00 -0.00000000000E+00 -0.40012830501E+03  0.40012830501E+03  0.00000000000E+00 0.  1.
         23    2    1    2    0    0 -0.11966610138E+03 -0.14846687987E+03  0.19441476651E+01  0.22801487407E+03  0.12499845138E+03 0.  0.
          5    1    3    3  502    0  0.10428149131E+02 -0.80114922228E+02  0.28961555409E+01  0.80979162596E+02  0.47000000000E+01 0.  1.
         -5    1    3    3    0  502 -0.13009425051E+03 -0.68351957647E+02 -0.95200787580E+00  0.14703571147E+03  0.47000000000E+01 0.  1.
        -11    1    1    2    0    0  0.52669500918E+02  0.10957899202E+03 -0.20316154452E+03  0.23676200074E+03  0.00000000000E+00 0.  1.
         11    1    1    2    0    0  0.66996600457E+02  0.38887887854E+02 -0.44783829007E+02  0.89478509347E+02  0.00000000000E+00 0. -1.
<mgrwt>
<rscale>  0 0.22390251E+03</rscale>
<asrwt>0</asrwt>
<pdfrwt beam="1">  1        4 0.23711859E-01 0.22800659E+03</pdfrwt>
<pdfrwt beam="2">  1       -4 0.61558200E-01 0.22800659E+03</pdfrwt>
<totfact> 0.74992338E+01</totfact>
</mgrwt>
</event>
<event>
 7    1  0.6419647E-006  0.1474688E+03  0.7546771E-02  0.1214526E+00
         -1   -1    0    0    0  501 -0.00000000000E+00  0.00000000000E+00  0.27945480000E+03  0.27945480000E+03  0.00000000000E+00 0.  1.
          1   -1    0    0  501    0  0.00000000000E+00 -0.00000000000E+00 -0.15946554606E+03  0.15946554606E+03  0.00000000000E+00 0. -1.
         23    2    1    2    0    0  0.70167400133E+02 -0.34617878959E+02 -0.10798237484E+03  0.18277646037E+03  0.12500071841E+03 0.  0.
          5    1    3    3  502    0  0.57221402878E+02 -0.71889017528E+02 -0.32680327803E+02  0.97634080186E+02  0.47000000000E+01 0. -1.
         -5    1    3    3    0  502  0.12945997254E+02  0.37271138569E+02 -0.75302047039E+02  0.85142380184E+02  0.47000000000E+01 0. -1.
        -11    1    1    2    0    0  0.19554544763E+02  0.10659172824E+02  0.28977119572E+02  0.36546841791E+02  0.00000000000E+00 0.  1.
         11    1    1    2    0    0 -0.89721944895E+02  0.23958706134E+02  0.19899450921E+03  0.21959704390E+03  0.00000000000E+00 0. -1.
<mgrwt>
<rscale>  0 0.13911418E+03</rscale>
<asrwt>0</asrwt>
<pdfrwt beam="2">  1        1 0.24533161E-01 0.14746878E+03</pdfrwt>
<pdfrwt beam="1">  1       -1 0.42993046E-01 0.14746878E+03</pdfrwt>
<totfact> 0.10525031E+03</totfact>
</mgrwt>
</event>
<event>
 7    1  0.7178084E-006  0.1588888E+03  0.7546771E-02  0.1198026E+00
         -3   -1    0    0    0  501 -0.00000000000E+00  0.00000000000E+00  0.12804579359E+03  0.12804579359E+03  0.00000000000E+00 0.  1.
          3   -1    0    0  501    0  0.00000000000E+00 -0.00000000000E+00 -0.18690632455E+03  0.18690632455E+03  0.00000000000E+00 0. -1.
         23    2    1    2    0    0  0.81759718436E+02 -0.54182329649E+02 -0.83643064017E+02  0.17956001346E+03  0.12500103948E+03 0.  0.
          5    1    3    3  502    0  0.42997017024E+01 -0.31348096932E+02  0.27439462026E+02  0.42145043507E+02  0.47000000000E+01 0.  1.
         -5    1    3    3    0  502  0.77460016734E+02 -0.22834232717E+02 -0.11108252604E+03  0.13741496996E+03  0.47000000000E+01 0.  1.
        -11    1    1    2    0    0 -0.30405227547E+02  0.62761986216E+02  0.40950549148E+02  0.80873309884E+02  0.00000000000E+00 0.  1.
         11    1    1    2    0    0 -0.51354490889E+02 -0.85796565671E+01 -0.16168016090E+02  0.54518794792E+02  0.00000000000E+00 0. -1.
<mgrwt>
<rscale>  0 0.15200861E+03</rscale>
<asrwt>0</asrwt>
<pdfrwt beam="2">  1        3 0.28754819E-01 0.15888875E+03</pdfrwt>
<pdfrwt beam="1">  1       -3 0.19699353E-01 0.15888875E+03</pdfrwt>
<totfact> 0.63422000E+02</totfact>
</mgrwt>
</event>
<event>
 7    1  0.6419647E-006  0.1512618E+03  0.7546771E-02  0.1207534E+00
         -2   -1    0    0    0  501 -0.00000000000E+00  0.00000000000E+00  0.19861829962E+02  0.19861829962E+02  0.00000000000E+00 0.  1.
          2   -1    0    0  501    0  0.00000000000E+00 -0.00000000000E+00 -0.10337753623E+04  0.10337753623E+04  0.00000000000E+00 0. -1.
         23    2    1    2    0    0 -0.43102111272E+02  0.73470884715E+02 -0.68624112677E+03  0.70271403908E+03  0.12499749498E+03 0.  0.
          5    1    3    3  502    0 -0.28793952914E+02  0.74177766292E+01 -0.54738462338E+03  0.54821175749E+03  0.47000000000E+01 0. -1.
         -5    1    3    3    0  502 -0.14308158358E+02  0.66053108086E+02 -0.13885650339E+03  0.15450228159E+03  0.47000000000E+01 0. -1.
        -11    1    1    2    0    0  0.70514930480E+02 -0.42996945653E+02 -0.24686924490E+03  0.26031810700E+03  0.00000000000E+00 0. -1.
         11    1    1    2    0    0 -0.27412819208E+02 -0.30473939062E+02 -0.80803160644E+02  0.90605046156E+02  0.00000000000E+00 0.  1.
<mgrwt>
<rscale>  0 0.14439527E+03</rscale>
<asrwt>0</asrwt>
<pdfrwt beam="2">  1        2 0.15904239E+00 0.15126181E+03</pdfrwt>
<pdfrwt beam="1">  1       -2 0.30556656E-02 0.15126181E+03</pdfrwt>
<totfact> 0.10014630E+04</totfact>
</mgrwt>
</event>
<event>
 7    1  0.6419647E-006  0.2055282E+03  0.7546771E-02  0.1149193E+00
         -2   -1    0    0    0  501 -0.00000000000E+00  0.00000000000E+00  0.39338319218E+02  0.39338319218E+02  0.00000000000E+00 0.  1.
          2   -1    0    0  501    0  0.00000000000E+00 -0.00000000000E+00 -0.14161823220E+04  0.14161823220E+04  0.00000000000E+00 0. -1.
         23    2    1    2    0    0  0.15915518331E+03  0.35880120704E+02 -0.11158923824E+04  0.11346619125E+04  0.12499636420E+03 0.  0.
          5    1    3    3  502    0  0.13360184366E+03  0.76364677935E+02 -0.75153646359E+03  0.76714416036E+03  0.47000000000E+01 0.  1.
         -5    1    3    3    0  502  0.25553339647E+02 -0.40484557230E+02 -0.36435591885E+03  0.36751775215E+03  0.47000000000E+01 0.  1.
        -11    1    1    2    0    0 -0.34251844289E+02  0.29916158235E+02 -0.60652032510E+02  0.75807878274E+02  0.00000000000E+00 0.  1.
         11    1    1    2    0    0 -0.12490333902E+03 -0.65796278940E+02 -0.20029958787E+03  0.24505085048E+03  0.00000000000E+00 0. -1.
<mgrwt>
<rscale>  0 0.20064857E+03</rscale>
<asrwt>0</asrwt>
<pdfrwt beam="2">  1        2 0.21787423E+00 0.20552821E+03</pdfrwt>
<pdfrwt beam="1">  1       -2 0.60520484E-02 0.20552821E+03</pdfrwt>
<totfact> 0.22123984E+03</totfact>
</mgrwt>
</event>
<event>
 7    1  0.6419647E-006  0.1266297E+03  0.7546771E-02  0.1245729E+00
          1   -1    0    0  501    0  0.00000000000E+00  0.00000000000E+00  0.66398013974E+03  0.66398013974E+03  0.00000000000E+00 0. -1.
         -1   -1    0    0    0  501 -0.00000000000E+00 -0.00000000000E+00 -0.18805749906E+02  0.18805749906E+02  0.00000000000E+00 0.  1.
         23    2    1    2    0    0 -0.97884477504E+01  0.17710503102E+02  0.36936532286E+03  0.39046871437E+03  0.12500239813E+03 0.  0.
          5    1    3    3  502    0  0.26398131103E+02  0.98283044544E+01  0.11701981267E+02  0.30862327517E+02  0.47000000000E+01 0. -1.
         -5    1    3    3    0  502 -0.36186578854E+02  0.78821986477E+01  0.35766334159E+03  0.35960638685E+03  0.47000000000E+01 0. -1.
        -11    1    1    2    0    0 -0.37138117702E+02  0.14560943858E+02  0.11300275570E+03  0.11983690445E+03  0.00000000000E+00 0. -1.
         11    1    1    2    0    0  0.46926565452E+02 -0.32271446960E+02  0.16280631127E+03  0.17248027083E+03  0.00000000000E+00 0.  1.
<mgrwt>
<rscale>  0 0.11841846E+03</rscale>
<asrwt>0</asrwt>
<pdfrwt beam="1">  1        1 0.10215077E+00 0.12662968E+03</pdfrwt>
<pdfrwt beam="2">  1       -1 0.28931928E-02 0.12662968E+03</pdfrwt>
<totfact> 0.11512564E+04</totfact>
</mgrwt>
</event>
<event>
 7    1  0.6419647E-006  0.1316275E+03  0.7546771E-02  0.1238245E+00
          3   -1    0    0  501    0  0.00000000000E+00  0.00000000000E+00  0.12861273439E+03  0.12861273439E+03  0.00000000000E+00 0. -1.
         -3   -1    0    0    0  501 -0.00000000000E+00 -0.00000000000E+00 -0.10580940796E+03  0.10580940796E+03  0.00000000000E+00 0.  1.
         23    2    1    2    0    0 -0.32280094578E+02 -0.25683045093E+02  0.25406482693E+02  0.13405701380E+03  0.12499668106E+03 0.  0.
          5    1    3    3  502    0 -0.86824672234E+01 -0.58957537354E+02 -0.28555195791E+02  0.66248514358E+02  0.47000000000E+01 0. -1.
         -5    1    3    3    0  502 -0.23597627355E+02  0.33274492261E+02  0.53961678484E+02  0.67808499444E+02  0.47000000000E+01 0. -1.
        -11    1    1    2    0    0  0.51982839636E+02  0.34165355668E+02  0.23573261589E+02  0.66522070071E+02  0.00000000000E+00 0. -1.
         11    1    1    2    0    0 -0.19702745058E+02 -0.84823105745E+01 -0.26176417858E+02  0.33843058482E+02  0.00000000000E+00 0.  1.
<mgrwt>
<rscale>  0 0.12298980E+03</rscale>
<asrwt>0</asrwt>
<pdfrwt beam="1">  1        3 0.19786574E-01 0.13162748E+03</pdfrwt>
<pdfrwt beam="2">  1       -3 0.16278371E-01 0.13162748E+03</pdfrwt>
<totfact> 0.16830485E+03</totfact>
</mgrwt>
</event>
<event>
 7    1  0.6419647E-006  0.1265533E+03  0.7546771E-02  0.1247860E+00
          2   -1    0    0  501    0  0.00000000000E+00  0.00000000000E+00  0.34948012429E+03  0.34948012429E+03  0.00000000000E+00 0. -1.
         -2   -1    0    0    0  501 -0.00000000000E+00 -0.00000000000E+00 -0.36641024986E+02  0.36641024986E+02  0.00000000000E+00 0.  1.
         23    2    1    2    0    0  0.89916751383E+01  0.17638726849E+02  0.22543425294E+03  0.25852727561E+03  0.12499509961E+03 0.  0.
          5    1    3    3  502    0 -0.42346920872E+02  0.45624536979E+02  0.15349648386E+03  0.16570492039E+03  0.47000000000E+01 0. -1.
         -5    1    3    3    0  502  0.51338596010E+02 -0.27985810130E+02  0.71937769075E+02  0.92822355219E+02  0.47000000000E+01 0. -1.
        -11    1    1    2    0    0 -0.17761474660E+01 -0.54746500254E+02  0.57290742351E+02  0.79262621387E+02  0.00000000000E+00 0. -1.
         11    1    1    2    0    0 -0.72155276722E+01  0.37107773405E+02  0.30114104014E+02  0.48331252283E+02  0.00000000000E+00 0.  1.
<mgrwt>
<rscale>  0 0.11715832E+03</rscale>
<asrwt>0</asrwt>
<pdfrwt beam="1">  1        2 0.53766171E-01 0.12655335E+03</pdfrwt>
<pdfrwt beam="2">  1       -2 0.56370810E-02 0.12655335E+03</pdfrwt>
<totfact> 0.14122386E+04</totfact>
</mgrwt>
</event>
<event>
 7    1  0.6419647E-006  0.1282384E+03  0.7546771E-02  0.1244250E+00
         -1   -1    0    0    0  501 -0.00000000000E+00  0.00000000000E+00  0.25224883946E+03  0.25224883946E+03  0.00000000000E+00 0.  1.
          1   -1    0    0  501    0  0.00000000000E+00 -0.00000000000E+00 -0.49996161294E+02  0.49996161294E+02  0.00000000000E+00 0. -1.
         23    2    1    2    0    0  0.96554591680E+01 -0.26953158165E+02  0.12330505181E+03  0.17790229711E+03  0.12500156354E+03 0.  0.
          5    1    3    3  502    0  0.60861141626E+02 -0.25293740293E+02  0.10346052660E+03  0.12276001964E+03  0.47000000000E+01 0.  1.
         -5    1    3    3    0  502 -0.51205682458E+02 -0.16594178719E+01  0.19844525211E+02  0.55142277470E+02  0.47000000000E+01 0.  1.
        -11    1    1    2    0    0  0.35171382524E+02  0.19117134492E+01  0.69362748637E+01  0.35899759135E+02  0.00000000000E+00 0. -1.
         11    1    1    2    0    0 -0.44826841692E+02  0.25041444716E+02  0.72011351497E+02  0.88442944512E+02  0.00000000000E+00 0.  1.
<mgrwt>
<rscale>  0 0.11930381E+03</rscale>
<asrwt>0</asrwt>
<pdfrwt beam="2">  1        1 0.76917172E-02 0.12823842E+03</pdfrwt>
<pdfrwt beam="1">  1       -1 0.38807513E-01 0.12823842E+03</pdfrwt>
<totfact> 0.56653576E+03</totfact>
</mgrwt>
</event>
<event>
 7    1  0.6419647E-006  0.1282951E+03  0.7546771E-02  0.1244233E+00
         -2   -1    0    0    0  501 -0.00000000000E+00  0.00000000000E+00  0.16040545091E+03  0.16040545091E+03  0.00000000000E+00 0.  1.
          2   -1    0    0  501    0  0.00000000000E+00 -0.00000000000E+00 -0.80011197499E+02  0.80011197499E+02  0.00000000000E+00 0. -1.
         23    2    1    2    0    0  0.27666722279E+02 -0.80863012744E+01  0.28925320348E+02  0.13151540019E+03  0.12501516124E+03 0.  0.
          5    1    3    3  502    0 -0.31674698699E+02 -0.15057020928E+02  0.55606823418E+02  0.65910615439E+02  0.47000000000E+01 0. -1.
         -5    1    3    3    0  502  0.59341420978E+02  0.69707196539E+01 -0.26681503070E+02  0.65604784751E+02  0.47000000000E+01 0. -1.
        -11    1    1    2    0    0 -0.55565268593E+02  0.19899226090E+02  0.51910803999E+02  0.78601589326E+02  0.00000000000E+00 0.  1.
         11    1    1    2    0    0  0.27898546314E+02 -0.11812924815E+02 -0.44187093670E+00  0.30299658893E+02  0.00000000000E+00 0. -1.
<mgrwt>
<rscale>  0 0.11931430E+03</rscale>
<asrwt>0</asrwt>
<pdfrwt beam="2">  1        2 0.12309415E-01 0.12829508E+03</pdfrwt>
<pdfrwt beam="1">  1       -2 0.24677762E-01 0.12829508E+03</pdfrwt>
<totfact> 0.67863832E+03</totfact>
</mgrwt>
</event>
<event>
 7    1  0.6419647E-006  0.1251167E+03  0.7546771E-02  0.1250610E+00
          1   -1    0    0  501    0  0.00000000000E+00  0.00000000000E+00  0.24774825279E+03  0.24774825279E+03  0.00000000000E+00 0. -1.
         -1   -1    0    0    0  501 -0.00000000000E+00 -0.00000000000E+00 -0.48917850375E+02  0.48917850375E+02  0.00000000000E+00 0.  1.
         23    2    1    2    0    0 -0.43256477001E+01  0.32241408900E+01  0.14237352512E+03  0.18953735650E+03  0.12500033016E+03 0.  0.
          5    1    3    3  502    0  0.44532157924E+02 -0.27068289387E+02  0.11361909111E+03  0.12508874148E+03  0.47000000000E+01 0.  1.
         -5    1    3    3    0  502 -0.48857805624E+02  0.30292430277E+02  0.28754434011E+02  0.64448615018E+02  0.47000000000E+01 0.  1.
        -11    1    1    2    0    0  0.14659523364E+02 -0.25783030123E+02 -0.13731367186E+02  0.32683584754E+02  0.00000000000E+00 0.  1.
         11    1    1    2    0    0 -0.10333875664E+02  0.22558889233E+02  0.70188244475E+02  0.74445161913E+02  0.00000000000E+00 0. -1.
<mgrwt>
<rscale>  0 0.11555812E+03</rscale>
<asrwt>0</asrwt>
<pdfrwt beam="1">  1        1 0.38115115E-01 0.12511670E+03</pdfrwt>
<pdfrwt beam="2">  1       -1 0.75258232E-02 0.12511670E+03</pdfrwt>
<totfact> 0.99116713E+03</totfact>
</mgrwt>
</event>
<event>
 7    1  0.6419647E-006  0.1488490E+03  0.7546771E-02  0.1212674E+00
          2   -1    0    0  501    0  0.00000000000E+00  0.00000000000E+00  0.85249949094E+03  0.85249949094E+03  0.00000000000E+00 0. -1.
         -2   -1    0    0    0  501 -0.00000000000E+00 -0.00000000000E+00 -0.20918387094E+02  0.20918387094E+02  0.00000000000E+00 0.  1.
         23    2    1    2    0    0 -0.63455413310E+02 -0.50027106209E+02  0.47623624575E+03  0.49895590992E+03  0.12500694961E+03 0.  0.
          5    1    3    3  502    0 -0.80118734198E+00 -0.22121676775E+02  0.38006925493E+03  0.38074235255E+03  0.47000000000E+01 0.  1.
         -5    1    3    3    0  502 -0.62654225968E+02 -0.27905429433E+02  0.96166990822E+02  0.11821355737E+03  0.47000000000E+01 0.  1.
        -11    1    1    2    0    0 -0.17042005085E+02  0.28970733014E+02  0.12903988176E+03  0.13334550759E+03  0.00000000000E+00 0. -1.
         11    1    1    2    0    0  0.80497418395E+02  0.21056373195E+02  0.22630497634E+03  0.24111646053E+03  0.00000000000E+00 0.  1.
<mgrwt>
<rscale>  0 0.14048770E+03</rscale>
<asrwt>0</asrwt>
<pdfrwt beam="1">  1        2 0.13115374E+00 0.14884905E+03</pdfrwt>
<pdfrwt beam="2">  1       -2 0.32182141E-02 0.14884905E+03</pdfrwt>
<totfact> 0.12001638E+04</totfact>
</mgrwt>
</event>
<event>
 7    1  0.6894139E-006  0.1402340E+03  0.7546771E-02  0.1223919E+00
          2   -1    0    0  501    0  0.00000000000E+00  0.00000000000E+00  0.50555026848E+03  0.50555026848E+03  0.00000000000E+00 0. -1.
         -2   -1    0    0    0  501 -0.00000000000E+00 -0.00000000000E+00 -0.31436914085E+02  0.31436914085E+02  0.00000000000E+00 0.  1.
         23    2    1    2    0    0 -0.13613494010E+02  0.62089398250E+02  0.27964480130E+03  0.31283669891E+03  0.12500065878E+03 0.  0.
          5    1    3    3  502    0  0.52111756295E+02  0.34302934877E+02  0.17703818469E+03  0.18776830224E+03  0.47000000000E+01 0.  1.
         -5    1    3    3    0  502 -0.65725250306E+02  0.27786463372E+02  0.10260661660E+03  0.12506839667E+03  0.47000000000E+01 0.  1.
        -11    1    1    2    0    0  0.14442505782E+02 -0.26508096765E+01 -0.53878113926E+01  0.15641012653E+02  0.00000000000E+00 0.  1.
         11    1    1    2    0    0 -0.82901177180E+00 -0.59438588573E+02  0.19985636449E+03  0.20850947101E+03  0.00000000000E+00 0. -1.
<mgrwt>
<rscale>  0 0.13241249E+03</rscale>
<asrwt>0</asrwt>
<pdfrwt beam="1">  1        2 0.77776958E-01 0.14023404E+03</pdfrwt>
<pdfrwt beam="2">  1       -2 0.48364487E-02 0.14023404E+03</pdfrwt>
<totfact> 0.12050944E+04</totfact>
</mgrwt>
</event>
<event>
 7    1  0.6419647E-006  0.1852062E+03  0.7546771E-02  0.1167693E+00
          1   -1    0    0  501    0  0.00000000000E+00  0.00000000000E+00  0.42775387923E+03  0.42775387923E+03  0.00000000000E+00 0. -1.
         -1   -1    0    0    0  501 -0.00000000000E+00 -0.00000000000E+00 -0.75130646690E+02  0.75130646690E+02  0.00000000000E+00 0.  1.
         23    2    1    2    0    0 -0.71151327158E+02  0.11667080199E+03  0.23737734011E+03  0.30108028484E+03  0.12500699551E+03 0.  0.
          5    1    3    3  502    0 -0.60099464376E+02  0.73356201619E+02  0.23787973338E+03  0.25612874788E+03  0.47000000000E+01 0.  1.
         -5    1    3    3    0  502 -0.11051862782E+02  0.43314600368E+02 -0.50239327168E+00  0.44951536959E+02  0.47000000000E+01 0.  1.
        -11    1    1    2    0    0  0.73235888230E+02 -0.65804930866E+02  0.11433844295E+03  0.15088758659E+03  0.00000000000E+00 0. -1.
         11    1    1    2    0    0 -0.20845610719E+01 -0.50865871122E+02  0.90744947576E+00  0.50916654490E+02  0.00000000000E+00 0.  1.
<mgrwt>
<rscale>  0 0.18011349E+03</rscale>
<asrwt>0</asrwt>
<pdfrwt beam="1">  1        1 0.65808288E-01 0.18520620E+03</pdfrwt>
<pdfrwt beam="2">  1       -1 0.11558561E-01 0.18520620E+03</pdfrwt>
<totfact> 0.26591460E+03</totfact>
</mgrwt>
</event>
<event>
 7    1  0.6419647E-006  0.1776863E+03  0.7546771E-02  0.1181736E+00
         -2   -1    0    0    0  501 -0.00000000000E+00  0.00000000000E+00  0.37462131430E+02  0.37462131430E+02  0.00000000000E+00 0.  1.
          2   -1    0    0  501    0  0.00000000000E+00 -0.00000000000E+00 -0.88396569736E+03  0.88396569736E+03  0.00000000000E+00 0. -1.
         23    2    1    2    0    0  0.12626825568E+03 -0.10559574571E+01 -0.69590255252E+03  0.71822891751E+03  0.12501051115E+03 0.  0.
          5    1    3    3  502    0  0.10541371893E+02 -0.48243531073E+02 -0.26233228052E+03  0.26698103718E+03  0.47000000000E+01 0.  1.
         -5    1    3    3    0  502  0.11572688379E+03  0.47187573616E+02 -0.43357027200E+03  0.45124788033E+03  0.47000000000E+01 0.  1.
        -11    1    1    2    0    0 -0.93458187243E+02 -0.22197044650E+02 -0.11033422084E+03  0.14629006064E+03  0.00000000000E+00 0.  1.
         11    1    1    2    0    0 -0.32810068436E+02  0.23253002107E+02 -0.40266792573E+02  0.56908850646E+02  0.00000000000E+00 0. -1.
<mgrwt>
<rscale>  0 0.16632449E+03</rscale>
<asrwt>0</asrwt>
<pdfrwt beam="2">  1        2 0.13599472E+00 0.17768628E+03</pdfrwt>
<pdfrwt beam="1">  1       -2 0.57634048E-02 0.17768628E+03</pdfrwt>
<totfact> 0.48233690E+03</totfact>
</mgrwt>
</event>
<event>
 6    1  0.6419647E-006  0.3735344E+03  0.7546771E-02  0.1053350E+00
         -1   -1    0    0    0  501 -0.00000000000E+00  0.00000000000E+00  0.21089336990E+03  0.21089336990E+03  0.00000000000E+00 0.  1.
          1   -1    0    0  501    0  0.00000000000E+00 -0.00000000000E+00 -0.16540109960E+03  0.16540109960E+03  0.00000000000E+00 0. -1.
          5    1    1    2  502    0 -0.11521467547E+02  0.18002444677E+02 -0.39373655373E+02  0.45046719816E+02  0.47000000000E+01 0. -1.
         -5    1    1    2    0  502  0.14150649811E+03  0.43269368603E+02  0.40969873834E+02  0.15361298067E+03  0.47000000000E+01 0.  1.
        -11    1    1    2    0    0 -0.48809814292E+02 -0.55946572715E+02 -0.16817606331E+02  0.76126531856E+02  0.00000000000E+00 0. -1.
         11    1    1    2    0    0 -0.81175216272E+02 -0.53252405652E+01  0.60713658169E+02  0.10150823716E+03  0.00000000000E+00 0.  1.
<mgrwt>
<rscale>  0 0.37353444E+03</rscale>
<asrwt>0</asrwt>
<pdfrwt beam="2">  1        1 0.25446323E-01 0.37353444E+03</pdfrwt>
<pdfrwt beam="1">  1       -1 0.32445134E-01 0.37353444E+03</pdfrwt>
<totfact> 0.16767816E+03</totfact>
</mgrwt>
</event>
<event>
 7    1  0.6419647E-006  0.1340516E+03  0.7546771E-02  0.1235215E+00
         -2   -1    0    0    0  501 -0.00000000000E+00  0.00000000000E+00  0.29759735058E+03  0.29759735058E+03  0.00000000000E+00 0.  1.
          2   -1    0    0  501    0  0.00000000000E+00 -0.00000000000E+00 -0.93040789850E+02  0.93040789850E+02  0.00000000000E+00 0. -1.
         23    2    1    2    0    0 -0.23325739344E+02 -0.42378553878E+02 -0.28117833040E+02  0.13696881897E+03  0.12501925008E+03 0.  0.
          5    1    3    3  502    0 -0.72011799253E+02 -0.40524262883E+02 -0.29870105060E+02  0.87989932891E+02  0.47000000000E+01 0. -1.
         -5    1    3    3    0  502  0.48686059909E+02 -0.18542909957E+01  0.17522720199E+01  0.48978886082E+02  0.47000000000E+01 0. -1.
        -11    1    1    2    0    0  0.56384136025E+02  0.20950557820E+02  0.11855448430E+03  0.13294082298E+03  0.00000000000E+00 0. -1.
         11    1    1    2    0    0 -0.33058396681E+02  0.21427996058E+02  0.11411990947E+03  0.12072849847E+03  0.00000000000E+00 0.  1.
<mgrwt>
<rscale>  0 0.12490687E+03</rscale>
<asrwt>0</asrwt>
<pdfrwt beam="2">  1        2 0.14313968E-01 0.13405165E+03</pdfrwt>
<pdfrwt beam="1">  1       -2 0.45784208E-01 0.13405165E+03</pdfrwt>
<totfact> 0.18302216E+03</totfact>
</mgrwt>
</event>
<event>
 7    1  0.6419647E-006  0.1582614E+03  0.7546771E-02  0.1198733E+00
         -1   -1    0    0    0  501 -0.00000000000E+00  0.00000000000E+00  0.79590397687E+02  0.79590397687E+02  0.00000000000E+00 0.  1.
          1   -1    0    0  501    0  0.00000000000E+00 -0.00000000000E+00 -0.72309904862E+03  0.72309904862E+03  0.00000000000E+00 0. -1.
         23    2    1    2    0    0  0.49030151225E+02  0.83750021789E+02 -0.65088434532E+03  0.66984855560E+03  0.12501453747E+03 0.  0.
          5    1    3    3  502    0  0.65905220916E+02  0.97737185571E+02 -0.62299554652E+03  0.63406750159E+03  0.47000000000E+01 0.  1.
         -5    1    3    3    0  502 -0.16875069691E+02 -0.13987163782E+02 -0.27888798802E+02  0.35781054014E+02  0.47000000000E+01 0.  1.
        -11    1    1    2    0    0  0.24099895409E+02 -0.63947897769E+01  0.86219516042E+01  0.26382500725E+02  0.00000000000E+00 0.  1.
         11    1    1    2    0    0 -0.73130046634E+02 -0.77355232012E+02 -0.12462572183E+01  0.10645838998E+03  0.00000000000E+00 0. -1.
<mgrwt>
<rscale>  0 0.15142462E+03</rscale>
<asrwt>0</asrwt>
<pdfrwt beam="2">  1        1 0.11124601E+00 0.15826135E+03</pdfrwt>
<pdfrwt beam="1">  1       -1 0.12244677E-01 0.15826135E+03</pdfrwt>
<totfact> 0.11908512E+03</totfact>
</mgrwt>
</event>
<event>
 7    1  0.6419647E-006  0.2205635E+03  0.7546771E-02  0.1136590E+00
          3   -1    0    0  501    0  0.00000000000E+00  0.00000000000E+00  0.34578239198E+03  0.34578239198E+03  0.00000000000E+00 0. -1.
         -3   -1    0    0    0  501 -0.00000000000E+00 -0.00000000000E+00 -0.13238872672E+03  0.13238872672E+03  0.00000000000E+00 0.  1.
         23    2    1    2    0    0 -0.16520136582E+03  0.75706579468E+02  0.82710917916E+02  0.23556182194E+03  0.12500119427E+03 0.  0.
          5    1    3    3  502    0 -0.47129357087E+02  0.81832156602E+02  0.67701301788E+02  0.11628944242E+03  0.47000000000E+01 0. -1.
         -5    1    3    3    0  502 -0.11807200873E+03 -0.61255771334E+01  0.15009616128E+02  0.11927237952E+03  0.47000000000E+01 0. -1.
        -11    1    1    2    0    0  0.73367974488E+02 -0.75060448276E+02  0.36662768694E+02  0.11118043526E+03  0.00000000000E+00 0. -1.
         11    1    1    2    0    0  0.91833391330E+02 -0.64613119256E+00  0.94019978651E+02  0.13142886150E+03  0.00000000000E+00 0.  1.
<mgrwt>
<rscale>  0 0.21640786E+03</rscale>
<asrwt>0</asrwt>
<pdfrwt beam="1">  1        3 0.53197291E-01 0.22056354E+03</pdfrwt>
<pdfrwt beam="2">  1       -3 0.20367497E-01 0.22056354E+03</pdfrwt>
<totfact> 0.18893988E+02</totfact>
</mgrwt>
</event>
<event>
 7    1  0.6419647E-006  0.1442319E+03  0.7546771E-02  0.1218073E+00
         -2   -1    0    0    0  501 -0.00000000000E+00  0.00000000000E+00  0.13781746332E+02  0.13781746332E+02  0.00000000000E+00 0.  1.
          2   -1    0    0  501    0  0.00000000000E+00 -0.00000000000E+00 -0.12351452449E+04  0.12351452449E+04  0.00000000000E+00 0. -1.
         23    2    1    2    0    0 -0.19949603889E+01 -0.71924988911E+02 -0.72833850850E+03  0.74248220950E+03  0.12500265824E+03 0.  0.
          5    1    3    3  502    0  0.51031609303E+02 -0.40685950585E+02 -0.54758220673E+03  0.55147795500E+03  0.47000000000E+01 0. -1.
         -5    1    3    3    0  502 -0.53026569691E+02 -0.31239038326E+02 -0.18075630177E+03  0.19100425450E+03  0.47000000000E+01 0. -1.
        -11    1    1    2    0    0  0.45957150918E+02  0.43091907442E+02 -0.28486472271E+03  0.29174797763E+03  0.00000000000E+00 0. -1.
         11    1    1    2    0    0 -0.43962190529E+02  0.28833081469E+02 -0.20816026738E+03  0.21469680412E+03  0.00000000000E+00 0.  1.
<mgrwt>
<rscale>  0 0.13653232E+03</rscale>
<asrwt>0</asrwt>
<pdfrwt beam="2">  1        2 0.19002240E+00 0.14423193E+03</pdfrwt>
<pdfrwt beam="1">  1       -2 0.21202680E-02 0.14423193E+03</pdfrwt>
<totfact> 0.13111009E+04</totfact>
</mgrwt>
</event>
<event>
 6    1  0.6419647E-006  0.1373570E+03  0.7546771E-02  0.1234939E+00
          1   -1    0    0  501    0  0.00000000000E+00  0.00000000000E+00  0.35476785635E+03  0.35476785635E+03  0.00000000000E+00 0. -1.
         -1   -1    0    0    0  501 -0.00000000000E+00 -0.00000000000E+00 -0.43674659966E+02  0.43674659966E+02  0.00000000000E+00 0.  1.
          5    1    1    2  502    0 -0.26533469591E+02  0.86787248934E+02  0.16769399205E+03  0.19073388938E+03  0.47000000000E+01 0. -1.
         -5    1    1    2    0  502  0.20851486674E+02 -0.41272997865E+02  0.84357675290E+02  0.96314859859E+02  0.47000000000E+01 0.  1.
        -11    1    1    2    0    0  0.30701618241E+02  0.31934473283E+01 -0.16501464809E-02  0.30867255647E+02  0.00000000000E+00 0.  1.
         11    1    1    2    0    0 -0.25019635325E+02 -0.48707698397E+02  0.59043179182E+02  0.80526511428E+02  0.00000000000E+00 0. -1.
<mgrwt>
<rscale>  0 0.12508347E+03</rscale>
<asrwt>0</asrwt>
<pdfrwt beam="1">  1        1 0.54579668E-01 0.13735699E+03</pdfrwt>
<pdfrwt beam="2">  1       -1 0.67191787E-02 0.13735699E+03</pdfrwt>
<totfact> 0.75842090E+03</totfact>
</mgrwt>
</event>
<event>
 7    1  0.6419647E-006  0.1233066E+03  0.7546771E-02  0.1249932E+00
         -1   -1    0    0    0  501 -0.00000000000E+00  0.00000000000E+00  0.61537355611E+02  0.61537355611E+02  0.00000000000E+00 0.  1.
          1   -1    0    0  501    0  0.00000000000E+00 -0.00000000000E+00 -0.71224924035E+03  0.71224924035E+03  0.00000000000E+00 0. -1.
         23    2    1    2    0    0  0.25468804289E+02  0.47248789039E+01 -0.66498867187E+03  0.67632421951E+03  0.12055509822E+03 0.  0.
          5    1    3    3  502    0  0.22150592851E+02  0.89315381941E+01 -0.66810303579E+03  0.66854631670E+03  0.47000000000E+01 0. -1.
         -5    1    3    3    0  502  0.33182114380E+01 -0.42066592902E+01  0.31143639196E+01  0.77779028121E+01  0.47000000000E+01 0.  1.
        -11    1    1    2    0    0 -0.29524721056E+02  0.40911158772E+02  0.48325091144E+01  0.50683184685E+02  0.00000000000E+00 0.  1.
         11    1    1    2    0    0  0.40559167662E+01 -0.45636037676E+02  0.94442780117E+01  0.46779191771E+02  0.00000000000E+00 0. -1.
<mgrwt>
<rscale>  0 0.11595018E+03</rscale>
<asrwt>0</asrwt>
<pdfrwt beam="2">  1        1 0.10957680E+00 0.12330659E+03</pdfrwt>
<pdfrwt beam="1">  1       -1 0.94672856E-02 0.12330659E+03</pdfrwt>
<totfact> 0.17995195E+03</totfact>
</mgrwt>
</event>
<event>
 6    1  0.6419647E-006  0.3646962E+03  0.7546771E-02  0.1097947E+00
          1   -1    0    0  501    0  0.00000000000E+00  0.00000000000E+00  0.73381376568E+03  0.73381376568E+03  0.00000000000E+00 0. -1.
         -1   -1    0    0    0  501 -0.00000000000E+00 -0.00000000000E+00 -0.82967507375E+02  0.82967507375E+02  0.00000000000E+00 0.  1.
          5    1    1    2  502    0  0.88618986358E+02 -0.11764316603E+03  0.15210979221E+03  0.21178460318E+03  0.47000000000E+01 0. -1.
         -5    1    1    2    0  502 -0.73538630408E+02  0.19223580810E+03  0.40054339550E+03  0.45035501302E+03  0.47000000000E+01 0.  1.
        -11    1    1    2    0    0 -0.14608290959E+01  0.19186821401E+02  0.37384662106E+02  0.42046178161E+02  0.00000000000E+00 0.  1.
         11    1    1    2    0    0 -0.13619526854E+02 -0.93779463468E+02  0.60808408495E+02  0.11259547870E+03  0.00000000000E+00 0. -1.
<mgrwt>
<rscale>  0 0.27590506E+03</rscale>
<asrwt>0</asrwt>
<pdfrwt beam="1">  1        1 0.11289442E+00 0.36469621E+03</pdfrwt>
<pdfrwt beam="2">  1       -1 0.12764232E-01 0.36469621E+03</pdfrwt>
<totfact> 0.10926547E+03</totfact>
</mgrwt>
</event>
<event>
 7    1  0.6419647E-006  0.1518764E+03  0.7546771E-02  0.1207183E+00
         -4   -1    0    0    0  501 -0.00000000000E+00  0.00000000000E+00  0.61694330264E+02  0.61694330264E+02  0.00000000000E+00 0.  1.
          4   -1    0    0  501    0  0.00000000000E+00 -0.00000000000E+00 -0.72653420598E+03  0.72653420598E+03  0.00000000000E+00 0. -1.
         23    2    1    2    0    0 -0.83120411810E+02  0.22881181144E+02 -0.64376030477E+03  0.66143311014E+03  0.12503550653E+03 0.  0.
          5    1    3    3  502    0 -0.78698443280E+02 -0.40126244439E+02 -0.38546278381E+03  0.39548351188E+03  0.47000000000E+01 0.  1.
         -5    1    3    3    0  502 -0.44219685302E+01  0.63007425583E+02 -0.25829752096E+03  0.26594959826E+03  0.47000000000E+01 0.  1.
        -11    1    1    2    0    0  0.30728827234E+02 -0.41366588310E+02  0.22457136027E+02  0.56211906302E+02  0.00000000000E+00 0.  1.
         11    1    1    2    0    0  0.52391584576E+02  0.18485407165E+02 -0.43536706974E+02  0.70583519795E+02  0.00000000000E+00 0. -1.
<mgrwt>
<rscale>  0 0.14466784E+03</rscale>
<asrwt>0</asrwt>
<pdfrwt beam="2">  1        4 0.11177450E+00 0.15187636E+03</pdfrwt>
<pdfrwt beam="1">  1       -4 0.94914352E-02 0.15187636E+03</pdfrwt>
<totfact> 0.93215482E+01</totfact>
</mgrwt>
</event>
<event>
 7    1  0.6419647E-006  0.1426973E+03  0.7546771E-02  0.1220368E+00
         -1   -1    0    0    0  501 -0.00000000000E+00  0.00000000000E+00  0.29317063664E+03  0.29317063664E+03  0.00000000000E+00 0.  1.
          1   -1    0    0  501    0  0.00000000000E+00 -0.00000000000E+00 -0.12548272527E+03  0.12548272527E+03  0.00000000000E+00 0. -1.
         23    2    1    2    0    0  0.65074603937E+02  0.22456419015E+02 -0.67089331242E+02  0.15768165007E+03  0.12499411814E+03 0.  0.
          5    1    3    3  502    0  0.10045942446E+03  0.27446405640E+02 -0.61974344313E+02  0.12127782361E+03  0.47000000000E+01 0.  1.
         -5    1    3    3    0  502 -0.35384820525E+02 -0.49899866252E+01 -0.51149869282E+01  0.36403826466E+02  0.47000000000E+01 0.  1.
        -11    1    1    2    0    0 -0.65242148909E+01  0.12481122211E+02 -0.23132157368E+01  0.14272167272E+02  0.00000000000E+00 0. -1.
         11    1    1    2    0    0 -0.58550389046E+02 -0.34937541226E+02  0.23709045835E+03  0.24669954456E+03  0.00000000000E+00 0.  1.
<mgrwt>
<rscale>  0 0.13489498E+03</rscale>
<asrwt>0</asrwt>
<pdfrwt beam="2">  1        1 0.19305035E-01 0.14269732E+03</pdfrwt>
<pdfrwt beam="1">  1       -1 0.45103175E-01 0.14269732E+03</pdfrwt>
<totfact> 0.13080682E+03</totfact>
</mgrwt>
</event>
<event>
 7    1  0.6494321E-006  0.1795270E+03  0.7546771E-02  0.1174155E+00
          1   -1    0    0  501    0  0.00000000000E+00  0.00000000000E+00  0.11138712870E+04  0.11138712870E+04  0.00000000000E+00 0. -1.
         -1   -1    0    0    0  501 -0.00000000000E+00 -0.00000000000E+00 -0.26166434766E+02  0.26166434766E+02  0.00000000000E+00 0.  1.
         23    2    1    2    0    0 -0.11537028506E+03  0.57408192708E+02  0.67616141668E+03  0.69958858443E+03  0.12499569111E+03 0.  0.
          5    1    3    3  502    0 -0.13056219035E+03  0.36736099745E+02  0.64418104640E+03  0.65832160614E+03  0.47000000000E+01 0.  1.
         -5    1    3    3    0  502  0.15191905291E+02  0.20672092963E+02  0.31980370283E+02  0.41266978291E+02  0.47000000000E+01 0.  1.
        -11    1    1    2    0    0  0.71317881834E+02  0.14043871790E+02  0.17739451559E+03  0.19170885417E+03  0.00000000000E+00 0.  1.
         11    1    1    2    0    0  0.44052403226E+02 -0.71452064498E+02  0.23414892000E+03  0.24874028320E+03  0.00000000000E+00 0. -1.
<mgrwt>
<rscale>  0 0.17358998E+03</rscale>
<asrwt>0</asrwt>
<pdfrwt beam="1">  1        1 0.17136478E+00 0.17952695E+03</pdfrwt>
<pdfrwt beam="2">  1       -1 0.40256062E-02 0.17952695E+03</pdfrwt>
<totfact> 0.31864551E+03</totfact>
</mgrwt>
</event>
<event>
 6    1  0.6419647E-006  0.1555884E+03  0.7546771E-02  0.1217104E+00
          4   -1    0    0  501    0  0.00000000000E+00  0.00000000000E+00  0.34741572995E+03  0.34741572995E+03  0.00000000000E+00 0. -1.
         -4   -1    0    0    0  501 -0.00000000000E+00 -0.00000000000E+00 -0.81688041893E+02  0.81688041893E+02  0.00000000000E+00 0.  1.
          5    1    1    2  502    0 -0.62485415416E+01 -0.17479678779E+02  0.30972850174E+03  0.31031986438E+03  0.47000000000E+01 0. -1.
         -5    1    1    2    0  502  0.80453200274E+01 -0.71240408677E+01 -0.17313056740E+02  0.20911983797E+02  0.47000000000E+01 0.  1.
        -11    1    1    2    0    0  0.18311770623E+02  0.54051500777E+02 -0.24620844396E+02  0.62153613397E+02  0.00000000000E+00 0.  1.
         11    1    1    2    0    0 -0.20108549109E+02 -0.29447781130E+02 -0.20669125455E+01  0.35718310265E+02  0.00000000000E+00 0. -1.
<mgrwt>
<rscale>  0 0.13723124E+03</rscale>
<asrwt>0</asrwt>
<pdfrwt beam="1">  1        4 0.53448573E-01 0.15558838E+03</pdfrwt>
<pdfrwt beam="2">  1       -4 0.12567391E-01 0.15558838E+03</pdfrwt>
<totfact> 0.29601553E+02</totfact>
</mgrwt>
</event>
<event>
 7    1  0.6419647E-006  0.1749049E+03  0.7546771E-02  0.1178582E+00
          1   -1    0    0  501    0  0.00000000000E+00  0.00000000000E+00  0.70255275992E+03  0.70255275992E+03  0.00000000000E+00 0. -1.
         -1   -1    0    0    0  501 -0.00000000000E+00 -0.00000000000E+00 -0.51624044583E+02  0.51624044583E+02  0.00000000000E+00 0.  1.
         23    2    1    2    0    0  0.17696386366E+02  0.12105212982E+03  0.53186852275E+03  0.55988915044E+03  0.12499982028E+03 0.  0.
          5    1    3    3  502    0 -0.16124535924E+02  0.90772884496E+02  0.48776400297E+03  0.49642273297E+03  0.47000000000E+01 0. -1.
         -5    1    3    3    0  502  0.33820922290E+02  0.30279245319E+02  0.44104519778E+02  0.63466417470E+02  0.47000000000E+01 0. -1.
        -11    1    1    2    0    0 -0.33238175353E+02 -0.84093341085E+02  0.12445150456E+03  0.15383316711E+03  0.00000000000E+00 0. -1.
         11    1    1    2    0    0  0.15541788987E+02 -0.36958788731E+02 -0.53913119738E+01  0.40454486947E+02  0.00000000000E+00 0.  1.
<mgrwt>
<rscale>  0 0.16929804E+03</rscale>
<asrwt>0</asrwt>
<pdfrwt beam="1">  1        1 0.10808503E+00 0.17490493E+03</pdfrwt>
<pdfrwt beam="2">  1       -1 0.79421612E-02 0.17490493E+03</pdfrwt>
<totfact> 0.24151056E+03</totfact>
</mgrwt>
</event>
<event>
 7    1  0.6419647E-006  0.1448251E+03  0.7546771E-02  0.1217189E+00
         -1   -1    0    0    0  501 -0.00000000000E+00  0.00000000000E+00  0.16737168640E+02  0.16737168640E+02  0.00000000000E+00 0.  1.
          1   -1    0    0  501    0  0.00000000000E+00 -0.00000000000E+00 -0.10641617564E+04  0.10641617564E+04  0.00000000000E+00 0. -1.
         23    2    1    2    0    0 -0.49696423394E+02 -0.53729485254E+02 -0.68700410945E+03  0.70210324086E+03  0.12497088599E+03 0.  0.
          5    1    3    3  502    0  0.21413105994E+02  0.21968353364E+02 -0.29205827325E+03  0.29370266365E+03  0.47000000000E+01 0.  1.
         -5    1    3    3    0  502 -0.71109529388E+02 -0.75697838618E+02 -0.39494583619E+03  0.40840057721E+03  0.47000000000E+01 0.  1.
        -11    1    1    2    0    0  0.70532265544E+02  0.38618456044E+02 -0.32626328394E+03  0.33602665977E+03  0.00000000000E+00 0. -1.
         11    1    1    2    0    0 -0.20835842150E+02  0.15111029210E+02 -0.34157194405E+02  0.42769024439E+02  0.00000000000E+00 0.  1.
<mgrwt>
<rscale>  0 0.13716976E+03</rscale>
<asrwt>0</asrwt>
<pdfrwt beam="2">  1        1 0.16371718E+00 0.14482512E+03</pdfrwt>
<pdfrwt beam="1">  1       -1 0.25749492E-02 0.14482512E+03</pdfrwt>
<totfact> 0.66082750E+03</totfact>
</mgrwt>
</event>
<event>
 7    1  0.6419647E-006  0.1923276E+03  0.7546771E-02  0.1161150E+00
         -2   -1    0    0    0  501 -0.00000000000E+00  0.00000000000E+00  0.37872076472E+02  0.37872076472E+02  0.00000000000E+00 0. -1.
          2   -1    0    0  501    0  0.00000000000E+00 -0.00000000000E+00 -0.98225164128E+03  0.98225164128E+03  0.00000000000E+00 0.  1.
         23    2    1    2    0    0 -0.52327622472E+02 -0.13647774352E+03 -0.66272489034E+03  0.69006824782E+03  0.12500220725E+03 0.  0.
          5    1    3    3  502    0 -0.52761775242E+02 -0.10883181802E+03 -0.64636355062E+03  0.65759873715E+03  0.47000000000E+01 0.  1.
         -5    1    3    3    0  502  0.43415277025E+00 -0.27645925495E+02 -0.16361339726E+02  0.32469510664E+02  0.47000000000E+01 0.  1.
        -11    1    1    2    0    0 -0.30557064449E+01  0.77188965386E+02 -0.20238338976E+03  0.21662527592E+03  0.00000000000E+00 0.  1.
         11    1    1    2    0    0  0.55383328917E+02  0.59288778130E+02 -0.79271284709E+02  0.11343019401E+03  0.00000000000E+00 0. -1.
<mgrwt>
<rscale>  0 0.18704926E+03</rscale>
<asrwt>0</asrwt>
<pdfrwt beam="2">  1        2 0.15111564E+00 0.19232760E+03</pdfrwt>
<pdfrwt beam="1">  1       -2 0.58264733E-02 0.19232760E+03</pdfrwt>
<totfact> 0.41264776E+03</totfact>
</mgrwt>
</event>
<event>
 7    1  0.6419647E-006  0.1408794E+03  0.7546771E-02  0.1223611E+00
         -2   -1    0    0    0  501 -0.00000000000E+00  0.00000000000E+00  0.19901773404E+02  0.19901773404E+02  0.00000000000E+00 0.  1.
          2   -1    0    0  501    0  0.00000000000E+00 -0.00000000000E+00 -0.13119029767E+04  0.13119029767E+04  0.00000000000E+00 0. -1.
         23    2    1    2    0    0  0.17826822075E+02  0.62480985895E+02 -0.11092779461E+04  0.11181880738E+04  0.12500134971E+03 0.  0.
          5    1    3    3  502    0 -0.27149832318E+02  0.29589401393E+02 -0.91836055828E+03  0.91925015696E+03  0.47000000000E+01 0. -1.
         -5    1    3    3    0  502  0.44976654393E+02  0.32891584502E+02 -0.19091738783E+03  0.19893791681E+03  0.47000000000E+01 0. -1.
        -11    1    1    2    0    0 -0.30148321818E+02 -0.20129656343E+01 -0.12675353259E+03  0.13030514711E+03  0.00000000000E+00 0. -1.
         11    1    1    2    0    0  0.12321499743E+02 -0.60468020260E+02 -0.55969724616E+02  0.83311529237E+02  0.00000000000E+00 0.  1.
<mgrwt>
<rscale>  0 0.13262560E+03</rscale>
<asrwt>0</asrwt>
<pdfrwt beam="2">  1        2 0.20183124E+00 0.14087940E+03</pdfrwt>
<pdfrwt beam="1">  1       -2 0.30618111E-02 0.14087940E+03</pdfrwt>
<totfact> 0.69472566E+03</totfact>
</mgrwt>
</event>
<event>
 7    1  0.6419647E-006  0.1389650E+03  0.7546771E-02  0.1226260E+00
         -1   -1    0    0    0  501 -0.00000000000E+00  0.00000000000E+00  0.30309761479E+03  0.30309761479E+03  0.00000000000E+00 0.  1.
          1   -1    0    0  501    0  0.00000000000E+00 -0.00000000000E+00 -0.52581146223E+02  0.52581146223E+02  0.00000000000E+00 0. -1.
         23    2    1    2    0    0  0.55611886530E+02 -0.24332540248E+02  0.10692717129E+03  0.17534162488E+03  0.12500604392E+03 0.  0.
          5    1    3    3  502    0  0.85217022825E+02 -0.16333658189E+02  0.29231077102E+02  0.91680288163E+02  0.47000000000E+01 0.  1.
         -5    1    3    3    0  502 -0.29605136295E+02 -0.79988820584E+01  0.77696094188E+02  0.83661336718E+02  0.47000000000E+01 0.  1.
        -11    1    1    2    0    0 -0.78179203810E+02  0.32995982048E+02  0.11444901082E+03  0.14247560780E+03  0.00000000000E+00 0. -1.
         11    1    1    2    0    0  0.22567317280E+02 -0.86634418002E+01  0.29140286451E+02  0.37861528330E+02  0.00000000000E+00 0.  1.
<mgrwt>
<rscale>  0 0.13080935E+03</rscale>
<asrwt>0</asrwt>
<pdfrwt beam="2">  1        1 0.80894073E-02 0.13896498E+03</pdfrwt>
<pdfrwt beam="1">  1       -1 0.46630401E-01 0.13896498E+03</pdfrwt>
<totfact> 0.38449739E+03</totfact>
</mgrwt>
</event>
<event>
 7    1  0.6419647E-006  0.1330458E+03  0.7546771E-02  0.1233902E+00
         -2   -1    0    0    0  501 -0.00000000000E+00  0.00000000000E+00  0.17318784490E+02  0.17318784490E+02  0.00000000000E+00 0.  1.
          2   -1    0    0  501    0  0.00000000000E+00 -0.00000000000E+00 -0.85988374898E+03  0.85988374898E+03  0.00000000000E+00 0. -1.
         23    2    1    2    0    0 -0.22081654991E+02 -0.39825062476E+02 -0.55317009311E+03  0.56894492684E+03  0.12501017069E+03 0.  0.
          5    1    3    3  502    0  0.46437951105E+02  0.10397294816E+02 -0.18656677062E+03  0.19259760367E+03  0.47000000000E+01 0.  1.
         -5    1    3    3    0  502 -0.68519606096E+02 -0.50222357291E+02 -0.36660332250E+03  0.37634732317E+03  0.47000000000E+01 0.  1.
        -11    1    1    2    0    0 -0.15061314491E+02  0.55666250694E+02 -0.10809905950E+03  0.12251931001E+03  0.00000000000E+00 0.  1.
         11    1    1    2    0    0  0.37142969482E+02 -0.15841188219E+02 -0.18129581187E+03  0.18573829661E+03  0.00000000000E+00 0. -1.
<mgrwt>
<rscale>  0 0.12574985E+03</rscale>
<asrwt>0</asrwt>
<pdfrwt beam="2">  1        2 0.13228978E+00 0.13304577E+03</pdfrwt>
<pdfrwt beam="1">  1       -2 0.26644289E-02 0.13304577E+03</pdfrwt>
<totfact> 0.15552176E+04</totfact>
</mgrwt>
</event>
<event>
 7    1  0.6419647E-006  0.1355135E+03  0.7546771E-02  0.1222345E+00
          2   -1    0    0  501    0  0.00000000000E+00  0.00000000000E+00  0.14634675291E+03  0.14634675291E+03  0.00000000000E+00 0. -1.
         -2   -1    0    0    0  501 -0.00000000000E+00 -0.00000000000E+00 -0.12205468540E+03  0.12205468540E+03  0.00000000000E+00 0.  1.
         23    2    1    2    0    0  0.47127712385E+02  0.22724323453E+02  0.35981442897E+02  0.14020902806E+03  0.12500596452E+03 0.  0.
          5    1    3    3  502    0  0.11716497837E+02  0.54127402299E+02  0.64191421838E+02  0.84909838292E+02  0.47000000000E+01 0. -1.
         -5    1    3    3    0  502  0.35411214548E+02 -0.31403078845E+02 -0.28209978941E+02  0.55299189765E+02  0.47000000000E+01 0. -1.
        -11    1    1    2    0    0 -0.68463189948E+02 -0.54951810318E+02 -0.16230194649E+02  0.89276699387E+02  0.00000000000E+00 0. -1.
         11    1    1    2    0    0  0.21335477563E+02  0.32227486865E+02  0.45408192565E+01  0.38915710863E+02  0.00000000000E+00 0.  1.
<mgrwt>
<rscale>  0 0.13350552E+03</rscale>
<asrwt>0</asrwt>
<pdfrwt beam="1">  1        2 0.22514885E-01 0.13551349E+03</pdfrwt>
<pdfrwt beam="2">  1       -2 0.18777644E-01 0.13551349E+03</pdfrwt>
<totfact> 0.54089672E+03</totfact>
</mgrwt>
</event>
<event>
 7    1  0.6419647E-006  0.1428617E+03  0.7546771E-02  0.1220765E+00
         -1   -1    0    0    0  501 -0.00000000000E+00  0.00000000000E+00  0.41985260618E+02  0.41985260618E+02  0.00000000000E+00 0.  1.
          1   -1    0    0  501    0  0.00000000000E+00 -0.00000000000E+00 -0.77366126902E+03  0.77366126902E+03  0.00000000000E+00 0. -1.
         23    2    1    2    0    0 -0.42887462183E+02  0.54266360376E+02 -0.67427079992E+03  0.68923912175E+03  0.12500113221E+03 0.  0.
          5    1    3    3  502    0  0.29829408096E+02  0.62155753438E+02 -0.29952831786E+03  0.30739621740E+03  0.47000000000E+01 0.  1.
         -5    1    3    3    0  502 -0.72716870279E+02 -0.78893930620E+01 -0.37474248206E+03  0.38184290435E+03  0.47000000000E+01 0.  1.
        -11    1    1    2    0    0  0.37217444359E+02 -0.70323385676E+01  0.14190692444E+02  0.40447097577E+02  0.00000000000E+00 0.  1.
         11    1    1    2    0    0  0.56700178240E+01 -0.47234021809E+02 -0.71595900935E+02  0.85960310313E+02  0.00000000000E+00 0. -1.
<mgrwt>
<rscale>  0 0.13461441E+03</rscale>
<asrwt>0</asrwt>
<pdfrwt beam="2">  1        1 0.11902481E+00 0.14286167E+03</pdfrwt>
<pdfrwt beam="1">  1       -1 0.64592708E-02 0.14286167E+03</pdfrwt>
<totfact> 0.28476255E+03</totfact>
</mgrwt>
</event>
<event>
 7    1  0.6419647E-006  0.1378356E+03  0.7546771E-02  0.1228867E+00
         -2   -1    0    0    0  501 -0.00000000000E+00  0.00000000000E+00  0.32102327902E+02  0.32102327902E+02  0.00000000000E+00 0. -1.
          2   -1    0    0  501    0  0.00000000000E+00 -0.00000000000E+00 -0.46725324886E+03  0.46725324886E+03  0.00000000000E+00 0.  1.
         23    2    1    2    0    0 -0.23282692859E+02  0.53226743587E+02 -0.27014621205E+03  0.30327815837E+03  0.12499398163E+03 0.  0.
          5    1    3    3  502    0  0.19544125563E+02  0.72227201019E+02 -0.22825886697E+03  0.24025599214E+03  0.47000000000E+01 0. -1.
         -5    1    3    3    0  502 -0.42826818422E+02 -0.19000457432E+02 -0.41887345077E+02  0.63022166230E+02  0.47000000000E+01 0. -1.
        -11    1    1    2    0    0  0.62847760885E+01 -0.62942440723E+02 -0.16477280571E+03  0.17649738456E+03  0.00000000000E+00 0.  1.
         11    1    1    2    0    0  0.16997916770E+02  0.97156971357E+01 -0.23190319368E+00  0.19580033822E+02  0.00000000000E+00 0. -1.
<mgrwt>
<rscale>  0 0.12905336E+03</rscale>
<asrwt>0</asrwt>
<pdfrwt beam="2">  1        2 0.71885110E-01 0.13783565E+03</pdfrwt>
<pdfrwt beam="1">  1       -2 0.49388200E-02 0.13783565E+03</pdfrwt>
<totfact> 0.12713361E+04</totfact>
</mgrwt>
</event>
<event>
 7    1  0.6419647E-006  0.1623549E+03  0.7546771E-02  0.1192860E+00
          1   -1    0    0  501    0  0.00000000000E+00  0.00000000000E+00  0.12281101714E+04  0.12281101714E+04  0.00000000000E+00 0. -1.
         -1   -1    0    0    0  501 -0.00000000000E+00 -0.00000000000E+00 -0.20836476177E+02  0.20836476177E+02  0.00000000000E+00 0.  1.
         23    2    1    2    0    0 -0.10200828449E+03 -0.18133591665E+02  0.84932033234E+03  0.86469886648E+03  0.12499834202E+03 0.  0.
          5    1    3    3  502    0 -0.11799553476E+03 -0.45609679561E+02  0.74013911937E+03  0.75088693897E+03  0.47000000000E+01 0.  1.
         -5    1    3    3    0  502  0.15987250271E+02  0.27476087896E+02  0.10918121297E+03  0.11381192751E+03  0.47000000000E+01 0.  1.
        -11    1    1    2    0    0  0.48488677026E+02 -0.19924427121E+02  0.62455046020E+02  0.81539974057E+02  0.00000000000E+00 0.  1.
         11    1    1    2    0    0  0.53519607459E+02  0.38058018786E+02  0.29549831683E+03  0.30270780701E+03  0.00000000000E+00 0. -1.
<mgrwt>
<rscale>  0 0.15636773E+03</rscale>
<asrwt>0</asrwt>
<pdfrwt beam="1">  1        1 0.18893997E+00 0.16235487E+03</pdfrwt>
<pdfrwt beam="2">  1       -1 0.32056127E-02 0.16235487E+03</pdfrwt>
<totfact> 0.37023567E+03</totfact>
</mgrwt>
</event>
<event>
 7    1  0.6419647E-006  0.1329427E+03  0.7546771E-02  0.1237090E+00
          1   -1    0    0  501    0  0.00000000000E+00  0.00000000000E+00  0.51282947675E+02  0.51282947675E+02  0.00000000000E+00 0. -1.
         -1   -1    0    0    0  501 -0.00000000000E+00 -0.00000000000E+00 -0.26891069986E+03  0.26891069986E+03  0.00000000000E+00 0.  1.
         23    2    1    2    0    0  0.44748322640E+00  0.45266175542E+02 -0.14581035533E+03  0.19731810072E+03  0.12499818503E+03 0.  0.
          5    1    3    3  502    0 -0.48631247528E+01  0.18449303050E+02 -0.16333142519E+03  0.16450918278E+03  0.47000000000E+01 0. -1.
         -5    1    3    3    0  502  0.53106079792E+01  0.26816872492E+02  0.17521069857E+02  0.32808917938E+02  0.47000000000E+01 0. -1.
        -11    1    1    2    0    0  0.27483461801E+02  0.16275706850E+02 -0.26522745707E+02  0.41517410154E+02  0.00000000000E+00 0.  1.
         11    1    1    2    0    0 -0.27930945027E+02 -0.61541882392E+02 -0.45294651144E+02  0.81358136660E+02  0.00000000000E+00 0. -1.
<mgrwt>
<rscale>  0 0.12371586E+03</rscale>
<asrwt>0</asrwt>
<pdfrwt beam="1">  1        1 0.78896844E-02 0.13294274E+03</pdfrwt>
<pdfrwt beam="2">  1       -1 0.41370876E-01 0.13294274E+03</pdfrwt>
<totfact> 0.49076122E+03</totfact>
</mgrwt>
</event>
<event>
 7    1  0.6419647E-006  0.1265740E+03  0.7546771E-02  0.1248519E+00
         -2   -1    0    0    0  501 -0.00000000000E+00  0.00000000000E+00  0.15157799628E+03  0.15157799628E+03  0.00000000000E+00 0. -1.
          2   -1    0    0  501    0  0.00000000000E+00 -0.00000000000E+00 -0.85788211686E+02  0.85788211686E+02  0.00000000000E+00 0.  1.
         23    2    1    2    0    0  0.19814546329E+02 -0.82464633617E+00  0.36954866772E+01  0.12662795639E+03  0.12501074526E+03 0.  0.
          5    1    3    3  502    0  0.18271055943E+02  0.64430190697E+01  0.63306938631E+02  0.66371699231E+02  0.47000000000E+01 0. -1.
         -5    1    3    3    0  502  0.15434903858E+01 -0.72676654059E+01 -0.59611451954E+02  0.60256257161E+02  0.47000000000E+01 0. -1.
        -11    1    1    2    0    0 -0.39909789881E+01 -0.17708181898E+02  0.79013352325E+02  0.81071681030E+02  0.00000000000E+00 0. -1.
         11    1    1    2    0    0 -0.15823567341E+02  0.18532828234E+02 -0.16919054408E+02  0.29666570543E+02  0.00000000000E+00 0.  1.
<mgrwt>
<rscale>  0 0.11677241E+03</rscale>
<asrwt>0</asrwt>
<pdfrwt beam="2">  1        2 0.13198186E-01 0.12657402E+03</pdfrwt>
<pdfrwt beam="1">  1       -2 0.23319692E-01 0.12657402E+03</pdfrwt>
<totfact> 0.68819950E+03</totfact>
</mgrwt>
</event>
<event>
 7    1  0.6419647E-006  0.1370995E+03  0.7546771E-02  0.1233012E+00
          1   -1    0    0  501    0  0.00000000000E+00  0.00000000000E+00  0.29593152257E+02  0.29593152257E+02  0.00000000000E+00 0. -1.
         -1   -1    0    0    0  501 -0.00000000000E+00 -0.00000000000E+00 -0.49513979056E+03  0.49513979056E+03  0.00000000000E+00 0.  1.
         23    2    1    2    0    0  0.55100219145E+02 -0.11683912801E+02 -0.21050166527E+03  0.25121148979E+03  0.12499485412E+03 0.  0.
          5    1    3    3  502    0  0.57324691847E+02 -0.40429436344E+02 -0.21057294829E+03  0.22199936074E+03  0.47000000000E+01 0.  1.
         -5    1    3    3    0  502 -0.22244727018E+01  0.28745523543E+02  0.71283021893E-01  0.29212129053E+02  0.47000000000E+01 0.  1.
        -11    1    1    2    0    0 -0.63932791927E+02 -0.17580723490E+02 -0.19792593808E+03  0.20873706112E+03  0.00000000000E+00 0.  1.
         11    1    1    2    0    0  0.88325727816E+01  0.29264636291E+02 -0.57119034953E+02  0.64784391895E+02  0.00000000000E+00 0. -1.
<mgrwt>
<rscale>  0 0.12632568E+03</rscale>
<asrwt>0</asrwt>
<pdfrwt beam="1">  1        1 0.45527927E-02 0.13709946E+03</pdfrwt>
<pdfrwt beam="2">  1       -1 0.76175352E-01 0.13709946E+03</pdfrwt>
<totfact> 0.32969846E+03</totfact>
</mgrwt>
</event>
<event>
 7    1  0.6419647E-006  0.1561304E+03  0.7546771E-02  0.1201401E+00
          4   -1    0    0  501    0  0.00000000000E+00  0.00000000000E+00  0.23464395109E+03  0.23464395109E+03  0.00000000000E+00 0. -1.
         -4   -1    0    0    0  501 -0.00000000000E+00 -0.00000000000E+00 -0.88915559270E+02  0.88915559270E+02  0.00000000000E+00 0.  1.
         23    2    1    2    0    0 -0.27706395747E+02  0.89359015895E+02  0.58633514900E+02  0.16677711221E+03  0.12499615195E+03 0.  0.
          5    1    3    3  502    0  0.23003864850E+02  0.26434885605E+02  0.76145482051E+02  0.83953590821E+02  0.47000000000E+01 0. -1.
         -5    1    3    3    0  502 -0.50710260597E+02  0.62924130290E+02 -0.17511967151E+02  0.82823521393E+02  0.47000000000E+01 0. -1.
        -11    1    1    2    0    0  0.40367107454E+02 -0.71123836774E+01  0.75778551031E+01  0.41683488982E+02  0.00000000000E+00 0.  1.
         11    1    1    2    0    0 -0.12660711707E+02 -0.82246632217E+02  0.79517021819E+02  0.11509890916E+03  0.00000000000E+00 0. -1.
<mgrwt>
<rscale>  0 0.14924730E+03</rscale>
<asrwt>0</asrwt>
<pdfrwt beam="1">  1        4 0.36099069E-01 0.15613045E+03</pdfrwt>
<pdfrwt beam="2">  1       -4 0.13679317E-01 0.15613045E+03</pdfrwt>
<totfact> 0.56137479E+02</totfact>
</mgrwt>
</event>
<event>
 7    1  0.6419647E-006  0.1438302E+03  0.7546771E-02  0.1218373E+00
         -3   -1    0    0    0  501 -0.00000000000E+00  0.00000000000E+00  0.15990167929E+03  0.15990167929E+03  0.00000000000E+00 0.  1.
          3   -1    0    0  501    0  0.00000000000E+00 -0.00000000000E+00 -0.10702191112E+03  0.10702191112E+03  0.00000000000E+00 0. -1.
         23    2    1    2    0    0  0.27258873599E+02 -0.65718517459E+02  0.13887314082E+02  0.14449903093E+03  0.12500057088E+03 0.  0.
          5    1    3    3  502    0  0.15282817957E+02 -0.72121198874E+02 -0.43236705493E+02  0.85595178331E+02  0.47000000000E+01 0.  1.
         -5    1    3    3    0  502  0.11976055642E+02  0.64026814150E+01  0.57124019575E+02  0.58903852595E+02  0.47000000000E+01 0.  1.
        -11    1    1    2    0    0  0.68797212679E+01  0.78868031689E+02  0.22554400802E+02  0.82317665071E+02  0.00000000000E+00 0.  1.
         11    1    1    2    0    0 -0.34138594867E+02 -0.13149514230E+02  0.16438053286E+02  0.40106894417E+02  0.00000000000E+00 0. -1.
<mgrwt>
<rscale>  0 0.13631629E+03</rscale>
<asrwt>0</asrwt>
<pdfrwt beam="2">  1        3 0.16464910E-01 0.14383015E+03</pdfrwt>
<pdfrwt beam="1">  1       -3 0.24600258E-01 0.14383015E+03</pdfrwt>
<totfact> 0.11359759E+03</totfact>
</mgrwt>
</event>
<event>
 7    1  0.6419647E-006  0.1479530E+03  0.7546771E-02  0.1212385E+00
          2   -1    0    0  501    0  0.00000000000E+00  0.00000000000E+00  0.37614673487E+03  0.37614673487E+03  0.00000000000E+00 0. -1.
         -2   -1    0    0    0  501 -0.00000000000E+00 -0.00000000000E+00 -0.48473444276E+02  0.48473444276E+02  0.00000000000E+00 0.  1.
         23    2    1    2    0    0 -0.79007894843E+02 -0.47648615957E+01  0.19906067381E+03  0.24802268165E+03  0.12500058960E+03 0.  0.
          5    1    3    3  502    0  0.75602179561E+01 -0.39030684582E+02  0.11758882043E+03  0.12421663304E+03  0.47000000000E+01 0. -1.
         -5    1    3    3    0  502 -0.86568112799E+02  0.34265822987E+02  0.81471853383E+02  0.12380604861E+03  0.47000000000E+01 0. -1.
        -11    1    1    2    0    0  0.67974095202E+02 -0.21920260995E+02  0.36786695556E+02  0.80338262556E+02  0.00000000000E+00 0.  1.
         11    1    1    2    0    0  0.11033799641E+02  0.26685122591E+02  0.91825921231E+02  0.96259234945E+02  0.00000000000E+00 0. -1.
<mgrwt>
<rscale>  0 0.14070380E+03</rscale>
<asrwt>0</asrwt>
<pdfrwt beam="1">  1        2 0.57868727E-01 0.14795303E+03</pdfrwt>
<pdfrwt beam="2">  1       -2 0.74574532E-02 0.14795303E+03</pdfrwt>
<totfact> 0.86261991E+03</totfact>
</mgrwt>
</event>
<event>
 7    1  0.6419647E-006  0.1747501E+03  0.7546771E-02  0.1179023E+00
         -1   -1    0    0    0  501 -0.00000000000E+00  0.00000000000E+00  0.24475054891E+02  0.24475054891E+02  0.00000000000E+00 0.  1.
          1   -1    0    0  501    0  0.00000000000E+00 -0.00000000000E+00 -0.10977959086E+04  0.10977959086E+04  0.00000000000E+00 0. -1.
         23    2    1    2    0    0 -0.70566266219E+01  0.12191745475E+03 -0.60874620856E+03  0.63333208771E+03  0.12499570046E+03 0.  0.
          5    1    3    3  502    0 -0.49192093772E+02  0.43885524153E+02 -0.12394647753E+03  0.14046572753E+03  0.47000000000E+01 0. -1.
         -5    1    3    3    0  502  0.42135467150E+02  0.78031930597E+02 -0.48479973103E+03  0.49286636018E+03  0.47000000000E+01 0. -1.
        -11    1    1    2    0    0  0.26269791643E+02 -0.26261835602E+02 -0.45905470733E+02  0.59051657092E+02  0.00000000000E+00 0.  1.
         11    1    1    2    0    0 -0.19213165021E+02 -0.95655619148E+02 -0.41866917439E+03  0.42988721866E+03  0.00000000000E+00 0. -1.
<mgrwt>
<rscale>  0 0.16887796E+03</rscale>
<asrwt>0</asrwt>
<pdfrwt beam="2">  1        1 0.16889174E+00 0.17475007E+03</pdfrwt>
<pdfrwt beam="1">  1       -1 0.37653918E-02 0.17475007E+03</pdfrwt>
<totfact> 0.36084361E+03</totfact>
</mgrwt>
</event>
<event>
 7    1  0.6419647E-006  0.1430057E+03  0.7546771E-02  0.1220223E+00
         -2   -1    0    0    0  501 -0.00000000000E+00  0.00000000000E+00  0.11554605173E+03  0.11554605173E+03  0.00000000000E+00 0.  1.
          2   -1    0    0  501    0  0.00000000000E+00 -0.00000000000E+00 -0.19883204129E+03  0.19883204129E+03  0.00000000000E+00 0. -1.
         23    2    1    2    0    0 -0.52805775945E+02 -0.45133946003E+02 -0.12839035671E+03  0.19218407931E+03  0.12500045436E+03 0.  0.
          5    1    3    3  502    0  0.15876339679E+02 -0.27040803696E+02  0.12699124090E+02  0.34155833745E+02  0.47000000000E+01 0.  1.
         -5    1    3    3    0  502 -0.68682115625E+02 -0.18093142306E+02 -0.14108948080E+03  0.15802824557E+03  0.47000000000E+01 0.  1.
        -11    1    1    2    0    0 -0.56923434100E+01  0.52839892930E+02  0.31007737660E+02  0.61529967115E+02  0.00000000000E+00 0.  1.
         11    1    1    2    0    0  0.58498119356E+02 -0.77059469271E+01  0.14096629493E+02  0.60664046595E+02  0.00000000000E+00 0. -1.
<mgrwt>
<rscale>  0 0.13499760E+03</rscale>
<asrwt>0</asrwt>
<pdfrwt beam="2">  1        2 0.30589545E-01 0.14300572E+03</pdfrwt>
<pdfrwt beam="1">  1       -2 0.17776316E-01 0.14300572E+03</pdfrwt>
<totfact> 0.42472735E+03</totfact>
</mgrwt>
</event>
<event>
 7    1  0.6419647E-006  0.1555300E+03  0.7546771E-02  0.1204224E+00
          1   -1    0    0  501    0  0.00000000000E+00  0.00000000000E+00  0.42940519409E+03  0.42940519409E+03  0.00000000000E+00 0. -1.
         -1   -1    0    0    0  501 -0.00000000000E+00 -0.00000000000E+00 -0.60958780761E+02  0.60958780761E+02  0.00000000000E+00 0.  1.
         23    2    1    2    0    0 -0.11869236952E+02 -0.91779755438E+02  0.32252044567E+03  0.35806287242E+03  0.12500072173E+03 0.  0.
          5    1    3    3  502    0  0.19817346847E+02 -0.66864161716E+02  0.30660497998E+03  0.31447137724E+03  0.47000000000E+01 0. -1.
         -5    1    3    3    0  502 -0.31686583799E+02 -0.24915593722E+02  0.15915465699E+02  0.43591495177E+02  0.47000000000E+01 0. -1.
        -11    1    1    2    0    0 -0.37395998591E+01  0.15985921197E+02  0.52143860765E+02  0.54667325699E+02  0.00000000000E+00 0. -1.
         11    1    1    2    0    0  0.15608836811E+02  0.75793834241E+02 -0.62178931077E+01  0.77633776736E+02  0.00000000000E+00 0.  1.
<mgrwt>
<rscale>  0 0.14698768E+03</rscale>
<asrwt>0</asrwt>
<pdfrwt beam="1">  1        1 0.66062336E-01 0.15553001E+03</pdfrwt>
<pdfrwt beam="2">  1       -1 0.93782742E-02 0.15553001E+03</pdfrwt>
<totfact> 0.36259675E+03</totfact>
</mgrwt>
</event>
<event>
 7    1  0.6419647E-006  0.1435991E+03  0.7546771E-02  0.1218939E+00
          1   -1    0    0  501    0  0.00000000000E+00  0.00000000000E+00  0.10534249483E+04  0.10534249483E+04  0.00000000000E+00 0. -1.
         -1   -1    0    0    0  501 -0.00000000000E+00 -0.00000000000E+00 -0.22026505921E+02  0.22026505921E+02  0.00000000000E+00 0.  1.
         23    2    1    2    0    0 -0.38211708862E+02 -0.59460908987E+02  0.83888423559E+03  0.85108605458E+03  0.12499990872E+03 0.  0.
          5    1    3    3  502    0  0.18561833200E+02  0.30190309368E+02  0.16025214496E+03  0.16419146262E+03  0.47000000000E+01 0. -1.
         -5    1    3    3    0  502 -0.56773542062E+02 -0.89651218355E+02  0.67863209063E+03  0.68689459196E+03  0.47000000000E+01 0. -1.
        -11    1    1    2    0    0  0.29156452180E+01  0.47389910601E+02  0.17818920180E+03  0.18440633463E+03  0.00000000000E+00 0. -1.
         11    1    1    2    0    0  0.35296063644E+02  0.12070998386E+02  0.14325005025E+02  0.39959065052E+02  0.00000000000E+00 0.  1.
<mgrwt>
<rscale>  0 0.13591141E+03</rscale>
<asrwt>0</asrwt>
<pdfrwt beam="1">  1        1 0.16206534E+00 0.14359913E+03</pdfrwt>
<pdfrwt beam="2">  1       -1 0.33886940E-02 0.14359913E+03</pdfrwt>
<totfact> 0.45056789E+03</totfact>
</mgrwt>
</event>
<event>
 7    1  0.6419647E-006  0.1410624E+03  0.7546771E-02  0.1221549E+00
          2   -1    0    0  501    0  0.00000000000E+00  0.00000000000E+00  0.27752331378E+03  0.27752331378E+03  0.00000000000E+00 0. -1.
         -2   -1    0    0    0  501 -0.00000000000E+00 -0.00000000000E+00 -0.75359254613E+02  0.75359254613E+02  0.00000000000E+00 0.  1.
         23    2    1    2    0    0  0.57537855211E+02 -0.31056754765E+02  0.19074311104E+03  0.23723730043E+03  0.12499390187E+03 0.  0.
          5    1    3    3  502    0  0.16822528678E+02 -0.51964808879E+02  0.16839175826E+02  0.57349687666E+02  0.47000000000E+01 0.  1.
         -5    1    3    3    0  502  0.40715326533E+02  0.20908054114E+02  0.17390393521E+03  0.17988761276E+03  0.47000000000E+01 0.  1.
        -11    1    1    2    0    0  0.26559979560E+02  0.10042622363E+02  0.25924319372E+01  0.28513286053E+02  0.00000000000E+00 0. -1.
         11    1    1    2    0    0 -0.84097834771E+02  0.21014132402E+02  0.88285161878E+01  0.87131981912E+02  0.00000000000E+00 0.  1.
<mgrwt>
<rscale>  0 0.13406282E+03</rscale>
<asrwt>0</asrwt>
<pdfrwt beam="1">  1        2 0.42695894E-01 0.14106241E+03</pdfrwt>
<pdfrwt beam="2">  1       -2 0.11593732E-01 0.14106241E+03</pdfrwt>
<totfact> 0.59564616E+03</totfact>
</mgrwt>
</event>
<event>
 7    1  0.6419647E-006  0.1308755E+03  0.7546771E-02  0.1238438E+00
         -2   -1    0    0    0  501 -0.00000000000E+00  0.00000000000E+00  0.62835424269E+02  0.62835424269E+02  0.00000000000E+00 0.  1.
          2   -1    0    0  501    0  0.00000000000E+00 -0.00000000000E+00 -0.24871769802E+03  0.24871769802E+03  0.00000000000E+00 0. -1.
         23    2    1    2    0    0 -0.37789309958E+02 -0.87266074123E+01 -0.15987074199E+03  0.20660845703E+03  0.12499685895E+03 0.  0.
          5    1    3    3  502    0  0.44179534052E+02  0.12054786172E+02 -0.61037880192E+02  0.76451696627E+02  0.47000000000E+01 0.  1.
         -5    1    3    3    0  502 -0.81968844010E+02 -0.20781393584E+02 -0.98832861801E+02  0.13015676041E+03  0.47000000000E+01 0.  1.
        -11    1    1    2    0    0 -0.18438735745E+02  0.25926003084E+02  0.13013572693E+02  0.34372920825E+02  0.00000000000E+00 0.  1.
         11    1    1    2    0    0  0.56228045702E+02 -0.17199395672E+02 -0.39025104456E+02  0.70571744436E+02  0.00000000000E+00 0. -1.
<mgrwt>
<rscale>  0 0.12286890E+03</rscale>
<asrwt>0</asrwt>
<pdfrwt beam="2">  1        2 0.38264261E-01 0.13087551E+03</pdfrwt>
<pdfrwt beam="1">  1       -2 0.96669883E-02 0.13087551E+03</pdfrwt>
<totfact> 0.88716608E+03</totfact>
</mgrwt>
</event>
<event>
 7    1  0.6419647E-006  0.1921685E+03  0.7546771E-02  0.1161497E+00
         -2   -1    0    0    0  501 -0.00000000000E+00  0.00000000000E+00  0.40043398050E+02  0.40043398050E+02  0.00000000000E+00 0.  1.
          2   -1    0    0  501    0  0.00000000000E+00 -0.00000000000E+00 -0.11376736521E+04  0.11376736521E+04  0.00000000000E+00 0. -1.
         23    2    1    2    0    0 -0.69587173663E+02 -0.12830543343E+03 -0.88071832662E+03  0.90143968631E+03  0.12499631280E+03 0.  0.
          5    1    3    3  502    0 -0.10537854647E+03 -0.83923275361E+02 -0.60097785732E+03  0.61590927026E+03  0.47000000000E+01 0.  1.
         -5    1    3    3    0  502  0.35791372803E+02 -0.44382158072E+02 -0.27974046930E+03  0.28553041604E+03  0.47000000000E+01 0.  1.
        -11    1    1    2    0    0  0.68638801493E+02  0.36249029673E+02 -0.81650823767E+02  0.11265937264E+03  0.00000000000E+00 0. -1.
         11    1    1    2    0    0  0.94837216938E+00  0.92056403760E+02 -0.13526110370E+03  0.16361799124E+03  0.00000000000E+00 0.  1.
<mgrwt>
<rscale>  0 0.18667239E+03</rscale>
<asrwt>0</asrwt>
<pdfrwt beam="2">  1        2 0.17502670E+00 0.19216851E+03</pdfrwt>
<pdfrwt beam="1">  1       -2 0.61605232E-02 0.19216851E+03</pdfrwt>
<totfact> 0.30667892E+03</totfact>
</mgrwt>
</event>
<event>
 7    1  0.6419647E-006  0.1437201E+03  0.7546771E-02  0.1218844E+00
          1   -1    0    0  501    0  0.00000000000E+00  0.00000000000E+00  0.19767242818E+03  0.19767242818E+03  0.00000000000E+00 0. -1.
         -1   -1    0    0    0  501 -0.00000000000E+00 -0.00000000000E+00 -0.90168496417E+02  0.90168496417E+02  0.00000000000E+00 0.  1.
         23    2    1    2    0    0  0.65990956012E+02 -0.26107650747E+02  0.94347755792E+02  0.17192143267E+03  0.12497625488E+03 0.  0.
          5    1    3    3  502    0 -0.15016968180E+02 -0.39307291836E+02  0.77040770872E+02  0.87908719143E+02  0.47000000000E+01 0.  1.
         -5    1    3    3    0  502  0.81007924192E+02  0.13199641089E+02  0.17306984920E+02  0.84012713525E+02  0.47000000000E+01 0.  1.
        -11    1    1    2    0    0 -0.58397005166E+02 -0.10122711596E+02 -0.23562254447E+02  0.63779772162E+02  0.00000000000E+00 0.  1.
         11    1    1    2    0    0 -0.75939508456E+01  0.36230362344E+02  0.36718430419E+02  0.52139719767E+02  0.00000000000E+00 0. -1.
<mgrwt>
<rscale>  0 0.13597953E+03</rscale>
<asrwt>0</asrwt>
<pdfrwt beam="1">  1        1 0.30411143E-01 0.14372014E+03</pdfrwt>
<pdfrwt beam="2">  1       -1 0.13872076E-01 0.14372014E+03</pdfrwt>
<totfact> 0.51980561E+03</totfact>
</mgrwt>
</event>
<event>
 6    1  0.6419647E-006  0.2316401E+03  0.7546771E-02  0.1145731E+00
         -2   -1    0    0    0  501 -0.00000000000E+00  0.00000000000E+00  0.84598038516E+02  0.84598038516E+02  0.00000000000E+00 0.  1.
          2   -1    0    0  501    0  0.00000000000E+00 -0.00000000000E+00 -0.61478523925E+03  0.61478523925E+03  0.00000000000E+00 0. -1.
          5    1    1    2  502    0 -0.51579255132E+02  0.11116658702E+03 -0.27168045093E+03  0.29807849142E+03  0.47000000000E+01 0. -1.
         -5    1    1    2    0  502 -0.38281885058E+02 -0.10191840460E+03 -0.23326678178E+03  0.25746523144E+03  0.47000000000E+01 0.  1.
        -11    1    1    2    0    0  0.48148722475E+02 -0.29668420929E+02  0.35954857036E+02  0.67016911455E+02  0.00000000000E+00 0.  1.
         11    1    1    2    0    0  0.41712417714E+02  0.20420238508E+02 -0.61194825059E+02  0.76822643447E+02  0.00000000000E+00 0. -1.
<mgrwt>
<rscale>  0 0.20482456E+03</rscale>
<asrwt>0</asrwt>
<pdfrwt beam="2">  1        2 0.94582340E-01 0.23164007E+03</pdfrwt>
<pdfrwt beam="1">  1       -2 0.13015083E-01 0.23164007E+03</pdfrwt>
<totfact> 0.21133142E+03</totfact>
</mgrwt>
</event>
<event>
 7    1  0.6419647E-006  0.1322702E+03  0.7546771E-02  0.1237340E+00
          2   -1    0    0  501    0  0.00000000000E+00  0.00000000000E+00  0.39606403169E+03  0.39606403169E+03  0.00000000000E+00 0. -1.
         -2   -1    0    0    0  501 -0.00000000000E+00 -0.00000000000E+00 -0.36610317063E+02  0.36610317063E+02  0.00000000000E+00 0.  1.
         23    2    1    2    0    0  0.33577773960E+02 -0.27254645012E+02  0.25680839299E+03  0.28887014528E+03  0.12500051018E+03 0.  0.
          5    1    3    3  502    0  0.61045223508E+02 -0.62381479334E+02  0.17236967144E+03  0.19326500436E+03  0.47000000000E+01 0. -1.
         -5    1    3    3    0  502 -0.27467449547E+02  0.35126834323E+02  0.84438721551E+02  0.95605140926E+02  0.47000000000E+01 0. -1.
        -11    1    1    2    0    0 -0.25580766874E+02  0.13355960329E+02  0.11807551252E+03  0.12155074646E+03  0.00000000000E+00 0. -1.
         11    1    1    2    0    0 -0.79970070862E+01  0.13898684683E+02 -0.15430190878E+02  0.22253457007E+02  0.00000000000E+00 0.  1.
<mgrwt>
<rscale>  0 0.12355789E+03</rscale>
<asrwt>0</asrwt>
<pdfrwt beam="1">  1        2 0.60932925E-01 0.13227022E+03</pdfrwt>
<pdfrwt beam="2">  1       -2 0.56323567E-02 0.13227022E+03</pdfrwt>
<totfact> 0.12424286E+04</totfact>
</mgrwt>
</event>
<event>
 7    1  0.6419647E-006  0.1707827E+03  0.7546771E-02  0.1183395E+00
          2   -1    0    0  501    0  0.00000000000E+00  0.00000000000E+00  0.34042773128E+03  0.34042773128E+03  0.00000000000E+00 0.  1.
         -2   -1    0    0    0  501 -0.00000000000E+00 -0.00000000000E+00 -0.90134883264E+02  0.90134883264E+02  0.00000000000E+00 0. -1.
         23    2    1    2    0    0 -0.11392327580E+03  0.23738519825E+02  0.22159407916E+03  0.27976893531E+03  0.12499876461E+03 0.  0.
          5    1    3    3  502    0 -0.66771482428E+02  0.15653425075E+02  0.22126500241E+03  0.23169754396E+03  0.47000000000E+01 0. -1.
         -5    1    3    3    0  502 -0.47151793373E+02  0.80850947504E+01  0.32907674659E+00  0.48071391356E+02  0.47000000000E+01 0. -1.
        -11    1    1    2    0    0  0.59005912822E+02 -0.15628799728E+02 -0.31681456259E+02  0.68772609371E+02  0.00000000000E+00 0.  1.
         11    1    1    2    0    0  0.54917362978E+02 -0.81097200970E+01  0.60380225118E+02  0.82021069865E+02  0.00000000000E+00 0. -1.
<mgrwt>
<rscale>  0 0.16478809E+03</rscale>
<asrwt>0</asrwt>
<pdfrwt beam="1">  1        2 0.52373496E-01 0.17078267E+03</pdfrwt>
<pdfrwt beam="2">  1       -2 0.13866905E-01 0.17078267E+03</pdfrwt>
<totfact> 0.36280473E+03</totfact>
</mgrwt>
</event>
<event>
 7    1  0.6419647E-006  0.1312603E+03  0.7546771E-02  0.1238293E+00
          1   -1    0    0  501    0  0.00000000000E+00  0.00000000000E+00  0.27925244633E+03  0.27925244633E+03  0.00000000000E+00 0. -1.
         -1   -1    0    0    0  501 -0.00000000000E+00 -0.00000000000E+00 -0.61530961493E+02  0.61530961493E+02  0.00000000000E+00 0.  1.
         23    2    1    2    0    0  0.28007589682E+02 -0.28617786528E+02  0.19838047482E+03  0.23787408105E+03  0.12500345139E+03 0.  0.
          5    1    3    3  502    0  0.26691127054E+02 -0.70218804722E+02  0.69828995911E+02  0.10267071379E+03  0.47000000000E+01 0.  1.
         -5    1    3    3    0  502  0.13164626286E+01  0.41601018195E+02  0.12855147891E+03  0.13520336726E+03  0.47000000000E+01 0.  1.
        -11    1    1    2    0    0  0.18211840840E+02 -0.96084255997E+01  0.35279332989E+02  0.40848798335E+02  0.00000000000E+00 0. -1.
         11    1    1    2    0    0 -0.46219430522E+02  0.38226212127E+02 -0.15938322969E+02  0.62060528442E+02  0.00000000000E+00 0.  1.
<mgrwt>
<rscale>  0 0.12295933E+03</rscale>
<asrwt>0</asrwt>
<pdfrwt beam="1">  1        1 0.42961914E-01 0.13126030E+03</pdfrwt>
<pdfrwt beam="2">  1       -1 0.94663019E-02 0.13126030E+03</pdfrwt>
<totfact> 0.60681959E+03</totfact>
</mgrwt>
</event>
<event>
 7    1  0.6419647E-006  0.1497834E+03  0.7546771E-02  0.1210309E+00
         -2   -1    0    0    0  501 -0.00000000000E+00  0.00000000000E+00  0.13880340547E+02  0.13880340547E+02  0.00000000000E+00 0.  1.
          2   -1    0    0  501    0  0.00000000000E+00 -0.00000000000E+00 -0.15833608147E+04  0.15833608147E+04  0.00000000000E+00 0. -1.
         23    2    1    2    0    0  0.55809419584E+02  0.60797957570E+02 -0.11706842197E+04  0.11802273521E+04  0.12499590951E+03 0.  0.
          5    1    3    3  502    0  0.63305728609E+02  0.13446258686E+02 -0.24999887921E+03  0.25828268768E+03  0.47000000000E+01 0. -1.
         -5    1    3    3    0  502 -0.74963090250E+01  0.47351698884E+02 -0.92068534051E+03  0.92194466443E+03  0.47000000000E+01 0. -1.
        -11    1    1    2    0    0 -0.57856821679E+00 -0.17285347043E+02 -0.65156412681E+01  0.18481654275E+02  0.00000000000E+00 0.  1.
         11    1    1    2    0    0 -0.55230851367E+02 -0.43512610526E+02 -0.39228061320E+03  0.39853214890E+03  0.00000000000E+00 0. -1.
<mgrwt>
<rscale>  0 0.14226812E+03</rscale>
<asrwt>0</asrwt>
<pdfrwt beam="2">  1        2 0.24359398E+00 0.14978338E+03</pdfrwt>
<pdfrwt beam="1">  1       -2 0.21354370E-02 0.14978338E+03</pdfrwt>
<totfact> 0.84906753E+03</totfact>
</mgrwt>
</event>
<event>
 7    1  0.6419647E-006  0.1268198E+03  0.7546771E-02  0.1248323E+00
         -2   -1    0    0    0  501 -0.00000000000E+00  0.00000000000E+00  0.60362483521E+01  0.60362483521E+01  0.00000000000E+00 0. -1.
          2   -1    0    0  501    0  0.00000000000E+00 -0.00000000000E+00 -0.24900686467E+04  0.24900686467E+04  0.00000000000E+00 0.  1.
         23    2    1    2    0    0  0.19826325837E+02 -0.81978958125E+01 -0.19632934993E+04  0.19673852227E+04  0.12499184566E+03 0.  0.
          5    1    3    3  502    0 -0.36770716079E+02  0.27257924284E+02 -0.39632043468E+03  0.39898252711E+03  0.47000000000E+01 0. -1.
         -5    1    3    3    0  502  0.56597041916E+02 -0.35455820096E+02 -0.15669730646E+04  0.15684026956E+04  0.47000000000E+01 0. -1.
        -11    1    1    2    0    0 -0.43535991053E+02 -0.25390048332E+02 -0.28971833195E+03  0.29406929275E+03  0.00000000000E+00 0. -1.
         11    1    1    2    0    0  0.23709665217E+02  0.33587944144E+02 -0.23102056711E+03  0.23465037960E+03  0.00000000000E+00 0.  1.
<mgrwt>
<rscale>  0 0.11688707E+03</rscale>
<asrwt>0</asrwt>
<pdfrwt beam="2">  1        2 0.38308810E+00 0.12681975E+03</pdfrwt>
<pdfrwt beam="1">  1       -2 0.92865211E-03 0.12681975E+03</pdfrwt>
<totfact> 0.95349922E+03</totfact>
</mgrwt>
</event>
<event>
 6    1  0.6419647E-006  0.5627836E+03  0.7546771E-02  0.9985776E-01
          1   -1    0    0  501    0  0.00000000000E+00  0.00000000000E+00  0.29325356869E+04  0.29325356869E+04  0.00000000000E+00 0. -1.
         -1   -1    0    0    0  501 -0.00000000000E+00 -0.00000000000E+00 -0.27000985321E+02  0.27000985321E+02  0.00000000000E+00 0.  1.
          5    1    1    2  502    0  0.14080018426E+03  0.10664304790E+03  0.16459372583E+04  0.16553939047E+04  0.47000000000E+01 0. -1.
         -5    1    1    2    0  502 -0.43023825021E+02  0.48091913947E+01  0.92282380281E+03  0.92385065831E+03  0.47000000000E+01 0.  1.
        -11    1    1    2    0    0 -0.57916760150E+02 -0.54534689767E+02  0.74568777329E+02  0.10903616852E+03  0.00000000000E+00 0.  1.
         11    1    1    2    0    0 -0.39859599088E+02 -0.56917549532E+02  0.26220486320E+03  0.27125594071E+03  0.00000000000E+00 0. -1.
<mgrwt>
<rscale>  0 0.56278363E+03</rscale>
<asrwt>0</asrwt>
<pdfrwt beam="1">  1        1 0.45115908E+00 0.56278363E+03</pdfrwt>
<pdfrwt beam="2">  1       -1 0.41540001E-02 0.56278363E+03</pdfrwt>
<totfact> 0.17794522E+02</totfact>
</mgrwt>
</event>
<event>
 7    1  0.6842022E-006  0.1487803E+03  0.7546771E-02  0.1210930E+00
          1   -1    0    0  501    0  0.00000000000E+00  0.00000000000E+00  0.10053800394E+04  0.10053800394E+04  0.00000000000E+00 0. -1.
         -1   -1    0    0    0  501 -0.00000000000E+00 -0.00000000000E+00 -0.20669781748E+02  0.20669781748E+02  0.00000000000E+00 0.  1.
         23    2    1    2    0    0  0.46216503366E+02 -0.66139797180E+02  0.70594532571E+03  0.72145295935E+03  0.12500052687E+03 0.  0.
          5    1    3    3  502    0  0.44659362497E+02  0.11767917611E+02  0.48318637907E+03  0.48541127868E+03  0.47000000000E+01 0.  1.
         -5    1    3    3    0  502  0.15571408689E+01 -0.77907714790E+02  0.22275894663E+03  0.23604168068E+03  0.47000000000E+01 0.  1.
        -11    1    1    2    0    0 -0.69130539430E+02  0.24179272282E+02  0.14306285560E+03  0.16071916296E+03  0.00000000000E+00 0.  1.
         11    1    1    2    0    0  0.22914036064E+02  0.41960524898E+02  0.13570207638E+03  0.14387769887E+03  0.00000000000E+00 0. -1.
<mgrwt>
<rscale>  0 0.14179825E+03</rscale>
<asrwt>0</asrwt>
<pdfrwt beam="1">  1        1 0.15467381E+00 0.14878027E+03</pdfrwt>
<pdfrwt beam="2">  1       -1 0.31799672E-02 0.14878027E+03</pdfrwt>
<totfact> 0.53648116E+03</totfact>
</mgrwt>
</event>
<event>
 6    1  0.6419647E-006  0.3598264E+03  0.7546771E-02  0.1058653E+00
         -1   -1    0    0    0  501 -0.00000000000E+00  0.00000000000E+00  0.58977496327E+02  0.58977496327E+02  0.00000000000E+00 0.  1.
          1   -1    0    0  501    0  0.00000000000E+00 -0.00000000000E+00 -0.54883246706E+03  0.54883246706E+03  0.00000000000E+00 0. -1.
          5    1    1    2  502    0  0.11949405562E+03 -0.26716976984E+02 -0.19638994191E+03  0.23148158776E+03  0.47000000000E+01 0. -1.
         -5    1    1    2    0  502 -0.16925427860E+02 -0.21143432409E+01 -0.21727766736E+03  0.21799682403E+03  0.47000000000E+01 0.  1.
        -11    1    1    2    0    0 -0.23105602599E+02 -0.30764102067E+02 -0.30010940196E+02  0.48795034367E+02  0.00000000000E+00 0. -1.
         11    1    1    2    0    0 -0.79463025159E+02  0.59595422292E+02 -0.46176421267E+02  0.10953651723E+03  0.00000000000E+00 0.  1.
<mgrwt>
<rscale>  0 0.35982643E+03</rscale>
<asrwt>0</asrwt>
<pdfrwt beam="2">  1        1 0.84435764E-01 0.35982643E+03</pdfrwt>
<pdfrwt beam="1">  1       -1 0.90734610E-02 0.35982643E+03</pdfrwt>
<totfact> 0.28306064E+03</totfact>
</mgrwt>
</event>
<event>
 7    1  0.6419647E-006  0.1675092E+03  0.7546771E-02  0.1187026E+00
          2   -1    0    0  501    0  0.00000000000E+00  0.00000000000E+00  0.30562067776E+03  0.30562067776E+03  0.00000000000E+00 0. -1.
         -2   -1    0    0    0  501 -0.00000000000E+00 -0.00000000000E+00 -0.80778309236E+02  0.80778309236E+02  0.00000000000E+00 0.  1.
         23    2    1    2    0    0  0.10172278767E+03 -0.45547714281E+02  0.14245725245E+03  0.21989408612E+03  0.12504887256E+03 0.  0.
          5    1    3    3  502    0  0.71797080076E+02 -0.11017761531E+02  0.15588118068E+03  0.17203849647E+03  0.47000000000E+01 0. -1.
         -5    1    3    3    0  502  0.29925707598E+02 -0.34529952751E+02 -0.13423928232E+02  0.47855589657E+02  0.47000000000E+01 0. -1.
        -11    1    1    2    0    0 -0.90315584610E+02 -0.66471278806E+01  0.59662654667E+02  0.10844686023E+03  0.00000000000E+00 0.  1.
         11    1    1    2    0    0 -0.11407203065E+02  0.52194842162E+02  0.22722461405E+02  0.58058040635E+02  0.00000000000E+00 0. -1.
<mgrwt>
<rscale>  0 0.16148874E+03</rscale>
<asrwt>0</asrwt>
<pdfrwt beam="1">  1        2 0.47018565E-01 0.16750922E+03</pdfrwt>
<pdfrwt beam="2">  1       -2 0.12427432E-01 0.16750922E+03</pdfrwt>
<totfact> 0.48570966E+03</totfact>
</mgrwt>
</event>
<event>
 7    1  0.6419647E-006  0.1398931E+03  0.7546771E-02  0.1224984E+00
         -1   -1    0    0    0  501 -0.00000000000E+00  0.00000000000E+00  0.19089294771E+03  0.19089294771E+03  0.00000000000E+00 0.  1.
          1   -1    0    0  501    0  0.00000000000E+00 -0.00000000000E+00 -0.82538768571E+02  0.82538768571E+02  0.00000000000E+00 0. -1.
         23    2    1    2    0    0  0.62312442744E+02  0.78523001973E+01  0.46679589023E+02  0.14747560159E+03  0.12500227955E+03 0.  0.
          5    1    3    3  502    0 -0.65548864962E+01  0.15824017108E+02  0.71512591248E+02  0.73685186852E+02  0.47000000000E+01 0.  1.
         -5    1    3    3    0  502  0.68867329240E+02 -0.79717169104E+01 -0.24833002225E+02  0.73790414734E+02  0.47000000000E+01 0.  1.
        -11    1    1    2    0    0 -0.31208628229E+02 -0.19699246442E+02  0.79898293010E+02  0.88010090400E+02  0.00000000000E+00 0.  1.
         11    1    1    2    0    0 -0.31103814515E+02  0.11846946244E+02 -0.18223702894E+02  0.37946024295E+02  0.00000000000E+00 0. -1.
<mgrwt>
<rscale>  0 0.13168033E+03</rscale>
<asrwt>0</asrwt>
<pdfrwt beam="2">  1        1 0.12698272E-01 0.13989306E+03</pdfrwt>
<pdfrwt beam="1">  1       -1 0.29368146E-01 0.13989306E+03</pdfrwt>
<totfact> 0.47178096E+03</totfact>
</mgrwt>
</event>
<event>
 7    1  0.6419647E-006  0.1457058E+03  0.7546771E-02  0.1215843E+00
          1   -1    0    0  501    0  0.00000000000E+00  0.00000000000E+00  0.15121449680E+04  0.15121449680E+04  0.00000000000E+00 0. -1.
         -1   -1    0    0    0  501 -0.00000000000E+00 -0.00000000000E+00 -0.13668897349E+02  0.13668897349E+02  0.00000000000E+00 0.  1.
         23    2    1    2    0    0  0.72161097138E+02  0.19978753992E+02  0.11201929445E+04  0.11296293206E+04  0.12499517759E+03 0.  0.
          5    1    3    3  502    0  0.85051115322E+02 -0.32674942525E+02  0.71739065582E+03  0.72316857450E+03  0.47000000000E+01 0.  1.
         -5    1    3    3    0  502 -0.12890018184E+02  0.52653696516E+02  0.40280228870E+03  0.40646074609E+03  0.47000000000E+01 0.  1.
        -11    1    1    2    0    0 -0.76858377915E+01 -0.31391435879E+02  0.39045905755E+02  0.50686064212E+02  0.00000000000E+00 0.  1.
         11    1    1    2    0    0 -0.64475259346E+02  0.11412681888E+02  0.33923722038E+03  0.34549848055E+03  0.00000000000E+00 0. -1.
<mgrwt>
<rscale>  0 0.13814777E+03</rscale>
<asrwt>0</asrwt>
<pdfrwt beam="1">  1        1 0.23263756E+00 0.14570576E+03</pdfrwt>
<pdfrwt beam="2">  1       -1 0.21029085E-02 0.14570576E+03</pdfrwt>
<totfact> 0.44181136E+03</totfact>
</mgrwt>
</event>
<event>
 6    1  0.6419647E-006  0.1700137E+03  0.7546771E-02  0.1193722E+00
         -1   -1    0    0    0  501 -0.00000000000E+00  0.00000000000E+00  0.17358293741E+03  0.17358293741E+03  0.00000000000E+00 0.  1.
          1   -1    0    0  501    0  0.00000000000E+00 -0.00000000000E+00 -0.12143069742E+03  0.12143069742E+03  0.00000000000E+00 0. -1.
          5    1    1    2  502    0  0.67106767183E+02 -0.72850902737E+02 -0.22859523415E+02  0.10176060162E+03  0.47000000000E+01 0. -1.
         -5    1    1    2    0  502  0.82334457652E+01  0.54623208957E+02  0.41540780776E+02  0.69276338337E+02  0.47000000000E+01 0.  1.
        -11    1    1    2    0    0 -0.21126367711E+02 -0.18905086907E+02 -0.23641881087E+02  0.36914282669E+02  0.00000000000E+00 0. -1.
         11    1    1    2    0    0 -0.54213845238E+02  0.37132780687E+02  0.57112863719E+02  0.87062412206E+02  0.00000000000E+00 0.  1.
<mgrwt>
<rscale>  0 0.15562860E+03</rscale>
<asrwt>0</asrwt>
<pdfrwt beam="2">  1        1 0.18681646E-01 0.17001366E+03</pdfrwt>
<pdfrwt beam="1">  1       -1 0.26705067E-01 0.17001366E+03</pdfrwt>
<totfact> 0.33877898E+03</totfact>
</mgrwt>
</event>
<event>
 7    1  0.6419647E-006  0.1582564E+03  0.7546771E-02  0.1198166E+00
         -1   -1    0    0    0  501 -0.00000000000E+00  0.00000000000E+00  0.81617053554E+02  0.81617053554E+02  0.00000000000E+00 0.  1.
          1   -1    0    0  501    0  0.00000000000E+00 -0.00000000000E+00 -0.27476754527E+03  0.27476754527E+03  0.00000000000E+00 0. -1.
         23    2    1    2    0    0 -0.83112328553E+02 -0.50005537498E+02 -0.14216288106E+03  0.21273309821E+03  0.12504748452E+03 0.  0.
          5    1    3    3  502    0 -0.10961324064E+03 -0.10740694387E+02 -0.10620309308E+03  0.15307387765E+03  0.47000000000E+01 0.  1.
         -5    1    3    3    0  502  0.26500912089E+02 -0.39264843111E+02 -0.35959787980E+02  0.59659220558E+02  0.47000000000E+01 0.  1.
        -11    1    1    2    0    0  0.10065180541E+02  0.43700506886E+02  0.12620208150E+02  0.46586605534E+02  0.00000000000E+00 0.  1.
         11    1    1    2    0    0  0.73047148012E+02  0.63050306116E+01 -0.63607818806E+02  0.97064895080E+02  0.00000000000E+00 0. -1.
<mgrwt>
<rscale>  0 0.15189327E+03</rscale>
<asrwt>0</asrwt>
<pdfrwt beam="2">  1        1 0.42271931E-01 0.15825639E+03</pdfrwt>
<pdfrwt beam="1">  1       -1 0.12556470E-01 0.15825639E+03</pdfrwt>
<totfact> 0.40537860E+03</totfact>
</mgrwt>
</event>
<event>
 7    1  0.6419647E-006  0.1397266E+03  0.7546771E-02  0.1224880E+00
         -2   -1    0    0    0  501 -0.00000000000E+00  0.00000000000E+00  0.15158341439E+02  0.15158341439E+02  0.00000000000E+00 0. -1.
          2   -1    0    0  501    0  0.00000000000E+00 -0.00000000000E+00 -0.10479475925E+04  0.10479475925E+04  0.00000000000E+00 0.  1.
         23    2    1    2    0    0  0.12642054001E+02 -0.61147164613E+02 -0.64047385339E+03  0.65553815191E+03  0.12499885784E+03 0.  0.
          5    1    3    3  502    0 -0.53787198145E+02 -0.28648888802E+02 -0.20926696246E+03  0.21801048849E+03  0.47000000000E+01 0.  1.
         -5    1    3    3    0  502  0.66429252147E+02 -0.32498275810E+02 -0.43120689094E+03  0.43752766343E+03  0.47000000000E+01 0.  1.
        -11    1    1    2    0    0  0.33383520753E+02  0.20853304633E+02 -0.78154615831E+02  0.87506935426E+02  0.00000000000E+00 0.  1.
         11    1    1    2    0    0 -0.46025574754E+02  0.40293859980E+02 -0.31416078184E+03  0.32006084660E+03  0.00000000000E+00 0. -1.
<mgrwt>
<rscale>  0 0.13175126E+03</rscale>
<asrwt>0</asrwt>
<pdfrwt beam="2">  1        2 0.16122276E+00 0.13972656E+03</pdfrwt>
<pdfrwt beam="1">  1       -2 0.23320517E-02 0.13972656E+03</pdfrwt>
<totfact> 0.14536710E+04</totfact>
</mgrwt>
</event>
<event>
 7    1  0.6419647E-006  0.1263747E+03  0.7546771E-02  0.1244491E+00
          1   -1    0    0  501    0  0.00000000000E+00  0.00000000000E+00  0.21001856720E+03  0.21001856720E+03  0.00000000000E+00 0. -1.
         -1   -1    0    0    0  501 -0.00000000000E+00 -0.00000000000E+00 -0.61586374589E+02  0.61586374589E+02  0.00000000000E+00 0.  1.
         23    2    1    2    0    0 -0.78287804628E+01  0.16893073016E+02  0.96601405666E+02  0.15906727228E+03  0.12499559918E+03 0.  0.
          5    1    3    3  502    0 -0.53054010714E+02 -0.27270301511E+02  0.29334585708E+02  0.66640868212E+02  0.47000000000E+01 0.  1.
         -5    1    3    3    0  502  0.45225230251E+02  0.44163374528E+02  0.67266819958E+02  0.92426404064E+02  0.47000000000E+01 0.  1.
        -11    1    1    2    0    0 -0.24146694240E+02  0.94097855928E+01 -0.17861334461E+02  0.31474341556E+02  0.00000000000E+00 0.  1.
         11    1    1    2    0    0  0.31975474703E+02 -0.26302858609E+02  0.69692121402E+02  0.81063327954E+02  0.00000000000E+00 0. -1.
<mgrwt>
<rscale>  0 0.11915909E+03</rscale>
<asrwt>0</asrwt>
<pdfrwt beam="1">  1        1 0.32310548E-01 0.12637470E+03</pdfrwt>
<pdfrwt beam="2">  1       -1 0.94748270E-02 0.12637470E+03</pdfrwt>
<totfact> 0.85930536E+03</totfact>
</mgrwt>
</event>
<event>
 7    1  0.6419647E-006  0.1391399E+03  0.7546771E-02  0.1225355E+00
          2   -1    0    0  501    0  0.00000000000E+00  0.00000000000E+00  0.26190112630E+03  0.26190112630E+03  0.00000000000E+00 0. -1.
         -2   -1    0    0    0  501 -0.00000000000E+00 -0.00000000000E+00 -0.62348666794E+02  0.62348666794E+02  0.00000000000E+00 0.  1.
         23    2    1    2    0    0 -0.55167029539E+01 -0.60865822113E+02  0.14437704979E+03  0.20051093128E+03  0.12499927497E+03 0.  0.
          5    1    3    3  502    0  0.40479187239E+02 -0.67223614249E+02  0.12956224040E+03  0.15154551478E+03  0.47000000000E+01 0.  1.
         -5    1    3    3    0  502 -0.45995890193E+02  0.63577921365E+01  0.14814809388E+02  0.48965416497E+02  0.47000000000E+01 0.  1.
        -11    1    1    2    0    0 -0.74202104516E+01  0.29703457828E+02  0.77468031426E+02  0.83298564352E+02  0.00000000000E+00 0. -1.
         11    1    1    2    0    0  0.12936913405E+02  0.31162364285E+02 -0.22292621709E+02  0.40440297464E+02  0.00000000000E+00 0.  1.
<mgrwt>
<rscale>  0 0.13142588E+03</rscale>
<asrwt>0</asrwt>
<pdfrwt beam="1">  1        2 0.40292480E-01 0.13913986E+03</pdfrwt>
<pdfrwt beam="2">  1       -2 0.95921027E-02 0.13913986E+03</pdfrwt>
<totfact> 0.85377143E+03</totfact>
</mgrwt>
</event>
<event>
 7    1  0.6419647E-006  0.1342920E+03  0.7546771E-02  0.1233830E+00
          1   -1    0    0  501    0  0.00000000000E+00  0.00000000000E+00  0.65930856795E+03  0.65930856795E+03  0.00000000000E+00 0. -1.
         -1   -1    0    0    0  501 -0.00000000000E+00 -0.00000000000E+00 -0.21428010920E+02  0.21428010920E+02  0.00000000000E+00 0.  1.
         23    2    1    2    0    0 -0.12590714951E+02 -0.47441538148E+02  0.35527997776E+03  0.37981337790E+03  0.12500045518E+03 0.  0.
          5    1    3    3  502    0 -0.24089276525E+02  0.23008807129E+02  0.25165648647E+03  0.25389520601E+03  0.47000000000E+01 0. -1.
         -5    1    3    3    0  502  0.11498561575E+02 -0.70450345277E+02  0.10362349128E+03  0.12591817190E+03  0.47000000000E+01 0. -1.
        -11    1    1    2    0    0 -0.16056877433E+02  0.86590930517E+01  0.46561654862E+01  0.18827721116E+02  0.00000000000E+00 0.  1.
         11    1    1    2    0    0  0.28647592384E+02  0.38782445097E+02  0.27794441378E+03  0.28209547985E+03  0.00000000000E+00 0. -1.
<mgrwt>
<rscale>  0 0.12579644E+03</rscale>
<asrwt>0</asrwt>
<pdfrwt beam="1">  1        1 0.10143207E+00 0.13429199E+03</pdfrwt>
<pdfrwt beam="2">  1       -1 0.32966176E-02 0.13429199E+03</pdfrwt>
<totfact> 0.96534890E+03</totfact>
</mgrwt>
</event>
<event>
 7    1  0.6419647E-006  0.2008184E+03  0.7546771E-02  0.1153315E+00
          1   -1    0    0  501    0  0.00000000000E+00  0.00000000000E+00  0.90919308166E+03  0.90919308166E+03  0.00000000000E+00 0. -1.
         -1   -1    0    0    0  501 -0.00000000000E+00 -0.00000000000E+00 -0.40223331691E+02  0.40223331691E+02  0.00000000000E+00 0.  1.
         23    2    1    2    0    0  0.14975083910E+03 -0.47730229541E+02  0.46699202325E+03  0.50834003457E+03  0.12499820937E+03 0.  0.
          5    1    3    3  502    0  0.28752746146E+02 -0.70418366982E+02  0.20852475776E+03  0.22201380907E+03  0.47000000000E+01 0. -1.
         -5    1    3    3    0  502  0.12099809296E+03  0.22688137441E+02  0.25846726549E+03  0.28632622550E+03  0.47000000000E+01 0. -1.
        -11    1    1    2    0    0 -0.11535618971E+03  0.16183510914E+02  0.35974318394E+03  0.37813240395E+03  0.00000000000E+00 0. -1.
         11    1    1    2    0    0 -0.34394649390E+02  0.31546718628E+02  0.42234542781E+02  0.62943974825E+02  0.00000000000E+00 0.  1.
<mgrwt>
<rscale>  0 0.19581900E+03</rscale>
<asrwt>0</asrwt>
<pdfrwt beam="1">  1        1 0.13987584E+00 0.20081843E+03</pdfrwt>
<pdfrwt beam="2">  1       -1 0.61882056E-02 0.20081843E+03</pdfrwt>
<totfact> 0.23818406E+03</totfact>
</mgrwt>
</event>
<event>
 7    1  0.6419647E-006  0.1754550E+03  0.7546771E-02  0.1178463E+00
         -1   -1    0    0    0  501 -0.00000000000E+00  0.00000000000E+00  0.15549199025E+03  0.15549199025E+03  0.00000000000E+00 0.  1.
          1   -1    0    0  501    0  0.00000000000E+00 -0.00000000000E+00 -0.21506636411E+03  0.21506636411E+03  0.00000000000E+00 0. -1.
         23    2    1    2    0    0  0.12247712496E+03 -0.12518153365E+02 -0.11331458059E+03  0.20886516756E+03  0.12500845468E+03 0.  0.
          5    1    3    3  502    0  0.40675933099E+02  0.16953467607E+02 -0.11344036810E+03  0.12178981367E+03  0.47000000000E+01 0. -1.
         -5    1    3    3    0  502  0.81801191861E+02 -0.29471620972E+02  0.12578751078E+00  0.87075353890E+02  0.47000000000E+01 0. -1.
        -11    1    1    2    0    0 -0.51387858456E+02 -0.39164291801E+02  0.22788713075E+02  0.68511890885E+02  0.00000000000E+00 0.  1.
         11    1    1    2    0    0 -0.71089266504E+02  0.51682445167E+02  0.30951493659E+02  0.93181295925E+02  0.00000000000E+00 0. -1.
<mgrwt>
<rscale>  0 0.16941147E+03</rscale>
<asrwt>0</asrwt>
<pdfrwt beam="2">  1        1 0.33087133E-01 0.17545502E+03</pdfrwt>
<pdfrwt beam="1">  1       -1 0.23921845E-01 0.17545502E+03</pdfrwt>
<totfact> 0.19747909E+03</totfact>
</mgrwt>
</event>
<event>
 7    1  0.6419647E-006  0.1450651E+03  0.7546771E-02  0.1217351E+00
         -1   -1    0    0    0  501 -0.00000000000E+00  0.00000000000E+00  0.15287508884E+03  0.15287508884E+03  0.00000000000E+00 0.  1.
          1   -1    0    0  501    0  0.00000000000E+00 -0.00000000000E+00 -0.11242394896E+03  0.11242394896E+03  0.00000000000E+00 0. -1.
         23    2    1    2    0    0 -0.16325719418E+02  0.72043458328E+02  0.81399239668E+01  0.14529325918E+03  0.12484824308E+03 0.  0.
          5    1    3    3  502    0 -0.60873935757E+01  0.75516294706E+02 -0.46752244840E+02  0.89149478542E+02  0.47000000000E+01 0. -1.
         -5    1    3    3    0  502 -0.10238325843E+02 -0.34728363784E+01  0.54892168807E+02  0.56143780643E+02  0.47000000000E+01 0. -1.
        -11    1    1    2    0    0 -0.64687458457E+01 -0.71177143773E+02 -0.97744049067E+01  0.72135771014E+02  0.00000000000E+00 0. -1.
         11    1    1    2    0    0  0.22794465264E+02 -0.86631455463E+00  0.42085620824E+02  0.47870007601E+02  0.00000000000E+00 0.  1.
<mgrwt>
<rscale>  0 0.13705259E+03</rscale>
<asrwt>0</asrwt>
<pdfrwt beam="2">  1        1 0.17295992E-01 0.14506506E+03</pdfrwt>
<pdfrwt beam="1">  1       -1 0.23519244E-01 0.14506506E+03</pdfrwt>
<totfact> 0.45731738E+03</totfact>
</mgrwt>
</event>
<event>
 7    1  0.6419647E-006  0.1493676E+03  0.7546771E-02  0.1211311E+00
         -2   -1    0    0    0  501 -0.00000000000E+00  0.00000000000E+00  0.64535033765E+02  0.64535033765E+02  0.00000000000E+00 0.  1.
          2   -1    0    0  501    0  0.00000000000E+00 -0.00000000000E+00 -0.29097039693E+03  0.29097039693E+03  0.00000000000E+00 0. -1.
         23    2    1    2    0    0  0.39366797801E+02  0.71671129531E+02 -0.15643987824E+03  0.21629638865E+03  0.12499678661E+03 0.  0.
          5    1    3    3  502    0 -0.14923038743E+02 -0.52835102314E+01 -0.10991501428E+03  0.11114860741E+03  0.47000000000E+01 0. -1.
         -5    1    3    3    0  502  0.54289836543E+02  0.76954639762E+02 -0.46524863965E+02  0.10514778124E+03  0.47000000000E+01 0. -1.
        -11    1    1    2    0    0 -0.67947394946E+02 -0.50086784059E+02 -0.51764498120E+02  0.99020693205E+02  0.00000000000E+00 0.  1.
         11    1    1    2    0    0  0.28580597145E+02 -0.21584345472E+02 -0.18230986805E+02  0.40188348840E+02  0.00000000000E+00 0. -1.
<mgrwt>
<rscale>  0 0.14151018E+03</rscale>
<asrwt>0</asrwt>
<pdfrwt beam="2">  1        2 0.44764676E-01 0.14936764E+03</pdfrwt>
<pdfrwt beam="1">  1       -2 0.99284668E-02 0.14936764E+03</pdfrwt>
<totfact> 0.72668890E+03</totfact>
</mgrwt>
</event>
<event>
 6    1  0.6419647E-006  0.1349882E+03  0.7546771E-02  0.1234633E+00
         -2   -1    0    0    0  501 -0.00000000000E+00  0.00000000000E+00  0.94033848668E+01  0.94033848668E+01  0.00000000000E+00 0.  1.
          2   -1    0    0  501    0  0.00000000000E+00 -0.00000000000E+00 -0.16161221545E+04  0.16161221545E+04  0.00000000000E+00 0. -1.
          5    1    1    2  502    0 -0.63663522131E+02 -0.32709173726E+02 -0.38236300440E+03  0.38903276369E+03  0.47000000000E+01 0. -1.
         -5    1    1    2    0  502  0.25893145751E+02  0.34076375616E+02 -0.77130073084E+03  0.77250149629E+03  0.47000000000E+01 0.  1.
        -11    1    1    2    0    0  0.68454524055E+02  0.49548142588E+01 -0.29775273866E+03  0.30556057571E+03  0.00000000000E+00 0.  1.
         11    1    1    2    0    0 -0.30684147675E+02 -0.63220161485E+01 -0.15530229578E+03  0.15843070372E+03  0.00000000000E+00 0. -1.
<mgrwt>
<rscale>  0 0.12527932E+03</rscale>
<asrwt>0</asrwt>
<pdfrwt beam="2">  1        2 0.24863423E+00 0.13498823E+03</pdfrwt>
<pdfrwt beam="1">  1       -2 0.14466743E-02 0.13498823E+03</pdfrwt>
<totfact> 0.14294726E+04</totfact>
</mgrwt>
</event>
<event>
 7    1  0.6419647E-006  0.1310375E+03  0.7546771E-02  0.1233705E+00
          1   -1    0    0  501    0  0.00000000000E+00  0.00000000000E+00  0.31071237797E+03  0.31071237797E+03  0.00000000000E+00 0. -1.
         -1   -1    0    0    0  501 -0.00000000000E+00 -0.00000000000E+00 -0.23406203938E+03  0.23406203938E+03  0.00000000000E+00 0.  1.
         23    2    1    2    0    0 -0.98690984767E+01 -0.66091024291E+02  0.28206090174E+03  0.31101313153E+03  0.11271820216E+03 0.  0.
          5    1    3    3  502    0  0.34648827685E+02  0.13771460540E+02  0.59717025396E+02  0.70557830943E+02  0.47000000000E+01 0. -1.
         -5    1    3    3    0  502 -0.44517926162E+02 -0.79862484831E+02  0.22234387634E+03  0.24045530059E+03  0.47000000000E+01 0.  1.
        -11    1    1    2    0    0  0.63761422283E+01 -0.21996475474E+02 -0.52107955133E+02  0.56918706162E+02  0.00000000000E+00 0. -1.
         11    1    1    2    0    0  0.34929562484E+01  0.88087499765E+02 -0.15330260801E+03  0.17684257966E+03  0.00000000000E+00 0.  1.
<mgrwt>
<rscale>  0 0.12587701E+03</rscale>
<asrwt>0</asrwt>
<pdfrwt beam="1">  1        1 0.47801904E-01 0.13103746E+03</pdfrwt>
<pdfrwt beam="2">  1       -1 0.36009544E-01 0.13103746E+03</pdfrwt>
<totfact> 0.62562709E+02</totfact>
</mgrwt>
</event>
<event>
 7    1  0.9214153E-006  0.1721063E+03  0.7546771E-02  0.1182077E+00
          3   -1    0    0  501    0  0.00000000000E+00  0.00000000000E+00  0.10748809870E+03  0.10748809870E+03  0.00000000000E+00 0. -1.
         -3   -1    0    0    0  501 -0.00000000000E+00 -0.00000000000E+00 -0.24410531697E+03  0.24410531697E+03  0.00000000000E+00 0.  1.
         23    2    1    2    0    0 -0.10220226103E+03 -0.59570707753E+02 -0.49803323673E+02  0.17916739579E+03  0.12500645298E+03 0.  0.
          5    1    3    3  502    0 -0.53266517540E+02 -0.30957570343E+01 -0.81772424934E+02  0.97753389108E+02  0.47000000000E+01 0.  1.
         -5    1    3    3    0  502 -0.48935743486E+02 -0.56474950718E+02  0.31969101261E+02  0.81414006685E+02  0.47000000000E+01 0.  1.
        -11    1    1    2    0    0  0.46549373555E+02  0.23552735754E+01 -0.79653372029E+02  0.92287871183E+02  0.00000000000E+00 0.  1.
         11    1    1    2    0    0  0.55652887471E+02  0.57215434177E+02 -0.71605225639E+01  0.80138148689E+02  0.00000000000E+00 0. -1.
<mgrwt>
<rscale>  0 0.16600733E+03</rscale>
<asrwt>0</asrwt>
<pdfrwt beam="1">  1        3 0.16536631E-01 0.17210632E+03</pdfrwt>
<pdfrwt beam="2">  1       -3 0.37554664E-01 0.17210632E+03</pdfrwt>
<totfact> 0.52682997E+02</totfact>
</mgrwt>
</event>
<event>
 7    1  0.6419647E-006  0.1821284E+03  0.7546771E-02  0.1167780E+00
          2   -1    0    0  501    0  0.00000000000E+00  0.00000000000E+00  0.93608092049E+03  0.93608092049E+03  0.00000000000E+00 0. -1.
         -2   -1    0    0    0  501 -0.00000000000E+00 -0.00000000000E+00 -0.34046400205E+02  0.34046400205E+02  0.00000000000E+00 0.  1.
         23    2    1    2    0    0  0.67576078968E+02  0.11392607259E+03  0.42409499168E+03  0.46154881771E+03  0.12500029080E+03 0.  0.
          5    1    3    3  502    0  0.23841648726E+00 -0.25609303394E+02  0.45027306371E+02  0.52013859516E+02  0.47000000000E+01 0.  1.
         -5    1    3    3    0  502  0.67337662481E+02  0.13953537598E+03  0.37906768531E+03  0.40953495819E+03  0.47000000000E+01 0.  1.
        -11    1    1    2    0    0 -0.95787691557E+01 -0.95147837498E+02  0.17362811753E+03  0.19822105588E+03  0.00000000000E+00 0.  1.
         11    1    1    2    0    0 -0.57997309812E+02 -0.18778235091E+02  0.30431141108E+03  0.31035744710E+03  0.00000000000E+00 0. -1.
<mgrwt>
<rscale>  0 0.18002410E+03</rscale>
<asrwt>0</asrwt>
<pdfrwt beam="1">  1        2 0.14401243E+00 0.18212839E+03</pdfrwt>
<pdfrwt beam="2">  1       -2 0.52379084E-02 0.18212839E+03</pdfrwt>
<totfact> 0.51729454E+03</totfact>
</mgrwt>
</event>
<event>
 6    1  0.6419647E-006  0.3956823E+03  0.7546771E-02  0.1096982E+00
         -2   -1    0    0    0  501 -0.00000000000E+00  0.00000000000E+00  0.50306582106E+02  0.50306582106E+02  0.00000000000E+00 0.  1.
          2   -1    0    0  501    0  0.00000000000E+00 -0.00000000000E+00 -0.12334776700E+04  0.12334776700E+04  0.00000000000E+00 0. -1.
          5    1    1    2  502    0  0.13724260365E+03  0.92871377972E+02 -0.69214980440E+03  0.71172611785E+03  0.47000000000E+01 0. -1.
         -5    1    1    2    0  502 -0.17107616306E+03 -0.98707654752E+02 -0.33384475592E+03  0.38792353078E+03  0.47000000000E+01 0.  1.
        -11    1    1    2    0    0  0.24605598993E+02 -0.20400226626E+02 -0.15264545288E+03  0.15595588810E+03  0.00000000000E+00 0.  1.
         11    1    1    2    0    0  0.92279604220E+01  0.26236503405E+02 -0.45310747375E+01  0.28178715421E+02  0.00000000000E+00 0. -1.
<mgrwt>
<rscale>  0 0.27764504E+03</rscale>
<asrwt>0</asrwt>
<pdfrwt beam="2">  1        2 0.18976579E+00 0.39568234E+03</pdfrwt>
<pdfrwt beam="1">  1       -2 0.77394745E-02 0.39568234E+03</pdfrwt>
<totfact> 0.19018984E+03</totfact>
</mgrwt>
</event>
<event>
 7    1  0.6419647E-006  0.1521987E+03  0.7546771E-02  0.1206665E+00
         -1   -1    0    0    0  501 -0.00000000000E+00  0.00000000000E+00  0.16079208809E+03  0.16079208809E+03  0.00000000000E+00 0.  1.
          1   -1    0    0  501    0  0.00000000000E+00 -0.00000000000E+00 -0.40809344345E+03  0.40809344345E+03  0.00000000000E+00 0. -1.
         23    2    1    2    0    0 -0.59438421149E+02  0.63298701044E+02 -0.36579386071E+03  0.39619387104E+03  0.12499913383E+03 0.  0.
          5    1    3    3  502    0  0.14880264378E+02 -0.11233197598E+02 -0.43580962005E+01  0.19715222513E+02  0.47000000000E+01 0. -1.
         -5    1    3    3    0  502 -0.74318685527E+02  0.74531898642E+02 -0.36143576451E+03  0.37647864853E+03  0.47000000000E+01 0. -1.
        -11    1    1    2    0    0  0.59903040308E+02 -0.22469107146E+02  0.21565766040E+02  0.67515311440E+02  0.00000000000E+00 0. -1.
         11    1    1    2    0    0 -0.46461915851E+00 -0.40829593898E+02  0.96926739309E+02  0.10517634906E+03  0.00000000000E+00 0.  1.
<mgrwt>
<rscale>  0 0.14507019E+03</rscale>
<asrwt>0</asrwt>
<pdfrwt beam="2">  1        1 0.62783605E-01 0.15219867E+03</pdfrwt>
<pdfrwt beam="1">  1       -1 0.24737245E-01 0.15219867E+03</pdfrwt>
<totfact> 0.83698637E+02</totfact>
</mgrwt>
</event>
<event>
 6    1  0.6419647E-006  0.1672621E+03  0.7546771E-02  0.1201256E+00
         -2   -1    0    0    0  501 -0.00000000000E+00  0.00000000000E+00  0.50528290625E+02  0.50528290625E+02  0.00000000000E+00 0.  1.
          2   -1    0    0  501    0  0.00000000000E+00 -0.00000000000E+00 -0.37400382980E+03  0.37400382980E+03  0.00000000000E+00 0. -1.
          5    1    1    2  502    0  0.39336536301E+02  0.60422317442E+02 -0.17644491200E+03  0.19066493255E+03  0.47000000000E+01 0. -1.
         -5    1    1    2    0  502  0.27198101091E+02 -0.45252293983E+02 -0.75948230525E+00  0.53011070797E+02  0.47000000000E+01 0.  1.
        -11    1    1    2    0    0 -0.39033829536E+02  0.27694584667E+02 -0.37671153599E+02  0.60907681630E+02  0.00000000000E+00 0. -1.
         11    1    1    2    0    0 -0.27500807856E+02 -0.42864608126E+02 -0.10859999127E+03  0.11994843544E+03  0.00000000000E+00 0.  1.
<mgrwt>
<rscale>  0 0.14936492E+03</rscale>
<asrwt>0</asrwt>
<pdfrwt beam="2">  1        2 0.57539051E-01 0.16726206E+03</pdfrwt>
<pdfrwt beam="1">  1       -2 0.77735832E-02 0.16726206E+03</pdfrwt>
<totfact> 0.82047814E+03</totfact>
</mgrwt>
</event>
<event>
 7    1  0.6419647E-006  0.1416277E+03  0.7546771E-02  0.1221315E+00
          2   -1    0    0  501    0  0.00000000000E+00  0.00000000000E+00  0.53146124887E+03  0.53146124887E+03  0.00000000000E+00 0. -1.
         -2   -1    0    0    0  501 -0.00000000000E+00 -0.00000000000E+00 -0.34603094307E+02  0.34603094307E+02  0.00000000000E+00 0.  1.
         23    2    1    2    0    0 -0.45847265027E+02 -0.48314378135E+02  0.36539830661E+03  0.39188560778E+03  0.12498862453E+03 0.  0.
          5    1    3    3  502    0 -0.66356184599E+02 -0.28075910634E+02  0.92085760342E+02  0.11701827742E+03  0.47000000000E+01 0.  1.
         -5    1    3    3    0  502  0.20508919572E+02 -0.20238467502E+02  0.27331254627E+03  0.27486733036E+03  0.47000000000E+01 0.  1.
        -11    1    1    2    0    0  0.40185340920E+01 -0.27400268336E+02  0.34559426053E+02  0.44286309965E+02  0.00000000000E+00 0.  1.
         11    1    1    2    0    0  0.41828730935E+02  0.75714646471E+02  0.96900421899E+02  0.12989242544E+03  0.00000000000E+00 0. -1.
<mgrwt>
<rscale>  0 0.13422694E+03</rscale>
<asrwt>0</asrwt>
<pdfrwt beam="1">  1        2 0.81763263E-01 0.14162771E+03</pdfrwt>
<pdfrwt beam="2">  1       -2 0.53235534E-02 0.14162771E+03</pdfrwt>
<totfact> 0.98768982E+03</totfact>
</mgrwt>
</event>
<event>
 7    1  0.6419647E-006  0.1357649E+03  0.7546771E-02  0.1230734E+00
         -2   -1    0    0    0  501 -0.00000000000E+00  0.00000000000E+00  0.83241433515E+02  0.83241433515E+02  0.00000000000E+00 0. -1.
          2   -1    0    0  501    0  0.00000000000E+00 -0.00000000000E+00 -0.18571861360E+03  0.18571861360E+03  0.00000000000E+00 0.  1.
         23    2    1    2    0    0 -0.43664523817E+02 -0.30001889032E+02 -0.86855605989E+02  0.16117077171E+03  0.12500166949E+03 0.  0.
          5    1    3    3  502    0  0.10646456635E+02 -0.57809792159E+02 -0.52986905410E+01  0.59207138334E+02  0.47000000000E+01 0.  1.
         -5    1    3    3    0  502 -0.54310980452E+02  0.27807903127E+02 -0.81556915448E+02  0.10196363338E+03  0.47000000000E+01 0.  1.
        -11    1    1    2    0    0  0.63160649381E+02  0.44947675158E+02  0.20160374074E+01  0.77547569524E+02  0.00000000000E+00 0. -1.
         11    1    1    2    0    0 -0.19496125564E+02 -0.14945786126E+02 -0.17637611501E+02  0.30241705878E+02  0.00000000000E+00 0.  1.
<mgrwt>
<rscale>  0 0.12781513E+03</rscale>
<asrwt>0</asrwt>
<pdfrwt beam="2">  1        2 0.28572094E-01 0.13576495E+03</pdfrwt>
<pdfrwt beam="1">  1       -2 0.12806375E-01 0.13576495E+03</pdfrwt>
<totfact> 0.77966713E+03</totfact>
</mgrwt>
</event>
<event>
 7    1  0.6419647E-006  0.1473362E+03  0.7546771E-02  0.1213957E+00
          2   -1    0    0  501    0  0.00000000000E+00  0.00000000000E+00  0.79016888181E+03  0.79016888181E+03  0.00000000000E+00 0. -1.
         -2   -1    0    0    0  501 -0.00000000000E+00 -0.00000000000E+00 -0.22623808670E+02  0.22623808670E+02  0.00000000000E+00 0.  1.
         23    2    1    2    0    0  0.46010401607E+02  0.62969353864E+02  0.46830427660E+03  0.49093465866E+03  0.12500338798E+03 0.  0.
          5    1    3    3  502    0  0.83428550452E+02  0.68664268618E+02  0.31898141425E+03  0.33681795892E+03  0.47000000000E+01 0. -1.
         -5    1    3    3    0  502 -0.37418148845E+02 -0.56949147537E+01  0.14932286235E+03  0.15411669974E+03  0.47000000000E+01 0. -1.
        -11    1    1    2    0    0 -0.67727649622E+01  0.11200090528E+02  0.22995904663E+01  0.13289111685E+02  0.00000000000E+00 0.  1.
         11    1    1    2    0    0 -0.39237636645E+02 -0.74169444392E+02  0.29694120608E+03  0.30856892014E+03  0.00000000000E+00 0. -1.
<mgrwt>
<rscale>  0 0.13953464E+03</rscale>
<asrwt>0</asrwt>
<pdfrwt beam="1">  1        2 0.12156442E+00 0.14733616E+03</pdfrwt>
<pdfrwt beam="2">  1       -2 0.34805866E-02 0.14733616E+03</pdfrwt>
<totfact> 0.11754785E+04</totfact>
</mgrwt>
</event>
<event>
 7    1  0.6419647E-006  0.1659990E+03  0.7546771E-02  0.1189218E+00
          2   -1    0    0  501    0  0.00000000000E+00  0.00000000000E+00  0.75702988764E+03  0.75702988764E+03  0.00000000000E+00 0. -1.
         -2   -1    0    0    0  501 -0.00000000000E+00 -0.00000000000E+00 -0.31765752611E+02  0.31765752611E+02  0.00000000000E+00 0.  1.
         23    2    1    2    0    0 -0.99423751042E+02 -0.45319270005E+02  0.44087613634E+03  0.47109174402E+03  0.12496697637E+03 0.  0.
          5    1    3    3  502    0 -0.73196293077E+02  0.34218594658E+02  0.24458817776E+03  0.25763166778E+03  0.47000000000E+01 0. -1.
         -5    1    3    3    0  502 -0.26227457965E+02 -0.79537864663E+02  0.19628795858E+03  0.21346007624E+03  0.47000000000E+01 0. -1.
        -11    1    1    2    0    0 -0.15773258967E+02  0.16308423785E+02  0.51147924148E+02  0.55954182412E+02  0.00000000000E+00 0.  1.
         11    1    1    2    0    0  0.11519701001E+03  0.29010846220E+02  0.23324007454E+03  0.26174971382E+03  0.00000000000E+00 0. -1.
<mgrwt>
<rscale>  0 0.15953955E+03</rscale>
<asrwt>0</asrwt>
<pdfrwt beam="1">  1        2 0.11646612E+00 0.16599899E+03</pdfrwt>
<pdfrwt beam="2">  1       -2 0.48870394E-02 0.16599899E+03</pdfrwt>
<totfact> 0.75160650E+03</totfact>
</mgrwt>
</event>
<event>
 7    1  0.6419647E-006  0.1506204E+03  0.7546771E-02  0.1204918E+00
         -2   -1    0    0    0  501 -0.00000000000E+00  0.00000000000E+00  0.26056109930E+02  0.26056109930E+02  0.00000000000E+00 0.  1.
          2   -1    0    0  501    0  0.00000000000E+00 -0.00000000000E+00 -0.80601551350E+03  0.80601551350E+03  0.00000000000E+00 0. -1.
         23    2    1    2    0    0 -0.98718794447E+02 -0.12201554697E+02 -0.48523568132E+03  0.50807496157E+03  0.11310270483E+03 0.  0.
          5    1    3    3  502    0 -0.16818689506E+01 -0.24540865663E+02 -0.27512574788E+03  0.27626318958E+03  0.47000000000E+01 0. -1.
         -5    1    3    3    0  502 -0.97036925497E+02  0.12339310966E+02 -0.21010993344E+03  0.23181177199E+03  0.47000000000E+01 0.  1.
        -11    1    1    2    0    0 -0.73302548223E+01  0.12412949827E+02 -0.46530608533E+01  0.15148100029E+02  0.00000000000E+00 0.  1.
         11    1    1    2    0    0  0.10604904927E+03 -0.21139513091E+00 -0.29007066140E+03  0.30884856183E+03  0.00000000000E+00 0. -1.
<mgrwt>
<rscale>  0 0.14643939E+03</rscale>
<asrwt>0</asrwt>
<pdfrwt beam="2">  1        2 0.12400237E+00 0.15062038E+03</pdfrwt>
<pdfrwt beam="1">  1       -2 0.40086328E-02 0.15062038E+03</pdfrwt>
<totfact> 0.93092467E+03</totfact>
</mgrwt>
</event>
<event>
 6    1  0.6419647E-006  0.2257935E+03  0.7546771E-02  0.1166779E+00
         -1   -1    0    0    0  501 -0.00000000000E+00  0.00000000000E+00  0.27968538306E+03  0.27968538306E+03  0.00000000000E+00 0.  1.
          1   -1    0    0  501    0  0.00000000000E+00 -0.00000000000E+00 -0.15797632276E+03  0.15797632276E+03  0.00000000000E+00 0. -1.
          5    1    1    2  502    0 -0.46788903756E+02  0.61906810932E+02 -0.10245215996E+03  0.12860866936E+03  0.47000000000E+01 0. -1.
         -5    1    1    2    0  502  0.69682706805E+02 -0.65711090093E+02  0.42678505886E+02  0.10496271649E+03  0.47000000000E+01 0.  1.
        -11    1    1    2    0    0  0.65585604938E+01 -0.37274247232E+02  0.11160594217E+03  0.11784850678E+03  0.00000000000E+00 0. -1.
         11    1    1    2    0    0 -0.29452363542E+02  0.41078526393E+02  0.69876772194E+02  0.86241813183E+02  0.00000000000E+00 0.  1.
<mgrwt>
<rscale>  0 0.18106259E+03</rscale>
<asrwt>0</asrwt>
<pdfrwt beam="2">  1        1 0.24304050E-01 0.22579350E+03</pdfrwt>
<pdfrwt beam="1">  1       -1 0.43028520E-01 0.22579350E+03</pdfrwt>
<totfact> 0.10715602E+03</totfact>
</mgrwt>
</event>
<event>
 7    1  0.6419647E-006  0.1290960E+03  0.7546771E-02  0.1243377E+00
          1   -1    0    0  501    0  0.00000000000E+00  0.00000000000E+00  0.60750331400E+03  0.60750331400E+03  0.00000000000E+00 0. -1.
         -1   -1    0    0    0  501 -0.00000000000E+00 -0.00000000000E+00 -0.30334671299E+02  0.30334671299E+02  0.00000000000E+00 0.  1.
         23    2    1    2    0    0 -0.13233374326E+02  0.29423095270E+02  0.49513373672E+03  0.51168661209E+03  0.12499972411E+03 0.  0.
          5    1    3    3  502    0  0.11257612940E+01  0.68497971261E+02  0.16233201815E+03  0.17625837149E+03  0.47000000000E+01 0.  1.
         -5    1    3    3    0  502 -0.14359135620E+02 -0.39074875991E+02  0.33280171857E+03  0.33542824060E+03  0.47000000000E+01 0.  1.
        -11    1    1    2    0    0  0.39204195026E+02 -0.34009276093E+02  0.85021123378E+02  0.99610196208E+02  0.00000000000E+00 0. -1.
         11    1    1    2    0    0 -0.25970820700E+02  0.45861808228E+01 -0.29862173909E+01  0.26541177002E+02  0.00000000000E+00 0.  1.
<mgrwt>
<rscale>  0 0.11983016E+03</rscale>
<asrwt>0</asrwt>
<pdfrwt beam="1">  1        1 0.93462039E-01 0.12909598E+03</pdfrwt>
<pdfrwt beam="2">  1       -1 0.46668730E-02 0.12909598E+03</pdfrwt>
<totfact> 0.64768438E+03</totfact>
</mgrwt>
</event>
<event>
 7    1  0.7606368E-006  0.1501728E+03  0.7546771E-02  0.1209177E+00
          1   -1    0    0  501    0  0.00000000000E+00  0.00000000000E+00  0.74934179792E+03  0.74934179792E+03  0.00000000000E+00 0. -1.
         -1   -1    0    0    0  501 -0.00000000000E+00 -0.00000000000E+00 -0.25531860550E+02  0.25531860550E+02  0.00000000000E+00 0.  1.
         23    2    1    2    0    0  0.68457752839E+02  0.47330847661E+02  0.44807541509E+03  0.47257108802E+03  0.12500073026E+03 0.  0.
          5    1    3    3  502    0  0.28926415892E+02 -0.29280053096E+02  0.28552771593E+03  0.28851728824E+03  0.47000000000E+01 0. -1.
         -5    1    3    3    0  502  0.39531336947E+02  0.76610900757E+02  0.16254769915E+03  0.18405379978E+03  0.47000000000E+01 0. -1.
        -11    1    1    2    0    0  0.84261479482E+01 -0.30326621499E+02  0.27224068145E+02  0.41615547902E+02  0.00000000000E+00 0.  1.
         11    1    1    2    0    0 -0.76883900787E+02 -0.17004226162E+02  0.24851045414E+03  0.26068702254E+03  0.00000000000E+00 0. -1.
<mgrwt>
<rscale>  0 0.14313069E+03</rscale>
<asrwt>0</asrwt>
<pdfrwt beam="1">  1        1 0.11528334E+00 0.15017275E+03</pdfrwt>
<pdfrwt beam="2">  1       -1 0.39279791E-02 0.15017275E+03</pdfrwt>
<totfact> 0.62545298E+03</totfact>
</mgrwt>
</event>
<event>
 7    1  0.6419647E-006  0.1519689E+03  0.7546771E-02  0.1206762E+00
         -2   -1    0    0    0  501 -0.00000000000E+00  0.00000000000E+00  0.56667968235E+02  0.56667968235E+02  0.00000000000E+00 0.  1.
          2   -1    0    0  501    0  0.00000000000E+00 -0.00000000000E+00 -0.49536153240E+03  0.49536153240E+03  0.00000000000E+00 0. -1.
         23    2    1    2    0    0  0.78050622150E+02  0.37114698946E+02 -0.38723544695E+03  0.41598780195E+03  0.12500063799E+03 0.  0.
          5    1    3    3  502    0  0.99459556823E+02  0.55267457051E+02 -0.23529426828E+03  0.26140424238E+03  0.47000000000E+01 0. -1.
         -5    1    3    3    0  502 -0.21408934673E+02 -0.18152758105E+02 -0.15194117867E+03  0.15458355956E+03  0.47000000000E+01 0. -1.
        -11    1    1    2    0    0 -0.78546895310E+02 -0.51452919353E+01 -0.39985830347E+01  0.78816733364E+02  0.00000000000E+00 0.  1.
         11    1    1    2    0    0  0.49627315973E+00 -0.31969407011E+02 -0.47459534184E+02  0.57224965326E+02  0.00000000000E+00 0. -1.
<mgrwt>
<rscale>  0 0.14499466E+03</rscale>
<asrwt>0</asrwt>
<pdfrwt beam="2">  1        2 0.76209462E-01 0.15196894E+03</pdfrwt>
<pdfrwt beam="1">  1       -2 0.87181495E-02 0.15196894E+03</pdfrwt>
<totfact> 0.50361179E+03</totfact>
</mgrwt>
</event>
<event>
 7    1  0.6419647E-006  0.1319137E+03  0.7546771E-02  0.1238093E+00
          1   -1    0    0  501    0  0.00000000000E+00  0.00000000000E+00  0.81611590118E+02  0.81611590118E+02  0.00000000000E+00 0. -1.
         -1   -1    0    0    0  501 -0.00000000000E+00 -0.00000000000E+00 -0.17146862019E+03  0.17146862019E+03  0.00000000000E+00 0.  1.
         23    2    1    2    0    0  0.42155437710E+02  0.94905866865E+00 -0.26029853461E+02  0.13445739139E+03  0.12499302055E+03 0.  0.
          5    1    3    3  502    0  0.67477099343E+02 -0.61873765493E+01  0.28555210129E+02  0.73681290636E+02  0.47000000000E+01 0. -1.
         -5    1    3    3    0  502 -0.25321661633E+02  0.71364352179E+01 -0.54585063590E+02  0.60776100752E+02  0.47000000000E+01 0. -1.
        -11    1    1    2    0    0 -0.28107161616E+01  0.37092272093E+02 -0.37999881692E+01  0.37392200850E+02  0.00000000000E+00 0. -1.
         11    1    1    2    0    0 -0.39344721548E+02 -0.38041330761E+02 -0.60027188442E+02  0.81230618070E+02  0.00000000000E+00 0.  1.
<mgrwt>
<rscale>  0 0.12308462E+03</rscale>
<asrwt>0</asrwt>
<pdfrwt beam="1">  1        1 0.12555629E-01 0.13191375E+03</pdfrwt>
<pdfrwt beam="2">  1       -1 0.26379788E-01 0.13191375E+03</pdfrwt>
<totfact> 0.57024825E+03</totfact>
</mgrwt>
</event>
<event>
 7    1  0.6419647E-006  0.1429775E+03  0.7546771E-02  0.1219312E+00
         -2   -1    0    0    0  501 -0.00000000000E+00  0.00000000000E+00  0.43066570435E+02  0.43066570435E+02  0.00000000000E+00 0.  1.
          2   -1    0    0  501    0  0.00000000000E+00 -0.00000000000E+00 -0.39066378852E+03  0.39066378852E+03  0.00000000000E+00 0. -1.
         23    2    1    2    0    0  0.58492515271E+02  0.37341453917E+02 -0.20678120928E+03  0.25139815908E+03  0.12500722920E+03 0.  0.
          5    1    3    3  502    0  0.78225329079E+02  0.66894938894E+02 -0.12421335609E+03  0.16138520004E+03  0.47000000000E+01 0.  1.
         -5    1    3    3    0  502 -0.19732813808E+02 -0.29553484977E+02 -0.82567853188E+02  0.90012959040E+02  0.47000000000E+01 0.  1.
        -11    1    1    2    0    0 -0.68140631366E+02 -0.46637136898E+02 -0.64307643041E+02  0.10465964425E+03  0.00000000000E+00 0.  1.
         11    1    1    2    0    0  0.96481160949E+01  0.92956829816E+01 -0.76508365758E+02  0.77672555625E+02  0.00000000000E+00 0. -1.
<mgrwt>
<rscale>  0 0.13564481E+03</rscale>
<asrwt>0</asrwt>
<pdfrwt beam="2">  1        2 0.60102121E-01 0.14297750E+03</pdfrwt>
<pdfrwt beam="1">  1       -2 0.66256262E-02 0.14297750E+03</pdfrwt>
<totfact> 0.99085889E+03</totfact>
</mgrwt>
</event>
<event>
 7    1  0.6419647E-006  0.1333336E+03  0.7546771E-02  0.1232723E+00
          1   -1    0    0  501    0  0.00000000000E+00  0.00000000000E+00  0.20860165124E+03  0.20860165124E+03  0.00000000000E+00 0. -1.
         -1   -1    0    0    0  501 -0.00000000000E+00 -0.00000000000E+00 -0.89561945315E+02  0.89561945315E+02  0.00000000000E+00 0.  1.
         23    2    1    2    0    0  0.44070885447E+02  0.10274262896E+02  0.13402912514E+03  0.18905464987E+03  0.12541949939E+03 0.  0.
          5    1    3    3  502    0  0.81437213670E+02 -0.14846827776E+02  0.11016375007E+03  0.13787889576E+03  0.47000000000E+01 0. -1.
         -5    1    3    3    0  502 -0.37366328223E+02  0.25121090672E+02  0.23865375069E+02  0.51175754109E+02  0.47000000000E+01 0.  1.
        -11    1    1    2    0    0 -0.27401699168E+02 -0.49986772412E+02 -0.28817134619E+02  0.63874547209E+02  0.00000000000E+00 0.  1.
         11    1    1    2    0    0 -0.16669186278E+02  0.39712509517E+02  0.13827715407E+02  0.45234399484E+02  0.00000000000E+00 0. -1.
<mgrwt>
<rscale>  0 0.12651309E+03</rscale>
<asrwt>0</asrwt>
<pdfrwt beam="1">  1        1 0.32092562E-01 0.13333362E+03</pdfrwt>
<pdfrwt beam="2">  1       -1 0.13778761E-01 0.13333362E+03</pdfrwt>
<totfact> 0.48915428E+03</totfact>
</mgrwt>
</event>
<event>
 7    1  0.6419647E-006  0.1349173E+03  0.7546771E-02  0.1231848E+00
         -2   -1    0    0    0  501 -0.00000000000E+00  0.00000000000E+00  0.15589163407E+03  0.15589163407E+03  0.00000000000E+00 0.  1.
          2   -1    0    0  501    0  0.00000000000E+00 -0.00000000000E+00 -0.93988529396E+02  0.93988529396E+02  0.00000000000E+00 0. -1.
         23    2    1    2    0    0  0.35802576383E+02 -0.36003821504E+02  0.45679555185E+02  0.14244047502E+03  0.12499827008E+03 0.  0.
          5    1    3    3  502    0  0.55840896504E+02 -0.51865208608E+02 -0.13744463462E+02  0.77583541181E+02  0.47000000000E+01 0. -1.
         -5    1    3    3    0  502 -0.20038320121E+02  0.15861387104E+02  0.59424018648E+02  0.64856933834E+02  0.47000000000E+01 0. -1.
        -11    1    1    2    0    0 -0.57845829673E+02  0.10362421512E+02  0.35361616040E+02  0.68585448013E+02  0.00000000000E+00 0. -1.
         11    1    1    2    0    0  0.22043253290E+02  0.25641399992E+02 -0.19138066547E+02  0.38854240442E+02  0.00000000000E+00 0.  1.
<mgrwt>
<rscale>  0 0.12708365E+03</rscale>
<asrwt>0</asrwt>
<pdfrwt beam="2">  1        2 0.14459774E-01 0.13491726E+03</pdfrwt>
<pdfrwt beam="1">  1       -2 0.23983328E-01 0.13491726E+03</pdfrwt>
<totfact> 0.59138360E+03</totfact>
</mgrwt>
</event>
<event>
 7    1  0.1191822E-005  0.1472705E+03  0.7546771E-02  0.1213622E+00
         -1   -1    0    0    0  501 -0.00000000000E+00  0.00000000000E+00  0.32776552940E+02  0.32776552940E+02  0.00000000000E+00 0.  1.
          1   -1    0    0  501    0  0.00000000000E+00 -0.00000000000E+00 -0.57667259133E+03  0.57667259133E+03  0.00000000000E+00 0. -1.
         23    2    1    2    0    0 -0.57139418551E+02  0.52905478837E+02 -0.37191950665E+03  0.40001591706E+03  0.12499884652E+03 0.  0.
          5    1    3    3  502    0 -0.41313157506E+02 -0.26114326712E+02 -0.58536316527E+02  0.76402391293E+02  0.47000000000E+01 0.  1.
         -5    1    3    3    0  502 -0.15826261045E+02  0.79019805549E+02 -0.31338319012E+03  0.32361352577E+03  0.47000000000E+01 0.  1.
        -11    1    1    2    0    0  0.69529247615E+02 -0.21881384447E+02 -0.66055217882E+02  0.98368709805E+02  0.00000000000E+00 0.  1.
         11    1    1    2    0    0 -0.12389829064E+02 -0.31024094390E+02 -0.10592131386E+03  0.11106451740E+03  0.00000000000E+00 0. -1.
<mgrwt>
<rscale>  0 0.13978227E+03</rscale>
<asrwt>0</asrwt>
<pdfrwt beam="2">  1        1 0.88718854E-01 0.14727055E+03</pdfrwt>
<pdfrwt beam="1">  1       -1 0.50425469E-02 0.14727055E+03</pdfrwt>
<totfact> 0.62446800E+03</totfact>
</mgrwt>
</event>
<event>
 7    1  0.6419647E-006  0.1628817E+03  0.7546771E-02  0.1192174E+00
         -1   -1    0    0    0  501 -0.00000000000E+00  0.00000000000E+00  0.28423188664E+03  0.28423188664E+03  0.00000000000E+00 0.  1.
          1   -1    0    0  501    0  0.00000000000E+00 -0.00000000000E+00 -0.86956305000E+02  0.86956305000E+02  0.00000000000E+00 0. -1.
         23    2    1    2    0    0 -0.53380076197E+02  0.89767290988E+02  0.56688665794E+02  0.17246460921E+03  0.12499134984E+03 0.  0.
          5    1    3    3  502    0 -0.64686253691E+02  0.13209719494E+02 -0.13878844242E+02  0.67627808062E+02  0.47000000000E+01 0. -1.
         -5    1    3    3    0  502  0.11306177494E+02  0.76557571493E+02  0.70567510035E+02  0.10483680115E+03  0.47000000000E+01 0. -1.
        -11    1    1    2    0    0  0.12572502622E+02 -0.81452120064E+02  0.43745402742E+02  0.93306891204E+02  0.00000000000E+00 0. -1.
         11    1    1    2    0    0  0.40807573575E+02 -0.83151709237E+01  0.96841513100E+02  0.10541669122E+03  0.00000000000E+00 0.  1.
<mgrwt>
<rscale>  0 0.15695859E+03</rscale>
<asrwt>0</asrwt>
<pdfrwt beam="2">  1        1 0.13377893E-01 0.16288166E+03</pdfrwt>
<pdfrwt beam="1">  1       -1 0.43727982E-01 0.16288166E+03</pdfrwt>
<totfact> 0.22317696E+03</totfact>
</mgrwt>
</event>
<event>
 7    1  0.6419647E-006  0.1860244E+03  0.7546771E-02  0.1167546E+00
          2   -1    0    0  501    0  0.00000000000E+00  0.00000000000E+00  0.14582579449E+04  0.14582579449E+04  0.00000000000E+00 0. -1.
         -2   -1    0    0    0  501 -0.00000000000E+00 -0.00000000000E+00 -0.24629767208E+02  0.24629767208E+02  0.00000000000E+00 0.  1.
         23    2    1    2    0    0 -0.80269392784E+02  0.11196585657E+03  0.10390326106E+04  0.10555538093E+04  0.12500219922E+03 0.  0.
          5    1    3    3  502    0 -0.84369167697E+02  0.77157839282E+02  0.41402454089E+03  0.42954615477E+03  0.47000000000E+01 0.  1.
         -5    1    3    3    0  502  0.40997749132E+01  0.34808017291E+02  0.62500806975E+03  0.62600765449E+03  0.47000000000E+01 0.  1.
        -11    1    1    2    0    0  0.99238315411E+02 -0.82867856287E+02  0.30859086859E+03  0.33457980965E+03  0.00000000000E+00 0.  1.
         11    1    1    2    0    0 -0.18968922628E+02 -0.29098000286E+02  0.86004698421E+02  0.92754093154E+02  0.00000000000E+00 0. -1.
<mgrwt>
<rscale>  0 0.18026600E+03</rscale>
<asrwt>0</asrwt>
<pdfrwt beam="1">  1        2 0.22434731E+00 0.18602440E+03</pdfrwt>
<pdfrwt beam="2">  1       -2 0.37891961E-02 0.18602440E+03</pdfrwt>
<totfact> 0.42613028E+03</totfact>
</mgrwt>
</event>
<event>
 7    1  0.6419647E-006  0.1473177E+03  0.7546771E-02  0.1215013E+00
         -1   -1    0    0    0  501 -0.00000000000E+00  0.00000000000E+00  0.95897530432E+02  0.95897530432E+02  0.00000000000E+00 0.  1.
          1   -1    0    0  501    0  0.00000000000E+00 -0.00000000000E+00 -0.19498730157E+03  0.19498730157E+03  0.00000000000E+00 0. -1.
         23    2    1    2    0    0 -0.74922531503E+02 -0.21584490604E+02 -0.94161406345E+02  0.17483954295E+03  0.12499287729E+03 0.  0.
          5    1    3    3  502    0 -0.74101824309E+02  0.16659764643E+02 -0.33298389854E+01  0.76169586789E+02  0.47000000000E+01 0.  1.
         -5    1    3    3    0  502 -0.82070719374E+00 -0.38244255247E+02 -0.90831567360E+02  0.98669956161E+02  0.47000000000E+01 0.  1.
        -11    1    1    2    0    0  0.18849352792E+02  0.11622771962E+02 -0.42426242394E+02  0.47857841285E+02  0.00000000000E+00 0. -1.
         11    1    1    2    0    0  0.56073178711E+02  0.99617186414E+01  0.37497877599E+02  0.68187447771E+02  0.00000000000E+00 0.  1.
<mgrwt>
<rscale>  0 0.13875543E+03</rscale>
<asrwt>0</asrwt>
<pdfrwt beam="2">  1        1 0.29998046E-01 0.14731767E+03</pdfrwt>
<pdfrwt beam="1">  1       -1 0.14753466E-01 0.14731767E+03</pdfrwt>
<totfact> 0.48086306E+03</totfact>
</mgrwt>
</event>
<event>
 7    1  0.6419647E-006  0.1437724E+03  0.7546771E-02  0.1219067E+00
          1   -1    0    0  501    0  0.00000000000E+00  0.00000000000E+00  0.41574013360E+03  0.41574013360E+03  0.00000000000E+00 0. -1.
         -1   -1    0    0    0  501 -0.00000000000E+00 -0.00000000000E+00 -0.40586449125E+02  0.40586449125E+02  0.00000000000E+00 0.  1.
         23    2    1    2    0    0  0.29445127611E+02 -0.64650973885E+02  0.23305252575E+03  0.27383202766E+03  0.12499494249E+03 0.  0.
          5    1    3    3  502    0  0.76326187819E+02 -0.43393039031E+02  0.17667985136E+03  0.19734868294E+03  0.47000000000E+01 0. -1.
         -5    1    3    3    0  502 -0.46881060208E+02 -0.21257934854E+02  0.56372674394E+02  0.76483344715E+02  0.47000000000E+01 0. -1.
        -11    1    1    2    0    0  0.28043363374E+02  0.31556731497E+02  0.85256087792E+02  0.95135997591E+02  0.00000000000E+00 0.  1.
         11    1    1    2    0    0 -0.57488490984E+02  0.33094242388E+02  0.56845070928E+02  0.87358557473E+02  0.00000000000E+00 0. -1.
<mgrwt>
<rscale>  0 0.13581985E+03</rscale>
<asrwt>0</asrwt>
<pdfrwt beam="1">  1        1 0.63960017E-01 0.14377239E+03</pdfrwt>
<pdfrwt beam="2">  1       -1 0.62440694E-02 0.14377239E+03</pdfrwt>
<totfact> 0.69529035E+03</totfact>
</mgrwt>
</event>
<event>
 7    1  0.6419647E-006  0.1580035E+03  0.7546771E-02  0.1199020E+00
         -2   -1    0    0    0  501 -0.00000000000E+00  0.00000000000E+00  0.20726140252E+02  0.20726140252E+02  0.00000000000E+00 0. -1.
          2   -1    0    0  501    0  0.00000000000E+00 -0.00000000000E+00 -0.10359473901E+04  0.10359473901E+04  0.00000000000E+00 0.  1.
         23    2    1    2    0    0 -0.75883751127E+02  0.59848063355E+02 -0.62140140767E+03  0.64117454997E+03  0.12499983878E+03 0.  0.
          5    1    3    3  502    0 -0.97738942789E+02  0.23698808245E+02 -0.54040417021E+03  0.54970291216E+03  0.47000000000E+01 0.  1.
         -5    1    3    3    0  502  0.21855191662E+02  0.36149255110E+02 -0.80997237457E+02  0.91471637808E+02  0.47000000000E+01 0.  1.
        -11    1    1    2    0    0  0.12317393773E+02 -0.60548909391E+01 -0.79390824796E+00  0.13748097467E+02  0.00000000000E+00 0. -1.
         11    1    1    2    0    0  0.63566357353E+02 -0.53793172416E+02 -0.39302593392E+03  0.40175088291E+03  0.00000000000E+00 0.  1.
<mgrwt>
<rscale>  0 0.15118899E+03</rscale>
<asrwt>0</asrwt>
<pdfrwt beam="2">  1        2 0.15937652E+00 0.15800346E+03</pdfrwt>
<pdfrwt beam="1">  1       -2 0.31886370E-02 0.15800346E+03</pdfrwt>
<totfact> 0.93971935E+03</totfact>
</mgrwt>
</event>
<event>
 7    1  0.6419647E-006  0.1946677E+03  0.7546771E-02  0.1158795E+00
          2   -1    0    0  501    0  0.00000000000E+00  0.00000000000E+00  0.61589351082E+03  0.61589351082E+03  0.00000000000E+00 0. -1.
         -2   -1    0    0    0  501 -0.00000000000E+00 -0.00000000000E+00 -0.55565983449E+02  0.55565983449E+02  0.00000000000E+00 0.  1.
         23    2    1    2    0    0 -0.11843906842E+03 -0.90788259314E+02  0.29936004644E+03  0.35708813893E+03  0.12500072240E+03 0.  0.
          5    1    3    3  502    0 -0.87902649840E+02  0.97797234955E+01  0.15394707357E+03  0.17760717975E+03  0.47000000000E+01 0. -1.
         -5    1    3    3    0  502 -0.30536418583E+02 -0.10056798281E+03  0.14541297287E+03  0.17948095917E+03  0.47000000000E+01 0. -1.
        -11    1    1    2    0    0  0.11387925908E+03  0.51297134308E+02  0.14289563143E+03  0.18978683600E+03  0.00000000000E+00 0.  1.
         11    1    1    2    0    0  0.45598093456E+01  0.39491125006E+02  0.11807184950E+03  0.12458451934E+03  0.00000000000E+00 0. -1.
<mgrwt>
<rscale>  0 0.18963017E+03</rscale>
<asrwt>0</asrwt>
<pdfrwt beam="1">  1        2 0.94752843E-01 0.19466767E+03</pdfrwt>
<pdfrwt beam="2">  1       -2 0.85486133E-02 0.19466767E+03</pdfrwt>
<totfact> 0.41045647E+03</totfact>
</mgrwt>
</event>
<event>
 7    1  0.6486166E-006  0.1824627E+03  0.7546771E-02  0.1170993E+00
         -1   -1    0    0    0  501 -0.00000000000E+00  0.00000000000E+00  0.78983131618E+02  0.78983131618E+02  0.00000000000E+00 0.  1.
          1   -1    0    0  501    0  0.00000000000E+00 -0.00000000000E+00 -0.41594945105E+03  0.41594945105E+03  0.00000000000E+00 0. -1.
         23    2    1    2    0    0  0.13282599551E+03  0.50248736554E+01 -0.25782458874E+03  0.31585783119E+03  0.12499862610E+03 0.  0.
          5    1    3    3  502    0 -0.16466795723E+01 -0.12269780018E+01  0.12676189186E+02  0.13674531104E+02  0.47000000000E+01 0.  1.
         -5    1    3    3    0  502  0.13447267508E+03  0.62518516572E+01 -0.27050077792E+03  0.30218330008E+03  0.47000000000E+01 0.  1.
        -11    1    1    2    0    0 -0.77593391510E+02  0.23122918730E+02 -0.84281303133E+02  0.11687062007E+03  0.00000000000E+00 0. -1.
         11    1    1    2    0    0 -0.55232603999E+02 -0.28147792386E+02  0.51395724342E+01  0.62204131418E+02  0.00000000000E+00 0.  1.
<mgrwt>
<rscale>  0 0.17674302E+03</rscale>
<asrwt>0</asrwt>
<pdfrwt beam="2">  1        1 0.63992223E-01 0.18246274E+03</pdfrwt>
<pdfrwt beam="1">  1       -1 0.12151251E-01 0.18246274E+03</pdfrwt>
<totfact> 0.25490396E+03</totfact>
</mgrwt>
</event>
<event>
 7    1  0.6419647E-006  0.1518564E+03  0.7546771E-02  0.1207652E+00
         -1   -1    0    0    0  501 -0.00000000000E+00  0.00000000000E+00  0.71294685953E+02  0.71294685953E+02  0.00000000000E+00 0.  1.
          1   -1    0    0  501    0  0.00000000000E+00 -0.00000000000E+00 -0.29742586532E+03  0.29742586532E+03  0.00000000000E+00 0. -1.
         23    2    1    2    0    0 -0.65173449891E+02  0.56477634109E+02 -0.18253127275E+03  0.23744056738E+03  0.12499222288E+03 0.  0.
          5    1    3    3  502    0 -0.78010756725E+02  0.23333750982E+02 -0.40708003364E+02  0.91155765795E+02  0.47000000000E+01 0. -1.
         -5    1    3    3    0  502  0.12837306834E+02  0.33143883127E+02 -0.14182326938E+03  0.14628480158E+03  0.47000000000E+01 0. -1.
        -11    1    1    2    0    0 -0.10357568897E+02  0.58558163641E+00 -0.34678761656E+02  0.36197218806E+02  0.00000000000E+00 0. -1.
         11    1    1    2    0    0  0.75531018789E+02 -0.57063215745E+02 -0.89211449674E+01  0.95082765094E+02  0.00000000000E+00 0.  1.
<mgrwt>
<rscale>  0 0.14430450E+03</rscale>
<asrwt>0</asrwt>
<pdfrwt beam="2">  1        1 0.45757825E-01 0.15185637E+03</pdfrwt>
<pdfrwt beam="1">  1       -1 0.10968413E-01 0.15185637E+03</pdfrwt>
<totfact> 0.45183893E+03</totfact>
</mgrwt>
</event>
<event>
 7    1  0.6419647E-006  0.1279492E+03  0.7546771E-02  0.1244942E+00
         -1   -1    0    0    0  501 -0.00000000000E+00  0.00000000000E+00  0.43133033915E+02  0.43133033915E+02  0.00000000000E+00 0.  1.
          1   -1    0    0  501    0  0.00000000000E+00 -0.00000000000E+00 -0.34063447064E+03  0.34063447064E+03  0.00000000000E+00 0. -1.
         23    2    1    2    0    0 -0.25797302639E+01 -0.27376936195E+02 -0.24113860330E+03  0.27298135589E+03  0.12495936547E+03 0.  0.
          5    1    3    3  502    0  0.24710570635E+02  0.42035531082E+02 -0.63016308987E+02  0.79816936629E+02  0.47000000000E+01 0.  1.
         -5    1    3    3    0  502 -0.27290300899E+02 -0.69412467278E+02 -0.17812229431E+03  0.19316441926E+03  0.47000000000E+01 0.  1.
        -11    1    1    2    0    0  0.41944959469E+02  0.35698697622E+02 -0.30588817170E+02  0.63003590157E+02  0.00000000000E+00 0.  1.
         11    1    1    2    0    0 -0.39365229205E+02 -0.83217614271E+01 -0.25774016253E+02  0.47782558507E+02  0.00000000000E+00 0. -1.
<mgrwt>
<rscale>  0 0.11888833E+03</rscale>
<asrwt>0</asrwt>
<pdfrwt beam="2">  1        1 0.52405302E-01 0.12794919E+03</pdfrwt>
<pdfrwt beam="1">  1       -1 0.66358515E-02 0.12794919E+03</pdfrwt>
<totfact> 0.80891979E+03</totfact>
</mgrwt>
</event>
<event>
 7    1  0.6419647E-006  0.1308471E+03  0.7546771E-02  0.1238952E+00
          2   -1    0    0  501    0  0.00000000000E+00  0.00000000000E+00  0.39759871801E+03  0.39759871801E+03  0.00000000000E+00 0. -1.
         -2   -1    0    0    0  501 -0.00000000000E+00 -0.00000000000E+00 -0.61198363371E+02  0.61198363371E+02  0.00000000000E+00 0.  1.
         23    2    1    2    0    0 -0.31507360358E+02  0.22429876059E+02  0.33330983748E+03  0.35807319266E+03  0.12500060179E+03 0.  0.
          5    1    3    3  502    0 -0.21969414903E+02  0.53184497438E+01  0.33683136197E+03  0.33762167808E+03  0.47000000000E+01 0.  1.
         -5    1    3    3    0  502 -0.95379454546E+01  0.17111426315E+02 -0.35215244971E+01  0.20451514585E+02  0.47000000000E+01 0.  1.
        -11    1    1    2    0    0  0.45770331016E+02 -0.42262751649E+02 -0.21652112061E+02  0.65953599863E+02  0.00000000000E+00 0.  1.
         11    1    1    2    0    0 -0.14262970658E+02  0.19832875589E+02  0.24742629224E+02  0.34770288855E+02  0.00000000000E+00 0. -1.
<mgrwt>
<rscale>  0 0.12254767E+03</rscale>
<asrwt>0</asrwt>
<pdfrwt beam="1">  1        2 0.61169032E-01 0.13084710E+03</pdfrwt>
<pdfrwt beam="2">  1       -2 0.94151331E-02 0.13084710E+03</pdfrwt>
<totfact> 0.56212355E+03</totfact>
</mgrwt>
</event>
<event>
 7    1  0.6419647E-006  0.1267466E+03  0.7546771E-02  0.1241459E+00
          2   -1    0    0  501    0  0.00000000000E+00  0.00000000000E+00  0.20741839114E+03  0.20741839114E+03  0.00000000000E+00 0. -1.
         -2   -1    0    0    0  501 -0.00000000000E+00 -0.00000000000E+00 -0.78462566074E+02  0.78462566074E+02  0.00000000000E+00 0.  1.
         23    2    1    2    0    0 -0.11689424618E+02  0.17292921881E+02  0.12866637454E+03  0.18060931692E+03  0.12501600547E+03 0.  0.
          5    1    3    3  502    0 -0.18099160666E+02 -0.30352373984E+02 -0.72366624955E+01  0.36377266353E+02  0.47000000000E+01 0. -1.
         -5    1    3    3    0  502  0.64097360485E+01  0.47645295864E+02  0.13590303704E+03  0.14423205056E+03  0.47000000000E+01 0. -1.
        -11    1    1    2    0    0  0.53510873712E+02  0.95627601662E+01  0.81037981752E+01  0.54959362553E+02  0.00000000000E+00 0.  1.
         11    1    1    2    0    0 -0.41821449094E+02 -0.26855682047E+02 -0.78143476493E+01  0.50312277743E+02  0.00000000000E+00 0. -1.
<mgrwt>
<rscale>  0 0.12099838E+03</rscale>
<asrwt>0</asrwt>
<pdfrwt beam="1">  1        2 0.31910521E-01 0.12674656E+03</pdfrwt>
<pdfrwt beam="2">  1       -2 0.12071164E-01 0.12674656E+03</pdfrwt>
<totfact> 0.75673413E+03</totfact>
</mgrwt>
</event>
<event>
 7    1  0.6419647E-006  0.1266991E+03  0.7546771E-02  0.1248299E+00
         -2   -1    0    0    0  501 -0.00000000000E+00  0.00000000000E+00  0.16859802240E+03  0.16859802240E+03  0.00000000000E+00 0.  1.
          2   -1    0    0  501    0  0.00000000000E+00 -0.00000000000E+00 -0.78761115216E+02  0.78761115216E+02  0.00000000000E+00 0. -1.
         23    2    1    2    0    0 -0.19931000271E+02 -0.54263261577E+01  0.12511958673E+02  0.12731535564E+03  0.12500384348E+03 0.  0.
          5    1    3    3  502    0 -0.17420915815E+01  0.58206353175E+02 -0.51746849812E+01  0.58650505519E+02  0.47000000000E+01 0.  1.
         -5    1    3    3    0  502 -0.18188908689E+02 -0.63632679333E+02  0.17686643654E+02  0.68664850121E+02  0.47000000000E+01 0.  1.
        -11    1    1    2    0    0 -0.34985190081E+00  0.39697081835E+02  0.68628233783E+02  0.79283132978E+02  0.00000000000E+00 0.  1.
         11    1    1    2    0    0  0.20280852171E+02 -0.34270755677E+02  0.86967147257E+01  0.40760648995E+02  0.00000000000E+00 0. -1.
<mgrwt>
<rscale>  0 0.11690074E+03</rscale>
<asrwt>0</asrwt>
<pdfrwt beam="2">  1        2 0.12117095E-01 0.12669906E+03</pdfrwt>
<pdfrwt beam="1">  1       -2 0.25938157E-01 0.12669906E+03</pdfrwt>
<totfact> 0.63331077E+03</totfact>
</mgrwt>
</event>
<event>
 7    1  0.6419647E-006  0.2260384E+03  0.7546771E-02  0.1132538E+00
          1   -1    0    0  501    0  0.00000000000E+00  0.00000000000E+00  0.84427299637E+03  0.84427299637E+03  0.00000000000E+00 0.  1.
         -1   -1    0    0    0  501 -0.00000000000E+00 -0.00000000000E+00 -0.63719518808E+02  0.63719518808E+02  0.00000000000E+00 0. -1.
         23    2    1    2    0    0  0.18750457810E+03 -0.17598522563E+02  0.55912841021E+03  0.60309030890E+03  0.12500266708E+03 0.  0.
          5    1    3    3  502    0  0.11222340794E+03 -0.34453429244E+02  0.47298112926E+03  0.48735446106E+03  0.47000000000E+01 0.  1.
         -5    1    3    3    0  502  0.75281170162E+02  0.16854906681E+02  0.86147280949E+02  0.11573584784E+03  0.47000000000E+01 0.  1.
        -11    1    1    2    0    0 -0.10478816881E+03 -0.11725746415E+02  0.17823700694E+03  0.20709052150E+03  0.00000000000E+00 0.  1.
         11    1    1    2    0    0 -0.82716409296E+02  0.29324268978E+02  0.43188060411E+02  0.97811684783E+02  0.00000000000E+00 0. -1.
<mgrwt>
<rscale>  0 0.22181430E+03</rscale>
<asrwt>0</asrwt>
<pdfrwt beam="1">  1        1 0.12988815E+00 0.22603836E+03</pdfrwt>
<pdfrwt beam="2">  1       -1 0.98030035E-02 0.22603836E+03</pdfrwt>
<totfact> 0.13315021E+03</totfact>
</mgrwt>
</event>
<event>
 7    1  0.6419647E-006  0.1446309E+03  0.7546771E-02  0.1217584E+00
         -1   -1    0    0    0  501 -0.00000000000E+00  0.00000000000E+00  0.23874415608E+02  0.23874415608E+02  0.00000000000E+00 0.  1.
          1   -1    0    0  501    0  0.00000000000E+00 -0.00000000000E+00 -0.79980303531E+03  0.79980303531E+03  0.00000000000E+00 0. -1.
         23    2    1    2    0    0  0.30283105058E+02 -0.65990412775E+02 -0.56187898412E+03  0.58019487263E+03  0.12508515657E+03 0.  0.
          5    1    3    3  502    0 -0.10595092937E+02 -0.25620567878E+02 -0.47560344126E+03  0.47643403828E+03  0.47000000000E+01 0. -1.
         -5    1    3    3    0  502  0.40878197995E+02 -0.40369844898E+02 -0.86275542864E+02  0.10376083435E+03  0.47000000000E+01 0. -1.
        -11    1    1    2    0    0 -0.44758111569E+02  0.10931860460E+02 -0.42311131776E+02  0.62554184485E+02  0.00000000000E+00 0.  1.
         11    1    1    2    0    0  0.14475006511E+02  0.55058552315E+02 -0.17173850381E+03  0.18092839381E+03  0.00000000000E+00 0. -1.
<mgrwt>
<rscale>  0 0.13688402E+03</rscale>
<asrwt>0</asrwt>
<pdfrwt beam="2">  1        1 0.12304661E+00 0.14463090E+03</pdfrwt>
<pdfrwt beam="1">  1       -1 0.36729874E-02 0.14463090E+03</pdfrwt>
<totfact> 0.62520927E+03</totfact>
</mgrwt>
</event>
<event>
 7    1  0.6419647E-006  0.1329465E+03  0.7546771E-02  0.1233999E+00
         -1   -1    0    0    0  501 -0.00000000000E+00  0.00000000000E+00  0.61298548505E+02  0.61298548505E+02  0.00000000000E+00 0.  1.
          1   -1    0    0  501    0  0.00000000000E+00 -0.00000000000E+00 -0.27453856067E+03  0.27453856067E+03  0.00000000000E+00 0. -1.
         23    2    1    2    0    0 -0.45255567664E+02 -0.15714493905E+01 -0.18152090097E+03  0.22499915436E+03  0.12499698442E+03 0.  0.
          5    1    3    3  502    0  0.31623628442E+02 -0.28873511759E+02 -0.10310564196E+03  0.11174344258E+03  0.47000000000E+01 0.  1.
         -5    1    3    3    0  502 -0.76879196105E+02  0.27302062369E+02 -0.78415259016E+02  0.11325571178E+03  0.47000000000E+01 0.  1.
        -11    1    1    2    0    0  0.34448373519E+02  0.36444182864E+02  0.14250947638E+02  0.52134042730E+02  0.00000000000E+00 0.  1.
         11    1    1    2    0    0  0.10807194144E+02 -0.34872733474E+02 -0.45970058830E+02  0.58703912084E+02  0.00000000000E+00 0. -1.
<mgrwt>
<rscale>  0 0.12568729E+03</rscale>
<asrwt>0</asrwt>
<pdfrwt beam="2">  1        1 0.42236701E-01 0.13294654E+03</pdfrwt>
<pdfrwt beam="1">  1       -1 0.94305460E-02 0.13294654E+03</pdfrwt>
<totfact> 0.62380203E+03</totfact>
</mgrwt>
</event>
<event>
 6    1  0.6419647E-006  0.2259149E+03  0.7546771E-02  0.1165945E+00
          1   -1    0    0  501    0  0.00000000000E+00  0.00000000000E+00  0.19222165706E+04  0.19222165706E+04  0.00000000000E+00 0. -1.
         -1   -1    0    0    0  501 -0.00000000000E+00 -0.00000000000E+00 -0.14128280164E+02  0.14128280164E+02  0.00000000000E+00 0.  1.
          5    1    1    2  502    0 -0.27896782441E+02 -0.11301330945E+03  0.10482845070E+04  0.10547382311E+04  0.47000000000E+01 0. -1.
         -5    1    1    2    0  502  0.69648921611E+01  0.98745770005E+02  0.47701220992E+03  0.48719808623E+03  0.47000000000E+01 0.  1.
        -11    1    1    2    0    0  0.35923399004E+02  0.46527671749E+02  0.26038947893E+03  0.26694193296E+03  0.00000000000E+00 0.  1.
         11    1    1    2    0    0 -0.14991508724E+02 -0.32260132305E+02  0.12240209457E+03  0.12746660043E+03  0.00000000000E+00 0. -1.
<mgrwt>
<rscale>  0 0.18193313E+03</rscale>
<asrwt>0</asrwt>
<pdfrwt beam="1">  1        1 0.29572542E+00 0.22591488E+03</pdfrwt>
<pdfrwt beam="2">  1       -1 0.21735831E-02 0.22591488E+03</pdfrwt>
<totfact> 0.23000265E+03</totfact>
</mgrwt>
</event>
<event>
 7    1  0.6419647E-006  0.1466047E+03  0.7546771E-02  0.1214733E+00
         -1   -1    0    0    0  501 -0.00000000000E+00  0.00000000000E+00  0.90530441864E+02  0.90530441864E+02  0.00000000000E+00 0.  1.
          1   -1    0    0  501    0  0.00000000000E+00 -0.00000000000E+00 -0.27818954238E+03  0.27818954238E+03  0.00000000000E+00 0. -1.
         23    2    1    2    0    0  0.68250257408E+02  0.34782152788E+02 -0.20191231404E+03  0.24952255915E+03  0.12500011670E+03 0.  0.
          5    1    3    3  502    0  0.78925567031E+02  0.64930229235E+02 -0.10182883705E+03  0.14434812730E+03  0.47000000000E+01 0.  1.
         -5    1    3    3    0  502 -0.10675309623E+02 -0.30148076447E+02 -0.10008347699E+03  0.10517443185E+03  0.47000000000E+01 0.  1.
        -11    1    1    2    0    0 -0.52324574503E+02  0.14857549861E+00  0.45777296768E+02  0.69522975131E+02  0.00000000000E+00 0.  1.
         11    1    1    2    0    0 -0.15925682905E+02 -0.34930728287E+02 -0.31524083241E+02  0.49674449960E+02  0.00000000000E+00 0. -1.
<mgrwt>
<rscale>  0 0.13896189E+03</rscale>
<asrwt>0</asrwt>
<pdfrwt beam="2">  1        1 0.42798390E-01 0.14660466E+03</pdfrwt>
<pdfrwt beam="1">  1       -1 0.13927761E-01 0.14660466E+03</pdfrwt>
<totfact> 0.33843014E+03</totfact>
</mgrwt>
</event>
<event>
 7    1  0.6419647E-006  0.3530418E+03  0.7546771E-02  0.1062471E+00
         -1   -1    0    0    0  501 -0.00000000000E+00  0.00000000000E+00  0.19521843456E+03  0.19521843456E+03  0.00000000000E+00 0.  1.
          1   -1    0    0  501    0  0.00000000000E+00 -0.00000000000E+00 -0.82866424679E+03  0.82866424679E+03  0.00000000000E+00 0. -1.
         23    2    1    2    0    0 -0.31446394595E+03 -0.10079727668E+03 -0.57760577506E+03  0.67695419100E+03  0.12486344961E+03 0.  0.
          5    1    3    3  502    0 -0.97909348607E+02  0.24979835666E+02 -0.13974068013E+03  0.17251023279E+03  0.47000000000E+01 0.  1.
         -5    1    3    3    0  502 -0.21655459734E+03 -0.12577711235E+03 -0.43786509493E+03  0.50444395821E+03  0.47000000000E+01 0.  1.
        -11    1    1    2    0    0  0.12840439316E+03  0.40028221185E+02 -0.68209250165E+02  0.15080599617E+03  0.00000000000E+00 0.  1.
         11    1    1    2    0    0  0.18605955279E+03  0.60769055499E+02  0.12369212984E+02  0.19612249417E+03  0.00000000000E+00 0. -1.
<mgrwt>
<rscale>  0 0.35035208E+03</rscale>
<asrwt>0</asrwt>
<pdfrwt beam="2">  1        1 0.12748681E+00 0.35304185E+03</pdfrwt>
<pdfrwt beam="1">  1       -1 0.30033605E-01 0.35304185E+03</pdfrwt>
<totfact> 0.22218112E+02</totfact>
</mgrwt>
</event>
<event>
 7    1  0.6419647E-006  0.1315212E+03  0.7546771E-02  0.1237985E+00
         -3   -1    0    0    0  501 -0.00000000000E+00  0.00000000000E+00  0.24407233043E+02  0.24407233043E+02  0.00000000000E+00 0.  1.
          3   -1    0    0  501    0  0.00000000000E+00 -0.00000000000E+00 -0.83070235214E+03  0.83070235214E+03  0.00000000000E+00 0. -1.
         23    2    1    2    0    0 -0.72651055707E+01 -0.40185879250E+02 -0.68352787134E+03  0.69606620753E+03  0.12502050915E+03 0.  0.
          5    1    3    3  502    0 -0.54747059824E-01  0.41064090309E+02 -0.36066300096E+03  0.36302362564E+03  0.47000000000E+01 0. -1.
         -5    1    3    3    0  502 -0.72103585109E+01 -0.81249969559E+02 -0.32286487038E+03  0.33304258189E+03  0.47000000000E+01 0. -1.
        -11    1    1    2    0    0 -0.37919181103E+02  0.21666066034E+02 -0.90576451825E+02  0.10055533968E+03  0.00000000000E+00 0. -1.
         11    1    1    2    0    0  0.45184286673E+02  0.18519813217E+02 -0.32190795926E+02  0.58488037974E+02  0.00000000000E+00 0.  1.
<mgrwt>
<rscale>  0 0.12315272E+03</rscale>
<asrwt>0</asrwt>
<pdfrwt beam="2">  1        3 0.12780034E+00 0.13152116E+03</pdfrwt>
<pdfrwt beam="1">  1       -3 0.37549596E-02 0.13152116E+03</pdfrwt>
<totfact> 0.42352376E+02</totfact>
</mgrwt>
</event>
<event>
 7    1  0.6419647E-006  0.2156875E+03  0.7546771E-02  0.1140783E+00
          2   -1    0    0  501    0  0.00000000000E+00  0.00000000000E+00  0.25183430620E+04  0.25183430620E+04  0.00000000000E+00 0.  1.
         -2   -1    0    0    0  501 -0.00000000000E+00 -0.00000000000E+00 -0.17377479595E+02  0.17377479595E+02  0.00000000000E+00 0. -1.
         23    2    1    2    0    0  0.11674094580E+03 -0.13140166890E+03  0.15031034897E+04  0.15184996574E+04  0.12500504701E+03 0.  0.
          5    1    3    3  502    0  0.34077509737E+01  0.11969616454E+02  0.40986698673E+03  0.41008282249E+03  0.47000000000E+01 0.  1.
         -5    1    3    3    0  502  0.11333319483E+03 -0.14337128535E+03  0.10932365030E+04  0.11084168349E+04  0.47000000000E+01 0.  1.
        -11    1    1    2    0    0  0.11197650510E+02  0.36574001433E+02  0.19703614244E+03  0.20071443990E+03  0.00000000000E+00 0.  1.
         11    1    1    2    0    0 -0.12793859631E+03  0.94827667464E+02  0.80082595022E+03  0.81650644424E+03  0.00000000000E+00 0. -1.
<mgrwt>
<rscale>  0 0.21099160E+03</rscale>
<asrwt>0</asrwt>
<pdfrwt beam="1">  1        2 0.38743711E+00 0.21568753E+03</pdfrwt>
<pdfrwt beam="2">  1       -2 0.26734604E-02 0.21568753E+03</pdfrwt>
<totfact> 0.19815861E+03</totfact>
</mgrwt>
</event>
<event>
 7    1  0.6419647E-006  0.1448226E+03  0.7546771E-02  0.1217096E+00
         -1   -1    0    0    0  501 -0.00000000000E+00  0.00000000000E+00  0.15290952457E+03  0.15290952457E+03  0.00000000000E+00 0.  1.
          1   -1    0    0  501    0  0.00000000000E+00 -0.00000000000E+00 -0.14696736254E+03  0.14696736254E+03  0.00000000000E+00 0. -1.
         23    2    1    2    0    0  0.33620946453E+02  0.64942343070E+02 -0.69716333527E+02  0.16072944124E+03  0.12500284060E+03 0.  0.
          5    1    3    3  502    0  0.12981603064E+01  0.40407832610E+02  0.31573774667E+02  0.51511856918E+02  0.47000000000E+01 0.  1.
         -5    1    3    3    0  502  0.32322786147E+02  0.24534510460E+02 -0.10129010819E+03  0.10921758433E+03  0.47000000000E+01 0.  1.
        -11    1    1    2    0    0 -0.11645328354E+02  0.35462282047E+01 -0.17583586299E+02  0.21386255261E+02  0.00000000000E+00 0. -1.
         11    1    1    2    0    0 -0.21975618100E+02 -0.68488571275E+02  0.93242081857E+02  0.11776119062E+03  0.00000000000E+00 0.  1.
<mgrwt>
<rscale>  0 0.13723672E+03</rscale>
<asrwt>0</asrwt>
<pdfrwt beam="2">  1        1 0.22610364E-01 0.14482260E+03</pdfrwt>
<pdfrwt beam="1">  1       -1 0.23524542E-01 0.14482260E+03</pdfrwt>
<totfact> 0.32486829E+03</totfact>
</mgrwt>
</event>
<event>
 7    1  0.6419647E-006  0.1323279E+03  0.7546771E-02  0.1236120E+00
          1   -1    0    0  501    0  0.00000000000E+00  0.00000000000E+00  0.21641058308E+03  0.21641058308E+03  0.00000000000E+00 0. -1.
         -1   -1    0    0    0  501 -0.00000000000E+00 -0.00000000000E+00 -0.65112383371E+02  0.65112383371E+02  0.00000000000E+00 0.  1.
         23    2    1    2    0    0  0.37161867117E+02  0.22528417050E+02  0.10279512822E+03  0.16756348666E+03  0.12498859842E+03 0.  0.
          5    1    3    3  502    0 -0.18805172373E+01  0.23940384918E+02  0.12153889604E+03  0.12397770617E+03  0.47000000000E+01 0. -1.
         -5    1    3    3    0  502  0.39042384355E+02 -0.14119678684E+01 -0.18743767824E+02  0.43585780498E+02  0.47000000000E+01 0. -1.
        -11    1    1    2    0    0  0.20321854323E+02 -0.12775648378E+01 -0.15315609100E+02  0.25478968133E+02  0.00000000000E+00 0.  1.
         11    1    1    2    0    0 -0.57483721440E+02 -0.21250852212E+02  0.63818680593E+02  0.88480511656E+02  0.00000000000E+00 0. -1.
<mgrwt>
<rscale>  0 0.12433026E+03</rscale>
<asrwt>0</asrwt>
<pdfrwt beam="1">  1        1 0.33293935E-01 0.13232794E+03</pdfrwt>
<pdfrwt beam="2">  1       -1 0.10017290E-01 0.13232794E+03</pdfrwt>
<totfact> 0.76334220E+03</totfact>
</mgrwt>
</event>
<event>
 6    1  0.6419647E-006  0.3103521E+03  0.7546771E-02  0.1118405E+00
         -2   -1    0    0    0  501 -0.00000000000E+00  0.00000000000E+00  0.23236283349E+03  0.23236283349E+03  0.00000000000E+00 0.  1.
          2   -1    0    0  501    0  0.00000000000E+00 -0.00000000000E+00 -0.43943540175E+03  0.43943540175E+03  0.00000000000E+00 0. -1.
          5    1    1    2  502    0  0.13697737672E+03 -0.87462210177E+02 -0.22663499883E+03  0.27892284352E+03  0.47000000000E+01 0. -1.
         -5    1    1    2    0  502 -0.72873250310E+02  0.12469249282E+03 -0.13669368653E+03  0.19891199641E+03  0.47000000000E+01 0.  1.
        -11    1    1    2    0    0 -0.18657591333E+02 -0.29092936521E+02  0.14124964624E+03  0.14541653012E+03  0.00000000000E+00 0.  1.
         11    1    1    2    0    0 -0.45446535075E+02 -0.81373461231E+01  0.15006470865E+02  0.48546865193E+02  0.00000000000E+00 0. -1.
<mgrwt>
<rscale>  0 0.24209547E+03</rscale>
<asrwt>0</asrwt>
<pdfrwt beam="2">  1        2 0.67605446E-01 0.31035206E+03</pdfrwt>
<pdfrwt beam="1">  1       -2 0.35748128E-01 0.31035206E+03</pdfrwt>
<totfact> 0.53319502E+02</totfact>
</mgrwt>
</event>
<event>
 7    1  0.6419647E-006  0.3331959E+03  0.7546771E-02  0.1070953E+00
          2   -1    0    0  501    0  0.00000000000E+00  0.00000000000E+00  0.36147945853E+03  0.36147945853E+03  0.00000000000E+00 0.  1.
         -2   -1    0    0    0  501 -0.00000000000E+00 -0.00000000000E+00 -0.30636838043E+03  0.30636838043E+03  0.00000000000E+00 0. -1.
         23    2    1    2    0    0 -0.21771829008E+03 -0.21907439387E+03  0.86124425862E+02  0.34414668340E+03  0.12499871631E+03 0.  0.
          5    1    3    3  502    0 -0.18385195494E+03 -0.13149744434E+03  0.10331339935E+03  0.24857366653E+03  0.47000000000E+01 0.  1.
         -5    1    3    3    0  502 -0.33866335139E+02 -0.87576949533E+02 -0.17188973488E+02  0.95573016877E+02  0.47000000000E+01 0.  1.
        -11    1    1    2    0    0  0.21171305743E+03  0.16667964463E+03 -0.24535177098E+02  0.27056699269E+03  0.00000000000E+00 0. -1.
         11    1    1    2    0    0  0.60052326543E+01  0.52394749244E+02 -0.64781706643E+01  0.53134162859E+02  0.00000000000E+00 0.  1.
<mgrwt>
<rscale>  0 0.33041534E+03</rscale>
<asrwt>0</asrwt>
<pdfrwt beam="1">  1        2 0.55612225E-01 0.33319592E+03</pdfrwt>
<pdfrwt beam="2">  1       -2 0.47133597E-01 0.33319592E+03</pdfrwt>
<totfact> 0.38709135E+02</totfact>
</mgrwt>
</event>
<event>
 7    1  0.6419647E-006  0.1589121E+03  0.7546771E-02  0.1197781E+00
          1   -1    0    0  501    0  0.00000000000E+00  0.00000000000E+00  0.40301474366E+02  0.40301474366E+02  0.00000000000E+00 0. -1.
         -1   -1    0    0    0  501 -0.00000000000E+00 -0.00000000000E+00 -0.56857678469E+03  0.56857678469E+03  0.00000000000E+00 0.  1.
         23    2    1    2    0    0  0.81457547358E+02 -0.54702311026E+02 -0.20771889127E+03  0.26153433113E+03  0.12500157484E+03 0.  0.
          5    1    3    3  502    0  0.64041189219E+02 -0.43046723778E+02 -0.30639837788E+02  0.83157585368E+02  0.47000000000E+01 0.  1.
         -5    1    3    3    0  502  0.17416358140E+02 -0.11655587248E+02 -0.17707905348E+03  0.17837674576E+03  0.47000000000E+01 0.  1.
        -11    1    1    2    0    0  0.74255682323E+01 -0.89257564884E+01 -0.37370005760E+01  0.12197268783E+02  0.00000000000E+00 0. -1.
         11    1    1    2    0    0 -0.88883115591E+02  0.63628067514E+02 -0.31681941848E+03  0.33514665915E+03  0.00000000000E+00 0.  1.
<mgrwt>
<rscale>  0 0.15221180E+03</rscale>
<asrwt>0</asrwt>
<pdfrwt beam="1">  1        1 0.62002266E-02 0.15891214E+03</pdfrwt>
<pdfrwt beam="2">  1       -1 0.87473355E-01 0.15891214E+03</pdfrwt>
<totfact> 0.16364749E+03</totfact>
</mgrwt>
</event>
<event>
 7    1  0.6419647E-006  0.2369269E+03  0.7546771E-02  0.1124717E+00
         -1   -1    0    0    0  501 -0.00000000000E+00  0.00000000000E+00  0.21232623356E+03  0.21232623356E+03  0.00000000000E+00 0.  1.
          1   -1    0    0  501    0  0.00000000000E+00 -0.00000000000E+00 -0.25163791506E+03  0.25163791506E+03  0.00000000000E+00 0. -1.
         23    2    1    2    0    0 -0.19706706472E+03  0.40916920196E+02  0.12640593040E+02  0.23726383231E+03  0.12499887669E+03 0.  0.
          5    1    3    3  502    0 -0.98022400401E+02 -0.20568753254E+02 -0.41655903770E+02  0.10857609732E+03  0.47000000000E+01 0.  1.
         -5    1    3    3    0  502 -0.99044664323E+02  0.61485673451E+02  0.54296496810E+02  0.12868773499E+03  0.47000000000E+01 0.  1.
        -11    1    1    2    0    0  0.18400867444E+03 -0.70333784291E+01 -0.39679099956E+02  0.18836956138E+03  0.00000000000E+00 0.  1.
         11    1    1    2    0    0  0.13058390283E+02 -0.33883541767E+02 -0.12273174579E+02  0.38330754933E+02  0.00000000000E+00 0. -1.
<mgrwt>
<rscale>  0 0.23275293E+03</rscale>
<asrwt>0</asrwt>
<pdfrwt beam="2">  1        1 0.38713525E-01 0.23692687E+03</pdfrwt>
<pdfrwt beam="1">  1       -1 0.32665574E-01 0.23692687E+03</pdfrwt>
<totfact> 0.96634190E+02</totfact>
</mgrwt>
</event>
<event>
 7    1  0.6419647E-006  0.1398771E+03  0.7546771E-02  0.1224270E+00
         -4   -1    0    0    0  501 -0.00000000000E+00  0.00000000000E+00  0.60801281930E+02  0.60801281930E+02  0.00000000000E+00 0.  1.
          4   -1    0    0  501    0  0.00000000000E+00 -0.00000000000E+00 -0.30677304539E+03  0.30677304539E+03  0.00000000000E+00 0. -1.
         23    2    1    2    0    0 -0.22990179596E+02 -0.58409371107E+02 -0.20624034278E+03  0.24920008288E+03  0.12500159729E+03 0.  0.
          5    1    3    3  502    0 -0.65060280642E+02 -0.63396782874E+02 -0.10248326914E+03  0.13702883875E+03  0.47000000000E+01 0. -1.
         -5    1    3    3    0  502  0.42070101046E+02  0.49874117666E+01 -0.10375707365E+03  0.11217124413E+03  0.47000000000E+01 0. -1.
        -11    1    1    2    0    0  0.29339892411E+02  0.66137389280E+01  0.22205194375E+02  0.37385043621E+02  0.00000000000E+00 0. -1.
         11    1    1    2    0    0 -0.63497128152E+01  0.51795632179E+02 -0.61936615058E+02  0.80989200826E+02  0.00000000000E+00 0.  1.
<mgrwt>
<rscale>  0 0.13217088E+03</rscale>
<asrwt>0</asrwt>
<pdfrwt beam="2">  1        4 0.47195852E-01 0.13987710E+03</pdfrwt>
<pdfrwt beam="1">  1       -4 0.93540436E-02 0.13987710E+03</pdfrwt>
<totfact> 0.61799088E+02</totfact>
</mgrwt>
</event>
<event>
 6    1  0.6419647E-006  0.1876346E+03  0.7546771E-02  0.1190232E+00
         -4   -1    0    0    0  501 -0.00000000000E+00  0.00000000000E+00  0.60351075530E+03  0.60351075530E+03  0.00000000000E+00 0.  1.
          4   -1    0    0  501    0  0.00000000000E+00 -0.00000000000E+00 -0.33733991910E+02  0.33733991910E+02  0.00000000000E+00 0. -1.
          5    1    1    2  502    0 -0.26557155182E+02  0.57461359570E+02  0.38854163305E+02  0.74423291657E+02  0.47000000000E+01 0. -1.
         -5    1    1    2    0  502  0.58288923902E+02 -0.65922226939E+02  0.30282505622E+03  0.31538618126E+03  0.47000000000E+01 0.  1.
        -11    1    1    2    0    0 -0.55193691675E+02 -0.74553377527E+01  0.19964841186E+03  0.20727135360E+03  0.00000000000E+00 0.  1.
         11    1    1    2    0    0  0.23461922955E+02  0.15916205121E+02  0.28449132003E+02  0.40163920699E+02  0.00000000000E+00 0. -1.
<mgrwt>
<rscale>  0 0.15864738E+03</rscale>
<asrwt>0</asrwt>
<pdfrwt beam="2">  1        4 0.51898454E-02 0.18763458E+03</pdfrwt>
<pdfrwt beam="1">  1       -4 0.92847800E-01 0.18763458E+03</pdfrwt>
<totfact> 0.40230339E+02</totfact>
</mgrwt>
</event>
<event>
 6    1  0.6419647E-006  0.4090490E+03  0.7546771E-02  0.1069749E+00
         -1   -1    0    0    0  501 -0.00000000000E+00  0.00000000000E+00  0.42263630727E+03  0.42263630727E+03  0.00000000000E+00 0.  1.
          1   -1    0    0  501    0  0.00000000000E+00 -0.00000000000E+00 -0.21564680122E+03  0.21564680122E+03  0.00000000000E+00 0. -1.
          5    1    1    2  502    0  0.12479416657E+03 -0.56254154161E+02 -0.12543465862E+03  0.18572575872E+03  0.47000000000E+01 0. -1.
         -5    1    1    2    0  502 -0.63534580042E+02 -0.90074620279E+02  0.20237753101E+03  0.23049693087E+03  0.47000000000E+01 0.  1.
        -11    1    1    2    0    0 -0.82177391939E+02  0.12812587713E+03  0.11191697673E+03  0.18893060582E+03  0.00000000000E+00 0.  1.
         11    1    1    2    0    0  0.20917805411E+02  0.18202897306E+02  0.18129656938E+02  0.33129813073E+02  0.00000000000E+00 0. -1.
<mgrwt>
<rscale>  0 0.33315589E+03</rscale>
<asrwt>0</asrwt>
<pdfrwt beam="2">  1        1 0.33176431E-01 0.40904905E+03</pdfrwt>
<pdfrwt beam="1">  1       -1 0.65020970E-01 0.40904905E+03</pdfrwt>
<totfact> 0.33048440E+02</totfact>
</mgrwt>
</event>
<event>
 6    1  0.6419647E-006  0.2381831E+03  0.7546771E-02  0.1165664E+00
          1   -1    0    0  501    0  0.00000000000E+00  0.00000000000E+00  0.15396526351E+04  0.15396526351E+04  0.00000000000E+00 0. -1.
         -1   -1    0    0    0  501 -0.00000000000E+00 -0.00000000000E+00 -0.41587907460E+02  0.41587907460E+02  0.00000000000E+00 0.  1.
          5    1    1    2  502    0  0.72066278894E+01 -0.57388275705E+02  0.14565298866E+04  0.14576854086E+04  0.47000000000E+01 0. -1.
         -5    1    1    2    0  502  0.12788697620E+02  0.30177177061E+02  0.21648529204E+02  0.39559595788E+02  0.47000000000E+01 0.  1.
        -11    1    1    2    0    0  0.47934665683E+01  0.45589762148E+02  0.25759581858E+02  0.52582884972E+02  0.00000000000E+00 0.  1.
         11    1    1    2    0    0 -0.24788792078E+02 -0.18378663504E+02 -0.58732700232E+01  0.31412653273E+02  0.00000000000E+00 0. -1.
<mgrwt>
<rscale>  0 0.18222824E+03</rscale>
<asrwt>0</asrwt>
<pdfrwt beam="1">  1        1 0.23686959E+00 0.23818307E+03</pdfrwt>
<pdfrwt beam="2">  1       -1 0.63981408E-02 0.23818307E+03</pdfrwt>
<totfact> 0.81929872E+02</totfact>
</mgrwt>
</event>
<event>
 7    1  0.6419647E-006  0.1350882E+03  0.7546771E-02  0.1232365E+00
          1   -1    0    0  501    0  0.00000000000E+00  0.00000000000E+00  0.53088027569E+02  0.53088027569E+02  0.00000000000E+00 0. -1.
         -1   -1    0    0    0  501 -0.00000000000E+00 -0.00000000000E+00 -0.28070402328E+03  0.28070402328E+03  0.00000000000E+00 0.  1.
         23    2    1    2    0    0  0.48633004073E+02  0.16036567559E+02 -0.96523187077E+02  0.16602877044E+03  0.12500594540E+03 0.  0.
          5    1    3    3  502    0  0.39443505559E+02  0.19208184261E+01  0.22523744499E+02  0.45704362379E+02  0.47000000000E+01 0. -1.
         -5    1    3    3    0  502  0.91894985149E+01  0.14115749133E+02 -0.11904693158E+03  0.12032440806E+03  0.47000000000E+01 0. -1.
        -11    1    1    2    0    0 -0.38454090141E+02 -0.51194107265E+02 -0.10437093752E+03  0.12244527866E+03  0.00000000000E+00 0. -1.
         11    1    1    2    0    0 -0.10178913932E+02  0.35157539706E+02 -0.26721871112E+02  0.45318001751E+02  0.00000000000E+00 0.  1.
<mgrwt>
<rscale>  0 0.12674634E+03</rscale>
<asrwt>0</asrwt>
<pdfrwt beam="1">  1        1 0.81673890E-02 0.13508822E+03</pdfrwt>
<pdfrwt beam="2">  1       -1 0.43185234E-01 0.13508822E+03</pdfrwt>
<totfact> 0.43470993E+03</totfact>
</mgrwt>
</event>
<event>
 6    1  0.6419647E-006  0.1345793E+03  0.7546771E-02  0.1298542E+00
         -2   -1    0    0    0  501 -0.00000000000E+00  0.00000000000E+00  0.26757573491E+02  0.26757573491E+02  0.00000000000E+00 0.  1.
          2   -1    0    0  501    0  0.00000000000E+00 -0.00000000000E+00 -0.10583087715E+04  0.10583087715E+04  0.00000000000E+00 0. -1.
          5    1    1    2  502    0  0.68616564028E+02 -0.42393713849E+02 -0.69257393040E+03  0.69727053494E+03  0.47000000000E+01 0. -1.
         -5    1    1    2    0  502 -0.46726789681E+02  0.24117225960E+02 -0.35195730164E+03  0.35589473955E+03  0.47000000000E+01 0.  1.
        -11    1    1    2    0    0 -0.10661230081E+02  0.52657086278E+01  0.63538267051E+01  0.13481862927E+02  0.00000000000E+00 0. -1.
         11    1    1    2    0    0 -0.11228544266E+02  0.13010779261E+02  0.66262073380E+01  0.18419207556E+02  0.00000000000E+00 0.  1.
<mgrwt>
<rscale>  0 0.91803633E+02</rscale>
<asrwt>0</asrwt>
<pdfrwt beam="2">  1        2 0.16281672E+00 0.13457935E+03</pdfrwt>
<pdfrwt beam="1">  1       -2 0.41165502E-02 0.13457935E+03</pdfrwt>
<totfact> 0.61977445E+03</totfact>
</mgrwt>
</event>
<event>
 6    1  0.6419647E-006  0.1596739E+03  0.7546771E-02  0.1204723E+00
          1   -1    0    0  501    0  0.00000000000E+00  0.00000000000E+00  0.16044621009E+03  0.16044621009E+03  0.00000000000E+00 0. -1.
         -1   -1    0    0    0  501 -0.00000000000E+00 -0.00000000000E+00 -0.25026185023E+03  0.25026185023E+03  0.00000000000E+00 0.  1.
          5    1    1    2  502    0  0.83031313205E+02 -0.68835361005E+02  0.10738964951E+03  0.15227321734E+03  0.47000000000E+01 0. -1.
         -5    1    1    2    0  502 -0.24157717271E+02  0.26260459224E+02 -0.65437132656E+01  0.36580284385E+02  0.47000000000E+01 0.  1.
        -11    1    1    2    0    0 -0.16999762944E+02  0.60873700727E+02 -0.78774109275E+02  0.10099484973E+03  0.00000000000E+00 0. -1.
         11    1    1    2    0    0 -0.41873832991E+02 -0.18298798945E+02 -0.11188746710E+03  0.12085970887E+03  0.00000000000E+00 0.  1.
<mgrwt>
<rscale>  0 0.14659279E+03</rscale>
<asrwt>0</asrwt>
<pdfrwt beam="1">  1        1 0.24684033E-01 0.15967386E+03</pdfrwt>
<pdfrwt beam="2">  1       -1 0.38501823E-01 0.15967386E+03</pdfrwt>
<totfact> 0.12710328E+03</totfact>
</mgrwt>
</event>
<event>
 7    1  0.6419647E-006  0.1294339E+03  0.7546771E-02  0.1241836E+00
          1   -1    0    0  501    0  0.00000000000E+00  0.00000000000E+00  0.38907152588E+03  0.38907152588E+03  0.00000000000E+00 0. -1.
         -1   -1    0    0    0  501 -0.00000000000E+00 -0.00000000000E+00 -0.36144516505E+02  0.36144516505E+02  0.00000000000E+00 0.  1.
         23    2    1    2    0    0 -0.33155524442E+02 -0.54046243371E+01  0.25830915169E+03  0.28892344700E+03  0.12499856646E+03 0.  0.
          5    1    3    3  502    0  0.44964144049E+02 -0.19913154890E+02  0.11068960001E+03  0.12121297595E+03  0.47000000000E+01 0.  1.
         -5    1    3    3    0  502 -0.78119668492E+02  0.14508530553E+02  0.14761955168E+03  0.16771047106E+03  0.47000000000E+01 0.  1.
        -11    1    1    2    0    0  0.16141871250E+02 -0.22105611098E+02 -0.81459804557E+01  0.28558274582E+02  0.00000000000E+00 0.  1.
         11    1    1    2    0    0  0.17013653192E+02  0.27510235435E+02  0.10276383815E+03  0.10773432080E+03  0.00000000000E+00 0. -1.
<mgrwt>
<rscale>  0 0.12076766E+03</rscale>
<asrwt>0</asrwt>
<pdfrwt beam="1">  1        1 0.59857155E-01 0.12943392E+03</pdfrwt>
<pdfrwt beam="2">  1       -1 0.55606951E-02 0.12943392E+03</pdfrwt>
<totfact> 0.89212170E+03</totfact>
</mgrwt>
</event>
<event>
 7    1  0.6419647E-006  0.1193248E+03  0.7546771E-02  0.1256607E+00
         -1   -1    0    0    0  501 -0.00000000000E+00  0.00000000000E+00  0.90780518926E+02  0.90780518926E+02  0.00000000000E+00 0.  1.
          1   -1    0    0  501    0  0.00000000000E+00 -0.00000000000E+00 -0.12575412562E+03  0.12575412562E+03  0.00000000000E+00 0. -1.
         23    2    1    2    0    0 -0.14664424823E+02  0.10972742350E+02 -0.30963152735E+02  0.12327658893E+03  0.11791078882E+03 0.  0.
          5    1    3    3  502    0 -0.11955805325E+02  0.29617128022E+02 -0.71433137203E+02  0.78389403900E+02  0.47000000000E+01 0. -1.
         -5    1    3    3    0  502 -0.27086194974E+01 -0.18644385672E+02  0.40469984467E+02  0.44887185025E+02  0.47000000000E+01 0.  1.
        -11    1    1    2    0    0  0.26163161584E+02 -0.35793215620E+02  0.26997361718E+02  0.51908793554E+02  0.00000000000E+00 0.  1.
         11    1    1    2    0    0 -0.11498736761E+02  0.24820473270E+02 -0.31007815675E+02  0.41349262066E+02  0.00000000000E+00 0. -1.
<mgrwt>
<rscale>  0 0.11216802E+03</rscale>
<asrwt>0</asrwt>
<pdfrwt beam="2">  1        1 0.19346789E-01 0.11932477E+03</pdfrwt>
<pdfrwt beam="1">  1       -1 0.13966234E-01 0.11932477E+03</pdfrwt>
<totfact> 0.89596885E+03</totfact>
</mgrwt>
</event>
<event>
 7    1  0.6419647E-006  0.1678596E+03  0.7546771E-02  0.1186893E+00
          1   -1    0    0  501    0  0.00000000000E+00  0.00000000000E+00  0.53379675248E+03  0.53379675248E+03  0.00000000000E+00 0. -1.
         -1   -1    0    0    0  501 -0.00000000000E+00 -0.00000000000E+00 -0.51532901593E+02  0.51532901593E+02  0.00000000000E+00 0.  1.
         23    2    1    2    0    0  0.75396151029E+02 -0.82865650662E+02  0.35625106105E+03  0.39381679714E+03  0.12500222222E+03 0.  0.
          5    1    3    3  502    0  0.71771187466E+02 -0.99439514094E+02  0.35562012539E+03  0.37620085578E+03  0.47000000000E+01 0. -1.
         -5    1    3    3    0  502  0.36249635635E+01  0.16573863433E+02  0.63093566243E+00  0.17615941352E+02  0.47000000000E+01 0. -1.
        -11    1    1    2    0    0  0.18854786395E+02  0.28588457126E+02  0.41305134027E+02  0.53655539768E+02  0.00000000000E+00 0.  1.
         11    1    1    2    0    0 -0.94250937424E+02  0.54277193536E+02  0.84707655814E+02  0.13785731717E+03  0.00000000000E+00 0. -1.
<mgrwt>
<rscale>  0 0.16160777E+03</rscale>
<asrwt>0</asrwt>
<pdfrwt beam="1">  1        1 0.82122573E-01 0.16785962E+03</pdfrwt>
<pdfrwt beam="2">  1       -1 0.79281391E-02 0.16785962E+03</pdfrwt>
<totfact> 0.35367447E+03</totfact>
</mgrwt>
</event>
<event>
 7    1  0.6419647E-006  0.1651425E+03  0.7546771E-02  0.1189720E+00
         -2   -1    0    0    0  501 -0.00000000000E+00  0.00000000000E+00  0.33469920697E+02  0.33469920697E+02  0.00000000000E+00 0.  1.
          2   -1    0    0  501    0  0.00000000000E+00 -0.00000000000E+00 -0.82449562549E+03  0.82449562549E+03  0.00000000000E+00 0. -1.
         23    2    1    2    0    0  0.11129840583E+02 -0.10739897361E+03 -0.58309078939E+03  0.60602550646E+03  0.12495452340E+03 0.  0.
          5    1    3    3  502    0 -0.21536960383E+02 -0.11916861445E+03 -0.51921002463E+03  0.53316614578E+03  0.47000000000E+01 0. -1.
         -5    1    3    3    0  502  0.32666800966E+02  0.11769640844E+02 -0.63880764762E+02  0.72859360672E+02  0.47000000000E+01 0. -1.
        -11    1    1    2    0    0  0.24502691659E+02  0.74417206551E+02 -0.17905705750E+03  0.19544751819E+03  0.00000000000E+00 0. -1.
         11    1    1    2    0    0 -0.35632532242E+02  0.32981767059E+02 -0.28877857904E+02  0.56492521535E+02  0.00000000000E+00 0.  1.
<mgrwt>
<rscale>  0 0.15909701E+03</rscale>
<asrwt>0</asrwt>
<pdfrwt beam="2">  1        2 0.12684549E+00 0.16514250E+03</pdfrwt>
<pdfrwt beam="1">  1       -2 0.51492181E-02 0.16514250E+03</pdfrwt>
<totfact> 0.62423808E+03</totfact>
</mgrwt>
</event>
<event>
 7    1  0.6419647E-006  0.1869446E+03  0.7546771E-02  0.1166493E+00
          1   -1    0    0  501    0  0.00000000000E+00  0.00000000000E+00  0.12841286990E+04  0.12841286990E+04  0.00000000000E+00 0. -1.
         -1   -1    0    0    0  501 -0.00000000000E+00 -0.00000000000E+00 -0.24443700969E+02  0.24443700969E+02  0.00000000000E+00 0.  1.
         23    2    1    2    0    0  0.12441423568E+03  0.62008897451E+02  0.73341161650E+03  0.75686253273E+03  0.12499715529E+03 0.  0.
          5    1    3    3  502    0  0.12897782261E+03  0.21619698816E+02  0.39793350010E+03  0.41889837742E+03  0.47000000000E+01 0.  1.
         -5    1    3    3    0  502 -0.45635869289E+01  0.40389198635E+02  0.33547811640E+03  0.33796415532E+03  0.47000000000E+01 0.  1.
        -11    1    1    2    0    0 -0.58628798100E+02 -0.13358897900E+02  0.92775989903E+02  0.11055849322E+03  0.00000000000E+00 0.  1.
         11    1    1    2    0    0 -0.65785437581E+02 -0.48649999551E+02  0.43349739162E+03  0.44115137401E+03  0.00000000000E+00 0. -1.
<mgrwt>
<rscale>  0 0.18136078E+03</rscale>
<asrwt>0</asrwt>
<pdfrwt beam="1">  1        1 0.19755821E+00 0.18694463E+03</pdfrwt>
<pdfrwt beam="2">  1       -1 0.37605704E-02 0.18694463E+03</pdfrwt>
<totfact> 0.26879601E+03</totfact>
</mgrwt>
</event>
<event>
 7    1  0.6419647E-006  0.1788682E+03  0.7546771E-02  0.1175115E+00
          2   -1    0    0  501    0  0.00000000000E+00  0.00000000000E+00  0.32779591383E+03  0.32779591383E+03  0.00000000000E+00 0. -1.
         -2   -1    0    0    0  501 -0.00000000000E+00 -0.00000000000E+00 -0.94288215505E+02  0.94288215505E+02  0.00000000000E+00 0.  1.
         23    2    1    2    0    0  0.92361225989E+02 -0.88532797710E+02  0.18978380389E+03  0.26079058570E+03  0.12500074013E+03 0.  0.
          5    1    3    3  502    0  0.11767448208E+03 -0.74235136141E+02  0.11552018984E+03  0.18090092158E+03  0.47000000000E+01 0. -1.
         -5    1    3    3    0  502 -0.25313256087E+02 -0.14297661569E+02  0.74263614054E+02  0.79889664116E+02  0.47000000000E+01 0. -1.
        -11    1    1    2    0    0 -0.10745145050E+03  0.76796534433E+02  0.24776571512E+02  0.13437782709E+03  0.00000000000E+00 0.  1.
         11    1    1    2    0    0  0.15090224515E+02  0.11736263277E+02  0.18947322921E+02  0.26915716552E+02  0.00000000000E+00 0. -1.
<mgrwt>
<rscale>  0 0.17264763E+03</rscale>
<asrwt>0</asrwt>
<pdfrwt beam="1">  1        2 0.50430140E-01 0.17886821E+03</pdfrwt>
<pdfrwt beam="2">  1       -2 0.14505879E-01 0.17886821E+03</pdfrwt>
<totfact> 0.35167919E+03</totfact>
</mgrwt>
</event>
<event>
 7    1  0.6419647E-006  0.1344105E+03  0.7546771E-02  0.1233817E+00
         -1   -1    0    0    0  501 -0.00000000000E+00  0.00000000000E+00  0.35769466843E+02  0.35769466843E+02  0.00000000000E+00 0.  1.
          1   -1    0    0  501    0  0.00000000000E+00 -0.00000000000E+00 -0.54184101246E+03  0.54184101246E+03  0.00000000000E+00 0. -1.
         23    2    1    2    0    0  0.32831343259E+02 -0.36923820997E+02 -0.42694778358E+03  0.44760541019E+03  0.12499971067E+03 0.  0.
          5    1    3    3  502    0  0.39572542552E+02  0.15339029972E+02 -0.45091264488E+02  0.62101401737E+02  0.47000000000E+01 0. -1.
         -5    1    3    3    0  502 -0.67411992934E+01 -0.52262850969E+02 -0.38185651909E+03  0.38550400845E+03  0.47000000000E+01 0. -1.
        -11    1    1    2    0    0 -0.18123062470E+02  0.66622707340E+02 -0.44869510524E+02  0.82342598340E+02  0.00000000000E+00 0.  1.
         11    1    1    2    0    0 -0.14708280789E+02 -0.29698886343E+02 -0.34254251514E+02  0.47662470777E+02  0.00000000000E+00 0. -1.
<mgrwt>
<rscale>  0 0.12580460E+03</rscale>
<asrwt>0</asrwt>
<pdfrwt beam="2">  1        1 0.83360153E-01 0.13441054E+03</pdfrwt>
<pdfrwt beam="1">  1       -1 0.55029951E-02 0.13441054E+03</pdfrwt>
<totfact> 0.59329564E+03</totfact>
</mgrwt>
</event>
<event>
 7    1  0.6419647E-006  0.1587139E+03  0.7546771E-02  0.1198392E+00
         -2   -1    0    0    0  501 -0.00000000000E+00  0.00000000000E+00  0.59861078361E+02  0.59861078361E+02  0.00000000000E+00 0. -1.
          2   -1    0    0  501    0  0.00000000000E+00 -0.00000000000E+00 -0.56042618454E+03  0.56042618454E+03  0.00000000000E+00 0.  1.
         23    2    1    2    0    0 -0.20101608655E+01 -0.97778548373E+02 -0.45220761676E+03  0.47925132356E+03  0.12500166883E+03 0.  0.
          5    1    3    3  502    0  0.46845860834E+02 -0.52256992385E+02 -0.35051854195E+03  0.35750617642E+03  0.47000000000E+01 0.  1.
         -5    1    3    3    0  502 -0.48856021699E+02 -0.45521555989E+02 -0.10168907481E+03  0.12174514714E+03  0.47000000000E+01 0.  1.
        -11    1    1    2    0    0  0.24148736089E+02  0.95071088025E+02 -0.60890093918E+02  0.11545248707E+03  0.00000000000E+00 0.  1.
         11    1    1    2    0    0 -0.22138575223E+02  0.27074603485E+01  0.12532604501E+02  0.25583452269E+02  0.00000000000E+00 0. -1.
<mgrwt>
<rscale>  0 0.15170650E+03</rscale>
<asrwt>0</asrwt>
<pdfrwt beam="2">  1        2 0.86219412E-01 0.15871390E+03</pdfrwt>
<pdfrwt beam="1">  1       -2 0.92093968E-02 0.15871390E+03</pdfrwt>
<totfact> 0.40371750E+03</totfact>
</mgrwt>
</event>
<event>
 7    1  0.6419647E-006  0.1566874E+03  0.7546771E-02  0.1200501E+00
          1   -1    0    0  501    0  0.00000000000E+00  0.00000000000E+00  0.14806201844E+03  0.14806201844E+03  0.00000000000E+00 0. -1.
         -1   -1    0    0    0  501 -0.00000000000E+00 -0.00000000000E+00 -0.14032439026E+03  0.14032439026E+03  0.00000000000E+00 0.  1.
         23    2    1    2    0    0  0.93834773881E+02 -0.10989478292E+02  0.74414479884E+01  0.15686395976E+03  0.12500077320E+03 0.  0.
          5    1    3    3  502    0 -0.33550620034E+01  0.13213754925E+02 -0.42476102692E+02  0.44857207450E+02  0.47000000000E+01 0. -1.
         -5    1    3    3    0  502  0.97189835885E+02 -0.24203233217E+02  0.49917550681E+02  0.11200675231E+03  0.47000000000E+01 0. -1.
        -11    1    1    2    0    0  0.12761449983E+02 -0.95479733428E+01 -0.15008450732E+02  0.21892281608E+02  0.00000000000E+00 0.  1.
         11    1    1    2    0    0 -0.10659622386E+03  0.20537451635E+02  0.15304630916E+02  0.10963016733E+03  0.00000000000E+00 0. -1.
<mgrwt>
<rscale>  0 0.14997717E+03</rscale>
<asrwt>0</asrwt>
<pdfrwt beam="1">  1        1 0.22778772E-01 0.15668735E+03</pdfrwt>
<pdfrwt beam="2">  1       -1 0.21588368E-01 0.15668735E+03</pdfrwt>
<totfact> 0.37164508E+03</totfact>
</mgrwt>
</event>
<event>
 7    1  0.6419647E-006  0.1649660E+03  0.7546771E-02  0.1190505E+00
          1   -1    0    0  501    0  0.00000000000E+00  0.00000000000E+00  0.79707141798E+03  0.79707141798E+03  0.00000000000E+00 0. -1.
         -1   -1    0    0    0  501 -0.00000000000E+00 -0.00000000000E+00 -0.71368593337E+02  0.71368593337E+02  0.00000000000E+00 0.  1.
         23    2    1    2    0    0  0.61143343694E+02  0.88598800140E+02  0.70811973710E+03  0.72708138434E+03  0.12500208607E+03 0.  0.
          5    1    3    3  502    0 -0.70085834309E+01 -0.21772671915E+02  0.24514970104E+03  0.24625928491E+03  0.47000000000E+01 0.  1.
         -5    1    3    3    0  502  0.68151927124E+02  0.11037147206E+03  0.46297003606E+03  0.48082209943E+03  0.47000000000E+01 0.  1.
        -11    1    1    2    0    0 -0.28583228147E+02 -0.18630456072E+02 -0.34289456560E+02  0.48372116512E+02  0.00000000000E+00 0.  1.
         11    1    1    2    0    0 -0.32560115547E+02 -0.69968344069E+02  0.51872544105E+02  0.92986510463E+02  0.00000000000E+00 0. -1.
<mgrwt>
<rscale>  0 0.15840902E+03</rscale>
<asrwt>0</asrwt>
<pdfrwt beam="1">  1        1 0.12262637E+00 0.16496599E+03</pdfrwt>
<pdfrwt beam="2">  1       -1 0.10979784E-01 0.16496599E+03</pdfrwt>
<totfact> 0.12201667E+03</totfact>
</mgrwt>
</event>
<event>
 7    1  0.6419647E-006  0.3664385E+03  0.7546771E-02  0.1058006E+00
          3   -1    0    0  501    0  0.00000000000E+00  0.00000000000E+00  0.10285852392E+04  0.10285852392E+04  0.00000000000E+00 0. -1.
         -3   -1    0    0    0  501 -0.00000000000E+00 -0.00000000000E+00 -0.12590847438E+03  0.12590847438E+03  0.00000000000E+00 0.  1.
         23    2    1    2    0    0 -0.17053894928E+03 -0.27506808913E+03  0.36266611404E+03  0.50189222138E+03  0.12499241867E+03 0.  0.
          5    1    3    3  502    0 -0.28554879151E+02 -0.10629751343E+03  0.54514088333E+02  0.12291630612E+03  0.47000000000E+01 0.  1.
         -5    1    3    3    0  502 -0.14198407013E+03 -0.16877057570E+03  0.30815202571E+03  0.37897591525E+03  0.47000000000E+01 0.  1.
        -11    1    1    2    0    0 -0.10828634578E+02  0.78561795794E+02  0.22949092399E+03  0.24280712362E+03  0.00000000000E+00 0. -1.
         11    1    1    2    0    0  0.18136758386E+03  0.19650629334E+03  0.31051972680E+03  0.40979436859E+03  0.00000000000E+00 0.  1.
<mgrwt>
<rscale>  0 0.36146415E+03</rscale>
<asrwt>0</asrwt>
<pdfrwt beam="1">  1        3 0.15824388E+00 0.36643854E+03</pdfrwt>
<pdfrwt beam="2">  1       -3 0.19370535E-01 0.36643854E+03</pdfrwt>
<totfact> 0.17838755E+01</totfact>
</mgrwt>
</event>
<event>
 7    1  0.6419647E-006  0.1290226E+03  0.7546771E-02  0.1243632E+00
          2   -1    0    0  501    0  0.00000000000E+00  0.00000000000E+00  0.38801598052E+03  0.38801598052E+03  0.00000000000E+00 0. -1.
         -2   -1    0    0    0  501 -0.00000000000E+00 -0.00000000000E+00 -0.51865706770E+02  0.51865706770E+02  0.00000000000E+00 0.  1.
         23    2    1    2    0    0  0.10035534861E+02  0.30423792737E+02  0.31730467833E+03  0.34253333057E+03  0.12498201684E+03 0.  0.
          5    1    3    3  502    0  0.13987581028E+02 -0.21843141974E+02  0.27146573775E+03  0.27274257468E+03  0.47000000000E+01 0.  1.
         -5    1    3    3    0  502 -0.39520461680E+01  0.52266934711E+02  0.45838940586E+02  0.69790755885E+02  0.47000000000E+01 0.  1.
        -11    1    1    2    0    0 -0.93306390723E+01  0.11014311112E+02 -0.29998477517E+02  0.33290907589E+02  0.00000000000E+00 0.  1.
         11    1    1    2    0    0 -0.70489578822E+00 -0.41438103849E+02  0.48844072937E+02  0.64057449135E+02  0.00000000000E+00 0. -1.
<mgrwt>
<rscale>  0 0.11967621E+03</rscale>
<asrwt>0</asrwt>
<pdfrwt beam="1">  1        2 0.59694764E-01 0.12902257E+03</pdfrwt>
<pdfrwt beam="2">  1       -2 0.79793398E-02 0.12902257E+03</pdfrwt>
<totfact> 0.74515628E+03</totfact>
</mgrwt>
</event>
<event>
 7    1  0.6419647E-006  0.1319084E+03  0.7546771E-02  0.1239670E+00
          1   -1    0    0  501    0  0.00000000000E+00  0.00000000000E+00  0.14766392826E+03  0.14766392826E+03  0.00000000000E+00 0. -1.
         -1   -1    0    0    0  501 -0.00000000000E+00 -0.00000000000E+00 -0.10660272267E+03  0.10660272267E+03  0.00000000000E+00 0.  1.
         23    2    1    2    0    0  0.26334766546E+02 -0.32872113783E+02  0.74891533560E+02  0.15168579647E+03  0.12500297300E+03 0.  0.
          5    1    3    3  502    0 -0.38284735725E+02 -0.23947877253E+02 -0.79985615317E+01  0.46100854667E+02  0.47000000000E+01 0.  1.
         -5    1    3    3    0  502  0.64619502271E+02 -0.89242365300E+01  0.82890095092E+02  0.10558494180E+03  0.47000000000E+01 0.  1.
        -11    1    1    2    0    0 -0.56814105427E+02  0.11738716003E+02 -0.29950799210E+02  0.65289282445E+02  0.00000000000E+00 0.  1.
         11    1    1    2    0    0  0.30479338880E+02  0.21133397780E+02 -0.38795287628E+01  0.37291572020E+02  0.00000000000E+00 0. -1.
<mgrwt>
<rscale>  0 0.12210128E+03</rscale>
<asrwt>0</asrwt>
<pdfrwt beam="1">  1        1 0.22717528E-01 0.13190845E+03</pdfrwt>
<pdfrwt beam="2">  1       -1 0.16400419E-01 0.13190845E+03</pdfrwt>
<totfact> 0.57297477E+03</totfact>
</mgrwt>
</event>
<event>
 7    1  0.6419647E-006  0.1655739E+03  0.7546771E-02  0.1189465E+00
         -2   -1    0    0    0  501 -0.00000000000E+00  0.00000000000E+00  0.28225495720E+02  0.28225495720E+02  0.00000000000E+00 0. -1.
          2   -1    0    0  501    0  0.00000000000E+00 -0.00000000000E+00 -0.88439510367E+03  0.88439510367E+03  0.00000000000E+00 0.  1.
         23    2    1    2    0    0 -0.69641701287E+02  0.83350339956E+02 -0.56388697681E+03  0.58769316151E+03  0.12496993135E+03 0.  0.
          5    1    3    3  502    0  0.33852493972E+02  0.30521179695E+02 -0.21852014331E+03  0.22327265123E+03  0.47000000000E+01 0. -1.
         -5    1    3    3    0  502 -0.10349419526E+03  0.52829160261E+02 -0.34536683351E+03  0.36442051028E+03  0.47000000000E+01 0. -1.
        -11    1    1    2    0    0  0.43686261622E+02 -0.12922242982E+00 -0.16477756767E+03  0.17047038734E+03  0.00000000000E+00 0.  1.
         11    1    1    2    0    0  0.25955439665E+02 -0.83221117527E+02 -0.12750506347E+03  0.15445705054E+03  0.00000000000E+00 0. -1.
<mgrwt>
<rscale>  0 0.15932168E+03</rscale>
<asrwt>0</asrwt>
<pdfrwt beam="2">  1        2 0.13606079E+00 0.16557394E+03</pdfrwt>
<pdfrwt beam="1">  1       -2 0.43423837E-02 0.16557394E+03</pdfrwt>
<totfact> 0.73714499E+03</totfact>
</mgrwt>
</event>
<event>
 7    1  0.6419647E-006  0.1505587E+03  0.7546771E-02  0.1209048E+00
          1   -1    0    0  501    0  0.00000000000E+00  0.00000000000E+00  0.13530163600E+03  0.13530163600E+03  0.00000000000E+00 0. -1.
         -1   -1    0    0    0  501 -0.00000000000E+00 -0.00000000000E+00 -0.15123133772E+03  0.15123133772E+03  0.00000000000E+00 0.  1.
         23    2    1    2    0    0  0.61186141714E+02  0.57427568893E+02  0.32538620648E+02  0.15403465320E+03  0.12500497169E+03 0.  0.
          5    1    3    3  502    0 -0.27196216642E+02  0.55393765982E+02  0.16655481874E+02  0.64090549894E+02  0.47000000000E+01 0.  1.
         -5    1    3    3    0  502  0.88382358356E+02  0.20338029116E+01  0.15883138774E+02  0.89944103309E+02  0.47000000000E+01 0.  1.
        -11    1    1    2    0    0 -0.34291336833E+02 -0.80574919354E+02 -0.38364801707E+02  0.95603720747E+02  0.00000000000E+00 0.  1.
         11    1    1    2    0    0 -0.26894804881E+02  0.23147350461E+02 -0.10103520659E+02  0.36894599776E+02  0.00000000000E+00 0. -1.
<mgrwt>
<rscale>  0 0.14322982E+03</rscale>
<asrwt>0</asrwt>
<pdfrwt beam="1">  1        1 0.20815636E-01 0.15055867E+03</pdfrwt>
<pdfrwt beam="2">  1       -1 0.23266360E-01 0.15055867E+03</pdfrwt>
<totfact> 0.36808441E+03</totfact>
</mgrwt>
</event>
<event>
 7    1  0.6419647E-006  0.1392668E+03  0.7546771E-02  0.1226987E+00
         -1   -1    0    0    0  501 -0.00000000000E+00  0.00000000000E+00  0.34509896657E+03  0.34509896657E+03  0.00000000000E+00 0.  1.
          1   -1    0    0  501    0  0.00000000000E+00 -0.00000000000E+00 -0.66124187584E+02  0.66124187584E+02  0.00000000000E+00 0. -1.
         23    2    1    2    0    0 -0.61413638405E+02  0.79961600599E-01  0.33070440320E+02  0.14313941812E+03  0.12499439036E+03 0.  0.
          5    1    3    3  502    0 -0.27610707324E+02 -0.55178919163E+02 -0.13354658574E+02  0.63304827498E+02  0.47000000000E+01 0. -1.
         -5    1    3    3    0  502 -0.33802931081E+02  0.55258880764E+02  0.46425098895E+02  0.79834590625E+02  0.47000000000E+01 0. -1.
        -11    1    1    2    0    0  0.49053061499E+02  0.32611320044E+02  0.20947799363E+03  0.21760223080E+03  0.00000000000E+00 0.  1.
         11    1    1    2    0    0  0.12360576906E+02 -0.32691281645E+02  0.36426345044E+02  0.50481505230E+02  0.00000000000E+00 0. -1.
<mgrwt>
<rscale>  0 0.13031623E+03</rscale>
<asrwt>0</asrwt>
<pdfrwt beam="2">  1        1 0.10172952E-01 0.13926679E+03</pdfrwt>
<pdfrwt beam="1">  1       -1 0.53092148E-01 0.13926679E+03</pdfrwt>
<totfact> 0.22354353E+03</totfact>
</mgrwt>
</event>
<event>
 7    1  0.6419647E-006  0.2466015E+03  0.7546771E-02  0.1118082E+00
          1   -1    0    0  501    0  0.00000000000E+00  0.00000000000E+00  0.92330364537E+03  0.92330364537E+03  0.00000000000E+00 0. -1.
         -1   -1    0    0    0  501 -0.00000000000E+00 -0.00000000000E+00 -0.12782576415E+03  0.12782576415E+03  0.00000000000E+00 0.  1.
         23    2    1    2    0    0 -0.18899603397E+03  0.97310631617E+02  0.78182738280E+03  0.81979651879E+03  0.12499366319E+03 0.  0.
          5    1    3    3  502    0 -0.11812371749E+03  0.37459190792E+02  0.62780219990E+03  0.63993288383E+03  0.47000000000E+01 0.  1.
         -5    1    3    3    0  502 -0.70872316487E+02  0.59851440825E+02  0.15402518290E+03  0.17986363496E+03  0.47000000000E+01 0.  1.
        -11    1    1    2    0    0  0.91484167410E+02 -0.25564089413E+02 -0.34480684366E+02  0.10105341730E+03  0.00000000000E+00 0.  1.
         11    1    1    2    0    0  0.97511866563E+02 -0.71746542204E+02  0.48131182788E+02  0.13027947342E+03  0.00000000000E+00 0. -1.
<mgrwt>
<rscale>  0 0.24258655E+03</rscale>
<asrwt>0</asrwt>
<pdfrwt beam="1">  1        1 0.14204671E+00 0.24660145E+03</pdfrwt>
<pdfrwt beam="2">  1       -1 0.19665503E-01 0.24660145E+03</pdfrwt>
<totfact> 0.38301998E+02</totfact>
</mgrwt>
</event>
<event>
 7    1  0.6419647E-006  0.2980480E+03  0.7546771E-02  0.1088528E+00
         -2   -1    0    0    0  501 -0.00000000000E+00  0.00000000000E+00  0.32931402053E+02  0.32931402053E+02  0.00000000000E+00 0.  1.
          2   -1    0    0  501    0  0.00000000000E+00 -0.00000000000E+00 -0.27920435627E+04  0.27920435627E+04  0.00000000000E+00 0. -1.
         23    2    1    2    0    0 -0.11638893798E+03  0.24425553284E+03 -0.18426658291E+04  0.18666145803E+04  0.12500193340E+03 0.  0.
          5    1    3    3  502    0 -0.78485908562E+02  0.55469809490E+02 -0.41469734833E+03  0.42571459726E+03  0.47000000000E+01 0. -1.
         -5    1    3    3    0  502 -0.37903029414E+02  0.18878572335E+03 -0.14279684808E+04  0.14408999830E+04  0.47000000000E+01 0. -1.
        -11    1    1    2    0    0  0.85961560323E+02 -0.14646097538E+03 -0.45436366775E+03  0.48506344919E+03  0.00000000000E+00 0.  1.
         11    1    1    2    0    0  0.30427377652E+02 -0.97794557460E+02 -0.46208266377E+03  0.47329693527E+03  0.00000000000E+00 0. -1.
<mgrwt>
<rscale>  0 0.29351427E+03</rscale>
<asrwt>0</asrwt>
<pdfrwt beam="2">  1        2 0.42954539E+00 0.29804804E+03</pdfrwt>
<pdfrwt beam="1">  1       -2 0.50663668E-02 0.29804804E+03</pdfrwt>
<totfact> 0.52539455E+02</totfact>
</mgrwt>
</event>
<event>
 7    1  0.6419647E-006  0.1301024E+03  0.7546771E-02  0.1239546E+00
          2   -1    0    0  501    0  0.00000000000E+00  0.00000000000E+00  0.62338927188E+03  0.62338927188E+03  0.00000000000E+00 0. -1.
         -2   -1    0    0    0  501 -0.00000000000E+00 -0.00000000000E+00 -0.22251860145E+02  0.22251860145E+02  0.00000000000E+00 0.  1.
         23    2    1    2    0    0  0.34772758600E+02 -0.97209533069E+01  0.39749473483E+03  0.41824478438E+03  0.12499197484E+03 0.  0.
          5    1    3    3  502    0  0.80627271432E+02 -0.19145320920E+02  0.24798295530E+03  0.26150513634E+03  0.47000000000E+01 0. -1.
         -5    1    3    3    0  502 -0.45854512831E+02  0.94243676132E+01  0.14951177953E+03  0.15673964804E+03  0.47000000000E+01 0. -1.
        -11    1    1    2    0    0  0.13843604981E+02 -0.20580322131E+02  0.12345390905E+02  0.27705662499E+02  0.00000000000E+00 0.  1.
         11    1    1    2    0    0 -0.48616363581E+02  0.30301275438E+02  0.19129728600E+03  0.19969068514E+03  0.00000000000E+00 0. -1.
<mgrwt>
<rscale>  0 0.12217853E+03</rscale>
<asrwt>0</asrwt>
<pdfrwt beam="1">  1        2 0.95906029E-01 0.13010240E+03</pdfrwt>
<pdfrwt beam="2">  1       -2 0.34233636E-02 0.13010240E+03</pdfrwt>
<totfact> 0.15836973E+04</totfact>
</mgrwt>
</event>
<event>
 7    1  0.6419647E-006  0.1262152E+03  0.7546771E-02  0.1251277E+00
          1   -1    0    0  501    0  0.00000000000E+00  0.00000000000E+00  0.19923173982E+02  0.19923173982E+02  0.00000000000E+00 0. -1.
         -1   -1    0    0    0  501 -0.00000000000E+00 -0.00000000000E+00 -0.57353048460E+03  0.57353048460E+03  0.00000000000E+00 0.  1.
         23    2    1    2    0    0  0.16436039827E+01  0.17389502086E+02 -0.32006040295E+03  0.34404788591E+03  0.12500076019E+03 0.  0.
          5    1    3    3  502    0  0.18914166913E+02 -0.27654032688E+02 -0.18386651069E+02  0.38505196682E+02  0.47000000000E+01 0.  1.
         -5    1    3    3    0  502 -0.17270562930E+02  0.45043534774E+02 -0.30167375188E+03  0.30554268923E+03  0.47000000000E+01 0.  1.
        -11    1    1    2    0    0 -0.41587704135E+02 -0.19624793318E+02 -0.10149527813E+03  0.11142693180E+03  0.00000000000E+00 0.  1.
         11    1    1    2    0    0  0.39944100152E+02  0.22352912327E+01 -0.13205162954E+03  0.13797884087E+03  0.00000000000E+00 0. -1.
<mgrwt>
<rscale>  0 0.11517439E+03</rscale>
<asrwt>0</asrwt>
<pdfrwt beam="1">  1        1 0.30651037E-02 0.12621524E+03</pdfrwt>
<pdfrwt beam="2">  1       -1 0.88235458E-01 0.12621524E+03</pdfrwt>
<totfact> 0.41775168E+03</totfact>
</mgrwt>
</event>
<event>
 7    1  0.6419647E-006  0.1263410E+03  0.7546771E-02  0.1248199E+00
         -1   -1    0    0    0  501 -0.00000000000E+00  0.00000000000E+00  0.21096452456E+03  0.21096452456E+03  0.00000000000E+00 0.  1.
          1   -1    0    0  501    0  0.00000000000E+00 -0.00000000000E+00 -0.56993685933E+02  0.56993685933E+02  0.00000000000E+00 0. -1.
         23    2    1    2    0    0 -0.15195524993E+02  0.10410520858E+02  0.83505242879E+02  0.15144364540E+03  0.12499107655E+03 0.  0.
          5    1    3    3  502    0  0.48229654163E+02  0.31825656602E+02  0.28130738038E+02  0.64439121513E+02  0.47000000000E+01 0. -1.
         -5    1    3    3    0  502 -0.63425179155E+02 -0.21415135744E+02  0.55374504841E+02  0.87004523884E+02  0.47000000000E+01 0. -1.
        -11    1    1    2    0    0 -0.30601524609E+02 -0.30056896488E+02  0.30434526877E+02  0.52594018302E+02  0.00000000000E+00 0. -1.
         11    1    1    2    0    0  0.45797049602E+02  0.19646375630E+02  0.40031068868E+02  0.63920546793E+02  0.00000000000E+00 0.  1.
<mgrwt>
<rscale>  0 0.11695942E+03</rscale>
<asrwt>0</asrwt>
<pdfrwt beam="2">  1        1 0.87682595E-02 0.12634102E+03</pdfrwt>
<pdfrwt beam="1">  1       -1 0.32456080E-01 0.12634102E+03</pdfrwt>
<totfact> 0.64560749E+03</totfact>
</mgrwt>
</event>
<event>
 7    1  0.6419647E-006  0.1476505E+03  0.7546771E-02  0.1209496E+00
         -2   -1    0    0    0  501 -0.00000000000E+00  0.00000000000E+00  0.12589779426E+02  0.12589779426E+02  0.00000000000E+00 0.  1.
          2   -1    0    0  501    0  0.00000000000E+00 -0.00000000000E+00 -0.16592637036E+04  0.16592637036E+04  0.00000000000E+00 0. -1.
         23    2    1    2    0    0 -0.53526962066E+02 -0.57579822280E+02 -0.11099821229E+04  0.11197593454E+04  0.12498042592E+03 0.  0.
          5    1    3    3  502    0  0.37970846139E+02 -0.16221658591E+02 -0.48140719900E+03  0.48319758754E+03  0.47000000000E+01 0.  1.
         -5    1    3    3    0  502 -0.91497808205E+02 -0.41358163689E+02 -0.62857492387E+03  0.63656175783E+03  0.47000000000E+01 0.  1.
        -11    1    1    2    0    0  0.82570372861E+02  0.54125860472E+02 -0.44623248120E+03  0.45702396275E+03  0.00000000000E+00 0. -1.
         11    1    1    2    0    0 -0.29043410795E+02  0.34539618079E+01 -0.90459320148E+02  0.95070174947E+02  0.00000000000E+00 0.  1.
<mgrwt>
<rscale>  0 0.14288689E+03</rscale>
<asrwt>0</asrwt>
<pdfrwt beam="2">  1        2 0.25527126E+00 0.14765053E+03</pdfrwt>
<pdfrwt beam="1">  1       -2 0.19368897E-02 0.14765053E+03</pdfrwt>
<totfact> 0.89372132E+03</totfact>
</mgrwt>
</event>
<event>
 7    1  0.6419647E-006  0.1302110E+03  0.7546771E-02  0.1253185E+00
          1   -1    0    0  501    0  0.00000000000E+00  0.00000000000E+00  0.75987625489E+03  0.75987625489E+03  0.00000000000E+00 0. -1.
         -1   -1    0    0    0  501 -0.00000000000E+00 -0.00000000000E+00 -0.17303184372E+02  0.17303184372E+02  0.00000000000E+00 0.  1.
         23    2    1    2    0    0 -0.29295500258E+02  0.21752807211E+02  0.61225839258E+03  0.62595146932E+03  0.12499396667E+03 0.  0.
          5    1    3    3  502    0  0.34919553238E+02 -0.12197110999E+02  0.74711309147E+02  0.83498589386E+02  0.47000000000E+01 0.  1.
         -5    1    3    3    0  502 -0.64215053496E+02  0.33949918210E+02  0.53754708344E+03  0.54245287994E+03  0.47000000000E+01 0.  1.
        -11    1    1    2    0    0  0.20072812618E+02 -0.41847076654E+02  0.11586560176E+03  0.12481559719E+03  0.00000000000E+00 0. -1.
         11    1    1    2    0    0  0.92226876404E+01  0.20094269442E+02  0.14449076173E+02  0.26412372744E+02  0.00000000000E+00 0.  1.
<mgrwt>
<rscale>  0 0.11408579E+03</rscale>
<asrwt>0</asrwt>
<pdfrwt beam="1">  1        1 0.11690401E+00 0.13021099E+03</pdfrwt>
<pdfrwt beam="2">  1       -1 0.26620289E-02 0.13021099E+03</pdfrwt>
<totfact> 0.10726423E+04</totfact>
</mgrwt>
</event>
<event>
 7    1  0.6419647E-006  0.1945355E+03  0.7546771E-02  0.1158921E+00
         -2   -1    0    0    0  501 -0.00000000000E+00  0.00000000000E+00  0.84552277847E+02  0.84552277847E+02  0.00000000000E+00 0.  1.
          2   -1    0    0  501    0  0.00000000000E+00 -0.00000000000E+00 -0.44186767650E+03  0.44186767650E+03  0.00000000000E+00 0. -1.
         23    2    1    2    0    0  0.89677489960E+02  0.11906965134E+03 -0.26414577668E+03  0.32805040273E+03  0.12499776526E+03 0.  0.
          5    1    3    3  502    0  0.61286779697E+02 -0.63101688116E+01 -0.11912549250E+03  0.13419709594E+03  0.47000000000E+01 0. -1.
         -5    1    3    3    0  502  0.28390710263E+02  0.12537982015E+03 -0.14502028418E+03  0.19385330680E+03  0.47000000000E+01 0. -1.
        -11    1    1    2    0    0 -0.53871905501E+02 -0.18335411486E+02 -0.53262251079E+00  0.56909166251E+02  0.00000000000E+00 0.  1.
         11    1    1    2    0    0 -0.35805584459E+02 -0.10073423986E+03 -0.92636999465E+02  0.14146038536E+03  0.00000000000E+00 0. -1.
<mgrwt>
<rscale>  0 0.18949086E+03</rscale>
<asrwt>0</asrwt>
<pdfrwt beam="2">  1        2 0.67979641E-01 0.19453554E+03</pdfrwt>
<pdfrwt beam="1">  1       -2 0.13008043E-01 0.19453554E+03</pdfrwt>
<totfact> 0.30539299E+03</totfact>
</mgrwt>
</event>
<event>
 7    1  0.6419647E-006  0.1286592E+03  0.7546771E-02  0.1243011E+00
         -1   -1    0    0    0  501 -0.00000000000E+00  0.00000000000E+00  0.19244432119E+02  0.19244432119E+02  0.00000000000E+00 0.  1.
          1   -1    0    0  501    0  0.00000000000E+00 -0.00000000000E+00 -0.74794833836E+03  0.74794833836E+03  0.00000000000E+00 0. -1.
         23    2    1    2    0    0 -0.29930966423E+02 -0.56810892520E+01 -0.53583639115E+03  0.55106608605E+03  0.12500022235E+03 0.  0.
          5    1    3    3  502    0  0.40256302318E+02 -0.33240500039E+02 -0.19194488639E+03  0.19897344077E+03  0.47000000000E+01 0.  1.
         -5    1    3    3    0  502 -0.70187268741E+02  0.27559410787E+02 -0.34389150476E+03  0.35209264529E+03  0.47000000000E+01 0.  1.
        -11    1    1    2    0    0  0.15473771620E+02  0.45581779922E+02 -0.14168122348E+03  0.14963524103E+03  0.00000000000E+00 0. -1.
         11    1    1    2    0    0  0.14457194803E+02 -0.39900690670E+02 -0.51186291609E+02  0.66491443406E+02  0.00000000000E+00 0.  1.
<mgrwt>
<rscale>  0 0.12005205E+03</rscale>
<asrwt>0</asrwt>
<pdfrwt beam="2">  1        1 0.11506898E+00 0.12865921E+03</pdfrwt>
<pdfrwt beam="1">  1       -1 0.29606817E-02 0.12865921E+03</pdfrwt>
<totfact> 0.94004420E+03</totfact>
</mgrwt>
</event>
<event>
 7    1  0.6419647E-006  0.1279479E+03  0.7546771E-02  0.1244916E+00
          2   -1    0    0  501    0  0.00000000000E+00  0.00000000000E+00  0.53163687185E+03  0.53163687185E+03  0.00000000000E+00 0.  1.
         -2   -1    0    0    0  501 -0.00000000000E+00 -0.00000000000E+00 -0.27773704238E+02  0.27773704238E+02  0.00000000000E+00 0. -1.
         23    2    1    2    0    0 -0.20377712767E+02 -0.17862039280E+02  0.39210277829E+03  0.41245030182E+03  0.12504542815E+03 0.  0.
          5    1    3    3  502    0  0.33256389225E+01 -0.65505102798E+02  0.28834197231E+03  0.29574509525E+03  0.47000000000E+01 0.  1.
         -5    1    3    3    0  502 -0.23703351689E+02  0.47643063518E+02  0.10376080598E+03  0.11670520657E+03  0.47000000000E+01 0.  1.
        -11    1    1    2    0    0 -0.15026365481E+01 -0.26489889681E+02  0.20420254619E+01  0.26610938350E+02  0.00000000000E+00 0. -1.
         11    1    1    2    0    0  0.21880349315E+02  0.44351928961E+02  0.10971836386E+03  0.12034933592E+03  0.00000000000E+00 0.  1.
<mgrwt>
<rscale>  0 0.11890398E+03</rscale>
<asrwt>0</asrwt>
<pdfrwt beam="1">  1        2 0.81790280E-01 0.12794789E+03</pdfrwt>
<pdfrwt beam="2">  1       -2 0.42728780E-02 0.12794789E+03</pdfrwt>
<totfact> 0.13624154E+04</totfact>
</mgrwt>
</event>
<event>
 7    1  0.6419647E-006  0.1359391E+03  0.7546771E-02  0.1231016E+00
          2   -1    0    0  501    0  0.00000000000E+00  0.00000000000E+00  0.36087150398E+02  0.36087150398E+02  0.00000000000E+00 0. -1.
         -2   -1    0    0    0  501 -0.00000000000E+00 -0.00000000000E+00 -0.47718507409E+03  0.47718507409E+03  0.00000000000E+00 0.  1.
         23    2    1    2    0    0 -0.49929210146E+02 -0.18967161925E+02 -0.14433830435E+03  0.19827505367E+03  0.12500708598E+03 0.  0.
          5    1    3    3  502    0  0.30794810617E+02  0.20742244971E+02 -0.14263235374E+02  0.40051104488E+02  0.47000000000E+01 0.  1.
         -5    1    3    3    0  502 -0.80724020763E+02 -0.39709406896E+02 -0.13007506898E+03  0.15822394918E+03  0.47000000000E+01 0.  1.
        -11    1    1    2    0    0  0.28014117433E+02  0.51497130905E+02 -0.11531091937E+03  0.12935746362E+03  0.00000000000E+00 0.  1.
         11    1    1    2    0    0  0.21915092713E+02 -0.32529968979E+02 -0.18144869997E+03  0.18563970720E+03  0.00000000000E+00 0. -1.
<mgrwt>
<rscale>  0 0.12762965E+03</rscale>
<asrwt>0</asrwt>
<pdfrwt beam="1">  1        2 0.55518696E-02 0.13593914E+03</pdfrwt>
<pdfrwt beam="2">  1       -2 0.73413085E-01 0.13593914E+03</pdfrwt>
<totfact> 0.22608739E+03</totfact>
</mgrwt>
</event>
<event>
 7    1  0.6419647E-006  0.1806034E+03  0.7546771E-02  0.1172798E+00
         -1   -1    0    0    0  501 -0.00000000000E+00  0.00000000000E+00  0.10083960685E+04  0.10083960685E+04  0.00000000000E+00 0.  1.
          1   -1    0    0  501    0  0.00000000000E+00 -0.00000000000E+00 -0.30998669942E+02  0.30998669942E+02  0.00000000000E+00 0. -1.
         23    2    1    2    0    0  0.58043973696E+02  0.11671286199E+03  0.37274715651E+03  0.41419565947E+03  0.12500642625E+03 0.  0.
          5    1    3    3  502    0 -0.38154046102E+02  0.48808962798E+02  0.14552007435E+03  0.15822840492E+03  0.47000000000E+01 0.  1.
         -5    1    3    3    0  502  0.96198019798E+02  0.67903899192E+02  0.22722708215E+03  0.25596725455E+03  0.47000000000E+01 0.  1.
        -11    1    1    2    0    0 -0.72183198086E+02 -0.97901404326E+02  0.57294848268E+03  0.58571756237E+03  0.00000000000E+00 0.  1.
         11    1    1    2    0    0  0.14139224390E+02 -0.18811457664E+02  0.31701759322E+02  0.39481516561E+02  0.00000000000E+00 0. -1.
<mgrwt>
<rscale>  0 0.17493407E+03</rscale>
<asrwt>0</asrwt>
<pdfrwt beam="2">  1        1 0.47690269E-02 0.18060344E+03</pdfrwt>
<pdfrwt beam="1">  1       -1 0.15513783E+00 0.18060344E+03</pdfrwt>
<totfact> 0.61207800E+02</totfact>
</mgrwt>
</event>
<event>
 7    1  0.6419647E-006  0.2498997E+03  0.7546771E-02  0.1115464E+00
         -2   -1    0    0    0  501 -0.00000000000E+00  0.00000000000E+00  0.41299076924E+02  0.41299076924E+02  0.00000000000E+00 0.  1.
          2   -1    0    0  501    0  0.00000000000E+00 -0.00000000000E+00 -0.14363523033E+04  0.14363523033E+04  0.00000000000E+00 0. -1.
         23    2    1    2    0    0 -0.21175600468E+03  0.44540026670E+02 -0.69463024873E+03  0.73821477461E+03  0.12500180603E+03 0.  0.
          5    1    3    3  502    0 -0.33439727459E+02  0.21251338708E+02 -0.32169034683E+03  0.32415521592E+03  0.47000000000E+01 0. -1.
         -5    1    3    3    0  502 -0.17831627722E+03  0.23288687962E+02 -0.37293990190E+03  0.41405955869E+03  0.47000000000E+01 0. -1.
        -11    1    1    2    0    0  0.55601272890E+02  0.16854245130E+02 -0.29495079933E+03  0.30061859749E+03  0.00000000000E+00 0. -1.
         11    1    1    2    0    0  0.15615473179E+03 -0.61394271800E+02 -0.40547217827E+03  0.43881800808E+03  0.00000000000E+00 0.  1.
<mgrwt>
<rscale>  0 0.24661324E+03</rscale>
<asrwt>0</asrwt>
<pdfrwt beam="2">  1        2 0.22097724E+00 0.24989972E+03</pdfrwt>
<pdfrwt beam="1">  1       -2 0.63537052E-02 0.24989972E+03</pdfrwt>
<totfact> 0.20015164E+03</totfact>
</mgrwt>
</event>
<event>
 7    1  0.6419647E-006  0.1411263E+03  0.7546771E-02  0.1223009E+00
          2   -1    0    0  501    0  0.00000000000E+00  0.00000000000E+00  0.16457663293E+03  0.16457663293E+03  0.00000000000E+00 0.  1.
         -2   -1    0    0    0  501 -0.00000000000E+00 -0.00000000000E+00 -0.12918623323E+03  0.12918623323E+03  0.00000000000E+00 0. -1.
         23    2    1    2    0    0  0.16328988399E+02  0.63371651757E+02  0.92279147408E+02  0.16861811676E+03  0.12503609937E+03 0.  0.
          5    1    3    3  502    0  0.24301889870E+02  0.89359558179E+02  0.25199754254E+02  0.96087616807E+02  0.47000000000E+01 0. -1.
         -5    1    3    3    0  502 -0.79729014709E+01 -0.25987906422E+02  0.67079393155E+02  0.72530499958E+02  0.47000000000E+01 0. -1.
        -11    1    1    2    0    0  0.16519295009E+02 -0.70276576425E+01 -0.57171850101E+02  0.59924081332E+02  0.00000000000E+00 0. -1.
         11    1    1    2    0    0 -0.32848283408E+02 -0.56343994114E+02  0.28310239409E+00  0.65220668063E+02  0.00000000000E+00 0.  1.
<mgrwt>
<rscale>  0 0.13304313E+03</rscale>
<asrwt>0</asrwt>
<pdfrwt beam="1">  1        2 0.25319482E-01 0.14112628E+03</pdfrwt>
<pdfrwt beam="2">  1       -2 0.19874805E-01 0.14112628E+03</pdfrwt>
<totfact> 0.43258514E+03</totfact>
</mgrwt>
</event>
<event>
 7    1  0.6419647E-006  0.1463222E+03  0.7546771E-02  0.1214783E+00
          2   -1    0    0  501    0  0.00000000000E+00  0.00000000000E+00  0.58647981242E+03  0.58647981242E+03  0.00000000000E+00 0. -1.
         -2   -1    0    0    0  501 -0.00000000000E+00 -0.00000000000E+00 -0.32359912212E+02  0.32359912212E+02  0.00000000000E+00 0.  1.
         23    2    1    2    0    0  0.29275414013E+02 -0.70213592131E+02  0.38699823263E+03  0.41373642703E+03  0.12499280223E+03 0.  0.
          5    1    3    3  502    0  0.51569806925E+02  0.16951839032E+02  0.11611606470E+03  0.12826472747E+03  0.47000000000E+01 0.  1.
         -5    1    3    3    0  502 -0.22294392912E+02 -0.87165431163E+02  0.27088216793E+03  0.28547169956E+03  0.47000000000E+01 0.  1.
        -11    1    1    2    0    0 -0.47765831362E+02  0.41190159105E+01  0.89186029803E+02  0.10125556207E+03  0.00000000000E+00 0.  1.
         11    1    1    2    0    0  0.18490417349E+02  0.66094576221E+02  0.77935637775E+02  0.10384773553E+03  0.00000000000E+00 0. -1.
<mgrwt>
<rscale>  0 0.13892492E+03</rscale>
<asrwt>0</asrwt>
<pdfrwt beam="1">  1        2 0.90227656E-01 0.14632224E+03</pdfrwt>
<pdfrwt beam="2">  1       -2 0.49784485E-02 0.14632224E+03</pdfrwt>
<totfact> 0.98028272E+03</totfact>
</mgrwt>
</event>
<event>
 7    1  0.6419647E-006  0.1243034E+03  0.7546771E-02  0.1248820E+00
         -1   -1    0    0    0  501 -0.00000000000E+00  0.00000000000E+00  0.22021974432E+02  0.22021974432E+02  0.00000000000E+00 0.  1.
          1   -1    0    0  501    0  0.00000000000E+00 -0.00000000000E+00 -0.58255084824E+03  0.58255084824E+03  0.00000000000E+00 0. -1.
         23    2    1    2    0    0 -0.11934378059E+02 -0.30664416086E+02 -0.38266777623E+03  0.40235054210E+03  0.11986907844E+03 0.  0.
          5    1    3    3  502    0 -0.53504568859E+02  0.12722435839E+02 -0.25850831232E+03  0.26433546263E+03  0.47000000000E+01 0. -1.
         -5    1    3    3    0  502  0.41570190800E+02 -0.43386851926E+02 -0.12415946391E+03  0.13801507947E+03  0.47000000000E+01 0.  1.
        -11    1    1    2    0    0  0.42453622569E+02 -0.11548608366E+02 -0.86871506174E+02  0.97377302332E+02  0.00000000000E+00 0.  1.
         11    1    1    2    0    0 -0.30519244510E+02  0.42213024452E+02 -0.90989591399E+02  0.10484497824E+03  0.00000000000E+00 0. -1.
<mgrwt>
<rscale>  0 0.11659619E+03</rscale>
<asrwt>0</asrwt>
<pdfrwt beam="2">  1        1 0.89623214E-01 0.12430339E+03</pdfrwt>
<pdfrwt beam="1">  1       -1 0.33879958E-02 0.12430339E+03</pdfrwt>
<totfact> 0.10933987E+04</totfact>
</mgrwt>
</event>
<event>
 7    1  0.6419647E-006  0.1678112E+03  0.7546771E-02  0.1186760E+00
         -1   -1    0    0    0  501 -0.00000000000E+00  0.00000000000E+00  0.70534315156E+02  0.70534315156E+02  0.00000000000E+00 0. -1.
          1   -1    0    0  501    0  0.00000000000E+00 -0.00000000000E+00 -0.36126916892E+03  0.36126916892E+03  0.00000000000E+00 0.  1.
         23    2    1    2    0    0 -0.10157676607E+03 -0.47111533539E+02 -0.19946275440E+03  0.26066453439E+03  0.12499309219E+03 0.  0.
          5    1    3    3  502    0  0.16674859014E+02  0.18046666108E+02 -0.66763950517E+02  0.71296901541E+02  0.47000000000E+01 0. -1.
         -5    1    3    3    0  502 -0.11825162509E+03 -0.65158199648E+02 -0.13269880389E+03  0.18936763285E+03  0.47000000000E+01 0. -1.
        -11    1    1    2    0    0  0.77949891613E+00 -0.22241418976E+02 -0.11194745895E+02  0.24912058772E+02  0.00000000000E+00 0.  1.
         11    1    1    2    0    0  0.10079726716E+03  0.69352952515E+02 -0.80077353463E+02  0.14622689091E+03  0.00000000000E+00 0. -1.
<mgrwt>
<rscale>  0 0.16172768E+03</rscale>
<asrwt>0</asrwt>
<pdfrwt beam="2">  1        1 0.55579872E-01 0.16781123E+03</pdfrwt>
<pdfrwt beam="1">  1       -1 0.10851433E-01 0.16781123E+03</pdfrwt>
<totfact> 0.36200172E+03</totfact>
</mgrwt>
</event>
<event>
 7    1  0.6419647E-006  0.1265513E+03  0.7546771E-02  0.1247983E+00
         -1   -1    0    0    0  501 -0.00000000000E+00  0.00000000000E+00  0.14199945513E+03  0.14199945513E+03  0.00000000000E+00 0. -1.
          1   -1    0    0  501    0  0.00000000000E+00 -0.00000000000E+00 -0.10377993600E+03  0.10377993600E+03  0.00000000000E+00 0.  1.
         23    2    1    2    0    0 -0.35829281211E+01 -0.19373735042E+02 -0.30724899210E+02  0.13022773058E+03  0.12500825332E+03 0.  0.
          5    1    3    3  502    0  0.56829073683E+02  0.10793769605E+02 -0.67888020878E+01  0.58431386358E+02  0.47000000000E+01 0. -1.
         -5    1    3    3    0  502 -0.60412001804E+02 -0.30167504647E+02 -0.23936097122E+02  0.71796344225E+02  0.47000000000E+01 0. -1.
        -11    1    1    2    0    0  0.47132727829E+02  0.98784576828E+01  0.35945176106E+02  0.60092708743E+02  0.00000000000E+00 0.  1.
         11    1    1    2    0    0 -0.43549799708E+02  0.94952773590E+01  0.32999242234E+02  0.55458951800E+02  0.00000000000E+00 0. -1.
<mgrwt>
<rscale>  0 0.11708605E+03</rscale>
<asrwt>0</asrwt>
<pdfrwt beam="2">  1        1 0.15966144E-01 0.12655134E+03</pdfrwt>
<pdfrwt beam="1">  1       -1 0.21846070E-01 0.12655134E+03</pdfrwt>
<totfact> 0.56652188E+03</totfact>
</mgrwt>
</event>
<event>
 7    1  0.6419647E-006  0.1356523E+03  0.7546771E-02  0.1231486E+00
          2   -1    0    0  501    0  0.00000000000E+00  0.00000000000E+00  0.76743971956E+03  0.76743971956E+03  0.00000000000E+00 0. -1.
         -2   -1    0    0    0  501 -0.00000000000E+00 -0.00000000000E+00 -0.30161441068E+02  0.30161441068E+02  0.00000000000E+00 0.  1.
         23    2    1    2    0    0  0.52663247389E+02  0.17285961327E+01  0.64015055170E+03  0.65436554678E+03  0.12500053720E+03 0.  0.
          5    1    3    3  502    0  0.50656293538E+02 -0.56155455820E+02  0.30898024821E+03  0.31813578717E+03  0.47000000000E+01 0. -1.
         -5    1    3    3    0  502  0.20069538505E+01  0.57884051953E+02  0.33117030349E+03  0.33622975961E+03  0.47000000000E+01 0. -1.
        -11    1    1    2    0    0 -0.87432627608E+01 -0.15059015632E+02 -0.14423403074E+02  0.22610907805E+02  0.00000000000E+00 0.  1.
         11    1    1    2    0    0 -0.43919984628E+02  0.13330419499E+02  0.11155112987E+03  0.12062470604E+03  0.00000000000E+00 0. -1.
<mgrwt>
<rscale>  0 0.12732121E+03</rscale>
<asrwt>0</asrwt>
<pdfrwt beam="1">  1        2 0.11806763E+00 0.13565228E+03</pdfrwt>
<pdfrwt beam="2">  1       -2 0.46402223E-02 0.13565228E+03</pdfrwt>
<totfact> 0.79050233E+03</totfact>
</mgrwt>
</event>
<event>
 7    1  0.6419647E-006  0.1303747E+03  0.7546771E-02  0.1236840E+00
         -1   -1    0    0    0  501 -0.00000000000E+00  0.00000000000E+00  0.10963310097E+03  0.10963310097E+03  0.00000000000E+00 0.  1.
          1   -1    0    0  501    0  0.00000000000E+00 -0.00000000000E+00 -0.13863852874E+03  0.13863852874E+03  0.00000000000E+00 0. -1.
         23    2    1    2    0    0  0.12857236776E+02 -0.34650712580E+02 -0.50594764003E+02  0.13984771679E+03  0.12502629054E+03 0.  0.
          5    1    3    3  502    0 -0.15339586072E+02 -0.15658099738E+02 -0.86984493619E+02  0.89826895296E+02  0.47000000000E+01 0. -1.
         -5    1    3    3    0  502  0.28196822848E+02 -0.18992612842E+02  0.36389729616E+02  0.50020821493E+02  0.47000000000E+01 0. -1.
        -11    1    1    2    0    0 -0.53558961307E+02  0.89436718779E+01 -0.29684418412E+01  0.54381644421E+02  0.00000000000E+00 0. -1.
         11    1    1    2    0    0  0.40701724531E+02  0.25707040702E+02  0.24557778069E+02  0.54042268505E+02  0.00000000000E+00 0.  1.
<mgrwt>
<rscale>  0 0.12387394E+03</rscale>
<asrwt>0</asrwt>
<pdfrwt beam="2">  1        1 0.21329004E-01 0.13037467E+03</pdfrwt>
<pdfrwt beam="1">  1       -1 0.16866631E-01 0.13037467E+03</pdfrwt>
<totfact> 0.59313948E+03</totfact>
</mgrwt>
</event>
<event>
 7    1  0.6419647E-006  0.1831062E+03  0.7546771E-02  0.1169727E+00
          1   -1    0    0  501    0  0.00000000000E+00  0.00000000000E+00  0.74856543082E+02  0.74856543082E+02  0.00000000000E+00 0. -1.
         -1   -1    0    0    0  501 -0.00000000000E+00 -0.00000000000E+00 -0.40658196472E+03  0.40658196472E+03  0.00000000000E+00 0.  1.
         23    2    1    2    0    0  0.52255942864E+02 -0.12317721641E+03 -0.14816427195E+03  0.23554305637E+03  0.12499827884E+03 0.  0.
          5    1    3    3  502    0  0.45129784182E+01  0.22374627819E+02 -0.45376385367E+02  0.51010756642E+02  0.47000000000E+01 0.  1.
         -5    1    3    3    0  502  0.47742964446E+02 -0.14555184423E+03 -0.10278788659E+03  0.18453229973E+03  0.47000000000E+01 0.  1.
        -11    1    1    2    0    0 -0.58944013306E+02  0.10109165482E+03 -0.84908810966E+02  0.14458017000E+03  0.00000000000E+00 0. -1.
         11    1    1    2    0    0  0.66880704417E+01  0.22085561595E+02 -0.98652338722E+02  0.10131528144E+03  0.00000000000E+00 0.  1.
<mgrwt>
<rscale>  0 0.17802586E+03</rscale>
<asrwt>0</asrwt>
<pdfrwt beam="1">  1        1 0.11516391E-01 0.18310620E+03</pdfrwt>
<pdfrwt beam="2">  1       -1 0.62551071E-01 0.18310620E+03</pdfrwt>
<totfact> 0.14050174E+03</totfact>
</mgrwt>
</event>
<event>
 7    1  0.6419647E-006  0.1253624E+03  0.7546771E-02  0.1247736E+00
          2   -1    0    0  501    0  0.00000000000E+00  0.00000000000E+00  0.21807360091E+03  0.21807360091E+03  0.00000000000E+00 0. -1.
         -2   -1    0    0    0  501 -0.00000000000E+00 -0.00000000000E+00 -0.61795134294E+02  0.61795134294E+02  0.00000000000E+00 0.  1.
         23    2    1    2    0    0 -0.63593166745E+01  0.70590611531E+01  0.12970851929E+03  0.18038858670E+03  0.12500188391E+03 0.  0.
          5    1    3    3  502    0 -0.94867067863E+01 -0.15300718590E+02  0.14910085256E+03  0.15025732538E+03  0.47000000000E+01 0.  1.
         -5    1    3    3    0  502  0.31273901118E+01  0.22359779743E+02 -0.19392333271E+02  0.30131261321E+02  0.47000000000E+01 0.  1.
        -11    1    1    2    0    0 -0.14377082695E+02 -0.32689345061E+01 -0.33078907320E+02  0.36216026136E+02  0.00000000000E+00 0.  1.
         11    1    1    2    0    0  0.20736399370E+02 -0.37901266470E+01  0.59648854650E+02  0.63264122375E+02  0.00000000000E+00 0. -1.
<mgrwt>
<rscale>  0 0.11723088E+03</rscale>
<asrwt>0</asrwt>
<pdfrwt beam="1">  1        2 0.33549784E-01 0.12536244E+03</pdfrwt>
<pdfrwt beam="2">  1       -2 0.95069438E-02 0.12536244E+03</pdfrwt>
<totfact> 0.10443638E+04</totfact>
</mgrwt>
</event>
<event>
 7    1  0.6419647E-006  0.1311074E+03  0.7546771E-02  0.1238974E+00
          1   -1    0    0  501    0  0.00000000000E+00  0.00000000000E+00  0.12894461452E+04  0.12894461452E+04  0.00000000000E+00 0. -1.
         -1   -1    0    0    0  501 -0.00000000000E+00 -0.00000000000E+00 -0.10639492262E+02  0.10639492262E+02  0.00000000000E+00 0.  1.
         23    2    1    2    0    0  0.26669734404E+02  0.29190598754E+02  0.82782814270E+03  0.83814592401E+03  0.12500316117E+03 0.  0.
          5    1    3    3  502    0 -0.46466548434E+02 -0.25846041728E+01  0.41773878322E+03  0.42034938005E+03  0.47000000000E+01 0. -1.
         -5    1    3    3    0  502  0.73136282837E+02  0.31775202927E+02  0.41008935948E+03  0.41779654396E+03  0.47000000000E+01 0. -1.
        -11    1    1    2    0    0  0.19107228596E+02  0.17964007815E+02  0.60071483560E+02  0.65546738275E+02  0.00000000000E+00 0.  1.
         11    1    1    2    0    0 -0.45776962999E+02 -0.47154606569E+02  0.39090702670E+03  0.39639297519E+03  0.00000000000E+00 0. -1.
<mgrwt>
<rscale>  0 0.12253403E+03</rscale>
<asrwt>0</asrwt>
<pdfrwt beam="1">  1        1 0.19837621E+00 0.13110742E+03</pdfrwt>
<pdfrwt beam="2">  1       -1 0.16368460E-02 0.13110742E+03</pdfrwt>
<totfact> 0.88470688E+03</totfact>
</mgrwt>
</event>
<event>
 7    1  0.6419647E-006  0.2321900E+03  0.7546771E-02  0.1127913E+00
         -2   -1    0    0    0  501 -0.00000000000E+00  0.00000000000E+00  0.79184619696E+02  0.79184619696E+02  0.00000000000E+00 0.  1.
          2   -1    0    0  501    0  0.00000000000E+00 -0.00000000000E+00 -0.65843531212E+03  0.65843531212E+03  0.00000000000E+00 0. -1.
         23    2    1    2    0    0  0.63401472316E+02 -0.18511407701E+03 -0.23128163731E+03  0.32772454325E+03  0.12500084916E+03 0.  0.
          5    1    3    3  502    0 -0.16365536435E+02 -0.72114562947E+02 -0.14979586489E+03  0.16712041201E+03  0.47000000000E+01 0. -1.
         -5    1    3    3    0  502  0.79767008751E+02 -0.11299951406E+03 -0.81485772423E+02  0.16060413124E+03  0.47000000000E+01 0. -1.
        -11    1    1    2    0    0 -0.22929174130E+02  0.11726842760E+03 -0.12311078380E+03  0.17156309692E+03  0.00000000000E+00 0.  1.
         11    1    1    2    0    0 -0.40472298186E+02  0.67845649412E+02 -0.22485827131E+03  0.23833229164E+03  0.00000000000E+00 0. -1.
<mgrwt>
<rscale>  0 0.22820016E+03</rscale>
<asrwt>0</asrwt>
<pdfrwt beam="2">  1        2 0.10129773E+00 0.23218997E+03</pdfrwt>
<pdfrwt beam="1">  1       -2 0.12182250E-01 0.23218997E+03</pdfrwt>
<totfact> 0.21701447E+03</totfact>
</mgrwt>
</event>
<event>
 7    1  0.6419647E-006  0.1327789E+03  0.7546771E-02  0.1233813E+00
          1   -1    0    0  501    0  0.00000000000E+00  0.00000000000E+00  0.30361960564E+03  0.30361960564E+03  0.00000000000E+00 0. -1.
         -1   -1    0    0    0  501 -0.00000000000E+00 -0.00000000000E+00 -0.57097562849E+02  0.57097562849E+02  0.00000000000E+00 0.  1.
         23    2    1    2    0    0  0.40706851963E+02 -0.18773597873E+02  0.20842476181E+03  0.24712572047E+03  0.12498297727E+03 0.  0.
          5    1    3    3  502    0  0.46278319054E+02  0.38400767723E+02  0.49361658848E+02  0.77942062716E+02  0.47000000000E+01 0.  1.
         -5    1    3    3    0  502 -0.55714670905E+01 -0.57174365597E+02  0.15906310296E+03  0.16918365775E+03  0.47000000000E+01 0.  1.
        -11    1    1    2    0    0 -0.66702412502E+02 -0.86045399806E+01  0.34716651954E+02  0.75686827551E+02  0.00000000000E+00 0.  1.
         11    1    1    2    0    0  0.25995560539E+02  0.27378137854E+02  0.33806290253E+01  0.37904620467E+02  0.00000000000E+00 0. -1.
<mgrwt>
<rscale>  0 0.12580711E+03</rscale>
<asrwt>0</asrwt>
<pdfrwt beam="1">  1        1 0.46710708E-01 0.13277892E+03</pdfrwt>
<pdfrwt beam="2">  1       -1 0.87842406E-02 0.13277892E+03</pdfrwt>
<totfact> 0.61343159E+03</totfact>
</mgrwt>
</event>
<event>
 7    1  0.6419647E-006  0.1340142E+03  0.7546771E-02  0.1235568E+00
         -2   -1    0    0    0  501 -0.00000000000E+00  0.00000000000E+00  0.41407710096E+02  0.41407710096E+02  0.00000000000E+00 0.  1.
          2   -1    0    0  501    0  0.00000000000E+00 -0.00000000000E+00 -0.42909065933E+03  0.42909065933E+03  0.00000000000E+00 0. -1.
         23    2    1    2    0    0 -0.43333110505E+02  0.21376124238E+02 -0.32647027232E+03  0.35290599662E+03  0.12500042635E+03 0.  0.
          5    1    3    3  502    0 -0.64249742463E+02  0.58387554586E+02 -0.25716682320E+03  0.27146638999E+03  0.47000000000E+01 0. -1.
         -5    1    3    3    0  502  0.20916631958E+02 -0.37011430347E+02 -0.69303449114E+02  0.81439606629E+02  0.47000000000E+01 0. -1.
        -11    1    1    2    0    0 -0.26179245023E+02  0.34673570956E+01 -0.19262032058E+02  0.32686408708E+02  0.00000000000E+00 0. -1.
         11    1    1    2    0    0  0.69512355528E+02 -0.24843481334E+02 -0.41950644860E+02  0.84905964101E+02  0.00000000000E+00 0.  1.
<mgrwt>
<rscale>  0 0.12468118E+03</rscale>
<asrwt>0</asrwt>
<pdfrwt beam="2">  1        2 0.66013944E-01 0.13401419E+03</pdfrwt>
<pdfrwt beam="1">  1       -2 0.63704173E-02 0.13401419E+03</pdfrwt>
<totfact> 0.94710482E+03</totfact>
</mgrwt>
</event>
<event>
 7    1  0.6419647E-006  0.1599567E+03  0.7546771E-02  0.1191365E+00
         -1   -1    0    0    0  501 -0.00000000000E+00  0.00000000000E+00  0.14633327511E+03  0.14633327511E+03  0.00000000000E+00 0.  1.
          1   -1    0    0  501    0  0.00000000000E+00 -0.00000000000E+00 -0.16715574382E+03  0.16715574382E+03  0.00000000000E+00 0. -1.
         23    2    1    2    0    0 -0.95725990404E+02 -0.28208094674E+02 -0.27848292755E+02  0.16236273909E+03  0.12500787892E+03 0.  0.
          5    1    3    3  502    0  0.16470447184E+02  0.20646943180E+02 -0.29521081835E+02  0.39889298889E+02  0.47000000000E+01 0.  1.
         -5    1    3    3    0  502 -0.11219643759E+03 -0.48855037854E+02  0.16727890804E+01  0.12247344020E+03  0.47000000000E+01 0.  1.
        -11    1    1    2    0    0  0.13960129793E+02  0.13466517126E+02 -0.47798332000E+02  0.51584036769E+02  0.00000000000E+00 0. -1.
         11    1    1    2    0    0  0.81765860611E+02  0.14741577549E+02  0.54824156039E+02  0.99542243070E+02  0.00000000000E+00 0.  1.
<mgrwt>
<rscale>  0 0.15765919E+03</rscale>
<asrwt>0</asrwt>
<pdfrwt beam="2">  1        1 0.25716268E-01 0.15995666E+03</pdfrwt>
<pdfrwt beam="1">  1       -1 0.22512811E-01 0.15995666E+03</pdfrwt>
<totfact> 0.29813192E+03</totfact>
</mgrwt>
</event>
<event>
 6    1  0.6419647E-006  0.1288031E+03  0.7546771E-02  0.1244936E+00
         -2   -1    0    0    0  501 -0.00000000000E+00  0.00000000000E+00  0.58813862999E+02  0.58813862999E+02  0.00000000000E+00 0.  1.
          2   -1    0    0  501    0  0.00000000000E+00 -0.00000000000E+00 -0.22015256888E+03  0.22015256888E+03  0.00000000000E+00 0. -1.
          5    1    1    2  502    0  0.19172417131E+02  0.41485646068E+02 -0.11728593395E+03  0.12596317204E+03  0.47000000000E+01 0. -1.
         -5    1    1    2    0  502 -0.30783383899E+02 -0.40961892369E+02 -0.50907187230E+01  0.51705887168E+02  0.47000000000E+01 0.  1.
        -11    1    1    2    0    0  0.14379251193E+02 -0.22704102294E+02 -0.62987987471E+02  0.68481571912E+02  0.00000000000E+00 0.  1.
         11    1    1    2    0    0 -0.27682844254E+01  0.22180348595E+02  0.24025934260E+02  0.32815800761E+02  0.00000000000E+00 0. -1.
<mgrwt>
<rscale>  0 0.11889213E+03</rscale>
<asrwt>0</asrwt>
<pdfrwt beam="2">  1        2 0.33869626E-01 0.12880314E+03</pdfrwt>
<pdfrwt beam="1">  1       -2 0.90482867E-02 0.12880314E+03</pdfrwt>
<totfact> 0.11191371E+04</totfact>
</mgrwt>
</event>
<event>
 7    1  0.6419647E-006  0.1226924E+03  0.7546771E-02  0.1250562E+00
          2   -1    0    0  501    0  0.00000000000E+00  0.00000000000E+00  0.13921498166E+03  0.13921498166E+03  0.00000000000E+00 0. -1.
         -2   -1    0    0    0  501 -0.00000000000E+00 -0.00000000000E+00 -0.10361658348E+03  0.10361658348E+03  0.00000000000E+00 0.  1.
         23    2    1    2    0    0 -0.26699269927E+02  0.29490886959E+02  0.68775196067E+02  0.14065367962E+03  0.11606406235E+03 0.  0.
          5    1    3    3  502    0 -0.69167079843E+02  0.30415856177E+02  0.60982415762E+02  0.97211903969E+02  0.47000000000E+01 0. -1.
         -5    1    3    3    0  502  0.42467809916E+02 -0.92496921832E+00  0.77927803046E+01  0.43441775655E+02  0.47000000000E+01 0.  1.
        -11    1    1    2    0    0 -0.18503162194E+02 -0.41314975151E+02 -0.32004429041E+02  0.55439856251E+02  0.00000000000E+00 0.  1.
         11    1    1    2    0    0  0.45202432121E+02  0.11824088192E+02 -0.11723688504E+01  0.46738029269E+02  0.00000000000E+00 0. -1.
<mgrwt>
<rscale>  0 0.11558579E+03</rscale>
<asrwt>0</asrwt>
<pdfrwt beam="1">  1        2 0.21417689E-01 0.12269242E+03</pdfrwt>
<pdfrwt beam="2">  1       -2 0.15941013E-01 0.12269242E+03</pdfrwt>
<totfact> 0.74520614E+03</totfact>
</mgrwt>
</event>
<event>
 6    1  0.6419647E-006  0.1313843E+03  0.7546771E-02  0.1241802E+00
          1   -1    0    0  501    0  0.00000000000E+00  0.00000000000E+00  0.55664633899E+02  0.55664633899E+02  0.00000000000E+00 0. -1.
         -1   -1    0    0    0  501 -0.00000000000E+00 -0.00000000000E+00 -0.25317200548E+03  0.25317200548E+03  0.00000000000E+00 0.  1.
          5    1    1    2  502    0 -0.84474327370E+01 -0.72102885863E+02 -0.17386436480E+02  0.74796814391E+02  0.47000000000E+01 0. -1.
         -5    1    1    2    0  502 -0.50016452679E+00  0.53414251568E+02 -0.47957769566E+02  0.71940045155E+02  0.47000000000E+01 0.  1.
        -11    1    1    2    0    0 -0.29045651711E+02 -0.12897539248E+01 -0.71759645053E+01  0.29946749658E+02  0.00000000000E+00 0. -1.
         11    1    1    2    0    0  0.37993248975E+02  0.19978388219E+02 -0.12498720103E+03  0.13215303018E+03  0.00000000000E+00 0.  1.
<mgrwt>
<rscale>  0 0.12078832E+03</rscale>
<asrwt>0</asrwt>
<pdfrwt beam="1">  1        1 0.85637900E-02 0.13138432E+03</pdfrwt>
<pdfrwt beam="2">  1       -1 0.38949539E-01 0.13138432E+03</pdfrwt>
<totfact> 0.48841054E+03</totfact>
</mgrwt>
</event>
<event>
 7    1  0.6419647E-006  0.1334288E+03  0.7546771E-02  0.1235235E+00
          1   -1    0    0  501    0  0.00000000000E+00  0.00000000000E+00  0.99795819374E+02  0.99795819374E+02  0.00000000000E+00 0. -1.
         -1   -1    0    0    0  501 -0.00000000000E+00 -0.00000000000E+00 -0.14245012188E+03  0.14245012188E+03  0.00000000000E+00 0.  1.
         23    2    1    2    0    0  0.17237819237E+02 -0.43377087132E+02 -0.63654701960E+01  0.13358057000E+03  0.12499814147E+03 0.  0.
          5    1    3    3  502    0 -0.44145086688E+02  0.14982026234E+01 -0.30250062806E+02  0.53741879289E+02  0.47000000000E+01 0. -1.
         -5    1    3    3    0  502  0.61382905925E+02 -0.44875289756E+02  0.23884592610E+02  0.79838690712E+02  0.47000000000E+01 0. -1.
        -11    1    1    2    0    0  0.11529965053E+02  0.18143061508E+02  0.27118785146E+02  0.34605480531E+02  0.00000000000E+00 0. -1.
         11    1    1    2    0    0 -0.28767784291E+02  0.25234025624E+02 -0.63407617461E+02  0.74059890726E+02  0.00000000000E+00 0.  1.
<mgrwt>
<rscale>  0 0.12489378E+03</rscale>
<asrwt>0</asrwt>
<pdfrwt beam="1">  1        1 0.15353203E-01 0.13342882E+03</pdfrwt>
<pdfrwt beam="2">  1       -1 0.21915403E-01 0.13342882E+03</pdfrwt>
<totfact> 0.59499318E+03</totfact>
</mgrwt>
</event>
<event>
 7    1  0.6419647E-006  0.1275837E+03  0.7546771E-02  0.1245174E+00
          1   -1    0    0  501    0  0.00000000000E+00  0.00000000000E+00  0.16576342378E+03  0.16576342378E+03  0.00000000000E+00 0. -1.
         -1   -1    0    0    0  501 -0.00000000000E+00 -0.00000000000E+00 -0.12278580576E+03  0.12278580576E+03  0.00000000000E+00 0.  1.
         23    2    1    2    0    0 -0.25310922817E+01 -0.25418146102E+02  0.11259648863E+03  0.17016333710E+03  0.12500041384E+03 0.  0.
          5    1    3    3  502    0  0.42121191652E+02 -0.58174263339E+02  0.61700405098E+02  0.94802266273E+02  0.47000000000E+01 0. -1.
         -5    1    3    3    0  502 -0.44652283934E+02  0.32756117237E+02  0.50896083529E+02  0.75361070823E+02  0.47000000000E+01 0. -1.
        -11    1    1    2    0    0  0.23049557044E+02  0.55066130646E+02 -0.43623775167E+02  0.73936422581E+02  0.00000000000E+00 0. -1.
         11    1    1    2    0    0 -0.20518464762E+02 -0.29647984545E+02 -0.25995095445E+02  0.44449469861E+02  0.00000000000E+00 0.  1.
<mgrwt>
<rscale>  0 0.11874988E+03</rscale>
<asrwt>0</asrwt>
<pdfrwt beam="1">  1        1 0.25502065E-01 0.12758367E+03</pdfrwt>
<pdfrwt beam="2">  1       -1 0.18890124E-01 0.12758367E+03</pdfrwt>
<totfact> 0.39522806E+03</totfact>
</mgrwt>
</event>
<event>
 7    1  0.6419647E-006  0.1261377E+03  0.7546771E-02  0.1248290E+00
         -1   -1    0    0    0  501 -0.00000000000E+00  0.00000000000E+00  0.14133794475E+02  0.14133794475E+02  0.00000000000E+00 0.  1.
          1   -1    0    0  501    0  0.00000000000E+00 -0.00000000000E+00 -0.89802473613E+03  0.89802473613E+03  0.00000000000E+00 0. -1.
         23    2    1    2    0    0  0.89184837142E+01  0.14387344545E+02 -0.60942320083E+03  0.62234021810E+03  0.12499669726E+03 0.  0.
          5    1    3    3  502    0  0.19167758405E+01 -0.18847714600E+02 -0.99900130913E+01  0.21927168919E+02  0.47000000000E+01 0.  1.
         -5    1    3    3    0  502  0.70017078737E+01  0.33235059144E+02 -0.59943318773E+03  0.60041304918E+03  0.47000000000E+01 0.  1.
        -11    1    1    2    0    0  0.78003096962E+01 -0.48541608950E+02 -0.10229561025E+03  0.11349680396E+03  0.00000000000E+00 0.  1.
         11    1    1    2    0    0 -0.16718793410E+02  0.34154264405E+02 -0.17217213058E+03  0.17632150855E+03  0.00000000000E+00 0. -1.
<mgrwt>
<rscale>  0 0.11690594E+03</rscale>
<asrwt>0</asrwt>
<pdfrwt beam="2">  1        1 0.13815770E+00 0.12613766E+03</pdfrwt>
<pdfrwt beam="1">  1       -1 0.21744291E-02 0.12613766E+03</pdfrwt>
<totfact> 0.11114498E+04</totfact>
</mgrwt>
</event>
<event>
 7    1  0.6419647E-006  0.1362208E+03  0.7546771E-02  0.1231120E+00
          1   -1    0    0  501    0  0.00000000000E+00  0.00000000000E+00  0.61470519850E+03  0.61470519850E+03  0.00000000000E+00 0.  1.
         -1   -1    0    0    0  501 -0.00000000000E+00 -0.00000000000E+00 -0.27500565580E+02  0.27500565580E+02  0.00000000000E+00 0. -1.
         23    2    1    2    0    0  0.41782817602E+02 -0.34588480766E+02  0.44633969049E+03  0.46666392031E+03  0.12495570561E+03 0.  0.
          5    1    3    3  502    0  0.26664337590E+02 -0.21775004910E+02  0.44488997377E+03  0.44624468232E+03  0.47000000000E+01 0. -1.
         -5    1    3    3    0  502  0.15118480012E+02 -0.12813475856E+02  0.14497167161E+01  0.20419237986E+02  0.47000000000E+01 0. -1.
        -11    1    1    2    0    0 -0.55969949752E+02  0.23696409814E+02  0.39219668997E+02  0.72334898559E+02  0.00000000000E+00 0. -1.
         11    1    1    2    0    0  0.14187132151E+02  0.10892070953E+02  0.10164527344E+03  0.10320694521E+03  0.00000000000E+00 0.  1.
<mgrwt>
<rscale>  0 0.12756109E+03</rscale>
<asrwt>0</asrwt>
<pdfrwt beam="1">  1        1 0.94570021E-01 0.13622076E+03</pdfrwt>
<pdfrwt beam="2">  1       -1 0.42308567E-02 0.13622076E+03</pdfrwt>
<totfact> 0.73866082E+03</totfact>
</mgrwt>
</event>
<event>
 7    1  0.6419647E-006  0.1757358E+03  0.7546771E-02  0.1178207E+00
         -1   -1    0    0    0  501 -0.00000000000E+00  0.00000000000E+00  0.15063923017E+03  0.15063923017E+03  0.00000000000E+00 0.  1.
          1   -1    0    0  501    0  0.00000000000E+00 -0.00000000000E+00 -0.18016403297E+03  0.18016403297E+03  0.00000000000E+00 0. -1.
         23    2    1    2    0    0  0.63052402495E+02 -0.10621627363E+03 -0.23444682878E+01  0.17575144993E+03  0.12500229349E+03 0.  0.
          5    1    3    3  502    0  0.12910706847E+02  0.11826308824E+02  0.37265562008E+02  0.41441042982E+02  0.47000000000E+01 0.  1.
         -5    1    3    3    0  502  0.50141695648E+02 -0.11804258246E+03 -0.39610030295E+02  0.13431040695E+03  0.47000000000E+01 0.  1.
        -11    1    1    2    0    0 -0.24014925462E+02  0.73605394127E+02  0.25796477933E+02  0.81608387824E+02  0.00000000000E+00 0.  1.
         11    1    1    2    0    0 -0.39037477033E+02  0.32610879505E+02 -0.52976812442E+02  0.73443425381E+02  0.00000000000E+00 0. -1.
<mgrwt>
<rscale>  0 0.16965632E+03</rscale>
<asrwt>0</asrwt>
<pdfrwt beam="2">  1        1 0.27717544E-01 0.17573581E+03</pdfrwt>
<pdfrwt beam="1">  1       -1 0.23175266E-01 0.17573581E+03</pdfrwt>
<totfact> 0.25973169E+03</totfact>
</mgrwt>
</event>
<event>
 7    1  0.6419647E-006  0.1499551E+03  0.7546771E-02  0.1209621E+00
         -2   -1    0    0    0  501 -0.00000000000E+00  0.00000000000E+00  0.91379382964E+02  0.91379382964E+02  0.00000000000E+00 0.  1.
          2   -1    0    0  501    0  0.00000000000E+00 -0.00000000000E+00 -0.20730721042E+03  0.20730721042E+03  0.00000000000E+00 0. -1.
         23    2    1    2    0    0 -0.35002631202E+02  0.75078411203E+02 -0.81537556017E+02  0.17068951181E+03  0.12499833751E+03 0.  0.
          5    1    3    3  502    0 -0.23460624089E+02 -0.28224592073E+02  0.22881317182E+01  0.37072281115E+02  0.47000000000E+01 0.  1.
         -5    1    3    3    0  502 -0.11542007113E+02  0.10330300328E+03 -0.83825687735E+02  0.13361723069E+03  0.47000000000E+01 0.  1.
        -11    1    1    2    0    0  0.48273818126E+01 -0.65649946827E+02 -0.58636505317E+02  0.88155878360E+02  0.00000000000E+00 0. -1.
         11    1    1    2    0    0  0.30175249389E+02 -0.94284643757E+01  0.24246233880E+02  0.39841203214E+02  0.00000000000E+00 0.  1.
<mgrwt>
<rscale>  0 0.14279185E+03</rscale>
<asrwt>0</asrwt>
<pdfrwt beam="2">  1        2 0.31893417E-01 0.14995511E+03</pdfrwt>
<pdfrwt beam="1">  1       -2 0.14058367E-01 0.14995511E+03</pdfrwt>
<totfact> 0.59913992E+03</totfact>
</mgrwt>
</event>
<event>
 7    1  0.6419647E-006  0.1265513E+03  0.7546771E-02  0.1247844E+00
          2   -1    0    0  501    0  0.00000000000E+00  0.00000000000E+00  0.44680056067E+03  0.44680056067E+03  0.00000000000E+00 0. -1.
         -2   -1    0    0    0  501 -0.00000000000E+00 -0.00000000000E+00 -0.35973443607E+02  0.35973443607E+02  0.00000000000E+00 0.  1.
         23    2    1    2    0    0  0.24636177895E+01  0.19460241994E+02  0.34866303890E+03  0.37091932540E+03  0.12502184142E+03 0.  0.
          5    1    3    3  502    0  0.33676980043E+02  0.26778841861E+02  0.33138196360E+03  0.33419656065E+03  0.47000000000E+01 0. -1.
         -5    1    3    3    0  502 -0.31213362254E+02 -0.73185998673E+01  0.17281075301E+02  0.36722764749E+02  0.47000000000E+01 0. -1.
        -11    1    1    2    0    0 -0.12030457041E+02  0.29272946153E+02 -0.80355207638E+00  0.31658852933E+02  0.00000000000E+00 0.  1.
         11    1    1    2    0    0  0.95668392511E+01 -0.48733188146E+02  0.62967630240E+02  0.80195825940E+02  0.00000000000E+00 0. -1.
<mgrwt>
<rscale>  0 0.11716793E+03</rscale>
<asrwt>0</asrwt>
<pdfrwt beam="1">  1        2 0.68738544E-01 0.12655130E+03</pdfrwt>
<pdfrwt beam="2">  1       -2 0.55343763E-02 0.12655130E+03</pdfrwt>
<totfact> 0.11172655E+04</totfact>
</mgrwt>
</event>
<event>
 7    1  0.6419647E-006  0.2565365E+03  0.7546771E-02  0.1111791E+00
         -2   -1    0    0    0  501 -0.00000000000E+00  0.00000000000E+00  0.20194919443E+02  0.20194919443E+02  0.00000000000E+00 0.  1.
          2   -1    0    0  501    0  0.00000000000E+00 -0.00000000000E+00 -0.31936286567E+04  0.31936286567E+04  0.00000000000E+00 0. -1.
         23    2    1    2    0    0  0.12164242605E+03 -0.18814243650E+03 -0.19677334775E+04  0.19843855532E+04  0.12496611063E+03 0.  0.
          5    1    3    3  502    0 -0.11370464192E+02 -0.71163298642E+02 -0.80425554503E+03  0.80749153199E+03  0.47000000000E+01 0.  1.
         -5    1    3    3    0  502  0.13301289024E+03 -0.11697913786E+03 -0.11634779325E+04  0.11768940212E+04  0.47000000000E+01 0.  1.
        -11    1    1    2    0    0 -0.31549200360E+02  0.12456933419E+03 -0.72014446236E+03  0.73151959491E+03  0.00000000000E+00 0. -1.
         11    1    1    2    0    0 -0.90093225689E+02  0.63573102316E+02 -0.48555579736E+03  0.49791842806E+03  0.00000000000E+00 0.  1.
<mgrwt>
<rscale>  0 0.25241045E+03</rscale>
<asrwt>0</asrwt>
<pdfrwt beam="2">  1        2 0.49132752E+00 0.25653652E+03</pdfrwt>
<pdfrwt beam="1">  1       -2 0.31069104E-02 0.25653652E+03</pdfrwt>
<totfact> 0.64169458E+02</totfact>
</mgrwt>
</event>
<event>
 7    1  0.6419647E-006  0.1947561E+03  0.7546771E-02  0.1158794E+00
         -4   -1    0    0    0  501 -0.00000000000E+00  0.00000000000E+00  0.60103387221E+02  0.60103387221E+02  0.00000000000E+00 0.  1.
          4   -1    0    0  501    0  0.00000000000E+00 -0.00000000000E+00 -0.65971466372E+03  0.65971466372E+03  0.00000000000E+00 0. -1.
         23    2    1    2    0    0 -0.14078963166E+03  0.49809789374E+02 -0.44698979883E+03  0.48757546836E+03  0.12500888602E+03 0.  0.
          5    1    3    3  502    0 -0.89723446566E+02  0.49220339102E+02 -0.12542115181E+03  0.16194287254E+03  0.47000000000E+01 0.  1.
         -5    1    3    3    0  502 -0.51066185094E+02  0.58945027177E+00 -0.32156864702E+03  0.32563259581E+03  0.47000000000E+01 0.  1.
        -11    1    1    2    0    0  0.62163740879E+02 -0.40793760366E+02 -0.13028658701E+03  0.15001018738E+03  0.00000000000E+00 0.  1.
         11    1    1    2    0    0  0.78625890781E+02 -0.90160290073E+01 -0.22334890665E+02  0.82232395205E+02  0.00000000000E+00 0. -1.
<mgrwt>
<rscale>  0 0.18963143E+03</rscale>
<asrwt>0</asrwt>
<pdfrwt beam="2">  1        4 0.10149456E+00 0.19475615E+03</pdfrwt>
<pdfrwt beam="1">  1       -4 0.92466750E-02 0.19475615E+03</pdfrwt>
<totfact> 0.12676357E+02</totfact>
</mgrwt>
</event>
<event>
 7    1  0.6419647E-006  0.1347381E+03  0.7546771E-02  0.1246628E+00
          2   -1    0    0  501    0  0.00000000000E+00  0.00000000000E+00  0.77010333279E+03  0.77010333279E+03  0.00000000000E+00 0. -1.
         -2   -1    0    0    0  501 -0.00000000000E+00 -0.00000000000E+00 -0.15152880861E+02  0.15152880861E+02  0.00000000000E+00 0.  1.
         23    2    1    2    0    0  0.51372861778E+02 -0.50876345073E+02  0.52978665257E+03  0.54665186837E+03  0.11369606212E+03 0.  0.
          5    1    3    3  502    0  0.42167544688E+02 -0.34729628511E+01  0.45819932270E+03  0.46017265523E+03  0.47000000000E+01 0. -1.
         -5    1    3    3    0  502  0.92053170904E+01 -0.47403382222E+02  0.71587329865E+02  0.86479213144E+02  0.47000000000E+01 0.  1.
        -11    1    1    2    0    0 -0.42351953570E+02  0.20217258021E+02  0.12925144610E+03  0.13750767910E+03  0.00000000000E+00 0.  1.
         11    1    1    2    0    0 -0.90209082078E+01  0.30659087052E+02  0.95912353271E+02  0.10109666618E+03  0.00000000000E+00 0. -1.
<mgrwt>
<rscale>  0 0.11788476E+03</rscale>
<asrwt>0</asrwt>
<pdfrwt beam="1">  1        2 0.11847741E+00 0.13473815E+03</pdfrwt>
<pdfrwt beam="2">  1       -2 0.23312130E-02 0.13473815E+03</pdfrwt>
<totfact> 0.21721188E+04</totfact>
</mgrwt>
</event>
<event>
 6    1  0.6419647E-006  0.1451068E+03  0.7546771E-02  0.1227575E+00
         -1   -1    0    0    0  501 -0.00000000000E+00  0.00000000000E+00  0.20060444333E+03  0.20060444333E+03  0.00000000000E+00 0.  1.
          1   -1    0    0  501    0  0.00000000000E+00 -0.00000000000E+00 -0.31771226856E+03  0.31771226856E+03  0.00000000000E+00 0. -1.
          5    1    1    2  502    0  0.26569835128E+02 -0.56987009108E+02 -0.25746590070E+03  0.26507405639E+03  0.47000000000E+01 0. -1.
         -5    1    1    2    0  502 -0.29959882665E+02  0.38359427700E+02 -0.31182710758E+02  0.57995618050E+02  0.47000000000E+01 0.  1.
        -11    1    1    2    0    0 -0.37723965352E+02 -0.19903772617E+01  0.12169420137E+03  0.12742267385E+03  0.00000000000E+00 0. -1.
         11    1    1    2    0    0  0.41114012888E+02  0.20617958669E+02  0.49846584869E+02  0.67824363606E+02  0.00000000000E+00 0.  1.
<mgrwt>
<rscale>  0 0.12991988E+03</rscale>
<asrwt>0</asrwt>
<pdfrwt beam="2">  1        1 0.48878810E-01 0.14510684E+03</pdfrwt>
<pdfrwt beam="1">  1       -1 0.30862222E-01 0.14510684E+03</pdfrwt>
<totfact> 0.79213033E+02</totfact>
</mgrwt>
</event>
<event>
 6    1  0.6419647E-006  0.1494497E+03  0.7546771E-02  0.1219021E+00
          2   -1    0    0  501    0  0.00000000000E+00  0.00000000000E+00  0.14526461227E+03  0.14526461227E+03  0.00000000000E+00 0. -1.
         -2   -1    0    0    0  501 -0.00000000000E+00 -0.00000000000E+00 -0.14474561828E+03  0.14474561828E+03  0.00000000000E+00 0.  1.
          5    1    1    2  502    0  0.65111946379E+02  0.34243540178E+02 -0.14518213463E+02  0.75133575233E+02  0.47000000000E+01 0. -1.
         -5    1    1    2    0  502 -0.22706610292E+02 -0.16043490069E+02  0.86051567903E+02  0.90553553565E+02  0.47000000000E+01 0.  1.
        -11    1    1    2    0    0  0.25539359005E+02 -0.12105824040E+02 -0.40992886901E+02  0.49791832770E+02  0.00000000000E+00 0.  1.
         11    1    1    2    0    0 -0.67944695091E+02 -0.60942260691E+01 -0.30021473552E+02  0.74531268986E+02  0.00000000000E+00 0. -1.
<mgrwt>
<rscale>  0 0.13585299E+03</rscale>
<asrwt>0</asrwt>
<pdfrwt beam="1">  1        2 0.22348402E-01 0.14944967E+03</pdfrwt>
<pdfrwt beam="2">  1       -2 0.22268557E-01 0.14944967E+03</pdfrwt>
<totfact> 0.41063396E+03</totfact>
</mgrwt>
</event>
<event>
 6    1  0.6419647E-006  0.1812256E+03  0.7546771E-02  0.1198146E+00
          4   -1    0    0  501    0  0.00000000000E+00  0.00000000000E+00  0.13450490338E+03  0.13450490338E+03  0.00000000000E+00 0. -1.
         -4   -1    0    0    0  501 -0.00000000000E+00 -0.00000000000E+00 -0.14873002020E+03  0.14873002020E+03  0.00000000000E+00 0.  1.
          5    1    1    2  502    0  0.21687504945E+02  0.53360198221E+02  0.86623770202E+02  0.10413177320E+03  0.47000000000E+01 0. -1.
         -5    1    1    2    0  502 -0.51363757921E+02 -0.20073932889E+02 -0.57055920664E+02  0.79490040208E+02  0.47000000000E+01 0.  1.
        -11    1    1    2    0    0  0.34673325237E+02 -0.35449490963E+01 -0.56902708722E+02  0.66728737489E+02  0.00000000000E+00 0. -1.
         11    1    1    2    0    0 -0.49970722618E+01 -0.29741316236E+02  0.13109742361E+02  0.32884372693E+02  0.00000000000E+00 0.  1.
<mgrwt>
<rscale>  0 0.15190933E+03</rscale>
<asrwt>0</asrwt>
<pdfrwt beam="1">  1        4 0.20693062E-01 0.18122558E+03</pdfrwt>
<pdfrwt beam="2">  1       -4 0.22881541E-01 0.18122558E+03</pdfrwt>
<totfact> 0.65460643E+02</totfact>
</mgrwt>
</event>
<event>
 7    1  0.6419647E-006  0.1609547E+03  0.7546771E-02  0.1195504E+00
         -2   -1    0    0    0  501 -0.00000000000E+00  0.00000000000E+00  0.76557083608E+02  0.76557083608E+02  0.00000000000E+00 0.  1.
          2   -1    0    0  501    0  0.00000000000E+00 -0.00000000000E+00 -0.29151531285E+03  0.29151531285E+03  0.00000000000E+00 0. -1.
         23    2    1    2    0    0 -0.38719006070E+02 -0.93700552693E+02 -0.14044310768E+03  0.21361337158E+03  0.12500980369E+03 0.  0.
          5    1    3    3  502    0  0.43073963686E+02 -0.55810593306E+02 -0.63824051442E+02  0.95214432809E+02  0.47000000000E+01 0. -1.
         -5    1    3    3    0  502 -0.81792969756E+02 -0.37889959387E+02 -0.76619056234E+02  0.11839893877E+03  0.47000000000E+01 0. -1.
        -11    1    1    2    0    0  0.27572338320E+02  0.10072466435E+03 -0.87289932861E+02  0.13610739960E+03  0.00000000000E+00 0. -1.
         11    1    1    2    0    0  0.11146667750E+02 -0.70241116527E+01  0.12774811297E+02  0.18351625272E+02  0.00000000000E+00 0.  1.
<mgrwt>
<rscale>  0 0.15411651E+03</rscale>
<asrwt>0</asrwt>
<pdfrwt beam="2">  1        2 0.44848509E-01 0.16095467E+03</pdfrwt>
<pdfrwt beam="1">  1       -2 0.11778013E-01 0.16095467E+03</pdfrwt>
<totfact> 0.55557746E+03</totfact>
</mgrwt>
</event>
<event>
 6    1  0.6419647E-006  0.1464217E+03  0.7546771E-02  0.1218746E+00
          2   -1    0    0  501    0  0.00000000000E+00  0.00000000000E+00  0.47974500492E+04  0.47974500492E+04  0.00000000000E+00 0. -1.
         -2   -1    0    0    0  501 -0.00000000000E+00 -0.00000000000E+00 -0.10138680685E+03  0.10138680685E+03  0.00000000000E+00 0.  1.
          5    1    1    2  502    0  0.78229176484E+02 -0.44254116274E+02  0.44102490223E+04  0.44111672786E+04  0.47000000000E+01 0. -1.
         -5    1    1    2    0  502 -0.26257250229E+02  0.15436402155E+02  0.35637856762E+03  0.35770867918E+03  0.47000000000E+01 0.  1.
        -11    1    1    2    0    0 -0.70949637588E+02 -0.39801256454E+01 -0.42419003648E+02  0.82759074092E+02  0.00000000000E+00 0.  1.
         11    1    1    2    0    0  0.18977711333E+02  0.32797839765E+02 -0.28145343941E+02  0.47201824183E+02  0.00000000000E+00 0. -1.
<mgrwt>
<rscale>  0 0.13604902E+03</rscale>
<asrwt>0</asrwt>
<pdfrwt beam="1">  1        2 0.73806906E+00 0.14642172E+03</pdfrwt>
<pdfrwt beam="2">  1       -2 0.15597974E-01 0.14642172E+03</pdfrwt>
<totfact> 0.31519848E+00</totfact>
</mgrwt>
</event>
<event>
 7    1  0.6419647E-006  0.2298612E+03  0.7546771E-02  0.1129890E+00
          2   -1    0    0  501    0  0.00000000000E+00  0.00000000000E+00  0.88198404329E+03  0.88198404329E+03  0.00000000000E+00 0. -1.
         -2   -1    0    0    0  501 -0.00000000000E+00 -0.00000000000E+00 -0.64257599226E+02  0.64257599226E+02  0.00000000000E+00 0.  1.
         23    2    1    2    0    0  0.18238503396E+03  0.62828068879E+02  0.59699539715E+03  0.63971842619E+03  0.12499797491E+03 0.  0.
          5    1    3    3  502    0 -0.54893155853E+01  0.37475159479E+02  0.13570040808E+03  0.14096528266E+03  0.47000000000E+01 0.  1.
         -5    1    3    3    0  502  0.18787434955E+03  0.25352909401E+02  0.46129498908E+03  0.49875314353E+03  0.47000000000E+01 0.  1.
        -11    1    1    2    0    0 -0.38225218070E+02 -0.19483801833E+02  0.46215417018E+01  0.43152572091E+02  0.00000000000E+00 0.  1.
         11    1    1    2    0    0 -0.14415981589E+03 -0.43344267047E+02  0.21610950521E+03  0.26337064424E+03  0.00000000000E+00 0. -1.
<mgrwt>
<rscale>  0 0.22544089E+03</rscale>
<asrwt>0</asrwt>
<pdfrwt beam="1">  1        2 0.13568984E+00 0.22986118E+03</pdfrwt>
<pdfrwt beam="2">  1       -2 0.98857851E-02 0.22986118E+03</pdfrwt>
<totfact> 0.21041220E+03</totfact>
</mgrwt>
</event>
<event>
 7    1  0.6419647E-006  0.1907586E+03  0.7546771E-02  0.1162778E+00
         -2   -1    0    0    0  501 -0.00000000000E+00  0.00000000000E+00  0.93602920407E+02  0.93602920407E+02  0.00000000000E+00 0. -1.
          2   -1    0    0  501    0  0.00000000000E+00 -0.00000000000E+00 -0.36129760809E+03  0.36129760809E+03  0.00000000000E+00 0.  1.
         23    2    1    2    0    0 -0.11769074890E+03 -0.83138699458E+02 -0.18610946500E+03  0.26650621556E+03  0.12500269695E+03 0.  0.
          5    1    3    3  502    0 -0.10647978308E+03 -0.85580361152E+01 -0.69414730641E+02  0.12748207332E+03  0.47000000000E+01 0.  1.
         -5    1    3    3    0  502 -0.11210965818E+02 -0.74580663342E+02 -0.11669473436E+03  0.13902414224E+03  0.47000000000E+01 0.  1.
        -11    1    1    2    0    0  0.12726618626E+03  0.68128965898E+02 -0.51177858047E+02  0.15315812520E+03  0.00000000000E+00 0. -1.
         11    1    1    2    0    0 -0.95754373595E+01  0.15009733559E+02 -0.30407364640E+02  0.35236187741E+02  0.00000000000E+00 0.  1.
<mgrwt>
<rscale>  0 0.18529147E+03</rscale>
<asrwt>0</asrwt>
<pdfrwt beam="2">  1        2 0.55584248E-01 0.19075856E+03</pdfrwt>
<pdfrwt beam="1">  1       -2 0.14400449E-01 0.19075856E+03</pdfrwt>
<totfact> 0.32148177E+03</totfact>
</mgrwt>
</event>
<event>
 7    1  0.6419647E-006  0.1426618E+03  0.7546771E-02  0.1220854E+00
         -2   -1    0    0    0  501 -0.00000000000E+00  0.00000000000E+00  0.23384564186E+03  0.23384564186E+03  0.00000000000E+00 0.  1.
          2   -1    0    0  501    0  0.00000000000E+00 -0.00000000000E+00 -0.70716466638E+02  0.70716466638E+02  0.00000000000E+00 0. -1.
         23    2    1    2    0    0 -0.47182002514E+02 -0.50096707372E+02  0.73875350342E+02  0.16065478794E+03  0.12496628365E+03 0.  0.
          5    1    3    3  502    0 -0.53229223336E+02 -0.10820438300E+02 -0.20420428010E+02  0.58219549827E+02  0.47000000000E+01 0. -1.
         -5    1    3    3    0  502  0.60472208216E+01 -0.39276269073E+02  0.94295778352E+02  0.10243523811E+03  0.47000000000E+01 0. -1.
        -11    1    1    2    0    0  0.39745438301E+02  0.19889750706E+02  0.10124250211E+03  0.11056828787E+03  0.00000000000E+00 0.  1.
         11    1    1    2    0    0  0.74365642129E+01  0.30206956667E+02 -0.11988677238E+02  0.33339032683E+02  0.00000000000E+00 0. -1.
<mgrwt>
<rscale>  0 0.13455197E+03</rscale>
<asrwt>0</asrwt>
<pdfrwt beam="2">  1        2 0.10879457E-01 0.14266182E+03</pdfrwt>
<pdfrwt beam="1">  1       -2 0.35976252E-01 0.14266182E+03</pdfrwt>
<totfact> 0.40309867E+03</totfact>
</mgrwt>
</event>
<event>
 7    1  0.6419647E-006  0.2015478E+03  0.7546771E-02  0.1156249E+00
         -2   -1    0    0    0  501 -0.00000000000E+00  0.00000000000E+00  0.15781212243E+03  0.15781212243E+03  0.00000000000E+00 0.  1.
          2   -1    0    0  501    0  0.00000000000E+00 -0.00000000000E+00 -0.23284908605E+03  0.23284908605E+03  0.00000000000E+00 0. -1.
         23    2    1    2    0    0  0.15630638492E+03 -0.23780569792E+02 -0.93194620567E+02  0.22205127120E+03  0.12499731306E+03 0.  0.
          5    1    3    3  502    0 -0.40728221671E+01 -0.23870887498E+02  0.14685094824E+02  0.28707998194E+02  0.47000000000E+01 0.  1.
         -5    1    3    3    0  502  0.16037920708E+03  0.90317705557E-01 -0.10787971539E+03  0.19334327300E+03  0.47000000000E+01 0.  1.
        -11    1    1    2    0    0 -0.62744649974E+02 -0.14591153304E+02 -0.58208217087E+01  0.64681332859E+02  0.00000000000E+00 0.  1.
         11    1    1    2    0    0 -0.93561734944E+02  0.38371723096E+02  0.23978478660E+02  0.10392860443E+03  0.00000000000E+00 0. -1.
<mgrwt>
<rscale>  0 0.19247359E+03</rscale>
<asrwt>0</asrwt>
<pdfrwt beam="2">  1        2 0.35822936E-01 0.20154783E+03</pdfrwt>
<pdfrwt beam="1">  1       -2 0.24278788E-01 0.20154783E+03</pdfrwt>
<totfact> 0.21330432E+03</totfact>
</mgrwt>
</event>
<event>
 7    1  0.6419647E-006  0.1916809E+03  0.7546771E-02  0.1161606E+00
         -1   -1    0    0    0  501 -0.00000000000E+00  0.00000000000E+00  0.20467455452E+02  0.20467455452E+02  0.00000000000E+00 0.  1.
          1   -1    0    0  501    0  0.00000000000E+00 -0.00000000000E+00 -0.16382528773E+04  0.16382528773E+04  0.00000000000E+00 0. -1.
         23    2    1    2    0    0  0.72008492739E+02 -0.12621523563E+03 -0.75429335825E+03  0.77826731856E+03  0.12500416035E+03 0.  0.
          5    1    3    3  502    0  0.59572968719E+02 -0.11842171335E+03 -0.75085087366E+03  0.76247738673E+03  0.47000000000E+01 0. -1.
         -5    1    3    3    0  502  0.12435524020E+02 -0.77935222805E+01 -0.34424845950E+01  0.15789931836E+02  0.47000000000E+01 0. -1.
        -11    1    1    2    0    0  0.39438273111E+01  0.81636594823E+02 -0.48594949605E+03  0.49277479653E+03  0.00000000000E+00 0.  1.
         11    1    1    2    0    0 -0.75952320050E+02  0.44578640804E+02 -0.37754256756E+03  0.38767821767E+03  0.00000000000E+00 0. -1.
<mgrwt>
<rscale>  0 0.18655501E+03</rscale>
<asrwt>0</asrwt>
<pdfrwt beam="2">  1        1 0.25203894E+00 0.19168085E+03</pdfrwt>
<pdfrwt beam="1">  1       -1 0.31488388E-02 0.19168085E+03</pdfrwt>
<totfact> 0.20381170E+03</totfact>
</mgrwt>
</event>
<event>
 7    1  0.6419647E-006  0.1307460E+03  0.7546771E-02  0.1233399E+00
         -2   -1    0    0    0  501 -0.00000000000E+00  0.00000000000E+00  0.13489095806E+03  0.13489095806E+03  0.00000000000E+00 0.  1.
          2   -1    0    0  501    0  0.00000000000E+00 -0.00000000000E+00 -0.11838094802E+03  0.11838094802E+03  0.00000000000E+00 0. -1.
         23    2    1    2    0    0  0.62379697823E+02 -0.13944286464E+02 -0.24504466519E+02  0.13302246929E+03  0.11405629588E+03 0.  0.
          5    1    3    3  502    0  0.78734228088E+02  0.28407693848E+02 -0.69547927881E+01  0.84122142656E+02  0.47000000000E+01 0. -1.
         -5    1    3    3    0  502 -0.16354530266E+02 -0.42351980312E+02 -0.17549673731E+02  0.48900326631E+02  0.47000000000E+01 0.  1.
        -11    1    1    2    0    0 -0.53089930908E+02  0.39807359467E+02 -0.51165696312E+01  0.66553331369E+02  0.00000000000E+00 0. -1.
         11    1    1    2    0    0 -0.92897669147E+01 -0.25863073003E+02  0.46131046192E+02  0.53696105420E+02  0.00000000000E+00 0.  1.
<mgrwt>
<rscale>  0 0.12607471E+03</rscale>
<asrwt>0</asrwt>
<pdfrwt beam="2">  1        2 0.18212453E-01 0.13074597E+03</pdfrwt>
<pdfrwt beam="1">  1       -2 0.20752455E-01 0.13074597E+03</pdfrwt>
<totfact> 0.57898873E+03</totfact>
</mgrwt>
</event>
<event>
 7    1  0.6419647E-006  0.1297846E+03  0.7546771E-02  0.1241661E+00
          2   -1    0    0  501    0  0.00000000000E+00  0.00000000000E+00  0.13564970595E+03  0.13564970595E+03  0.00000000000E+00 0. -1.
         -2   -1    0    0    0  501 -0.00000000000E+00 -0.00000000000E+00 -0.96734223918E+02  0.96734223918E+02  0.00000000000E+00 0.  1.
         23    2    1    2    0    0  0.32410012567E+02  0.13204149405E+02  0.36026282113E+02  0.13469204571E+03  0.12497718071E+03 0.  0.
          5    1    3    3  502    0 -0.38327672926E+02  0.10304567913E+02 -0.19618789555E+02  0.44521697355E+02  0.47000000000E+01 0. -1.
         -5    1    3    3    0  502  0.70737685493E+02  0.28995814922E+01  0.55645071667E+02  0.90170348356E+02  0.47000000000E+01 0. -1.
        -11    1    1    2    0    0 -0.17100757880E+02 -0.39044149073E+02  0.33943909450E+02  0.54489177693E+02  0.00000000000E+00 0. -1.
         11    1    1    2    0    0 -0.15309254687E+02  0.25839999668E+02 -0.31054709530E+02  0.43202706465E+02  0.00000000000E+00 0.  1.
<mgrwt>
<rscale>  0 0.12087448E+03</rscale>
<asrwt>0</asrwt>
<pdfrwt beam="1">  1        2 0.20869186E-01 0.12978465E+03</pdfrwt>
<pdfrwt beam="2">  1       -2 0.14882188E-01 0.12978465E+03</pdfrwt>
<totfact> 0.86224872E+03</totfact>
</mgrwt>
</event>
<event>
 7    1  0.6419647E-006  0.1285706E+03  0.7546771E-02  0.1243712E+00
         -1   -1    0    0    0  501 -0.00000000000E+00  0.00000000000E+00  0.11798549169E+03  0.11798549169E+03  0.00000000000E+00 0.  1.
          1   -1    0    0  501    0  0.00000000000E+00 -0.00000000000E+00 -0.11151156216E+03  0.11151156216E+03  0.00000000000E+00 0. -1.
         23    2    1    2    0    0  0.21308989128E+02 -0.21278347303E+02 -0.18642866098E+02  0.12991514782E+03  0.12499419225E+03 0.  0.
          5    1    3    3  502    0  0.47634376353E+02 -0.57227185713E+02 -0.34751749950E+02  0.82302847580E+02  0.47000000000E+01 0. -1.
         -5    1    3    3    0  502 -0.26325387224E+02  0.35948838410E+02  0.16108883853E+02  0.47612300244E+02  0.47000000000E+01 0. -1.
        -11    1    1    2    0    0 -0.78294254952E+01  0.31729651258E+02 -0.28471915322E+02  0.43344211086E+02  0.00000000000E+00 0. -1.
         11    1    1    2    0    0 -0.13479563633E+02 -0.10451303955E+02  0.53588710958E+02  0.56237694941E+02  0.00000000000E+00 0.  1.
<mgrwt>
<rscale>  0 0.11962804E+03</rscale>
<asrwt>0</asrwt>
<pdfrwt beam="2">  1        1 0.17155625E-01 0.12857056E+03</pdfrwt>
<pdfrwt beam="1">  1       -1 0.18151614E-01 0.12857056E+03</pdfrwt>
<totfact> 0.69594567E+03</totfact>
</mgrwt>
</event>
<event>
 7    1  0.6419647E-006  0.1253628E+03  0.7546771E-02  0.1251168E+00
         -3   -1    0    0    0  501 -0.00000000000E+00  0.00000000000E+00  0.29372968215E+02  0.29372968215E+02  0.00000000000E+00 0.  1.
          3   -1    0    0  501    0  0.00000000000E+00 -0.00000000000E+00 -0.47626888680E+03  0.47626888680E+03  0.00000000000E+00 0. -1.
         23    2    1    2    0    0 -0.23673097504E+01  0.92841518308E+01 -0.35872700406E+03  0.38000116572E+03  0.12499609143E+03 0.  0.
          5    1    3    3  502    0 -0.14298433232E+02  0.32299768885E+02 -0.35063286741E+03  0.35243895637E+03  0.47000000000E+01 0. -1.
         -5    1    3    3    0  502  0.11931123481E+02 -0.23015617054E+02 -0.80941366589E+01  0.27562209348E+02  0.47000000000E+01 0. -1.
        -11    1    1    2    0    0 -0.11857324017E+02  0.34227011599E+02 -0.14731129505E+02  0.39103588483E+02  0.00000000000E+00 0.  1.
         11    1    1    2    0    0  0.14224633767E+02 -0.43511163429E+02 -0.73437785014E+02  0.86537100810E+02  0.00000000000E+00 0. -1.
<mgrwt>
<rscale>  0 0.11523724E+03</rscale>
<asrwt>0</asrwt>
<pdfrwt beam="2">  1        3 0.73272136E-01 0.12536276E+03</pdfrwt>
<pdfrwt beam="1">  1       -3 0.45189182E-02 0.12536276E+03</pdfrwt>
<totfact> 0.11003797E+03</totfact>
</mgrwt>
</event>
<event>
 7    1  0.6419647E-006  0.1520227E+03  0.7546771E-02  0.1206427E+00
         -2   -1    0    0    0  501 -0.00000000000E+00  0.00000000000E+00  0.20103851835E+02  0.20103851835E+02  0.00000000000E+00 0.  1.
          2   -1    0    0  501    0  0.00000000000E+00 -0.00000000000E+00 -0.98462243403E+03  0.98462243403E+03  0.00000000000E+00 0. -1.
         23    2    1    2    0    0 -0.65740284672E+02 -0.56265290254E+02 -0.45666453331E+03  0.48130385075E+03  0.12499333120E+03 0.  0.
          5    1    3    3  502    0 -0.43942522304E+01 -0.63618352611E+02 -0.36564895803E+03  0.37119786469E+03  0.47000000000E+01 0.  1.
         -5    1    3    3    0  502 -0.61346032441E+02  0.73530623565E+01 -0.91015575288E+02  0.11010598607E+03  0.47000000000E+01 0.  1.
        -11    1    1    2    0    0  0.10745769629E+01  0.54878830343E+02 -0.32176138694E+03  0.32640960596E+03  0.00000000000E+00 0. -1.
         11    1    1    2    0    0  0.64665707709E+02  0.13864599111E+01 -0.18609266194E+03  0.19701282915E+03  0.00000000000E+00 0.  1.
<mgrwt>
<rscale>  0 0.14525586E+03</rscale>
<asrwt>0</asrwt>
<pdfrwt beam="2">  1        2 0.15148037E+00 0.15202270E+03</pdfrwt>
<pdfrwt beam="1">  1       -2 0.30929005E-02 0.15202270E+03</pdfrwt>
<totfact> 0.10528627E+04</totfact>
</mgrwt>
</event>
<event>
 7    1  0.6419647E-006  0.1305046E+03  0.7546771E-02  0.1240432E+00
          2   -1    0    0  501    0  0.00000000000E+00  0.00000000000E+00  0.21514833083E+02  0.21514833083E+02  0.00000000000E+00 0. -1.
         -2   -1    0    0    0  501 -0.00000000000E+00 -0.00000000000E+00 -0.60986733678E+03  0.60986733678E+03  0.00000000000E+00 0.  1.
         23    2    1    2    0    0 -0.36116136376E+02 -0.96189305725E+01 -0.32495048109E+03  0.35017746669E+03  0.12503816971E+03 0.  0.
          5    1    3    3  502    0 -0.14237006236E+02 -0.98864672308E+00  0.75482769462E+01  0.16814762970E+02  0.47000000000E+01 0. -1.
         -5    1    3    3    0  502 -0.21879130140E+02 -0.86302838494E+01 -0.33249875804E+03  0.33336270372E+03  0.47000000000E+01 0. -1.
        -11    1    1    2    0    0  0.53152841332E+02 -0.96728817429E+01 -0.24131649860E+03  0.24729019730E+03  0.00000000000E+00 0. -1.
         11    1    1    2    0    0 -0.17036704956E+02  0.19291812315E+02 -0.22085524008E+02  0.33914505877E+02  0.00000000000E+00 0.  1.
<mgrwt>
<rscale>  0 0.12162990E+03</rscale>
<asrwt>0</asrwt>
<pdfrwt beam="1">  1        2 0.33099743E-02 0.13050457E+03</pdfrwt>
<pdfrwt beam="2">  1       -2 0.93825745E-01 0.13050457E+03</pdfrwt>
<totfact> 0.25946182E+03</totfact>
</mgrwt>
</event>
<event>
 7    1  0.6419647E-006  0.1322425E+03  0.7546771E-02  0.1237271E+00
         -2   -1    0    0    0  501 -0.00000000000E+00  0.00000000000E+00  0.11426761799E+03  0.11426761799E+03  0.00000000000E+00 0.  1.
          2   -1    0    0  501    0  0.00000000000E+00 -0.00000000000E+00 -0.11904512019E+03  0.11904512019E+03  0.00000000000E+00 0. -1.
         23    2    1    2    0    0  0.12683137428E+01 -0.43113412580E+02  0.67363068161E+00  0.13224417919E+03  0.12501077628E+03 0.  0.
          5    1    3    3  502    0  0.56401180223E+02 -0.42264909351E+02  0.20352432022E+02  0.73510048172E+02  0.47000000000E+01 0.  1.
         -5    1    3    3    0  502 -0.55132866480E+02 -0.84850322936E+00 -0.19678801341E+02  0.58734131016E+02  0.47000000000E+01 0.  1.
        -11    1    1    2    0    0 -0.19056637657E+02  0.39087021833E+02  0.35567310714E+02  0.56178147940E+02  0.00000000000E+00 0.  1.
         11    1    1    2    0    0  0.17788323914E+02  0.40263907474E+01 -0.41018443591E+02  0.44890411055E+02  0.00000000000E+00 0. -1.
<mgrwt>
<rscale>  0 0.12360159E+03</rscale>
<asrwt>0</asrwt>
<pdfrwt beam="2">  1        2 0.18314634E-01 0.13224246E+03</pdfrwt>
<pdfrwt beam="1">  1       -2 0.17579634E-01 0.13224246E+03</pdfrwt>
<totfact> 0.76098932E+03</totfact>
</mgrwt>
</event>
<event>
 7    1  0.6419647E-006  0.1350759E+03  0.7546771E-02  0.1227583E+00
         -1   -1    0    0    0  501 -0.00000000000E+00  0.00000000000E+00  0.17057609643E+02  0.17057609643E+02  0.00000000000E+00 0.  1.
          1   -1    0    0  501    0  0.00000000000E+00 -0.00000000000E+00 -0.14413354258E+04  0.14413354258E+04  0.00000000000E+00 0. -1.
         23    2    1    2    0    0 -0.64363684703E+01  0.50783663425E+02 -0.11848733468E+04  0.11925478343E+04  0.12500032684E+03 0.  0.
          5    1    3    3  502    0 -0.19448894544E+02  0.73445898481E+02 -0.11181122442E+04  0.11207005131E+04  0.47000000000E+01 0. -1.
         -5    1    3    3    0  502  0.13012526073E+02 -0.22662235056E+02 -0.66761102679E+02  0.71847321199E+02  0.47000000000E+01 0. -1.
        -11    1    1    2    0    0  0.25857595312E+02 -0.43629884486E+02 -0.23984009798E+03  0.24514374284E+03  0.00000000000E+00 0. -1.
         11    1    1    2    0    0 -0.19421226841E+02 -0.71537789388E+01  0.43562863223E+00  0.20701458341E+02  0.00000000000E+00 0.  1.
<mgrwt>
<rscale>  0 0.12991394E+03</rscale>
<asrwt>0</asrwt>
<pdfrwt beam="2">  1        1 0.22174398E+00 0.13507586E+03</pdfrwt>
<pdfrwt beam="1">  1       -1 0.26242468E-02 0.13507586E+03</pdfrwt>
<totfact> 0.35578036E+03</totfact>
</mgrwt>
</event>
<event>
 6    1  0.6419647E-006  0.1668778E+03  0.7546771E-02  0.1195076E+00
          1   -1    0    0  501    0  0.00000000000E+00  0.00000000000E+00  0.41149586051E+03  0.41149586051E+03  0.00000000000E+00 0. -1.
         -1   -1    0    0    0  501 -0.00000000000E+00 -0.00000000000E+00 -0.64829549565E+02  0.64829549565E+02  0.00000000000E+00 0.  1.
          5    1    1    2  502    0  0.17832099975E+02 -0.10088960712E+03  0.15612974858E+03  0.18680279710E+03  0.47000000000E+01 0. -1.
         -5    1    1    2    0  502 -0.94256274245E+01  0.60215372621E+02  0.14746768900E+03  0.15963565658E+03  0.47000000000E+01 0.  1.
        -11    1    1    2    0    0 -0.55759285496E+02  0.49263488334E+02  0.26912693331E+02  0.79121945528E+02  0.00000000000E+00 0.  1.
         11    1    1    2    0    0  0.47352812946E+02 -0.85892538381E+01  0.16156180041E+02  0.50765010872E+02  0.00000000000E+00 0. -1.
<mgrwt>
<rscale>  0 0.15447816E+03</rscale>
<asrwt>0</asrwt>
<pdfrwt beam="1">  1        1 0.63307054E-01 0.16687779E+03</pdfrwt>
<pdfrwt beam="2">  1       -1 0.99737771E-02 0.16687779E+03</pdfrwt>
<totfact> 0.34945892E+03</totfact>
</mgrwt>
</event>
<event>
 7    1  0.6419647E-006  0.1271789E+03  0.7546771E-02  0.1241565E+00
         -1   -1    0    0    0  501 -0.00000000000E+00  0.00000000000E+00  0.96156442895E+01  0.96156442895E+01  0.00000000000E+00 0.  1.
          1   -1    0    0  501    0  0.00000000000E+00 -0.00000000000E+00 -0.14426341223E+04  0.14426341223E+04  0.00000000000E+00 0. -1.
         23    2    1    2    0    0  0.24057469599E+02  0.43465877889E+02 -0.92479561299E+03  0.93349953794E+03  0.11707440860E+03 0.  0.
          5    1    3    3  502    0  0.30721482536E+02 -0.33951441484E+02 -0.24736897980E+03  0.25161480885E+03  0.47000000000E+01 0. -1.
         -5    1    3    3    0  502 -0.66640129374E+01  0.77417319373E+02 -0.67742663319E+03  0.68188472909E+03  0.47000000000E+01 0.  1.
        -11    1    1    2    0    0 -0.27041752417E+02 -0.70914041054E+02 -0.34970444498E+03  0.35784529678E+03  0.00000000000E+00 0. -1.
         11    1    1    2    0    0  0.29842828183E+01  0.27448163165E+02 -0.15851842001E+03  0.16090493183E+03  0.00000000000E+00 0.  1.
<mgrwt>
<rscale>  0 0.12093333E+03</rscale>
<asrwt>0</asrwt>
<pdfrwt beam="2">  1        1 0.22194377E+00 0.12717886E+03</pdfrwt>
<pdfrwt beam="1">  1       -1 0.14793295E-02 0.12717886E+03</pdfrwt>
<totfact> 0.80942939E+03</totfact>
</mgrwt>
</event>
<event>
 7    1  0.6419647E-006  0.1254595E+03  0.7546771E-02  0.1250414E+00
          2   -1    0    0  501    0  0.00000000000E+00  0.00000000000E+00  0.74173853814E+03  0.74173853814E+03  0.00000000000E+00 0. -1.
         -2   -1    0    0    0  501 -0.00000000000E+00 -0.00000000000E+00 -0.16675875355E+02  0.16675875355E+02  0.00000000000E+00 0.  1.
         23    2    1    2    0    0 -0.10567091498E+02 -0.20511812233E+01  0.50628239658E+03  0.52159557762E+03  0.12499684291E+03 0.  0.
          5    1    3    3  502    0 -0.34648707646E+02  0.49102733866E+02  0.35384534581E+03  0.35894321301E+03  0.47000000000E+01 0.  1.
         -5    1    3    3    0  502  0.24081616148E+02 -0.51153915090E+02  0.15243705077E+03  0.16265236461E+03  0.47000000000E+01 0.  1.
        -11    1    1    2    0    0  0.48790051139E+02 -0.11453627032E+02  0.12071083809E+03  0.13070103708E+03  0.00000000000E+00 0.  1.
         11    1    1    2    0    0 -0.38222959641E+02  0.13504808255E+02  0.98069428111E+02  0.10611779879E+03  0.00000000000E+00 0. -1.
<mgrwt>
<rscale>  0 0.11567133E+03</rscale>
<asrwt>0</asrwt>
<pdfrwt beam="1">  1        2 0.11411360E+00 0.12545948E+03</pdfrwt>
<pdfrwt beam="2">  1       -2 0.25655199E-02 0.12545948E+03</pdfrwt>
<totfact> 0.19656085E+04</totfact>
</mgrwt>
</event>
<event>
 7    1  0.6419647E-006  0.1848122E+03  0.7546771E-02  0.1168458E+00
          1   -1    0    0  501    0  0.00000000000E+00  0.00000000000E+00  0.45796860352E+03  0.45796860352E+03  0.00000000000E+00 0. -1.
         -1   -1    0    0    0  501 -0.00000000000E+00 -0.00000000000E+00 -0.67075082558E+02  0.67075082558E+02  0.00000000000E+00 0.  1.
         23    2    1    2    0    0 -0.13555372189E+03  0.12279294324E+02  0.23432735201E+03  0.29843738208E+03  0.12501988057E+03 0.  0.
          5    1    3    3  502    0  0.15804649095E+02  0.27698918122E+02  0.34143661609E+02  0.46956326797E+02  0.47000000000E+01 0.  1.
         -5    1    3    3    0  502 -0.15135837098E+03 -0.15419623798E+02  0.20018369040E+03  0.25148105528E+03  0.47000000000E+01 0.  1.
        -11    1    1    2    0    0  0.38672810486E+02 -0.26427155981E+02  0.63060043237E+01  0.47262527806E+02  0.00000000000E+00 0.  1.
         11    1    1    2    0    0  0.96880911403E+02  0.14147861657E+02  0.15026016463E+03  0.17934377619E+03  0.00000000000E+00 0. -1.
<mgrwt>
<rscale>  0 0.17932494E+03</rscale>
<asrwt>0</asrwt>
<pdfrwt beam="1">  1        1 0.70456706E-01 0.18481224E+03</pdfrwt>
<pdfrwt beam="2">  1       -1 0.10319244E-01 0.18481224E+03</pdfrwt>
<totfact> 0.29012981E+03</totfact>
</mgrwt>
</event>
<event>
 7    1  0.6419647E-006  0.1366849E+03  0.7546771E-02  0.1229376E+00
         -1   -1    0    0    0  501 -0.00000000000E+00  0.00000000000E+00  0.40929339552E+02  0.40929339552E+02  0.00000000000E+00 0.  1.
          1   -1    0    0  501    0  0.00000000000E+00 -0.00000000000E+00 -0.65884496081E+03  0.65884496081E+03  0.00000000000E+00 0. -1.
         23    2    1    2    0    0 -0.48911505884E+02  0.25805474953E+02 -0.56245582814E+03  0.57882580080E+03  0.12499796446E+03 0.  0.
          5    1    3    3  502    0  0.38666700237E+02  0.56051268090E+01 -0.95752925289E+02  0.10352412209E+03  0.47000000000E+01 0.  1.
         -5    1    3    3    0  502 -0.87578206121E+02  0.20200348144E+02 -0.46670290285E+03  0.47530167871E+03  0.47000000000E+01 0.  1.
        -11    1    1    2    0    0 -0.19089341348E+02  0.11988989486E+00  0.11306051044E+02  0.22186575151E+02  0.00000000000E+00 0.  1.
         11    1    1    2    0    0  0.68000847232E+02 -0.25925364848E+02 -0.66765844162E+02  0.98761924411E+02  0.00000000000E+00 0. -1.
<mgrwt>
<rscale>  0 0.12871405E+03</rscale>
<asrwt>0</asrwt>
<pdfrwt beam="2">  1        1 0.10136076E+00 0.13668485E+03</pdfrwt>
<pdfrwt beam="1">  1       -1 0.62968215E-02 0.13668485E+03</pdfrwt>
<totfact> 0.37235913E+03</totfact>
</mgrwt>
</event>
<event>
 7    1  0.6419647E-006  0.1290757E+03  0.7546771E-02  0.1243174E+00
          3   -1    0    0  501    0  0.00000000000E+00  0.00000000000E+00  0.48639221053E+03  0.48639221053E+03  0.00000000000E+00 0. -1.
         -3   -1    0    0    0  501 -0.00000000000E+00 -0.00000000000E+00 -0.30425504402E+02  0.30425504402E+02  0.00000000000E+00 0.  1.
         23    2    1    2    0    0 -0.19842895969E+02  0.25321981904E+02  0.35297225648E+03  0.37583232627E+03  0.12500232132E+03 0.  0.
          5    1    3    3  502    0  0.59010284920E+01 -0.41158164723E+02  0.53309381807E+02  0.67770176695E+02  0.47000000000E+01 0. -1.
         -5    1    3    3    0  502 -0.25743924461E+02  0.66480146627E+02  0.29966287467E+03  0.30806214957E+03  0.47000000000E+01 0. -1.
        -11    1    1    2    0    0 -0.32857384681E+02 -0.26152640134E+02  0.58477289243E+02  0.71994178037E+02  0.00000000000E+00 0. -1.
         11    1    1    2    0    0  0.52700280649E+02  0.83065822989E+00  0.44517160411E+02  0.68991210634E+02  0.00000000000E+00 0.  1.
<mgrwt>
<rscale>  0 0.11995338E+03</rscale>
<asrwt>0</asrwt>
<pdfrwt beam="1">  1        3 0.74829565E-01 0.12907565E+03</pdfrwt>
<pdfrwt beam="2">  1       -3 0.46808472E-02 0.12907565E+03</pdfrwt>
<totfact> 0.10002358E+03</totfact>
</mgrwt>
</event>
<event>
 7    1  0.6419647E-006  0.1265896E+03  0.7546771E-02  0.1248127E+00
         -1   -1    0    0    0  501 -0.00000000000E+00  0.00000000000E+00  0.22035800050E+02  0.22035800050E+02  0.00000000000E+00 0.  1.
          1   -1    0    0  501    0  0.00000000000E+00 -0.00000000000E+00 -0.54563550327E+03  0.54563550327E+03  0.00000000000E+00 0. -1.
         23    2    1    2    0    0 -0.67402038763E+00 -0.19878227183E+02 -0.31808215262E+03  0.34234659469E+03  0.12501734623E+03 0.  0.
          5    1    3    3  502    0 -0.54836735015E+02 -0.70681816360E+01 -0.77199742821E+02  0.95073219102E+02  0.47000000000E+01 0.  1.
         -5    1    3    3    0  502  0.54162714627E+02 -0.12810045547E+02 -0.24088240980E+03  0.24727337559E+03  0.47000000000E+01 0.  1.
        -11    1    1    2    0    0 -0.28384340160E+02  0.13577567625E+02 -0.18841329997E+03  0.19102249270E+03  0.00000000000E+00 0. -1.
         11    1    1    2    0    0  0.29058360548E+02  0.63006595582E+01 -0.17104250623E+02  0.34302215934E+02  0.00000000000E+00 0.  1.
<mgrwt>
<rscale>  0 0.11700143E+03</rscale>
<asrwt>0</asrwt>
<pdfrwt beam="2">  1        1 0.83943918E-01 0.12658963E+03</pdfrwt>
<pdfrwt beam="1">  1       -1 0.33901233E-02 0.12658963E+03</pdfrwt>
<totfact> 0.11938149E+04</totfact>
</mgrwt>
</event>
<event>
 7    1  0.6419647E-006  0.1274657E+03  0.7546771E-02  0.1243037E+00
         -2   -1    0    0    0  501 -0.00000000000E+00  0.00000000000E+00  0.37445896556E+03  0.37445896556E+03  0.00000000000E+00 0.  1.
          2   -1    0    0  501    0  0.00000000000E+00 -0.00000000000E+00 -0.41296126106E+02  0.41296126106E+02  0.00000000000E+00 0. -1.
         23    2    1    2    0    0 -0.18135659375E+02  0.17030070058E+02  0.10018403205E+03  0.16212444542E+03  0.12501427957E+03 0.  0.
          5    1    3    3  502    0 -0.33964101080E+02  0.55896807364E+02  0.15329865027E+02  0.67343210477E+02  0.47000000000E+01 0. -1.
         -5    1    3    3    0  502  0.15828441705E+02 -0.38866737305E+02  0.84854167022E+02  0.94781234939E+02  0.47000000000E+01 0. -1.
        -11    1    1    2    0    0  0.33169327143E+02  0.33661575059E+02  0.11602825342E+03  0.12528312532E+03  0.00000000000E+00 0.  1.
         11    1    1    2    0    0 -0.15033667768E+02 -0.50691645117E+02  0.11695055399E+03  0.12834752093E+03  0.00000000000E+00 0. -1.
<mgrwt>
<rscale>  0 0.12003622E+03</rscale>
<asrwt>0</asrwt>
<pdfrwt beam="2">  1        2 0.63532504E-02 0.12746566E+03</pdfrwt>
<pdfrwt beam="1">  1       -2 0.57609069E-01 0.12746566E+03</pdfrwt>
<totfact> 0.31405254E+03</totfact>
</mgrwt>
</event>
<event>
 7    1  0.6419647E-006  0.2016508E+03  0.7546771E-02  0.1152680E+00
         -2   -1    0    0    0  501 -0.00000000000E+00  0.00000000000E+00  0.20380952983E+02  0.20380952983E+02  0.00000000000E+00 0.  1.
          2   -1    0    0  501    0  0.00000000000E+00 -0.00000000000E+00 -0.22355493161E+04  0.22355493161E+04  0.00000000000E+00 0. -1.
         23    2    1    2    0    0 -0.41984279943E+02 -0.15256210354E+03 -0.16474749105E+04  0.16597700570E+04  0.12500074488E+03 0.  0.
          5    1    3    3  502    0 -0.49625937517E+02 -0.11645308021E+03 -0.68738228925E+03  0.69895676200E+03  0.47000000000E+01 0.  1.
         -5    1    3    3    0  502  0.76416575743E+01 -0.36109023325E+02 -0.96009262128E+03  0.96081329504E+03  0.47000000000E+01 0.  1.
        -11    1    1    2    0    0  0.41510674550E+02  0.72397725228E+02 -0.41903193592E+03  0.42726143056E+03  0.00000000000E+00 0. -1.
         11    1    1    2    0    0  0.47360539305E+00  0.80164378308E+02 -0.14866151670E+03  0.16889878152E+03  0.00000000000E+00 0.  1.
<mgrwt>
<rscale>  0 0.19655296E+03</rscale>
<asrwt>0</asrwt>
<pdfrwt beam="2">  1        2 0.34393064E+00 0.20165084E+03</pdfrwt>
<pdfrwt beam="1">  1       -2 0.31355314E-02 0.20165084E+03</pdfrwt>
<totfact> 0.22201215E+03</totfact>
</mgrwt>
</event>
<event>
 7    1  0.6419647E-006  0.1341080E+03  0.7546771E-02  0.1234437E+00
          1   -1    0    0  501    0  0.00000000000E+00  0.00000000000E+00  0.20672516157E+03  0.20672516157E+03  0.00000000000E+00 0. -1.
         -1   -1    0    0    0  501 -0.00000000000E+00 -0.00000000000E+00 -0.69170490080E+02  0.69170490080E+02  0.00000000000E+00 0.  1.
         23    2    1    2    0    0  0.46306279266E+02  0.14561320277E+02  0.58002241269E+02  0.14611374168E+03  0.12501464701E+03 0.  0.
          5    1    3    3  502    0 -0.33269316347E+01  0.59403804523E+02  0.36440904877E+01  0.59793393125E+02  0.47000000000E+01 0. -1.
         -5    1    3    3    0  502  0.49633210900E+02 -0.44842484245E+02  0.54358150781E+02  0.86320348551E+02  0.47000000000E+01 0. -1.
        -11    1    1    2    0    0 -0.24689458882E+02  0.11141958595E+02  0.90492935985E+02  0.94459960218E+02  0.00000000000E+00 0. -1.
         11    1    1    2    0    0 -0.21616820383E+02 -0.25703278873E+02 -0.10940505763E+02  0.35321949757E+02  0.00000000000E+00 0.  1.
<mgrwt>
<rscale>  0 0.12540533E+03</rscale>
<asrwt>0</asrwt>
<pdfrwt beam="1">  1        1 0.31803871E-01 0.13410804E+03</pdfrwt>
<pdfrwt beam="2">  1       -1 0.10641614E-01 0.13410804E+03</pdfrwt>
<totfact> 0.73730742E+03</totfact>
</mgrwt>
</event>
<event>
 7    1  0.6419647E-006  0.2349506E+03  0.7546771E-02  0.1125624E+00
          3   -1    0    0  501    0  0.00000000000E+00  0.00000000000E+00  0.32094738387E+02  0.32094738387E+02  0.00000000000E+00 0. -1.
         -3   -1    0    0    0  501 -0.00000000000E+00 -0.00000000000E+00 -0.18138342973E+04  0.18138342973E+04  0.00000000000E+00 0.  1.
         23    2    1    2    0    0 -0.18539244355E+03  0.72152125710E+02 -0.61408568960E+03  0.65749752636E+03  0.12500190248E+03 0.  0.
          5    1    3    3  502    0 -0.40313926450E+02  0.75766813535E+02 -0.28783733081E+03  0.30039680708E+03  0.47000000000E+01 0.  1.
         -5    1    3    3    0  502 -0.14507851710E+03 -0.36146878249E+01 -0.32624835879E+03  0.35710071927E+03  0.47000000000E+01 0.  1.
        -11    1    1    2    0    0  0.52049248666E+02  0.18550335570E+02 -0.20279211048E+03  0.21018534514E+03  0.00000000000E+00 0. -1.
         11    1    1    2    0    0  0.13334319488E+03 -0.90702461280E+02 -0.96486175886E+03  0.97824616423E+03  0.00000000000E+00 0.  1.
<mgrwt>
<rscale>  0 0.23144924E+03</rscale>
<asrwt>0</asrwt>
<pdfrwt beam="1">  1        3 0.49376516E-02 0.23495055E+03</pdfrwt>
<pdfrwt beam="2">  1       -3 0.27905146E+00 0.23495055E+03</pdfrwt>
<totfact> 0.32871073E+01</totfact>
</mgrwt>
</event>
<event>
 7    1  0.6419647E-006  0.1234286E+03  0.7546771E-02  0.1310082E+00
         -2   -1    0    0    0  501 -0.00000000000E+00  0.00000000000E+00  0.57271435651E+01  0.57271435651E+01  0.00000000000E+00 0.  1.
          2   -1    0    0  501    0  0.00000000000E+00 -0.00000000000E+00 -0.17996481731E+04  0.17996481731E+04  0.00000000000E+00 0. -1.
         23    2    1    2    0    0  0.25842404921E+01 -0.20127229354E+02 -0.17312279286E+04  0.17356222955E+04  0.12174903833E+03 0.  0.
          5    1    3    3  502    0 -0.43430455532E+02 -0.37678423863E+02 -0.48597431660E+03  0.48938634481E+03  0.47000000000E+01 0. -1.
         -5    1    3    3    0  502  0.46014696024E+02  0.17551194509E+02 -0.12452536120E+04  0.12462359507E+04  0.47000000000E+01 0.  1.
        -11    1    1    2    0    0  0.96736848633E+01  0.53679667715E+01 -0.18185262770E+02  0.21286122900E+02  0.00000000000E+00 0.  1.
         11    1    1    2    0    0 -0.12257925355E+02  0.14759262583E+02 -0.44507838177E+02  0.48466898242E+02  0.00000000000E+00 0. -1.
<mgrwt>
<rscale>  0 0.87079646E+02</rscale>
<asrwt>0</asrwt>
<pdfrwt beam="2">  1        2 0.27686912E+00 0.12342857E+03</pdfrwt>
<pdfrwt beam="1">  1       -2 0.88109846E-03 0.12342857E+03</pdfrwt>
<totfact> 0.23314739E+04</totfact>
</mgrwt>
</event>
<event>
 7    1  0.6419647E-006  0.2505256E+03  0.7546771E-02  0.1115103E+00
         -2   -1    0    0    0  501 -0.00000000000E+00  0.00000000000E+00  0.60214771970E+02  0.60214771970E+02  0.00000000000E+00 0.  1.
          2   -1    0    0  501    0  0.00000000000E+00 -0.00000000000E+00 -0.15252995669E+04  0.15252995669E+04  0.00000000000E+00 0. -1.
         23    2    1    2    0    0 -0.17534733289E+03 -0.12801006463E+03 -0.12155573910E+04  0.12411054980E+04  0.12501928803E+03 0.  0.
          5    1    3    3  502    0 -0.48918442732E+02 -0.24074949811E+02 -0.65067089568E+03  0.65296808630E+03  0.47000000000E+01 0.  1.
         -5    1    3    3    0  502 -0.12642889016E+03 -0.10393511482E+03 -0.56488649536E+03  0.58813741166E+03  0.47000000000E+01 0.  1.
        -11    1    1    2    0    0  0.13605114763E+03  0.83029633086E+02 -0.11297196871E+03  0.19536248477E+03  0.00000000000E+00 0.  1.
         11    1    1    2    0    0  0.39296185263E+02  0.44980431546E+02 -0.13655543521E+03  0.14904635616E+03  0.00000000000E+00 0. -1.
<mgrwt>
<rscale>  0 0.24717483E+03</rscale>
<asrwt>0</asrwt>
<pdfrwt beam="2">  1        2 0.23466149E+00 0.25052562E+03</pdfrwt>
<pdfrwt beam="1">  1       -2 0.92638105E-02 0.25052562E+03</pdfrwt>
<totfact> 0.99487632E+02</totfact>
</mgrwt>
</event>
<event>
 7    1  0.6419647E-006  0.1375681E+03  0.7546771E-02  0.1227947E+00
          2   -1    0    0  501    0  0.00000000000E+00  0.00000000000E+00  0.75618778247E+03  0.75618778247E+03  0.00000000000E+00 0.  1.
         -2   -1    0    0    0  501 -0.00000000000E+00 -0.00000000000E+00 -0.20475975502E+02  0.20475975502E+02  0.00000000000E+00 0. -1.
         23    2    1    2    0    0  0.88088856269E+01  0.56760848357E+02  0.35348593408E+03  0.37931158756E+03  0.12500233795E+03 0.  0.
          5    1    3    3  502    0  0.32101008396E+02  0.61666956093E+02  0.85810453613E+02  0.11053873603E+03  0.47000000000E+01 0.  1.
         -5    1    3    3    0  502 -0.23292122770E+02 -0.49061077364E+01  0.26767548046E+03  0.26877285152E+03  0.47000000000E+01 0.  1.
        -11    1    1    2    0    0  0.26384993688E+02  0.91398953021E+01  0.54715821085E+02  0.61429037556E+02  0.00000000000E+00 0.  1.
         11    1    1    2    0    0 -0.35193879315E+02 -0.65900743659E+02  0.32751005181E+03  0.33592313286E+03  0.00000000000E+00 0. -1.
<mgrwt>
<rscale>  0 0.12966933E+03</rscale>
<asrwt>0</asrwt>
<pdfrwt beam="1">  1        2 0.11633656E+00 0.13756807E+03</pdfrwt>
<pdfrwt beam="2">  1       -2 0.31501507E-02 0.13756807E+03</pdfrwt>
<totfact> 0.14311964E+04</totfact>
</mgrwt>
</event>
<event>
 6    1  0.6419647E-006  0.2028331E+03  0.7546771E-02  0.1155016E+00
         -3   -1    0    0    0  501 -0.00000000000E+00  0.00000000000E+00  0.42423830149E+03  0.42423830149E+03  0.00000000000E+00 0.  1.
          3   -1    0    0  501    0  0.00000000000E+00 -0.00000000000E+00 -0.81602506299E+02  0.81602506299E+02  0.00000000000E+00 0. -1.
          5    1    1    2  502    0 -0.91288295226E+02  0.78405522846E+02  0.57527899640E+02  0.13346358340E+03  0.47000000000E+01 0. -1.
         -5    1    1    2    0  502  0.30971741723E+02  0.50024828446E+02  0.13001491098E+03  0.14278550110E+03  0.47000000000E+01 0.  1.
        -11    1    1    2    0    0  0.43851397532E+02 -0.29774736346E+02  0.10524355608E+03  0.11783754107E+03  0.00000000000E+00 0. -1.
         11    1    1    2    0    0  0.16465155972E+02 -0.98655614946E+02  0.49849428490E+02  0.11175418221E+03  0.00000000000E+00 0.  1.
<mgrwt>
<rscale>  0 0.19387008E+03</rscale>
<asrwt>0</asrwt>
<pdfrwt beam="2">  1        3 0.12554232E-01 0.20283306E+03</pdfrwt>
<pdfrwt beam="1">  1       -3 0.65267430E-01 0.20283306E+03</pdfrwt>
<totfact> 0.28414080E+02</totfact>
</mgrwt>
</event>
<event>
 7    1  0.6419647E-006  0.1467696E+03  0.7546771E-02  0.1209650E+00
         -2   -1    0    0    0  501 -0.00000000000E+00  0.00000000000E+00  0.21870926043E+02  0.21870926043E+02  0.00000000000E+00 0.  1.
          2   -1    0    0  501    0  0.00000000000E+00 -0.00000000000E+00 -0.91474091088E+03  0.91474091088E+03  0.00000000000E+00 0. -1.
         23    2    1    2    0    0 -0.33851561971E+02  0.69068113088E+02 -0.55520857911E+03  0.57428032815E+03  0.12499998596E+03 0.  0.
          5    1    3    3  502    0  0.38599638038E+02  0.71340036485E+01 -0.76059540633E+02  0.85720299731E+02  0.47000000000E+01 0. -1.
         -5    1    3    3    0  502 -0.72451200009E+02  0.61934109439E+02 -0.47914903847E+03  0.48856002842E+03  0.47000000000E+01 0. -1.
        -11    1    1    2    0    0  0.69912912484E+02 -0.32293064517E+02 -0.23797409525E+03  0.25012462366E+03  0.00000000000E+00 0.  1.
         11    1    1    2    0    0 -0.36061350513E+02 -0.36775048571E+02 -0.99687310475E+02  0.11220688512E+03  0.00000000000E+00 0. -1.
<mgrwt>
<rscale>  0 0.14276944E+03</rscale>
<asrwt>0</asrwt>
<pdfrwt beam="2">  1        2 0.14072934E+00 0.14676965E+03</pdfrwt>
<pdfrwt beam="1">  1       -2 0.33647585E-02 0.14676965E+03</pdfrwt>
<totfact> 0.10244702E+04</totfact>
</mgrwt>
</event>
<event>
 7    1  0.6419647E-006  0.1276780E+03  0.7546771E-02  0.1245765E+00
          2   -1    0    0  501    0  0.00000000000E+00  0.00000000000E+00  0.67026749610E+03  0.67026749610E+03  0.00000000000E+00 0. -1.
         -2   -1    0    0    0  501 -0.00000000000E+00 -0.00000000000E+00 -0.19338989340E+02  0.19338989340E+02  0.00000000000E+00 0.  1.
         23    2    1    2    0    0 -0.32190813994E+01  0.25779332225E+02  0.44713008959E+03  0.46500212741E+03  0.12500689991E+03 0.  0.
          5    1    3    3  502    0 -0.33887507997E+02  0.86931923399E+01  0.29869264929E+02  0.46240650716E+02  0.47000000000E+01 0. -1.
         -5    1    3    3    0  502  0.30668426597E+02  0.17086139885E+02  0.41726082466E+03  0.41876147669E+03  0.47000000000E+01 0. -1.
        -11    1    1    2    0    0 -0.17553158264E+02 -0.44475904153E+02  0.53597539826E+02  0.71825592171E+02  0.00000000000E+00 0.  1.
         11    1    1    2    0    0  0.20772239663E+02  0.18696571928E+02  0.15020087735E+03  0.15277876586E+03  0.00000000000E+00 0. -1.
<mgrwt>
<rscale>  0 0.11839733E+03</rscale>
<asrwt>0</asrwt>
<pdfrwt beam="1">  1        2 0.10311806E+00 0.12767796E+03</pdfrwt>
<pdfrwt beam="2">  1       -2 0.29752296E-02 0.12767796E+03</pdfrwt>
<totfact> 0.17873154E+04</totfact>
</mgrwt>
</event>
<event>
 7    1  0.6419647E-006  0.2300320E+03  0.7546771E-02  0.1129924E+00
         -3   -1    0    0    0  501 -0.00000000000E+00  0.00000000000E+00  0.15129491854E+03  0.15129491854E+03  0.00000000000E+00 0.  1.
          3   -1    0    0  501    0  0.00000000000E+00 -0.00000000000E+00 -0.32297575119E+03  0.32297575119E+03  0.00000000000E+00 0. -1.
         23    2    1    2    0    0 -0.12387219929E+03 -0.14813845541E+03 -0.92450133127E+02  0.24791483384E+03  0.12500165597E+03 0.  0.
          5    1    3    3  502    0 -0.94879884661E+02 -0.10578017955E+03 -0.12300021660E+03  0.18799676110E+03  0.47000000000E+01 0. -1.
         -5    1    3    3    0  502 -0.28992314624E+02 -0.42358275851E+02  0.30550083473E+02  0.59918072737E+02  0.47000000000E+01 0. -1.
        -11    1    1    2    0    0  0.10901152069E+03  0.11174601520E+03 -0.23072921524E+02  0.15780698104E+03  0.00000000000E+00 0.  1.
         11    1    1    2    0    0  0.14860678595E+02  0.36392440203E+02 -0.56157777998E+02  0.68548854855E+02  0.00000000000E+00 0. -1.
<mgrwt>
<rscale>  0 0.22539479E+03</rscale>
<asrwt>0</asrwt>
<pdfrwt beam="2">  1        3 0.49688577E-01 0.23003204E+03</pdfrwt>
<pdfrwt beam="1">  1       -3 0.23276142E-01 0.23003204E+03</pdfrwt>
<totfact> 0.17137497E+02</totfact>
</mgrwt>
</event>
<event>
 7    1  0.6419647E-006  0.1488506E+03  0.7546771E-02  0.1211331E+00
          2   -1    0    0  501    0  0.00000000000E+00  0.00000000000E+00  0.39870028034E+03  0.39870028034E+03  0.00000000000E+00 0. -1.
         -2   -1    0    0    0  501 -0.00000000000E+00 -0.00000000000E+00 -0.45852590456E+02  0.45852590456E+02  0.00000000000E+00 0.  1.
         23    2    1    2    0    0 -0.65763621518E+02  0.46960279152E+02  0.19105549557E+03  0.24219558431E+03  0.12500550763E+03 0.  0.
          5    1    3    3  502    0 -0.26145586144E+02 -0.34904098702E+02  0.11655723164E+03  0.12453740815E+03  0.47000000000E+01 0.  1.
         -5    1    3    3    0  502 -0.39618035374E+02  0.81864377854E+02  0.74498263925E+02  0.11765817616E+03  0.47000000000E+01 0.  1.
        -11    1    1    2    0    0  0.40095505650E+02 -0.43931142660E+02  0.27370273183E+02  0.65473099230E+02  0.00000000000E+00 0.  1.
         11    1    1    2    0    0  0.25668115868E+02 -0.30291364925E+01  0.13442192113E+03  0.13688418725E+03  0.00000000000E+00 0. -1.
<mgrwt>
<rscale>  0 0.14149528E+03</rscale>
<asrwt>0</asrwt>
<pdfrwt beam="1">  1        2 0.61338502E-01 0.14885059E+03</pdfrwt>
<pdfrwt beam="2">  1       -2 0.70542450E-02 0.14885059E+03</pdfrwt>
<totfact> 0.88320343E+03</totfact>
</mgrwt>
</event>
<event>
 7    1  0.6419647E-006  0.1370821E+03  0.7546771E-02  0.1228745E+00
         -1   -1    0    0    0  501 -0.00000000000E+00  0.00000000000E+00  0.22215182288E+03  0.22215182288E+03  0.00000000000E+00 0.  1.
          1   -1    0    0  501    0  0.00000000000E+00 -0.00000000000E+00 -0.69313885133E+02  0.69313885133E+02  0.00000000000E+00 0. -1.
         23    2    1    2    0    0  0.22207740814E+02 -0.51698605610E+02  0.10823819456E+03  0.17466252570E+03  0.12500224617E+03 0.  0.
          5    1    3    3  502    0 -0.16773979523E+02 -0.22139914656E+02 -0.21816658633E+02  0.35631430001E+02  0.47000000000E+01 0. -1.
         -5    1    3    3    0  502  0.38981720336E+02 -0.29558690953E+02  0.13005485319E+03  0.13903109569E+03  0.47000000000E+01 0. -1.
        -11    1    1    2    0    0  0.29940999287E+02 -0.51276422157E+01  0.78908457918E+01  0.31385053773E+02  0.00000000000E+00 0. -1.
         11    1    1    2    0    0 -0.52148740101E+02  0.56826247825E+02  0.36708897397E+02  0.85418128545E+02  0.00000000000E+00 0.  1.
<mgrwt>
<rscale>  0 0.12913505E+03</rscale>
<asrwt>0</asrwt>
<pdfrwt beam="2">  1        1 0.10663675E-01 0.13708206E+03</pdfrwt>
<pdfrwt beam="1">  1       -1 0.34177203E-01 0.13708206E+03</pdfrwt>
<totfact> 0.45860224E+03</totfact>
</mgrwt>
</event>
<event>
 7    1  0.6419647E-006  0.1420478E+03  0.7546771E-02  0.1221240E+00
          3   -1    0    0  501    0  0.00000000000E+00  0.00000000000E+00  0.82291615525E+03  0.82291615525E+03  0.00000000000E+00 0. -1.
         -3   -1    0    0    0  501 -0.00000000000E+00 -0.00000000000E+00 -0.24281639859E+02  0.24281639859E+02  0.00000000000E+00 0.  1.
         23    2    1    2    0    0 -0.39892742099E+02 -0.54405787567E+02  0.61630833043E+03  0.63246623464E+03  0.12500463679E+03 0.  0.
          5    1    3    3  502    0  0.27516018495E+02  0.25183228827E+02  0.17046052686E+03  0.17455717546E+03  0.47000000000E+01 0.  1.
         -5    1    3    3    0  502 -0.67408760594E+02 -0.79589016394E+02  0.44584780357E+03  0.45790905919E+03  0.47000000000E+01 0.  1.
        -11    1    1    2    0    0 -0.33460607269E+01  0.55239378482E+02  0.15240877256E+03  0.16214505546E+03  0.00000000000E+00 0.  1.
         11    1    1    2    0    0  0.43238802826E+02 -0.83359091497E+00  0.29917412407E+02  0.52586505006E+02  0.00000000000E+00 0. -1.
<mgrwt>
<rscale>  0 0.13427951E+03</rscale>
<asrwt>0</asrwt>
<pdfrwt beam="1">  1        3 0.12660246E+00 0.14204781E+03</pdfrwt>
<pdfrwt beam="2">  1       -3 0.37356375E-02 0.14204781E+03</pdfrwt>
<totfact> 0.44126655E+02</totfact>
</mgrwt>
</event>
<event>
 7    1  0.6419647E-006  0.1327147E+03  0.7546771E-02  0.1238605E+00
         -2   -1    0    0    0  501 -0.00000000000E+00  0.00000000000E+00  0.23387525899E+02  0.23387525899E+02  0.00000000000E+00 0. -1.
          2   -1    0    0  501    0  0.00000000000E+00 -0.00000000000E+00 -0.59269952958E+03  0.59269952958E+03  0.00000000000E+00 0.  1.
         23    2    1    2    0    0  0.17560894299E+02  0.40977688154E+02 -0.39254843898E+03  0.41437598536E+03  0.12500249742E+03 0.  0.
          5    1    3    3  502    0  0.28104841627E+02  0.82202260163E+02 -0.30083887131E+03  0.31316642571E+03  0.47000000000E+01 0.  1.
         -5    1    3    3    0  502 -0.10543947328E+02 -0.41224572010E+02 -0.91709567674E+02  0.10120955966E+03  0.47000000000E+01 0.  1.
        -11    1    1    2    0    0 -0.20898988419E+02  0.51467851132E+01 -0.27988864584E+01  0.21704628063E+02  0.00000000000E+00 0. -1.
         11    1    1    2    0    0  0.33380941195E+01 -0.46124473267E+02 -0.17396467824E+03  0.18000644206E+03  0.00000000000E+00 0.  1.
<mgrwt>
<rscale>  0 0.12276432E+03</rscale>
<asrwt>0</asrwt>
<pdfrwt beam="2">  1        2 0.91184539E-01 0.13271466E+03</pdfrwt>
<pdfrwt beam="1">  1       -2 0.35980811E-02 0.13271466E+03</pdfrwt>
<totfact> 0.15610765E+04</totfact>
</mgrwt>
</event>
<event>
 7    1  0.6419647E-006  0.1360383E+03  0.7546771E-02  0.1231575E+00
          1   -1    0    0  501    0  0.00000000000E+00  0.00000000000E+00  0.38784217231E+03  0.38784217231E+03  0.00000000000E+00 0. -1.
         -1   -1    0    0    0  501 -0.00000000000E+00 -0.00000000000E+00 -0.37204786116E+02  0.37204786116E+02  0.00000000000E+00 0.  1.
         23    2    1    2    0    0  0.21968844675E+02 -0.48894105305E+02  0.19579448406E+03  0.23841539284E+03  0.12503261929E+03 0.  0.
          5    1    3    3  502    0 -0.51589136848E+02 -0.30318898799E+02  0.85640172157E+02  0.10458013077E+03  0.47000000000E+01 0. -1.
         -5    1    3    3    0  502  0.73557981523E+02 -0.18575206506E+02  0.11015431191E+03  0.13383526207E+03  0.47000000000E+01 0. -1.
        -11    1    1    2    0    0 -0.42449585804E+02  0.84724853953E+01  0.27052748496E+02  0.51045093250E+02  0.00000000000E+00 0.  1.
         11    1    1    2    0    0  0.20480741129E+02  0.40421619909E+02  0.12779015364E+03  0.13558647233E+03  0.00000000000E+00 0. -1.
<mgrwt>
<rscale>  0 0.12726228E+03</rscale>
<asrwt>0</asrwt>
<pdfrwt beam="1">  1        1 0.59668024E-01 0.13603830E+03</pdfrwt>
<pdfrwt beam="2">  1       -1 0.57238135E-02 0.13603830E+03</pdfrwt>
<totfact> 0.86103059E+03</totfact>
</mgrwt>
</event>
<event>
 7    1  0.6419647E-006  0.1836528E+03  0.7546771E-02  0.1171082E+00
          2   -1    0    0  501    0  0.00000000000E+00  0.00000000000E+00  0.20289532874E+03  0.20289532874E+03  0.00000000000E+00 0. -1.
         -2   -1    0    0    0  501 -0.00000000000E+00 -0.00000000000E+00 -0.25961534587E+03  0.25961534587E+03  0.00000000000E+00 0.  1.
         23    2    1    2    0    0  0.93754667539E+02 -0.96507226856E+02  0.12505048157E+03  0.22218456810E+03  0.12499910737E+03 0.  0.
          5    1    3    3  502    0  0.87409357171E+02 -0.11605013481E+03  0.66301029588E+02  0.15976841376E+03  0.47000000000E+01 0. -1.
         -5    1    3    3    0  502  0.63453103679E+01  0.19542907957E+02  0.58749451980E+02  0.62416154344E+02  0.47000000000E+01 0. -1.
        -11    1    1    2    0    0 -0.58177611845E+02  0.67121994911E+01 -0.88024095207E+02  0.10572572761E+03  0.00000000000E+00 0.  1.
         11    1    1    2    0    0 -0.35577055693E+02  0.89795027365E+02 -0.93746403487E+02  0.13460037889E+03  0.00000000000E+00 0. -1.
<mgrwt>
<rscale>  0 0.17665289E+03</rscale>
<asrwt>0</asrwt>
<pdfrwt beam="1">  1        2 0.31214666E-01 0.18365282E+03</pdfrwt>
<pdfrwt beam="2">  1       -2 0.39940822E-01 0.18365282E+03</pdfrwt>
<totfact> 0.99642036E+02</totfact>
</mgrwt>
</event>
<event>
 7    1  0.6419647E-006  0.2496057E+03  0.7546771E-02  0.1115978E+00
         -2   -1    0    0    0  501 -0.00000000000E+00  0.00000000000E+00  0.44941057618E+02  0.44941057618E+02  0.00000000000E+00 0. -1.
          2   -1    0    0  501    0  0.00000000000E+00 -0.00000000000E+00 -0.21384191156E+04  0.21384191156E+04  0.00000000000E+00 0.  1.
         23    2    1    2    0    0 -0.16701160370E+03 -0.13705614648E+03 -0.17474995615E+04  0.17652358843E+04  0.12500298646E+03 0.  0.
          5    1    3    3  502    0 -0.18491919753E+02 -0.66673750559E+02 -0.27601660601E+03  0.28459549698E+03  0.47000000000E+01 0.  1.
         -5    1    3    3    0  502 -0.14851968395E+03 -0.70382395923E+02 -0.14714829555E+04  0.14806403873E+04  0.47000000000E+01 0.  1.
        -11    1    1    2    0    0  0.10716675627E+03  0.12249005543E+03 -0.18855867309E+03  0.24908412339E+03  0.00000000000E+00 0. -1.
         11    1    1    2    0    0  0.59844847433E+02  0.14566091052E+02 -0.15741982334E+03  0.16904016550E+03  0.00000000000E+00 0.  1.
<mgrwt>
<rscale>  0 0.24581661E+03</rscale>
<asrwt>0</asrwt>
<pdfrwt beam="2">  1        2 0.32898754E+00 0.24960571E+03</pdfrwt>
<pdfrwt beam="1">  1       -2 0.69140092E-02 0.24960571E+03</pdfrwt>
<totfact> 0.74881621E+02</totfact>
</mgrwt>
</event>
<event>
 7    1  0.6419647E-006  0.1372325E+03  0.7546771E-02  0.1228320E+00
         -3   -1    0    0    0  501 -0.00000000000E+00  0.00000000000E+00  0.32407161226E+02  0.32407161226E+02  0.00000000000E+00 0.  1.
          3   -1    0    0  501    0  0.00000000000E+00 -0.00000000000E+00 -0.46653002390E+03  0.46653002390E+03  0.00000000000E+00 0. -1.
         23    2    1    2    0    0 -0.32839944221E+02 -0.47202485123E+02 -0.25059741667E+03  0.28571283101E+03  0.12460425364E+03 0.  0.
          5    1    3    3  502    0  0.25625085379E+02 -0.64448487053E+02 -0.88955476846E+02  0.11289561260E+03  0.47000000000E+01 0. -1.
         -5    1    3    3    0  502 -0.58465029600E+02  0.17246001930E+02 -0.16164193982E+03  0.17281721841E+03  0.47000000000E+01 0. -1.
        -11    1    1    2    0    0  0.63115041598E+02  0.18634166206E+02 -0.12685535834E+03  0.14290914095E+03  0.00000000000E+00 0. -1.
         11    1    1    2    0    0 -0.30275097378E+02  0.28568318917E+02 -0.56670087658E+02  0.70315213163E+02  0.00000000000E+00 0.  1.
<mgrwt>
<rscale>  0 0.12941954E+03</rscale>
<asrwt>0</asrwt>
<pdfrwt beam="2">  1        3 0.71773847E-01 0.13723249E+03</pdfrwt>
<pdfrwt beam="1">  1       -3 0.49857173E-02 0.13723249E+03</pdfrwt>
<totfact> 0.99932113E+02</totfact>
</mgrwt>
</event>
<event>
 7    1  0.6419647E-006  0.1461404E+03  0.7546771E-02  0.1215041E+00
         -1   -1    0    0    0  501 -0.00000000000E+00  0.00000000000E+00  0.39475064392E+03  0.39475064392E+03  0.00000000000E+00 0.  1.
          1   -1    0    0  501    0  0.00000000000E+00 -0.00000000000E+00 -0.54139790450E+02  0.54139790450E+02  0.00000000000E+00 0. -1.
         23    2    1    2    0    0 -0.42682629880E+02  0.62530882518E+02  0.90103465001E+02  0.17168471063E+03  0.12500034919E+03 0.  0.
          5    1    3    3  502    0 -0.54420802923E+02  0.60331820132E+02  0.11662871508E+03  0.14221778895E+03  0.47000000000E+01 0. -1.
         -5    1    3    3    0  502  0.11738173043E+02  0.21990623857E+01 -0.26525250082E+02  0.29466921686E+02  0.47000000000E+01 0. -1.
        -11    1    1    2    0    0  0.63294596147E+02 -0.54686720247E+02  0.12922775764E+03  0.15393718400E+03  0.00000000000E+00 0. -1.
         11    1    1    2    0    0 -0.20611966267E+02 -0.78441622710E+01  0.12127963083E+03  0.12326853974E+03  0.00000000000E+00 0.  1.
<mgrwt>
<rscale>  0 0.13873559E+03</rscale>
<asrwt>0</asrwt>
<pdfrwt beam="2">  1        1 0.83291988E-02 0.14614036E+03</pdfrwt>
<pdfrwt beam="1">  1       -1 0.60730867E-01 0.14614036E+03</pdfrwt>
<totfact> 0.22723230E+03</totfact>
</mgrwt>
</event>
<event>
 7    1  0.6419647E-006  0.1522847E+03  0.7546771E-02  0.1206663E+00
         -3   -1    0    0    0  501 -0.00000000000E+00  0.00000000000E+00  0.30434345218E+03  0.30434345218E+03  0.00000000000E+00 0. -1.
          3   -1    0    0  501    0  0.00000000000E+00 -0.00000000000E+00 -0.66388118206E+02  0.66388118206E+02  0.00000000000E+00 0.  1.
         23    2    1    2    0    0 -0.68878894954E+02  0.53131393301E+02  0.90474239632E+02  0.17713330129E+03  0.12499348490E+03 0.  0.
          5    1    3    3  502    0 -0.12134451571E+02 -0.24758755055E+02  0.74188358177E+02  0.79285833261E+02  0.47000000000E+01 0.  1.
         -5    1    3    3    0  502 -0.56744443383E+02  0.77890148356E+02  0.16285881454E+02  0.97847468033E+02  0.47000000000E+01 0.  1.
        -11    1    1    2    0    0  0.51399357732E+02  0.37635653771E+01  0.24697644423E+02  0.57149208566E+02  0.00000000000E+00 0.  1.
         11    1    1    2    0    0  0.17479537222E+02 -0.56894958678E+02  0.12278344991E+03  0.13644906052E+03  0.00000000000E+00 0. -1.
<mgrwt>
<rscale>  0 0.14507143E+03</rscale>
<asrwt>0</asrwt>
<pdfrwt beam="2">  1        3 0.10213557E-01 0.15228466E+03</pdfrwt>
<pdfrwt beam="1">  1       -3 0.46822069E-01 0.15228466E+03</pdfrwt>
<totfact> 0.76308942E+02</totfact>
</mgrwt>
</event>
<event>
 7    1  0.6419647E-006  0.1298225E+03  0.7546771E-02  0.1240627E+00
          2   -1    0    0  501    0  0.00000000000E+00  0.00000000000E+00  0.12267673195E+03  0.12267673195E+03  0.00000000000E+00 0.  1.
         -2   -1    0    0    0  501 -0.00000000000E+00 -0.00000000000E+00 -0.19297864976E+03  0.19297864976E+03  0.00000000000E+00 0. -1.
         23    2    1    2    0    0  0.91203354500E+01  0.33856425446E+02  0.66938952242E+02  0.14606408221E+03  0.12499781886E+03 0.  0.
          5    1    3    3  502    0  0.58967974622E+02  0.41608205994E+02  0.15702544074E+02  0.74007599120E+02  0.47000000000E+01 0. -1.
         -5    1    3    3    0  502 -0.49847639172E+02 -0.77517805473E+01  0.51236408168E+02  0.72056483085E+02  0.47000000000E+01 0. -1.
        -11    1    1    2    0    0  0.30126659583E+02 -0.15053781215E+02 -0.10026455837E+02  0.35139177041E+02  0.00000000000E+00 0.  1.
         11    1    1    2    0    0 -0.39246995033E+02 -0.18802644232E+02 -0.12721441422E+03  0.13445212246E+03  0.00000000000E+00 0. -1.
<mgrwt>
<rscale>  0 0.12150949E+03</rscale>
<asrwt>0</asrwt>
<pdfrwt beam="1">  1        2 0.18873343E-01 0.12982254E+03</pdfrwt>
<pdfrwt beam="2">  1       -2 0.29689023E-01 0.12982254E+03</pdfrwt>
<totfact> 0.29757159E+03</totfact>
</mgrwt>
</event>
<event>
 7    1  0.6419647E-006  0.2087881E+03  0.7546771E-02  0.1146504E+00
         -1   -1    0    0    0  501 -0.00000000000E+00  0.00000000000E+00  0.77425004277E+02  0.77425004277E+02  0.00000000000E+00 0.  1.
          1   -1    0    0  501    0  0.00000000000E+00 -0.00000000000E+00 -0.60687725577E+03  0.60687725577E+03  0.00000000000E+00 0. -1.
         23    2    1    2    0    0 -0.14901259951E+03 -0.75913343259E+02 -0.40972696685E+03  0.45985719659E+03  0.12499945357E+03 0.  0.
          5    1    3    3  502    0 -0.41381930575E+02  0.32443342352E+02 -0.14341673772E+03  0.15282501529E+03  0.47000000000E+01 0.  1.
         -5    1    3    3    0  502 -0.10763066894E+03 -0.10835668561E+03 -0.26631022913E+03  0.30703218130E+03  0.47000000000E+01 0.  1.
        -11    1    1    2    0    0  0.19609167273E+02  0.36868811931E+02  0.30132652719E+01  0.41867750142E+02  0.00000000000E+00 0.  1.
         11    1    1    2    0    0  0.12940343224E+03  0.39044531329E+02 -0.12273854991E+03  0.18257731331E+03  0.00000000000E+00 0. -1.
<mgrwt>
<rscale>  0 0.20388230E+03</rscale>
<asrwt>0</asrwt>
<pdfrwt beam="2">  1        1 0.93365731E-01 0.20878806E+03</pdfrwt>
<pdfrwt beam="1">  1       -1 0.11911539E-01 0.20878806E+03</pdfrwt>
<totfact> 0.15984387E+03</totfact>
</mgrwt>
</event>
<event>
 7    1  0.6419647E-006  0.1322738E+03  0.7546771E-02  0.1236780E+00
         -2   -1    0    0    0  501 -0.00000000000E+00  0.00000000000E+00  0.79846145049E+02  0.79846145049E+02  0.00000000000E+00 0. -1.
          2   -1    0    0  501    0  0.00000000000E+00 -0.00000000000E+00 -0.19457517607E+03  0.19457517607E+03  0.00000000000E+00 0.  1.
         23    2    1    2    0    0 -0.30664274792E+01 -0.43140113771E+02 -0.11068773290E+03  0.17247645269E+03  0.12500352045E+03 0.  0.
          5    1    3    3  502    0  0.29295336640E+02 -0.77703636919E+02 -0.57524137149E+02  0.10112956192E+03  0.47000000000E+01 0. -1.
         -5    1    3    3    0  502 -0.32361764119E+02  0.34563523149E+02 -0.53163595747E+02  0.71346890767E+02  0.47000000000E+01 0. -1.
        -11    1    1    2    0    0  0.42311287742E+02  0.33063628250E+02  0.16953810584E+02  0.56310569849E+02  0.00000000000E+00 0. -1.
         11    1    1    2    0    0 -0.39244860263E+02  0.10076485521E+02 -0.20995108708E+02  0.45634298583E+02  0.00000000000E+00 0.  1.
<mgrwt>
<rscale>  0 0.12391141E+03</rscale>
<asrwt>0</asrwt>
<pdfrwt beam="2">  1        2 0.29934642E-01 0.13227378E+03</pdfrwt>
<pdfrwt beam="1">  1       -2 0.12284022E-01 0.13227378E+03</pdfrwt>
<totfact> 0.79093899E+03</totfact>
</mgrwt>
</event>
<event>
 7    1  0.6419647E-006  0.1532321E+03  0.7546771E-02  0.1205086E+00
          2   -1    0    0  501    0  0.00000000000E+00  0.00000000000E+00  0.72928454415E+03  0.72928454415E+03  0.00000000000E+00 0. -1.
         -2   -1    0    0    0  501 -0.00000000000E+00 -0.00000000000E+00 -0.26990854027E+02  0.26990854027E+02  0.00000000000E+00 0.  1.
         23    2    1    2    0    0 -0.62433586466E+02 -0.62925748513E+02  0.37964404331E+03  0.40940161928E+03  0.12498993442E+03 0.  0.
          5    1    3    3  502    0 -0.83829997279E+02 -0.81892268647E+02  0.34412300489E+03  0.36356092282E+03  0.47000000000E+01 0. -1.
         -5    1    3    3    0  502  0.21396410813E+02  0.18966520134E+02  0.35521038418E+02  0.45840696460E+02  0.47000000000E+01 0. -1.
        -11    1    1    2    0    0  0.26137848752E+02  0.10852719378E+02  0.13648332751E+02  0.31420465340E+02  0.00000000000E+00 0.  1.
         11    1    1    2    0    0  0.36295737713E+02  0.52073029136E+02  0.30900131407E+03  0.31545331356E+03  0.00000000000E+00 0. -1.
<mgrwt>
<rscale>  0 0.14630667E+03</rscale>
<asrwt>0</asrwt>
<pdfrwt beam="1">  1        2 0.11219761E+00 0.15323213E+03</pdfrwt>
<pdfrwt beam="2">  1       -2 0.41524396E-02 0.15323213E+03</pdfrwt>
<totfact> 0.99992992E+03</totfact>
</mgrwt>
</event>
<event>
 7    1  0.6419647E-006  0.2005819E+03  0.7546771E-02  0.1153506E+00
         -1   -1    0    0    0  501 -0.00000000000E+00  0.00000000000E+00  0.49663129632E+03  0.49663129632E+03  0.00000000000E+00 0. -1.
          1   -1    0    0  501    0  0.00000000000E+00 -0.00000000000E+00 -0.12863976977E+03  0.12863976977E+03  0.00000000000E+00 0.  1.
         23    2    1    2    0    0 -0.20425302749E+02 -0.15553636545E+03 -0.15365995907E+02  0.20116956278E+03  0.12499730072E+03 0.  0.
          5    1    3    3  502    0 -0.18558477634E+02  0.13153493575E+02  0.17690227527E+02  0.29197014150E+02  0.47000000000E+01 0. -1.
         -5    1    3    3    0  502 -0.18668251142E+01 -0.16868985903E+03 -0.33056223434E+02  0.17197254863E+03  0.47000000000E+01 0. -1.
        -11    1    1    2    0    0 -0.26994774825E+02  0.54496382136E+02  0.77487264908E+02  0.98503044403E+02  0.00000000000E+00 0.  1.
         11    1    1    2    0    0  0.47420077574E+02  0.10103998332E+03  0.30587025755E+03  0.32559845890E+03  0.00000000000E+00 0. -1.
<mgrwt>
<rscale>  0 0.19559904E+03</rscale>
<asrwt>0</asrwt>
<pdfrwt beam="2">  1        1 0.19790734E-01 0.20058185E+03</pdfrwt>
<pdfrwt beam="1">  1       -1 0.76404814E-01 0.20058185E+03</pdfrwt>
<totfact> 0.46628895E+02</totfact>
</mgrwt>
</event>
<event>
 7    1  0.6419647E-006  0.1691514E+03  0.7546771E-02  0.1185482E+00
         -2   -1    0    0    0  501 -0.00000000000E+00  0.00000000000E+00  0.56058053873E+02  0.56058053873E+02  0.00000000000E+00 0.  1.
          2   -1    0    0  501    0  0.00000000000E+00 -0.00000000000E+00 -0.68766014280E+03  0.68766014280E+03  0.00000000000E+00 0. -1.
         23    2    1    2    0    0  0.21047344066E+01  0.11394205872E+03 -0.55323708173E+03  0.57851833040E+03  0.12499986938E+03 0.  0.
          5    1    3    3  502    0  0.40397412751E+02 -0.77140473190E+01 -0.12597470965E+03  0.13260156468E+03  0.47000000000E+01 0.  1.
         -5    1    3    3    0  502 -0.38292678345E+02  0.12165610604E+03 -0.42726237208E+03  0.44591676572E+03  0.47000000000E+01 0.  1.
        -11    1    1    2    0    0  0.18062718897E+02 -0.59001771847E+02 -0.86351848534E+02  0.10613252395E+03  0.00000000000E+00 0. -1.
         11    1    1    2    0    0 -0.20167453304E+02 -0.54940286871E+02  0.79868413462E+01  0.59067342322E+02  0.00000000000E+00 0.  1.
<mgrwt>
<rscale>  0 0.16288094E+03</rscale>
<asrwt>0</asrwt>
<pdfrwt beam="2">  1        2 0.10579387E+00 0.16915138E+03</pdfrwt>
<pdfrwt beam="1">  1       -2 0.86243161E-02 0.16915138E+03</pdfrwt>
<totfact> 0.35387509E+03</totfact>
</mgrwt>
</event>
<event>
 7    1  0.7096991E-006  0.1564645E+03  0.7546771E-02  0.1199900E+00
          1   -1    0    0  501    0  0.00000000000E+00  0.00000000000E+00  0.17124819024E+03  0.17124819024E+03  0.00000000000E+00 0. -1.
         -1   -1    0    0    0  501 -0.00000000000E+00 -0.00000000000E+00 -0.12405567323E+03  0.12405567323E+03  0.00000000000E+00 0.  1.
         23    2    1    2    0    0 -0.55973607810E+02  0.75649950437E+02  0.38899283949E+02  0.16122743543E+03  0.12500068748E+03 0.  0.
          5    1    3    3  502    0 -0.36496104653E+02  0.58182509610E+02  0.84165218403E+02  0.10873382210E+03  0.47000000000E+01 0. -1.
         -5    1    3    3    0  502 -0.19477503157E+02  0.17467440827E+02 -0.45265934453E+02  0.52493613328E+02  0.47000000000E+01 0. -1.
        -11    1    1    2    0    0  0.39281678324E+02 -0.72880780049E+02 -0.33249689739E+02  0.89219954160E+02  0.00000000000E+00 0.  1.
         11    1    1    2    0    0  0.16691929486E+02 -0.27691703884E+01  0.41542922797E+02  0.44856473882E+02  0.00000000000E+00 0. -1.
<mgrwt>
<rscale>  0 0.15046719E+03</rscale>
<asrwt>0</asrwt>
<pdfrwt beam="1">  1        1 0.26345875E-01 0.15646447E+03</pdfrwt>
<pdfrwt beam="2">  1       -1 0.19085488E-01 0.15646447E+03</pdfrwt>
<totfact> 0.37734163E+03</totfact>
</mgrwt>
</event>
<event>
 7    1  0.6419647E-006  0.1485559E+03  0.7546771E-02  0.1210403E+00
         -1   -1    0    0    0  501 -0.00000000000E+00  0.00000000000E+00  0.17797574380E+02  0.17797574380E+02  0.00000000000E+00 0.  1.
          1   -1    0    0  501    0  0.00000000000E+00 -0.00000000000E+00 -0.11643643653E+04  0.11643643653E+04  0.00000000000E+00 0. -1.
         23    2    1    2    0    0 -0.10018117863E+02 -0.79644520000E+02 -0.80383734497E+03  0.81744927707E+03  0.12500092462E+03 0.  0.
          5    1    3    3  502    0  0.28083201130E+02 -0.98755991407E+02 -0.63426285618E+03  0.64253628127E+03  0.47000000000E+01 0. -1.
         -5    1    3    3    0  502 -0.38101318994E+02  0.19111471407E+02 -0.16957448879E+03  0.17491299579E+03  0.47000000000E+01 0. -1.
        -11    1    1    2    0    0 -0.22491414832E+02  0.65151956815E+02 -0.30560789191E+03  0.31328393642E+03  0.00000000000E+00 0.  1.
         11    1    1    2    0    0  0.32509532695E+02  0.14492563185E+02 -0.37121554024E+02  0.51428726184E+02  0.00000000000E+00 0. -1.
<mgrwt>
<rscale>  0 0.14219689E+03</rscale>
<asrwt>0</asrwt>
<pdfrwt beam="2">  1        1 0.17913294E+00 0.14855586E+03</pdfrwt>
<pdfrwt beam="1">  1       -1 0.27380889E-02 0.14855586E+03</pdfrwt>
<totfact> 0.51430162E+03</totfact>
</mgrwt>
</event>
<event>
 7    1  0.6419647E-006  0.1818847E+03  0.7546771E-02  0.1171945E+00
          1   -1    0    0  501    0  0.00000000000E+00  0.00000000000E+00  0.71010439157E+02  0.71010439157E+02  0.00000000000E+00 0. -1.
         -1   -1    0    0    0  501 -0.00000000000E+00 -0.00000000000E+00 -0.43232164789E+03  0.43232164789E+03  0.00000000000E+00 0.  1.
         23    2    1    2    0    0  0.10711797259E+03  0.77340806010E+02 -0.13315936958E+03  0.22541845340E+03  0.12500480431E+03 0.  0.
          5    1    3    3  502    0 -0.14276631451E+02  0.78817712846E+01  0.14251601882E+02  0.22161739110E+02  0.47000000000E+01 0.  1.
         -5    1    3    3    0  502  0.12139460404E+03  0.69459034725E+02 -0.14741097147E+03  0.20325671429E+03  0.47000000000E+01 0.  1.
        -11    1    1    2    0    0 -0.25285088535E+02 -0.64567587270E+00 -0.18702185004E+01  0.25362379951E+02  0.00000000000E+00 0.  1.
         11    1    1    2    0    0 -0.81832884056E+02 -0.76695130137E+02 -0.22628162065E+03  0.25255125370E+03  0.00000000000E+00 0. -1.
<mgrwt>
<rscale>  0 0.17578631E+03</rscale>
<asrwt>0</asrwt>
<pdfrwt beam="1">  1        1 0.10924683E-01 0.18188475E+03</pdfrwt>
<pdfrwt beam="2">  1       -1 0.66511022E-01 0.18188475E+03</pdfrwt>
<totfact> 0.13370093E+03</totfact>
</mgrwt>
</event>
<event>
 7    1  0.6419647E-006  0.1535507E+03  0.7546771E-02  0.1204483E+00
          1   -1    0    0  501    0  0.00000000000E+00  0.00000000000E+00  0.15857443145E+03  0.15857443145E+03  0.00000000000E+00 0. -1.
         -1   -1    0    0    0  501 -0.00000000000E+00 -0.00000000000E+00 -0.12559110918E+03  0.12559110918E+03  0.00000000000E+00 0.  1.
         23    2    1    2    0    0 -0.87194615143E+02 -0.18651002382E+02  0.97398223260E+01  0.15385924709E+03  0.12500817164E+03 0.  0.
          5    1    3    3  502    0 -0.11442401156E+03 -0.35343049541E+02  0.16189863322E+02  0.12093877479E+03  0.47000000000E+01 0.  1.
         -5    1    3    3    0  502  0.27229396419E+02  0.16692047159E+02 -0.64500409958E+01  0.32920472302E+02  0.47000000000E+01 0.  1.
        -11    1    1    2    0    0 -0.12768455782E+02  0.18316765534E+01  0.25866278652E+02  0.28904201656E+02  0.00000000000E+00 0. -1.
         11    1    1    2    0    0  0.99963070925E+02  0.16819325829E+02 -0.26227787011E+01  0.10140209188E+03  0.00000000000E+00 0.  1.
<mgrwt>
<rscale>  0 0.14678265E+03</rscale>
<asrwt>0</asrwt>
<pdfrwt beam="1">  1        1 0.24396066E-01 0.15355066E+03</pdfrwt>
<pdfrwt beam="2">  1       -1 0.19321709E-01 0.15355066E+03</pdfrwt>
<totfact> 0.40716726E+03</totfact>
</mgrwt>
</event>
<event>
 6    1  0.6419647E-006  0.1592079E+03  0.7546771E-02  0.1210496E+00
          1   -1    0    0  501    0  0.00000000000E+00  0.00000000000E+00  0.30356222961E+03  0.30356222961E+03  0.00000000000E+00 0. -1.
         -1   -1    0    0    0  501 -0.00000000000E+00 -0.00000000000E+00 -0.60907385600E+02  0.60907385600E+02  0.00000000000E+00 0.  1.
          5    1    1    2  502    0  0.53192535504E+02 -0.15232530225E+01  0.13703035207E+03  0.14707540080E+03  0.47000000000E+01 0. -1.
         -5    1    1    2    0  502 -0.81963403883E+02 -0.31212112548E+02  0.60611312679E+02  0.10671465115E+03  0.47000000000E+01 0.  1.
        -11    1    1    2    0    0  0.42686324648E+02 -0.19235591656E+02  0.15526952610E+02  0.49327644943E+02  0.00000000000E+00 0.  1.
         11    1    1    2    0    0 -0.13915456270E+02  0.51970957226E+02  0.29486226648E+02  0.61351918309E+02  0.00000000000E+00 0. -1.
<mgrwt>
<rscale>  0 0.14212646E+03</rscale>
<asrwt>0</asrwt>
<pdfrwt beam="1">  1        1 0.46701880E-01 0.15920792E+03</pdfrwt>
<pdfrwt beam="2">  1       -1 0.93703672E-02 0.15920792E+03</pdfrwt>
<totfact> 0.56223634E+03</totfact>
</mgrwt>
</event>
<event>
 7    1  0.6419647E-006  0.1320297E+03  0.7546771E-02  0.1237046E+00
          2   -1    0    0  501    0  0.00000000000E+00  0.00000000000E+00  0.29326322822E+03  0.29326322822E+03  0.00000000000E+00 0. -1.
         -2   -1    0    0    0  501 -0.00000000000E+00 -0.00000000000E+00 -0.51279688813E+02  0.51279688813E+02  0.00000000000E+00 0.  1.
         23    2    1    2    0    0 -0.36921918076E+02  0.21127919484E+02  0.18659698519E+03  0.22858316556E+03  0.12498884622E+03 0.  0.
          5    1    3    3  502    0  0.33280756334E+02 -0.27403859537E+01  0.73026509970E+01  0.34504161618E+02  0.47000000000E+01 0. -1.
         -5    1    3    3    0  502 -0.70202674411E+02  0.23868305438E+02  0.17929433419E+03  0.19407900394E+03  0.47000000000E+01 0. -1.
        -11    1    1    2    0    0  0.58999187512E+02 -0.19441409260E+01  0.62384490489E+02  0.85886602358E+02  0.00000000000E+00 0. -1.
         11    1    1    2    0    0 -0.22077269436E+02 -0.19183778559E+02 -0.69979362697E+01  0.30073149113E+02  0.00000000000E+00 0.  1.
<mgrwt>
<rscale>  0 0.12374368E+03</rscale>
<asrwt>0</asrwt>
<pdfrwt beam="1">  1        2 0.45117419E-01 0.13202965E+03</pdfrwt>
<pdfrwt beam="2">  1       -2 0.78891831E-02 0.13202965E+03</pdfrwt>
<totfact> 0.10221281E+04</totfact>
</mgrwt>
</event>
<event>
 7    1  0.6419647E-006  0.1853885E+03  0.7546771E-02  0.1167573E+00
         -2   -1    0    0    0  501 -0.00000000000E+00  0.00000000000E+00  0.34055290918E+02  0.34055290918E+02  0.00000000000E+00 0. -1.
          2   -1    0    0  501    0  0.00000000000E+00 -0.00000000000E+00 -0.99743215217E+03  0.99743215217E+03  0.00000000000E+00 0.  1.
         23    2    1    2    0    0 -0.13659933776E+03 -0.91632223445E+01 -0.66346622705E+03  0.68888049935E+03  0.12500225690E+03 0.  0.
          5    1    3    3  502    0 -0.41739021023E+01  0.40641542685E+02 -0.10536785309E+03  0.11310893384E+03  0.47000000000E+01 0.  1.
         -5    1    3    3    0  502 -0.13242543566E+03 -0.49804765029E+02 -0.55809837396E+03  0.57577156551E+03  0.47000000000E+01 0.  1.
        -11    1    1    2    0    0  0.27504082126E+02  0.98674507870E+01 -0.17211225882E+03  0.17457511494E+03  0.00000000000E+00 0.  1.
         11    1    1    2    0    0  0.10909525564E+03 -0.70422844246E+00 -0.12779837538E+03  0.16803182880E+03  0.00000000000E+00 0. -1.
<mgrwt>
<rscale>  0 0.18023809E+03</rscale>
<asrwt>0</asrwt>
<pdfrwt beam="2">  1        2 0.15345111E+00 0.18538853E+03</pdfrwt>
<pdfrwt beam="1">  1       -2 0.52392751E-02 0.18538853E+03</pdfrwt>
<totfact> 0.47430662E+03</totfact>
</mgrwt>
</event>
<event>
 6    1  0.6419647E-006  0.1599847E+03  0.7546771E-02  0.1212752E+00
          2   -1    0    0  501    0  0.00000000000E+00  0.00000000000E+00  0.10368006495E+03  0.10368006495E+03  0.00000000000E+00 0. -1.
         -2   -1    0    0    0  501 -0.00000000000E+00 -0.00000000000E+00 -0.17791828078E+03  0.17791828078E+03  0.00000000000E+00 0.  1.
          5    1    1    2  502    0  0.38199221792E+02  0.35704570963E+01  0.74520128591E+02  0.83948009355E+02  0.47000000000E+01 0. -1.
         -5    1    1    2    0  502 -0.12374999701E+02 -0.17495668634E+02 -0.72812281652E+02  0.76045758579E+02  0.47000000000E+01 0.  1.
        -11    1    1    2    0    0  0.30112073581E+02 -0.88905421663E+01 -0.41581862736E+02  0.52104030784E+02  0.00000000000E+00 0. -1.
         11    1    1    2    0    0 -0.55936295672E+02  0.22815753704E+02 -0.34364200034E+02  0.69500547010E+02  0.00000000000E+00 0.  1.
<mgrwt>
<rscale>  0 0.14042964E+03</rscale>
<asrwt>0</asrwt>
<pdfrwt beam="1">  1        2 0.15950779E-01 0.15998465E+03</pdfrwt>
<pdfrwt beam="2">  1       -2 0.27372043E-01 0.15998465E+03</pdfrwt>
<totfact> 0.42261215E+03</totfact>
</mgrwt>
</event>
<event>
 7    1  0.6419647E-006  0.1470840E+03  0.7546771E-02  0.1214940E+00
         -3   -1    0    0    0  501 -0.00000000000E+00  0.00000000000E+00  0.14058809605E+03  0.14058809605E+03  0.00000000000E+00 0.  1.
          3   -1    0    0  501    0  0.00000000000E+00 -0.00000000000E+00 -0.15365637319E+03  0.15365637319E+03  0.00000000000E+00 0. -1.
         23    2    1    2    0    0  0.16413977531E+01  0.77504826431E+02 -0.71741457596E+02  0.16364762698E+03  0.12499606703E+03 0.  0.
          5    1    3    3  502    0 -0.37181996084E+02 -0.18601038881E+02 -0.10398662559E+02  0.43112894397E+02  0.47000000000E+01 0. -1.
         -5    1    3    3    0  502  0.38823393837E+02  0.96105865313E+02 -0.61342795037E+02  0.12053473259E+03  0.47000000000E+01 0. -1.
        -11    1    1    2    0    0  0.35843432872E+01 -0.47929616341E+02 -0.15559146109E+02  0.50519131693E+02  0.00000000000E+00 0. -1.
         11    1    1    2    0    0 -0.52257410402E+01 -0.29575210091E+02  0.74232326564E+02  0.80077710559E+02  0.00000000000E+00 0.  1.
<mgrwt>
<rscale>  0 0.13880922E+03</rscale>
<asrwt>0</asrwt>
<pdfrwt beam="2">  1        3 0.23639442E-01 0.14708402E+03</pdfrwt>
<pdfrwt beam="1">  1       -3 0.21628938E-01 0.14708402E+03</pdfrwt>
<totfact> 0.75922578E+02</totfact>
</mgrwt>
</event>
<event>
 7    1  0.6419647E-006  0.1746231E+03  0.7546771E-02  0.1179141E+00
         -1   -1    0    0    0  501 -0.00000000000E+00  0.00000000000E+00  0.47628180695E+02  0.47628180695E+02  0.00000000000E+00 0.  1.
          1   -1    0    0  501    0  0.00000000000E+00 -0.00000000000E+00 -0.56116648074E+03  0.56116648074E+03  0.00000000000E+00 0. -1.
         23    2    1    2    0    0  0.73629777916E+02 -0.97205987391E+02 -0.27331365034E+03  0.32433559989E+03  0.12499152655E+03 0.  0.
          5    1    3    3  502    0  0.45141756725E+02 -0.73365912326E+02 -0.27361293028E+03  0.28689102619E+03  0.47000000000E+01 0. -1.
         -5    1    3    3    0  502  0.28488021191E+02 -0.23840075065E+02  0.29927994402E+00  0.37444573692E+02  0.47000000000E+01 0. -1.
        -11    1    1    2    0    0 -0.51570549245E+02  0.21805156242E+02 -0.17036285410E+03  0.17932787972E+03  0.00000000000E+00 0. -1.
         11    1    1    2    0    0 -0.22059228671E+02  0.75400831149E+02 -0.69861795603E+02  0.10513118183E+03  0.00000000000E+00 0.  1.
<mgrwt>
<rscale>  0 0.16876544E+03</rscale>
<asrwt>0</asrwt>
<pdfrwt beam="2">  1        1 0.86333299E-01 0.17462311E+03</pdfrwt>
<pdfrwt beam="1">  1       -1 0.73274129E-02 0.17462311E+03</pdfrwt>
<totfact> 0.37319704E+03</totfact>
</mgrwt>
</event>
<event>
 7    1  0.6419647E-006  0.1365424E+03  0.7546771E-02  0.1231238E+00
         -2   -1    0    0    0  501 -0.00000000000E+00  0.00000000000E+00  0.19798754095E+02  0.19798754095E+02  0.00000000000E+00 0.  1.
          2   -1    0    0  501    0  0.00000000000E+00 -0.00000000000E+00 -0.76119172907E+03  0.76119172907E+03  0.00000000000E+00 0. -1.
         23    2    1    2    0    0 -0.54431796710E+02  0.83515977538E+01 -0.49857171252E+03  0.51693091103E+03  0.12494496621E+03 0.  0.
          5    1    3    3  502    0 -0.22256528792E+02  0.24600862098E+02 -0.24598957833E+02  0.41566262958E+02  0.47000000000E+01 0. -1.
         -5    1    3    3    0  502 -0.32175267918E+02 -0.16249264344E+02 -0.47397275468E+03  0.47536464808E+03  0.47000000000E+01 0. -1.
        -11    1    1    2    0    0  0.33546673605E+00  0.29595291375E+02 -0.12986622161E+03  0.13319620612E+03  0.00000000000E+00 0. -1.
         11    1    1    2    0    0  0.54096329974E+02 -0.37946889129E+02 -0.11295504085E+03  0.13086336602E+03  0.00000000000E+00 0.  1.
<mgrwt>
<rscale>  0 0.12748344E+03</rscale>
<asrwt>0</asrwt>
<pdfrwt beam="2">  1        2 0.11710639E+00 0.13654235E+03</pdfrwt>
<pdfrwt beam="1">  1       -2 0.30459629E-02 0.13654235E+03</pdfrwt>
<totfact> 0.14909903E+04</totfact>
</mgrwt>
</event>
<event>
 7    1  0.6419647E-006  0.1256054E+03  0.7546771E-02  0.1248973E+00
         -3   -1    0    0    0  501 -0.00000000000E+00  0.00000000000E+00  0.14146940297E+03  0.14146940297E+03  0.00000000000E+00 0.  1.
          3   -1    0    0  501    0  0.00000000000E+00 -0.00000000000E+00 -0.88200935147E+02  0.88200935147E+02  0.00000000000E+00 0. -1.
         23    2    1    2    0    0  0.98312537107E+01 -0.74319973914E+01  0.69620895255E+01  0.12579820604E+03  0.12499931927E+03 0.  0.
          5    1    3    3  502    0 -0.54016595037E+02 -0.16205073007E+02  0.19727476101E+02  0.59930461736E+02  0.47000000000E+01 0. -1.
         -5    1    3    3    0  502  0.63847848748E+02  0.87730756152E+01 -0.12765386575E+02  0.65867744306E+02  0.47000000000E+01 0. -1.
        -11    1    1    2    0    0  0.32684451060E+02  0.13852279162E+01 -0.89258778588E+01  0.33909637171E+02  0.00000000000E+00 0. -1.
         11    1    1    2    0    0 -0.42515704771E+02  0.60467694752E+01  0.55232256158E+02  0.69962494907E+02  0.00000000000E+00 0.  1.
<mgrwt>
<rscale>  0 0.11650720E+03</rscale>
<asrwt>0</asrwt>
<pdfrwt beam="2">  1        3 0.13569375E-01 0.12560541E+03</pdfrwt>
<pdfrwt beam="1">  1       -3 0.21764524E-01 0.12560541E+03</pdfrwt>
<totfact> 0.19245410E+03</totfact>
</mgrwt>
</event>
<event>
 7    1  0.6419647E-006  0.1444985E+03  0.7546771E-02  0.1217670E+00
          2   -1    0    0  501    0  0.00000000000E+00  0.00000000000E+00  0.21022213338E+03  0.21022213338E+03  0.00000000000E+00 0. -1.
         -2   -1    0    0    0  501 -0.00000000000E+00 -0.00000000000E+00 -0.81332745301E+02  0.81332745301E+02  0.00000000000E+00 0.  1.
         23    2    1    2    0    0  0.72426425778E+02 -0.27746476471E+01  0.59634016978E+02  0.15632024709E+03  0.12500607125E+03 0.  0.
          5    1    3    3  502    0 -0.29763471168E+02  0.16799482577E+02 -0.32555687093E+01  0.34652208565E+02  0.47000000000E+01 0. -1.
         -5    1    3    3    0  502  0.10218989695E+03 -0.19574130224E+02  0.62889585687E+02  0.12166803853E+03  0.47000000000E+01 0. -1.
        -11    1    1    2    0    0 -0.67201788017E+01 -0.14848461198E+02 -0.18203236877E+02  0.24433490047E+02  0.00000000000E+00 0.  1.
         11    1    1    2    0    0 -0.65706246976E+02  0.17623108845E+02  0.87458607977E+02  0.11080114154E+03  0.00000000000E+00 0. -1.
<mgrwt>
<rscale>  0 0.13682244E+03</rscale>
<asrwt>0</asrwt>
<pdfrwt beam="1">  1        2 0.32341867E-01 0.14449846E+03</pdfrwt>
<pdfrwt beam="2">  1       -2 0.12512730E-01 0.14449846E+03</pdfrwt>
<totfact> 0.71066731E+03</totfact>
</mgrwt>
</event>
<event>
 7    1  0.6419647E-006  0.2111372E+03  0.7546771E-02  0.1144403E+00
          1   -1    0    0  501    0  0.00000000000E+00  0.00000000000E+00  0.90059816616E+03  0.90059816616E+03  0.00000000000E+00 0. -1.
         -1   -1    0    0    0  501 -0.00000000000E+00 -0.00000000000E+00 -0.45522453216E+02  0.45522453216E+02  0.00000000000E+00 0.  1.
         23    2    1    2    0    0 -0.89651970398E+02 -0.14462763944E+03  0.47616125625E+03  0.52087277475E+03  0.12499710251E+03 0.  0.
          5    1    3    3  502    0  0.80270207470E+01 -0.93609069322E+02  0.28557791834E+03  0.30067246027E+03  0.47000000000E+01 0. -1.
         -5    1    3    3    0  502 -0.97678991145E+02 -0.51018570115E+02  0.19058333792E+03  0.22020031449E+03  0.47000000000E+01 0. -1.
        -11    1    1    2    0    0  0.10616673521E+02  0.22601080455E+02  0.70096752865E+01  0.25935653877E+02  0.00000000000E+00 0. -1.
         11    1    1    2    0    0  0.79035296877E+02  0.12202655898E+03  0.37190478141E+03  0.39931219075E+03  0.00000000000E+00 0.  1.
<mgrwt>
<rscale>  0 0.20645635E+03</rscale>
<asrwt>0</asrwt>
<pdfrwt beam="1">  1        1 0.13855355E+00 0.21113717E+03</pdfrwt>
<pdfrwt beam="2">  1       -1 0.70034550E-02 0.21113717E+03</pdfrwt>
<totfact> 0.20076904E+03</totfact>
</mgrwt>
</event>
<event>
 7    1  0.6419647E-006  0.1267343E+03  0.7546771E-02  0.1246191E+00
         -1   -1    0    0    0  501 -0.00000000000E+00  0.00000000000E+00  0.34055307978E+02  0.34055307978E+02  0.00000000000E+00 0.  1.
          1   -1    0    0  501    0  0.00000000000E+00 -0.00000000000E+00 -0.37104762403E+03  0.37104762403E+03  0.00000000000E+00 0. -1.
         23    2    1    2    0    0  0.99895685819E+01 -0.18353329739E+02 -0.22059238007E+03  0.25440632575E+03  0.12499977699E+03 0.  0.
          5    1    3    3  502    0  0.14109320551E+02  0.37031547038E+02 -0.18270408375E+03  0.18701144517E+03  0.47000000000E+01 0. -1.
         -5    1    3    3    0  502 -0.41197519694E+01 -0.55384876778E+02 -0.37888296311E+02  0.67394880587E+02  0.47000000000E+01 0. -1.
        -11    1    1    2    0    0 -0.77905871448E+01 -0.37640238453E+02 -0.59500375543E+02  0.70836258291E+02  0.00000000000E+00 0. -1.
         11    1    1    2    0    0 -0.21989814372E+01  0.55993568192E+02 -0.56899560442E+02  0.79860347963E+02  0.00000000000E+00 0.  1.
<mgrwt>
<rscale>  0 0.11814372E+03</rscale>
<asrwt>0</asrwt>
<pdfrwt beam="2">  1        1 0.57084250E-01 0.12673429E+03</pdfrwt>
<pdfrwt beam="1">  1       -1 0.52392782E-02 0.12673429E+03</pdfrwt>
<totfact> 0.10323479E+04</totfact>
</mgrwt>
</event>
<event>
 7    1  0.6419647E-006  0.1360028E+03  0.7546771E-02  0.1231232E+00
          1   -1    0    0  501    0  0.00000000000E+00  0.00000000000E+00  0.38647997442E+02  0.38647997442E+02  0.00000000000E+00 0. -1.
         -1   -1    0    0    0  501 -0.00000000000E+00 -0.00000000000E+00 -0.38207421090E+03  0.38207421090E+03  0.00000000000E+00 0.  1.
         23    2    1    2    0    0  0.40609659913E+02  0.34964914600E+02 -0.16656783801E+03  0.21503858616E+03  0.12500023659E+03 0.  0.
          5    1    3    3  502    0  0.82841890387E+02  0.12136681094E+02 -0.12916682316E+03  0.15400076635E+03  0.47000000000E+01 0. -1.
         -5    1    3    3    0  502 -0.42232230474E+02  0.22828233506E+02 -0.37401014855E+02  0.61037819817E+02  0.47000000000E+01 0. -1.
        -11    1    1    2    0    0 -0.46282906089E+02 -0.82051146033E+01 -0.17147967684E+03  0.17780526109E+03  0.00000000000E+00 0.  1.
         11    1    1    2    0    0  0.56732461764E+01 -0.26759799997E+02 -0.53786985986E+01  0.27878361083E+02  0.00000000000E+00 0. -1.
<mgrwt>
<rscale>  0 0.12748741E+03</rscale>
<asrwt>0</asrwt>
<pdfrwt beam="1">  1        1 0.59458456E-02 0.13600275E+03</pdfrwt>
<pdfrwt beam="2">  1       -1 0.58780649E-01 0.13600275E+03</pdfrwt>
<totfact> 0.37967172E+03</totfact>
</mgrwt>
</event>
<event>
 7    1  0.6419647E-006  0.1297076E+03  0.7546771E-02  0.1241680E+00
         -2   -1    0    0    0  501 -0.00000000000E+00  0.00000000000E+00  0.21882386186E+02  0.21882386186E+02  0.00000000000E+00 0.  1.
          2   -1    0    0  501    0  0.00000000000E+00 -0.00000000000E+00 -0.61029901459E+03  0.61029901459E+03  0.00000000000E+00 0. -1.
         23    2    1    2    0    0  0.15403502541E+02  0.30999667898E+02 -0.38948318237E+03  0.41051333817E+03  0.12500321662E+03 0.  0.
          5    1    3    3  502    0  0.27290431114E+02  0.70865902691E+02 -0.32382814049E+03  0.33264620601E+03  0.47000000000E+01 0. -1.
         -5    1    3    3    0  502 -0.11886928572E+02 -0.39866234793E+02 -0.65655041878E+02  0.77867132164E+02  0.47000000000E+01 0. -1.
        -11    1    1    2    0    0  0.36524093647E+02 -0.27313606644E+02 -0.87417073398E+02  0.98599123963E+02  0.00000000000E+00 0.  1.
         11    1    1    2    0    0 -0.51927596188E+02 -0.36860612542E+01 -0.11151637263E+03  0.12306893864E+03  0.00000000000E+00 0. -1.
<mgrwt>
<rscale>  0 0.12086311E+03</rscale>
<asrwt>0</asrwt>
<pdfrwt beam="2">  1        2 0.93892149E-01 0.12970756E+03</pdfrwt>
<pdfrwt beam="1">  1       -2 0.33665212E-02 0.12970756E+03</pdfrwt>
<totfact> 0.16627619E+04</totfact>
</mgrwt>
</event>
<event>
 7    1  0.6419647E-006  0.1378064E+03  0.7546771E-02  0.1228025E+00
          2   -1    0    0  501    0  0.00000000000E+00  0.00000000000E+00  0.23002922519E+03  0.23002922519E+03  0.00000000000E+00 0.  1.
         -2   -1    0    0    0  501 -0.00000000000E+00 -0.00000000000E+00 -0.68881539284E+02  0.68881539284E+02  0.00000000000E+00 0. -1.
         23    2    1    2    0    0 -0.27538353609E+02 -0.51062297211E+02  0.12236898937E+03  0.18429537286E+03  0.12499958312E+03 0.  0.
          5    1    3    3  502    0  0.63037190564E+01  0.39708217677E+02  0.30263493179E+02  0.50541551662E+02  0.47000000000E+01 0. -1.
         -5    1    3    3    0  502 -0.33842072666E+02 -0.90770514888E+02  0.92105496195E+02  0.13375382120E+03  0.47000000000E+01 0. -1.
        -11    1    1    2    0    0 -0.19516958939E+02  0.49182239465E+02 -0.10721013533E+01  0.52924037699E+02  0.00000000000E+00 0. -1.
         11    1    1    2    0    0  0.47055312548E+02  0.18800577457E+01  0.39850797886E+02  0.61691353919E+02  0.00000000000E+00 0.  1.
<mgrwt>
<rscale>  0 0.12961735E+03</rscale>
<asrwt>0</asrwt>
<pdfrwt beam="1">  1        2 0.35389111E-01 0.13780644E+03</pdfrwt>
<pdfrwt beam="2">  1       -2 0.10597160E-01 0.13780644E+03</pdfrwt>
<totfact> 0.83774670E+03</totfact>
</mgrwt>
</event>
<event>
 6    1  0.6419647E-006  0.1900939E+03  0.7546771E-02  0.1192251E+00
         -2   -1    0    0    0  501 -0.00000000000E+00  0.00000000000E+00  0.21338898335E+02  0.21338898335E+02  0.00000000000E+00 0.  1.
          2   -1    0    0  501    0  0.00000000000E+00 -0.00000000000E+00 -0.13471119258E+04  0.13471119258E+04  0.00000000000E+00 0. -1.
          5    1    1    2  502    0  0.11578745018E+03 -0.22397061308E+02 -0.55841547356E+03  0.57075239210E+03  0.47000000000E+01 0. -1.
         -5    1    1    2    0  502 -0.47913550785E+02 -0.32672469550E+02 -0.64079484055E+03  0.64343089473E+03  0.47000000000E+01 0.  1.
        -11    1    1    2    0    0 -0.62279156846E+02  0.45610000881E+02 -0.11189924753E+03  0.13594266128E+03  0.00000000000E+00 0.  1.
         11    1    1    2    0    0 -0.55947425463E+01  0.94595299772E+01 -0.14663465830E+02  0.18324876035E+02  0.00000000000E+00 0. -1.
<mgrwt>
<rscale>  0 0.15689207E+03</rscale>
<asrwt>0</asrwt>
<pdfrwt beam="2">  1        2 0.20724798E+00 0.19009386E+03</pdfrwt>
<pdfrwt beam="1">  1       -2 0.32829076E-02 0.19009386E+03</pdfrwt>
<totfact> 0.60557390E+03</totfact>
</mgrwt>
</event>
<event>
 7    1  0.6419647E-006  0.1392842E+03  0.7546771E-02  0.1225640E+00
         -1   -1    0    0    0  501 -0.00000000000E+00  0.00000000000E+00  0.13545341915E+03  0.13545341915E+03  0.00000000000E+00 0.  1.
          1   -1    0    0  501    0  0.00000000000E+00 -0.00000000000E+00 -0.12027351672E+03  0.12027351672E+03  0.00000000000E+00 0. -1.
         23    2    1    2    0    0  0.18555571260E+02  0.58566553016E+02 -0.19443278189E+02  0.14063476877E+03  0.12500298701E+03 0.  0.
          5    1    3    3  502    0  0.44282283043E+02  0.79903908107E+02 -0.41360066529E+02  0.10039073775E+03  0.47000000000E+01 0. -1.
         -5    1    3    3    0  502 -0.25726711783E+02 -0.21337355091E+02  0.21916788341E+02  0.40244031018E+02  0.47000000000E+01 0. -1.
        -11    1    1    2    0    0 -0.45443312639E+02 -0.67424583095E+02  0.28226614254E+02  0.86069221104E+02  0.00000000000E+00 0. -1.
         11    1    1    2    0    0  0.26887741379E+02  0.88580300790E+01  0.63965663617E+01  0.29022946001E+02  0.00000000000E+00 0.  1.
<mgrwt>
<rscale>  0 0.13123157E+03</rscale>
<asrwt>0</asrwt>
<pdfrwt beam="2">  1        1 0.18503618E-01 0.13928423E+03</pdfrwt>
<pdfrwt beam="1">  1       -1 0.20838988E-01 0.13928423E+03</pdfrwt>
<totfact> 0.50919605E+03</totfact>
</mgrwt>
</event>
<event>
 7    1  0.6419647E-006  0.2544610E+03  0.7546771E-02  0.1110518E+00
          1   -1    0    0  501    0  0.00000000000E+00  0.00000000000E+00  0.14498749793E+03  0.14498749793E+03  0.00000000000E+00 0. -1.
         -1   -1    0    0    0  501 -0.00000000000E+00 -0.00000000000E+00 -0.11164821008E+03  0.11164821008E+03  0.00000000000E+00 0.  1.
         23    2    1    2    0    0 -0.10609035838E+02  0.43944674287E+02  0.49868604519E+02  0.13147018188E+03  0.11293292242E+03 0.  0.
          5    1    3    3  502    0  0.38895029315E+02  0.20128114403E+02  0.60981987417E+02  0.75225375268E+02  0.47000000000E+01 0. -1.
         -5    1    3    3    0  502 -0.49504065153E+02  0.23816559884E+02 -0.11113382898E+02  0.56244806612E+02  0.47000000000E+01 0.  1.
        -11    1    1    2    0    0  0.32751962986E+02 -0.15610881728E+02  0.42602121462E+02  0.55958301089E+02  0.00000000000E+00 0. -1.
         11    1    1    2    0    0 -0.22142927148E+02 -0.28333792560E+02 -0.59131438126E+02  0.69207225045E+02  0.00000000000E+00 0.  1.
<mgrwt>
<rscale>  0 0.25446096E+03</rscale>
<asrwt>0</asrwt>
<pdfrwt beam="1">  1        1 0.22305769E-01 0.25446096E+03</pdfrwt>
<pdfrwt beam="2">  1       -1 0.17176648E-01 0.25446096E+03</pdfrwt>
<totfact> 0.56610089E+03</totfact>
</mgrwt>
</event>
<event>
 7    1  0.6419647E-006  0.1359652E+03  0.7546771E-02  0.1230543E+00
         -1   -1    0    0    0  501 -0.00000000000E+00  0.00000000000E+00  0.13411195075E+02  0.13411195075E+02  0.00000000000E+00 0.  1.
          1   -1    0    0  501    0  0.00000000000E+00 -0.00000000000E+00 -0.11122555001E+04  0.11122555001E+04  0.00000000000E+00 0. -1.
         23    2    1    2    0    0  0.49172208504E+02 -0.21028015340E+02 -0.68086081484E+03  0.69430396585E+03  0.12500585704E+03 0.  0.
          5    1    3    3  502    0 -0.39651055789E+02  0.33849322218E+01 -0.13948446557E+03  0.14512639363E+03  0.47000000000E+01 0.  1.
         -5    1    3    3    0  502  0.88823264293E+02 -0.24412947561E+02 -0.54137634926E+03  0.54917757222E+03  0.47000000000E+01 0.  1.
        -11    1    1    2    0    0  0.14768237040E+02 -0.11845362253E+02 -0.22536118747E+02  0.29432806192E+02  0.00000000000E+00 0.  1.
         11    1    1    2    0    0 -0.63940445544E+02  0.32873377593E+02 -0.39544737146E+03  0.40192992316E+03  0.00000000000E+00 0. -1.
<mgrwt>
<rscale>  0 0.12794121E+03</rscale>
<asrwt>0</asrwt>
<pdfrwt beam="2">  1        1 0.17111623E+00 0.13596524E+03</pdfrwt>
<pdfrwt beam="1">  1       -1 0.20632608E-02 0.13596524E+03</pdfrwt>
<totfact> 0.83957498E+03</totfact>
</mgrwt>
</event>
<event>
 7    1  0.6419647E-006  0.1908288E+03  0.7546771E-02  0.1164118E+00
          2   -1    0    0  501    0  0.00000000000E+00  0.00000000000E+00  0.25080952426E+04  0.25080952426E+04  0.00000000000E+00 0. -1.
         -2   -1    0    0    0  501 -0.00000000000E+00 -0.00000000000E+00 -0.22160844809E+02  0.22160844809E+02  0.00000000000E+00 0.  1.
         23    2    1    2    0    0  0.13470335652E+03  0.51413806370E+02  0.21258620497E+04  0.21344097751E+04  0.12500903921E+03 0.  0.
          5    1    3    3  502    0  0.42477461836E+02  0.94966018578E+01  0.14788670598E+04  0.14795149174E+04  0.47000000000E+01 0.  1.
         -5    1    3    3    0  502  0.92225894684E+02  0.41917204512E+02  0.64699498993E+03  0.65489485773E+03  0.47000000000E+01 0.  1.
        -11    1    1    2    0    0 -0.10970093284E+03 -0.15540034313E+02  0.18721178848E+03  0.21754089519E+03  0.00000000000E+00 0. -1.
         11    1    1    2    0    0 -0.25002423681E+02 -0.35873772058E+02  0.17286055960E+03  0.17830541712E+03  0.00000000000E+00 0.  1.
<mgrwt>
<rscale>  0 0.18386041E+03</rscale>
<asrwt>0</asrwt>
<pdfrwt beam="1">  1        2 0.38586058E+00 0.19082881E+03</pdfrwt>
<pdfrwt beam="2">  1       -2 0.34093627E-02 0.19082881E+03</pdfrwt>
<totfact> 0.14037257E+03</totfact>
</mgrwt>
</event>
<event>
 7    1  0.6419647E-006  0.2701837E+03  0.7546771E-02  0.1103243E+00
         -2   -1    0    0    0  501 -0.00000000000E+00  0.00000000000E+00  0.69438637539E+03  0.69438637539E+03  0.00000000000E+00 0.  1.
          2   -1    0    0  501    0  0.00000000000E+00 -0.00000000000E+00 -0.11110217019E+03  0.11110217019E+03  0.00000000000E+00 0. -1.
         23    2    1    2    0    0 -0.12323033161E+03  0.20539409430E+03  0.16981294245E+03  0.31911703375E+03  0.12500718861E+03 0.  0.
          5    1    3    3  502    0  0.11417335938E+02  0.86829107205E+02  0.78729577771E+02  0.11785620830E+03  0.47000000000E+01 0. -1.
         -5    1    3    3    0  502 -0.13464766755E+03  0.11856498709E+03  0.91083364675E+02  0.20126082545E+03  0.47000000000E+01 0. -1.
        -11    1    1    2    0    0  0.81561636867E+01 -0.84217931765E+02  0.18378371608E+03  0.20232557261E+03  0.00000000000E+00 0.  1.
         11    1    1    2    0    0  0.11507416792E+03 -0.12117616253E+03  0.22968754668E+03  0.28404593922E+03  0.00000000000E+00 0. -1.
<mgrwt>
<rscale>  0 0.26659767E+03</rscale>
<asrwt>0</asrwt>
<pdfrwt beam="2">  1        2 0.17092642E-01 0.27018373E+03</pdfrwt>
<pdfrwt beam="1">  1       -2 0.10682867E+00 0.27018373E+03</pdfrwt>
<totfact> 0.24564499E+02</totfact>
</mgrwt>
</event>
<event>
 7    1  0.6419647E-006  0.1476334E+03  0.7546771E-02  0.1212843E+00
         -1   -1    0    0    0  501 -0.00000000000E+00  0.00000000000E+00  0.18816344130E+03  0.18816344130E+03  0.00000000000E+00 0.  1.
          1   -1    0    0  501    0  0.00000000000E+00 -0.00000000000E+00 -0.28042312697E+03  0.28042312697E+03  0.00000000000E+00 0. -1.
         23    2    1    2    0    0  0.65376040881E+02  0.43547556656E+02 -0.23758718408E+03  0.27972001390E+03  0.12500079890E+03 0.  0.
          5    1    3    3  502    0  0.73216329285E+02 -0.24118305861E+02 -0.10229972359E+03  0.12817818456E+03  0.47000000000E+01 0.  1.
         -5    1    3    3    0  502 -0.78402884036E+01  0.67665862517E+02 -0.13528746049E+03  0.15154182934E+03  0.47000000000E+01 0.  1.
        -11    1    1    2    0    0  0.18198223966E+02 -0.21058886911E+02  0.65325952247E+02  0.71007972161E+02  0.00000000000E+00 0.  1.
         11    1    1    2    0    0 -0.83574264847E+02 -0.22488669745E+02  0.80001546169E+02  0.11785858221E+03  0.00000000000E+00 0. -1.
<mgrwt>
<rscale>  0 0.14036155E+03</rscale>
<asrwt>0</asrwt>
<pdfrwt beam="2">  1        1 0.43142020E-01 0.14763338E+03</pdfrwt>
<pdfrwt beam="1">  1       -1 0.28948222E-01 0.14763338E+03</pdfrwt>
<totfact> 0.10302523E+03</totfact>
</mgrwt>
</event>
<event>
 7    1  0.6419647E-006  0.1351539E+03  0.7546771E-02  0.1232498E+00
          1   -1    0    0  501    0  0.00000000000E+00  0.00000000000E+00  0.73290815717E+03  0.73290815717E+03  0.00000000000E+00 0. -1.
         -1   -1    0    0    0  501 -0.00000000000E+00 -0.00000000000E+00 -0.22022371121E+02  0.22022371121E+02  0.00000000000E+00 0.  1.
         23    2    1    2    0    0  0.18718409238E+02 -0.47867875897E+02  0.52170768913E+03  0.53892994354E+03  0.12499943503E+03 0.  0.
          5    1    3    3  502    0  0.65440909698E+02  0.29980501118E+01  0.23768502077E+03  0.24659229523E+03  0.47000000000E+01 0. -1.
         -5    1    3    3    0  502 -0.46722500460E+02 -0.50865926009E+02  0.28402266836E+03  0.29233764831E+03  0.47000000000E+01 0. -1.
        -11    1    1    2    0    0 -0.36897197959E+02  0.67829068967E+02  0.13766522669E+03  0.15784137751E+03  0.00000000000E+00 0. -1.
         11    1    1    2    0    0  0.18178788721E+02 -0.19961193070E+02  0.51512870229E+02  0.58159207245E+02  0.00000000000E+00 0.  1.
<mgrwt>
<rscale>  0 0.12666003E+03</rscale>
<asrwt>0</asrwt>
<pdfrwt beam="1">  1        1 0.11275508E+00 0.13515388E+03</pdfrwt>
<pdfrwt beam="2">  1       -1 0.33880576E-02 0.13515388E+03</pdfrwt>
<totfact> 0.79794369E+03</totfact>
</mgrwt>
</event>
<event>
 7    1  0.6419647E-006  0.1265479E+03  0.7546771E-02  0.1247350E+00
         -2   -1    0    0    0  501 -0.00000000000E+00  0.00000000000E+00  0.86387861587E+02  0.86387861587E+02  0.00000000000E+00 0.  1.
          2   -1    0    0  501    0  0.00000000000E+00 -0.00000000000E+00 -0.15272827884E+03  0.15272827884E+03  0.00000000000E+00 0. -1.
         23    2    1    2    0    0 -0.18262081736E+02  0.73693348549E+01 -0.70951646321E+02  0.14508104693E+03  0.12500625319E+03 0.  0.
          5    1    3    3  502    0 -0.17533566682E+02  0.74522584856E+01  0.34410109733E+02  0.39611964973E+02  0.47000000000E+01 0. -1.
         -5    1    3    3    0  502 -0.72851505323E+00 -0.82923630727E-01 -0.10536175605E+03  0.10546908196E+03  0.47000000000E+01 0. -1.
        -11    1    1    2    0    0  0.30223746256E+02 -0.18361392153E+02  0.41024160578E+02  0.54162692978E+02  0.00000000000E+00 0.  1.
         11    1    1    2    0    0 -0.11961664521E+02  0.10992057298E+02 -0.36412931509E+02  0.39872400515E+02  0.00000000000E+00 0. -1.
<mgrwt>
<rscale>  0 0.11745812E+03</rscale>
<asrwt>0</asrwt>
<pdfrwt beam="2">  1        2 0.23496658E-01 0.12654791E+03</pdfrwt>
<pdfrwt beam="1">  1       -2 0.13290440E-01 0.12654791E+03</pdfrwt>
<totfact> 0.90554862E+03</totfact>
</mgrwt>
</event>
<event>
 7    1  0.6419647E-006  0.2504522E+03  0.7546771E-02  0.1115528E+00
          1   -1    0    0  501    0  0.00000000000E+00  0.00000000000E+00  0.16133070617E+04  0.16133070617E+04  0.00000000000E+00 0. -1.
         -1   -1    0    0    0  501 -0.00000000000E+00 -0.00000000000E+00 -0.40754481479E+02  0.40754481479E+02  0.00000000000E+00 0.  1.
         23    2    1    2    0    0  0.62068979533E+02  0.20796620351E+03  0.10748004155E+04  0.11035951472E+04  0.12499526247E+03 0.  0.
          5    1    3    3  502    0 -0.10266067903E+02  0.23822732017E+02  0.28821650867E+02  0.39060110978E+02  0.47000000000E+01 0. -1.
         -5    1    3    3    0  502  0.72335047437E+02  0.18414347150E+03  0.10459787647E+04  0.10645350362E+04  0.47000000000E+01 0. -1.
        -11    1    1    2    0    0  0.38246009170E+01 -0.80921420517E+02  0.10615075876E+03  0.13353234610E+03  0.00000000000E+00 0.  1.
         11    1    1    2    0    0 -0.65893580450E+02 -0.12704478300E+03  0.39160140594E+03  0.41693404990E+03  0.00000000000E+00 0. -1.
<mgrwt>
<rscale>  0 0.24651374E+03</rscale>
<asrwt>0</asrwt>
<pdfrwt beam="1">  1        1 0.24820104E+00 0.25045222E+03</pdfrwt>
<pdfrwt beam="2">  1       -1 0.62699215E-02 0.25045222E+03</pdfrwt>
<totfact> 0.75484924E+02</totfact>
</mgrwt>
</event>
<event>
 7    1  0.6419647E-006  0.1270441E+03  0.7546771E-02  0.1247052E+00
          2   -1    0    0  501    0  0.00000000000E+00  0.00000000000E+00  0.19611182135E+04  0.19611182135E+04  0.00000000000E+00 0. -1.
         -2   -1    0    0    0  501 -0.00000000000E+00 -0.00000000000E+00 -0.75721514463E+01  0.75721514463E+01  0.00000000000E+00 0.  1.
         23    2    1    2    0    0  0.22617510180E+02 -0.17894493601E+01  0.15147168903E+04  0.15200353488E+04  0.12500180036E+03 0.  0.
          5    1    3    3  502    0  0.50820088990E+02  0.43710545395E+02  0.10652836754E+04  0.10674009052E+04  0.47000000000E+01 0. -1.
         -5    1    3    3    0  502 -0.28202578809E+02 -0.45499994755E+02  0.44943321487E+03  0.45263444368E+03  0.47000000000E+01 0. -1.
        -11    1    1    2    0    0 -0.99724384973E+01  0.46163240203E+02  0.21808649830E+03  0.22314169269E+03  0.00000000000E+00 0.  1.
         11    1    1    2    0    0 -0.12645071683E+02 -0.44373790843E+02  0.22074267349E+03  0.22551332345E+03  0.00000000000E+00 0. -1.
<mgrwt>
<rscale>  0 0.11763382E+03</rscale>
<asrwt>0</asrwt>
<pdfrwt beam="1">  1        2 0.30171009E+00 0.12704410E+03</pdfrwt>
<pdfrwt beam="2">  1       -2 0.11649479E-02 0.12704410E+03</pdfrwt>
<totfact> 0.12968544E+04</totfact>
</mgrwt>
</event>
<event>
 7    1  0.6419647E-006  0.1253226E+03  0.7546771E-02  0.1250118E+00
          2   -1    0    0  501    0  0.00000000000E+00  0.00000000000E+00  0.24456016157E+03  0.24456016157E+03  0.00000000000E+00 0. -1.
         -2   -1    0    0    0  501 -0.00000000000E+00 -0.00000000000E+00 -0.53457473615E+02  0.53457473615E+02  0.00000000000E+00 0.  1.
         23    2    1    2    0    0  0.39939884242E+01 -0.75405601711E+01  0.15580816378E+03  0.19995481870E+03  0.12503173048E+03 0.  0.
          5    1    3    3  502    0 -0.13651333598E+02 -0.35957318665E+02 -0.17787885060E+01  0.38788423056E+02  0.47000000000E+01 0. -1.
         -5    1    3    3    0  502  0.17645322022E+02  0.28416758494E+02  0.15758695229E+03  0.16116639564E+03  0.47000000000E+01 0. -1.
        -11    1    1    2    0    0  0.32022546149E+01  0.27005902806E+02 -0.23356601844E+02  0.35848348228E+02  0.00000000000E+00 0.  1.
         11    1    1    2    0    0 -0.71962430391E+01 -0.19465342635E+02  0.58651126017E+02  0.62214468259E+02  0.00000000000E+00 0. -1.
<mgrwt>
<rscale>  0 0.11584215E+03</rscale>
<asrwt>0</asrwt>
<pdfrwt beam="1">  1        2 0.37624640E-01 0.12532257E+03</pdfrwt>
<pdfrwt beam="2">  1       -2 0.82242269E-02 0.12532257E+03</pdfrwt>
<totfact> 0.11572684E+04</totfact>
</mgrwt>
</event>
<event>
 7    1  0.6419647E-006  0.1399554E+03  0.7546771E-02  0.1224698E+00
         -3   -1    0    0    0  501 -0.00000000000E+00  0.00000000000E+00  0.14932991073E+03  0.14932991073E+03  0.00000000000E+00 0.  1.
          3   -1    0    0  501    0  0.00000000000E+00 -0.00000000000E+00 -0.10606603694E+03  0.10606603694E+03  0.00000000000E+00 0. -1.
         23    2    1    2    0    0  0.59859016242E+02  0.19559104728E+02  0.37607735776E+02  0.14492012452E+03  0.12498736055E+03 0.  0.
          5    1    3    3  502    0 -0.19967516453E+02 -0.36624983705E+02  0.15279167405E+02  0.44672520651E+02  0.47000000000E+01 0.  1.
         -5    1    3    3    0  502  0.79826532695E+02  0.56184088434E+02  0.22328568371E+02  0.10024760387E+03  0.47000000000E+01 0.  1.
        -11    1    1    2    0    0 -0.22447915717E+02 -0.64296883107E+00  0.46692596837E+02  0.51812362698E+02  0.00000000000E+00 0.  1.
         11    1    1    2    0    0 -0.37411100525E+02 -0.18916135897E+02 -0.41036458823E+02  0.58663460455E+02  0.00000000000E+00 0. -1.
<mgrwt>
<rscale>  0 0.13187621E+03</rscale>
<asrwt>0</asrwt>
<pdfrwt beam="2">  1        3 0.16317852E-01 0.13995535E+03</pdfrwt>
<pdfrwt beam="1">  1       -3 0.22973833E-01 0.13995535E+03</pdfrwt>
<totfact> 0.12990200E+03</totfact>
</mgrwt>
</event>
<event>
 7    1  0.6419647E-006  0.1395688E+03  0.7546771E-02  0.1223589E+00
         -2   -1    0    0    0  501 -0.00000000000E+00  0.00000000000E+00  0.84667498977E+02  0.84667498977E+02  0.00000000000E+00 0.  1.
          2   -1    0    0  501    0  0.00000000000E+00 -0.00000000000E+00 -0.19997571747E+03  0.19997571747E+03  0.00000000000E+00 0. -1.
         23    2    1    2    0    0 -0.28882698914E+02  0.54955334374E+02 -0.95415367676E+02  0.16906670076E+03  0.12500063138E+03 0.  0.
          5    1    3    3  502    0 -0.66719396964E+02  0.48733600209E+02 -0.10040482842E+03  0.13011403187E+03  0.47000000000E+01 0. -1.
         -5    1    3    3    0  502  0.37836698050E+02  0.62217341643E+01  0.49894607417E+01  0.38952668892E+02  0.47000000000E+01 0. -1.
        -11    1    1    2    0    0  0.40501533533E+02 -0.20128167570E+02 -0.50489614461E+02  0.67784353038E+02  0.00000000000E+00 0. -1.
         11    1    1    2    0    0 -0.11618834619E+02 -0.34827166803E+02  0.30596763640E+02  0.47792162649E+02  0.00000000000E+00 0.  1.
<mgrwt>
<rscale>  0 0.13264051E+03</rscale>
<asrwt>0</asrwt>
<pdfrwt beam="2">  1        2 0.30765495E-01 0.13956883E+03</pdfrwt>
<pdfrwt beam="1">  1       -2 0.13025769E-01 0.13956883E+03</pdfrwt>
<totfact> 0.70150418E+03</totfact>
</mgrwt>
</event>
<event>
 7    1  0.6419647E-006  0.2083289E+03  0.7546771E-02  0.1146931E+00
          1   -1    0    0  501    0  0.00000000000E+00  0.00000000000E+00  0.63104965785E+02  0.63104965785E+02  0.00000000000E+00 0. -1.
         -1   -1    0    0    0  501 -0.00000000000E+00 -0.00000000000E+00 -0.65457337349E+03  0.65457337349E+03  0.00000000000E+00 0.  1.
         23    2    1    2    0    0  0.64385293275E+02  0.15372453902E+03 -0.23442012083E+03  0.31361394002E+03  0.12499684172E+03 0.  0.
          5    1    3    3  502    0 -0.99951049261E+01  0.19576183871E+02 -0.12027297596E+03  0.12235525262E+03  0.47000000000E+01 0.  1.
         -5    1    3    3    0  502  0.74380398201E+02  0.13414835515E+03 -0.11414714487E+03  0.19125868740E+03  0.47000000000E+01 0.  1.
        -11    1    1    2    0    0 -0.51958013978E+02 -0.35603237120E+02 -0.18143578133E+03  0.19205772168E+03  0.00000000000E+00 0.  1.
         11    1    1    2    0    0 -0.12427279297E+02 -0.11812130190E+03 -0.17561250555E+03  0.21200667758E+03  0.00000000000E+00 0. -1.
<mgrwt>
<rscale>  0 0.20336398E+03</rscale>
<asrwt>0</asrwt>
<pdfrwt beam="1">  1        1 0.97084560E-02 0.20832885E+03</pdfrwt>
<pdfrwt beam="2">  1       -1 0.10070360E+00 0.20832885E+03</pdfrwt>
<totfact> 0.66144038E+02</totfact>
</mgrwt>
</event>
<event>
 6    1  0.6419647E-006  0.1620889E+03  0.7546771E-02  0.1204574E+00
         -2   -1    0    0    0  501 -0.00000000000E+00  0.00000000000E+00  0.74893780991E+02  0.74893780991E+02  0.00000000000E+00 0.  1.
          2   -1    0    0  501    0  0.00000000000E+00 -0.00000000000E+00 -0.98529945412E+03  0.98529945412E+03  0.00000000000E+00 0. -1.
          5    1    1    2  502    0  0.44936182523E+02  0.47241695182E+02 -0.93085795709E+03  0.93315039760E+03  0.47000000000E+01 0. -1.
         -5    1    1    2    0  502  0.12637621030E+02 -0.67147008768E+01 -0.39036952106E+01  0.15560382690E+02  0.47000000000E+01 0.  1.
        -11    1    1    2    0    0 -0.62998470845E+02 -0.53603123200E+02  0.38705727296E+02  0.91324889659E+02  0.00000000000E+00 0.  1.
         11    1    1    2    0    0  0.54246672923E+01  0.13076128895E+02 -0.14349748126E+02  0.20157565165E+02  0.00000000000E+00 0. -1.
<mgrwt>
<rscale>  0 0.14671059E+03</rscale>
<asrwt>0</asrwt>
<pdfrwt beam="2">  1        2 0.15158452E+00 0.16208886E+03</pdfrwt>
<pdfrwt beam="1">  1       -2 0.11522121E-01 0.16208886E+03</pdfrwt>
<totfact> 0.14158158E+03</totfact>
</mgrwt>
</event>
<event>
 7    1  0.6419647E-006  0.1435494E+03  0.7546771E-02  0.1218780E+00
          1   -1    0    0  501    0  0.00000000000E+00  0.00000000000E+00  0.87610270812E+03  0.87610270812E+03  0.00000000000E+00 0. -1.
         -1   -1    0    0    0  501 -0.00000000000E+00 -0.00000000000E+00 -0.20855525294E+02  0.20855525294E+02  0.00000000000E+00 0.  1.
         23    2    1    2    0    0  0.17992693016E+02  0.68231612081E+02  0.59609555718E+03  0.61313647301E+03  0.12500852515E+03 0.  0.
          5    1    3    3  502    0  0.69312366631E+02  0.59073356019E+02  0.38305666323E+03  0.39376180974E+03  0.47000000000E+01 0. -1.
         -5    1    3    3    0  502 -0.51319673616E+02  0.91582560619E+01  0.21303889394E+03  0.21937466327E+03  0.47000000000E+01 0. -1.
        -11    1    1    2    0    0  0.15780907656E+02 -0.47905308580E+02  0.50117983826E+02  0.71103923516E+02  0.00000000000E+00 0.  1.
         11    1    1    2    0    0 -0.33773600671E+02 -0.20326303501E+02  0.20903364183E+03  0.21271783689E+03  0.00000000000E+00 0. -1.
<mgrwt>
<rscale>  0 0.13602531E+03</rscale>
<asrwt>0</asrwt>
<pdfrwt beam="1">  1        1 0.13478500E+00 0.14354937E+03</pdfrwt>
<pdfrwt beam="2">  1       -1 0.32085430E-02 0.14354937E+03</pdfrwt>
<totfact> 0.66192958E+03</totfact>
</mgrwt>
</event>
<event>
 7    1  0.6419647E-006  0.1800153E+03  0.7546771E-02  0.1173271E+00
         -2   -1    0    0    0  501 -0.00000000000E+00  0.00000000000E+00  0.12399245255E+03  0.12399245255E+03  0.00000000000E+00 0.  1.
          2   -1    0    0  501    0  0.00000000000E+00 -0.00000000000E+00 -0.28395335780E+03  0.28395335780E+03  0.00000000000E+00 0. -1.
         23    2    1    2    0    0 -0.12934657489E+03 -0.70473650201E+01 -0.17160188614E+03  0.24870206969E+03  0.12500124139E+03 0.  0.
          5    1    3    3  502    0 -0.10341948136E+03 -0.53594310494E+02 -0.76022229770E+02  0.13917402294E+03  0.47000000000E+01 0.  1.
         -5    1    3    3    0  502 -0.25927093528E+02  0.46546945474E+02 -0.95579656371E+02  0.10952804674E+03  0.47000000000E+01 0.  1.
        -11    1    1    2    0    0  0.31355856057E+02  0.37600296067E+02 -0.18387773161E+02  0.52298013110E+02  0.00000000000E+00 0. -1.
         11    1    1    2    0    0  0.97990718832E+02 -0.30552931047E+02  0.30028754049E+02  0.10694572756E+03  0.00000000000E+00 0.  1.
<mgrwt>
<rscale>  0 0.17446439E+03</rscale>
<asrwt>0</asrwt>
<pdfrwt beam="2">  1        2 0.43685132E-01 0.18001531E+03</pdfrwt>
<pdfrwt beam="1">  1       -2 0.19075762E-01 0.18001531E+03</pdfrwt>
<totfact> 0.26001662E+03</totfact>
</mgrwt>
</event>
<event>
 7    1  0.6419647E-006  0.1262470E+03  0.7546771E-02  0.1248957E+00
          1   -1    0    0  501    0  0.00000000000E+00  0.00000000000E+00  0.19226247673E+03  0.19226247673E+03  0.00000000000E+00 0. -1.
         -1   -1    0    0    0  501 -0.00000000000E+00 -0.00000000000E+00 -0.65596905104E+02  0.65596905104E+02  0.00000000000E+00 0.  1.
         23    2    1    2    0    0  0.67851827368E+01 -0.16384461226E+02  0.10382799560E+03  0.16345809463E+03  0.12499522693E+03 0.  0.
          5    1    3    3  502    0 -0.52276156953E+02 -0.34378832626E+02  0.39347636290E+02  0.74060969479E+02  0.47000000000E+01 0. -1.
         -5    1    3    3    0  502  0.59061339690E+02  0.17994371400E+02  0.64480359314E+02  0.89397125151E+02  0.47000000000E+01 0. -1.
        -11    1    1    2    0    0  0.34240714283E+02 -0.11497488023E+02 -0.66039551095E+01  0.36718264782E+02  0.00000000000E+00 0.  1.
         11    1    1    2    0    0 -0.41025897020E+02  0.27881949250E+02  0.29441531132E+02  0.57683022421E+02  0.00000000000E+00 0. -1.
<mgrwt>
<rscale>  0 0.11651619E+03</rscale>
<asrwt>0</asrwt>
<pdfrwt beam="1">  1        1 0.29578842E-01 0.12624696E+03</pdfrwt>
<pdfrwt beam="2">  1       -1 0.10091832E-01 0.12624696E+03</pdfrwt>
<totfact> 0.87093754E+03</totfact>
</mgrwt>
</event>
<event>
 7    1  0.6419647E-006  0.1359162E+03  0.7546771E-02  0.1231199E+00
         -2   -1    0    0    0  501 -0.00000000000E+00  0.00000000000E+00  0.41018802344E+02  0.41018802344E+02  0.00000000000E+00 0.  1.
          2   -1    0    0  501    0  0.00000000000E+00 -0.00000000000E+00 -0.38967849166E+03  0.38967849166E+03  0.00000000000E+00 0. -1.
         23    2    1    2    0    0  0.28106690444E+02  0.45366521053E+02 -0.25863713154E+03  0.29217524533E+03  0.12500040357E+03 0.  0.
          5    1    3    3  502    0  0.32785412830E+02 -0.38140299399E+02 -0.76168946111E+02  0.91396740009E+02  0.47000000000E+01 0. -1.
         -5    1    3    3    0  502 -0.46787223856E+01  0.83506820452E+02 -0.18246818543E+03  0.20077850532E+03  0.47000000000E+01 0. -1.
        -11    1    1    2    0    0 -0.55161763887E+02 -0.35438201774E+01 -0.43127772209E+02  0.70109796693E+02  0.00000000000E+00 0.  1.
         11    1    1    2    0    0  0.27055073442E+02 -0.41822700875E+02 -0.46894785559E+02  0.68412251974E+02  0.00000000000E+00 0. -1.
<mgrwt>
<rscale>  0 0.12750931E+03</rscale>
<asrwt>0</asrwt>
<pdfrwt beam="2">  1        2 0.59950536E-01 0.13591618E+03</pdfrwt>
<pdfrwt beam="1">  1       -2 0.63105851E-02 0.13591618E+03</pdfrwt>
<totfact> 0.10662609E+04</totfact>
</mgrwt>
</event>
<event>
 7    1  0.6419647E-006  0.1440788E+03  0.7546771E-02  0.1218533E+00
         -2   -1    0    0    0  501 -0.00000000000E+00  0.00000000000E+00  0.10811303814E+03  0.10811303814E+03  0.00000000000E+00 0.  1.
          2   -1    0    0  501    0  0.00000000000E+00 -0.00000000000E+00 -0.15882547335E+03  0.15882547335E+03  0.00000000000E+00 0. -1.
         23    2    1    2    0    0 -0.58498321614E+02  0.41359432289E+02 -0.83289475059E+01  0.14431935139E+03  0.12500419013E+03 0.  0.
          5    1    3    3  502    0 -0.55137146661E+02  0.77821663873E+02 -0.31713701177E+02  0.10061891051E+03  0.47000000000E+01 0. -1.
         -5    1    3    3    0  502 -0.33611749528E+01 -0.36462231584E+02  0.23384753671E+02  0.43700440884E+02  0.47000000000E+01 0. -1.
        -11    1    1    2    0    0 -0.34569208242E+00 -0.12757829616E+02  0.25390346909E+02  0.28417449493E+02  0.00000000000E+00 0.  1.
         11    1    1    2    0    0  0.58844013697E+02 -0.28601602673E+02 -0.67773834610E+02  0.94201710606E+02  0.00000000000E+00 0. -1.
<mgrwt>
<rscale>  0 0.13620166E+03</rscale>
<asrwt>0</asrwt>
<pdfrwt beam="2">  1        2 0.24434688E-01 0.14407881E+03</pdfrwt>
<pdfrwt beam="1">  1       -2 0.16632775E-01 0.14407881E+03</pdfrwt>
<totfact> 0.60688812E+03</totfact>
</mgrwt>
</event>
<event>
 7    1  0.6419647E-006  0.1259576E+03  0.7546771E-02  0.1247546E+00
          1   -1    0    0  501    0  0.00000000000E+00  0.00000000000E+00  0.12584211512E+03  0.12584211512E+03  0.00000000000E+00 0. -1.
         -1   -1    0    0    0  501 -0.00000000000E+00 -0.00000000000E+00 -0.15028078447E+03  0.15028078447E+03  0.00000000000E+00 0.  1.
         23    2    1    2    0    0  0.10685004071E+02  0.11255235928E+02  0.68442752566E+02  0.14335177589E+03  0.12499788648E+03 0.  0.
          5    1    3    3  502    0  0.29790555582E+02 -0.41694014323E+02  0.69957657458E+02  0.86844872441E+02  0.47000000000E+01 0.  1.
         -5    1    3    3    0  502 -0.19105551511E+02  0.52949250251E+02 -0.15149048922E+01  0.56506903450E+02  0.47000000000E+01 0.  1.
        -11    1    1    2    0    0 -0.38849987238E+02  0.14329296149E+02 -0.84068874413E+02  0.93713530941E+02  0.00000000000E+00 0.  1.
         11    1    1    2    0    0  0.28164983168E+02 -0.25584532077E+02 -0.88125474986E+01  0.39057592755E+02  0.00000000000E+00 0. -1.
<mgrwt>
<rscale>  0 0.11734267E+03</rscale>
<asrwt>0</asrwt>
<pdfrwt beam="1">  1        1 0.19360325E-01 0.12595762E+03</pdfrwt>
<pdfrwt beam="2">  1       -1 0.23120121E-01 0.12595762E+03</pdfrwt>
<totfact> 0.40376150E+03</totfact>
</mgrwt>
</event>
<event>
 7    1  0.6419647E-006  0.1526571E+03  0.7546771E-02  0.1205422E+00
         -2   -1    0    0    0  501 -0.00000000000E+00  0.00000000000E+00  0.27444570627E+02  0.27444570627E+02  0.00000000000E+00 0. -1.
          2   -1    0    0  501    0  0.00000000000E+00 -0.00000000000E+00 -0.77770428085E+03  0.77770428085E+03  0.00000000000E+00 0.  1.
         23    2    1    2    0    0 -0.80472136162E+02  0.34661106537E+02 -0.51788468715E+03  0.53991547870E+03  0.12500807155E+03 0.  0.
          5    1    3    3  502    0 -0.92463558171E+02  0.40729439270E+02 -0.22504737787E+03  0.24673226198E+03  0.47000000000E+01 0. -1.
         -5    1    3    3    0  502  0.11991422009E+02 -0.60683327329E+01 -0.29283730928E+03  0.29318321673E+03  0.47000000000E+01 0. -1.
        -11    1    1    2    0    0  0.17437330365E+00 -0.40560408360E+02 -0.41294713508E+02  0.57882903314E+02  0.00000000000E+00 0. -1.
         11    1    1    2    0    0  0.80297762859E+02  0.58993018225E+01 -0.19108030957E+03  0.20735046946E+03  0.00000000000E+00 0.  1.
<mgrwt>
<rscale>  0 0.14604252E+03</rscale>
<asrwt>0</asrwt>
<pdfrwt beam="2">  1        2 0.11964682E+00 0.15265705E+03</pdfrwt>
<pdfrwt beam="1">  1       -2 0.42222414E-02 0.15265705E+03</pdfrwt>
<totfact> 0.90143525E+03</totfact>
</mgrwt>
</event>
<event>
 7    1  0.6419647E-006  0.1359452E+03  0.7546771E-02  0.1230744E+00
         -1   -1    0    0    0  501 -0.00000000000E+00  0.00000000000E+00  0.14520860307E+03  0.14520860307E+03  0.00000000000E+00 0.  1.
          1   -1    0    0  501    0  0.00000000000E+00 -0.00000000000E+00 -0.14356057875E+03  0.14356057875E+03  0.00000000000E+00 0. -1.
         23    2    1    2    0    0  0.36633629484E+02 -0.38914862481E+02 -0.77345569168E+02  0.15640792210E+03  0.12499884677E+03 0.  0.
          5    1    3    3  502    0  0.30346495721E+02 -0.91999845750E+01 -0.10820549746E+03  0.11285419443E+03  0.47000000000E+01 0.  1.
         -5    1    3    3    0  502  0.62871337631E+01 -0.29714877906E+02  0.30859928294E+02  0.43553727673E+02  0.47000000000E+01 0.  1.
        -11    1    1    2    0    0 -0.25052651113E+02  0.65757708060E+02  0.75020330851E+02  0.10285796779E+03  0.00000000000E+00 0.  1.
         11    1    1    2    0    0 -0.11580978371E+02 -0.26842845579E+02  0.39732626356E+01  0.29503291932E+02  0.00000000000E+00 0. -1.
<mgrwt>
<rscale>  0 0.12780835E+03</rscale>
<asrwt>0</asrwt>
<pdfrwt beam="2">  1        1 0.22086243E-01 0.13594521E+03</pdfrwt>
<pdfrwt beam="1">  1       -1 0.22339785E-01 0.13594521E+03</pdfrwt>
<totfact> 0.36285844E+03</totfact>
</mgrwt>
</event>
<event>
 7    1  0.6419647E-006  0.2494276E+03  0.7546771E-02  0.1116179E+00
          1   -1    0    0  501    0  0.00000000000E+00  0.00000000000E+00  0.28203537214E+03  0.28203537214E+03  0.00000000000E+00 0. -1.
         -1   -1    0    0    0  501 -0.00000000000E+00 -0.00000000000E+00 -0.22050937791E+03  0.22050937791E+03  0.00000000000E+00 0.  1.
         23    2    1    2    0    0  0.48952435175E+02  0.21018738727E+03  0.93274914554E+02  0.26629748296E+03  0.12505623162E+03 0.  0.
          5    1    3    3  502    0 -0.38950419288E+02  0.32657796919E+02  0.14588779233E+02  0.53090388413E+02  0.47000000000E+01 0. -1.
         -5    1    3    3    0  502  0.87902854463E+02  0.17752959035E+03  0.78686135321E+02  0.21320709455E+03  0.47000000000E+01 0. -1.
        -11    1    1    2    0    0  0.17642877656E+01 -0.10088858129E+03 -0.52872718308E+02  0.11391726334E+03  0.00000000000E+00 0.  1.
         11    1    1    2    0    0 -0.50716722940E+02 -0.10929880598E+03  0.21123797987E+02  0.12233000374E+03  0.00000000000E+00 0. -1.
<mgrwt>
<rscale>  0 0.24550521E+03</rscale>
<asrwt>0</asrwt>
<pdfrwt beam="1">  1        1 0.43390057E-01 0.24942762E+03</pdfrwt>
<pdfrwt beam="2">  1       -1 0.33924520E-01 0.24942762E+03</pdfrwt>
<totfact> 0.78452354E+02</totfact>
</mgrwt>
</event>
<event>
 7    1  0.6419647E-006  0.1622439E+03  0.7546771E-02  0.1193242E+00
         -2   -1    0    0    0  501 -0.00000000000E+00  0.00000000000E+00  0.94665531982E+02  0.94665531982E+02  0.00000000000E+00 0.  1.
          2   -1    0    0  501    0  0.00000000000E+00 -0.00000000000E+00 -0.25027060540E+03  0.25027060540E+03  0.00000000000E+00 0. -1.
         23    2    1    2    0    0 -0.22460229619E+02  0.10094559282E+03 -0.11950484930E+03  0.20150553687E+03  0.12501439021E+03 0.  0.
          5    1    3    3  502    0 -0.62303595460E+02  0.11555892893E+02 -0.37837595277E+02  0.73953027552E+02  0.47000000000E+01 0. -1.
         -5    1    3    3    0  502  0.39843365841E+02  0.89389699924E+02 -0.81667254021E+02  0.12755250932E+03  0.47000000000E+01 0. -1.
        -11    1    1    2    0    0 -0.32111647832E+02 -0.14707251589E+02 -0.43064056765E+00  0.35322041661E+02  0.00000000000E+00 0.  1.
         11    1    1    2    0    0  0.54571877452E+02 -0.86238341228E+02 -0.35669583555E+02  0.10810855885E+03  0.00000000000E+00 0. -1.
<mgrwt>
<rscale>  0 0.15603928E+03</rscale>
<asrwt>0</asrwt>
<pdfrwt beam="2">  1        2 0.38503170E-01 0.16224387E+03</pdfrwt>
<pdfrwt beam="1">  1       -2 0.14563928E-01 0.16224387E+03</pdfrwt>
<totfact> 0.46398870E+03</totfact>
</mgrwt>
</event>
<event>
 7    1  0.6419647E-006  0.1919907E+03  0.7546771E-02  0.1160246E+00
         -1   -1    0    0    0  501 -0.00000000000E+00  0.00000000000E+00  0.42609833796E+02  0.42609833796E+02  0.00000000000E+00 0.  1.
          1   -1    0    0  501    0  0.00000000000E+00 -0.00000000000E+00 -0.82657526526E+03  0.82657526526E+03  0.00000000000E+00 0. -1.
         23    2    1    2    0    0 -0.46873226887E+02  0.13798748727E+03 -0.48940930323E+03  0.52572034327E+03  0.12499106844E+03 0.  0.
          5    1    3    3  502    0 -0.78058825812E+02  0.13512166901E+03 -0.44150925767E+03  0.46829858032E+03  0.47000000000E+01 0. -1.
         -5    1    3    3    0  502  0.31185598925E+02  0.28658182662E+01 -0.47900045562E+02  0.57421762943E+02  0.47000000000E+01 0. -1.
        -11    1    1    2    0    0  0.34779667370E+02 -0.27763448638E+02 -0.17428830439E+03  0.17988009169E+03  0.00000000000E+00 0. -1.
         11    1    1    2    0    0  0.12093559517E+02 -0.11022403864E+03 -0.12026782385E+03  0.16358466410E+03  0.00000000000E+00 0.  1.
<mgrwt>
<rscale>  0 0.18803454E+03</rscale>
<asrwt>0</asrwt>
<pdfrwt beam="2">  1        1 0.12716542E+00 0.19199066E+03</pdfrwt>
<pdfrwt beam="1">  1       -1 0.65553591E-02 0.19199066E+03</pdfrwt>
<totfact> 0.25376593E+03</totfact>
</mgrwt>
</event>
<event>
 7    1  0.6419647E-006  0.1414612E+03  0.7546771E-02  0.1223070E+00
         -3   -1    0    0    0  501 -0.00000000000E+00  0.00000000000E+00  0.12740828980E+03  0.12740828980E+03  0.00000000000E+00 0.  1.
          3   -1    0    0  501    0  0.00000000000E+00 -0.00000000000E+00 -0.12989266010E+03  0.12989266010E+03  0.00000000000E+00 0. -1.
         23    2    1    2    0    0 -0.64887985473E+02 -0.13243667160E+02 -0.27158856103E+02  0.14404471972E+03  0.12500172973E+03 0.  0.
          5    1    3    3  502    0 -0.42251202127E+02 -0.68954295345E+02 -0.18709457280E+02  0.83138394977E+02  0.47000000000E+01 0.  1.
         -5    1    3    3    0  502 -0.22636783347E+02  0.55710628185E+02 -0.84493988231E+01  0.60906324742E+02  0.47000000000E+01 0.  1.
        -11    1    1    2    0    0  0.28473035029E+02  0.15074589657E+02 -0.32295584207E+02  0.45617559517E+02  0.00000000000E+00 0. -1.
         11    1    1    2    0    0  0.36414950445E+02 -0.18309224973E+01  0.56970070008E+02  0.67638670668E+02  0.00000000000E+00 0.  1.
<mgrwt>
<rscale>  0 0.13300063E+03</rscale>
<asrwt>0</asrwt>
<pdfrwt beam="2">  1        3 0.19983486E-01 0.14146122E+03</pdfrwt>
<pdfrwt beam="1">  1       -3 0.19601275E-01 0.14146122E+03</pdfrwt>
<totfact> 0.12113234E+03</totfact>
</mgrwt>
</event>
<event>
 6    1  0.6419647E-006  0.1983158E+03  0.7546771E-02  0.1177206E+00
          2   -1    0    0  501    0  0.00000000000E+00  0.00000000000E+00  0.19905828673E+03  0.19905828673E+03  0.00000000000E+00 0. -1.
         -2   -1    0    0    0  501 -0.00000000000E+00 -0.00000000000E+00 -0.11856628083E+03  0.11856628083E+03  0.00000000000E+00 0.  1.
          5    1    1    2  502    0  0.29261465327E-02 -0.51879785057E+02  0.90364819647E+02  0.10430437544E+03  0.47000000000E+01 0. -1.
         -5    1    1    2    0  502  0.49277102866E+02  0.83936365384E+02 -0.31757883724E+02  0.10248999697E+03  0.47000000000E+01 0.  1.
        -11    1    1    2    0    0 -0.13626645797E+02 -0.61097548165E+02  0.10719232364E+02  0.63509824515E+02  0.00000000000E+00 0.  1.
         11    1    1    2    0    0 -0.35653383215E+02  0.29040967838E+02  0.11165837612E+02  0.47320370637E+02  0.00000000000E+00 0. -1.
<mgrwt>
<rscale>  0 0.17061739E+03</rscale>
<asrwt>0</asrwt>
<pdfrwt beam="1">  1        2 0.30624352E-01 0.19831576E+03</pdfrwt>
<pdfrwt beam="2">  1       -2 0.18240966E-01 0.19831576E+03</pdfrwt>
<totfact> 0.41325999E+03</totfact>
</mgrwt>
</event>
<event>
 6    1  0.6419647E-006  0.1545963E+03  0.7546771E-02  0.1209593E+00
         -2   -1    0    0    0  501 -0.00000000000E+00  0.00000000000E+00  0.11005101447E+02  0.11005101447E+02  0.00000000000E+00 0.  1.
          2   -1    0    0  501    0  0.00000000000E+00 -0.00000000000E+00 -0.20831311537E+04  0.20831311537E+04  0.00000000000E+00 0. -1.
          5    1    1    2  502    0  0.10492617456E+03 -0.40826012960E+02 -0.11250003349E+04  0.11306299611E+04  0.47000000000E+01 0. -1.
         -5    1    1    2    0  502 -0.32228753870E+02  0.24844635516E+02 -0.52595344555E+03  0.52754626847E+03  0.47000000000E+01 0.  1.
        -11    1    1    2    0    0  0.54746927464E+01 -0.23658445687E+02 -0.11211017534E+03  0.11471000709E+03  0.00000000000E+00 0. -1.
         11    1    1    2    0    0 -0.78172113431E+02  0.39639823131E+02 -0.30906209644E+03  0.32125001845E+03  0.00000000000E+00 0.  1.
<mgrwt>
<rscale>  0 0.14281313E+03</rscale>
<asrwt>0</asrwt>
<pdfrwt beam="2">  1        2 0.32048158E+00 0.15459632E+03</pdfrwt>
<pdfrwt beam="1">  1       -2 0.16930933E-02 0.15459632E+03</pdfrwt>
<totfact> 0.65870803E+03</totfact>
</mgrwt>
</event>
<event>
 7    1  0.1317143E-005  0.2659298E+03  0.7546771E-02  0.1105764E+00
         -4   -1    0    0    0  501 -0.00000000000E+00  0.00000000000E+00  0.22157630367E+03  0.22157630367E+03  0.00000000000E+00 0. -1.
          4   -1    0    0  501    0  0.00000000000E+00 -0.00000000000E+00 -0.30377159683E+03  0.30377159683E+03  0.00000000000E+00 0.  1.
         23    2    1    2    0    0  0.20224553172E+03  0.11912333513E+03 -0.60133890952E+02  0.27264398621E+03  0.12500013721E+03 0.  0.
          5    1    3    3  502    0  0.21521679277E+03  0.90082376533E+02 -0.47760704411E+02  0.23819378107E+03  0.47000000000E+01 0.  1.
         -5    1    3    3    0  502 -0.12971261050E+02  0.29040958599E+02 -0.12373186542E+02  0.34450205148E+02  0.47000000000E+01 0.  1.
        -11    1    1    2    0    0 -0.92670617630E+02 -0.94318199404E+02  0.17961140883E+02  0.13344050619E+03  0.00000000000E+00 0. -1.
         11    1    1    2    0    0 -0.10957491409E+03 -0.24805135728E+02 -0.40022543088E+02  0.11926340810E+03  0.00000000000E+00 0.  1.
<mgrwt>
<rscale>  0 0.26230883E+03</rscale>
<asrwt>0</asrwt>
<pdfrwt beam="2">  1        4 0.46734092E-01 0.26592980E+03</pdfrwt>
<pdfrwt beam="1">  1       -4 0.34088662E-01 0.26592980E+03</pdfrwt>
<totfact> 0.68065861E+01</totfact>
</mgrwt>
</event>
<event>
 7    1  0.6419647E-006  0.3185662E+03  0.7546771E-02  0.1076311E+00
         -2   -1    0    0    0  501 -0.00000000000E+00  0.00000000000E+00  0.56563684413E+02  0.56563684413E+02  0.00000000000E+00 0.  1.
          2   -1    0    0  501    0  0.00000000000E+00 -0.00000000000E+00 -0.44854060327E+03  0.44854060327E+03  0.00000000000E+00 0. -1.
         23    2    1    2    0    0  0.12025632107E+02  0.15334053641E+02 -0.31378366082E+03  0.33831337695E+03  0.12496401962E+03 0.  0.
          5    1    3    3  502    0 -0.54653916414E+02  0.12722895770E+02 -0.18216420905E+03  0.19066937802E+03  0.47000000000E+01 0.  1.
         -5    1    3    3    0  502  0.66679548521E+02  0.26111578715E+01 -0.13161945177E+03  0.14764399893E+03  0.47000000000E+01 0.  1.
        -11    1    1    2    0    0  0.11510996686E+02 -0.76479431771E+02 -0.62452026406E+02  0.99407555704E+02  0.00000000000E+00 0. -1.
         11    1    1    2    0    0 -0.23536628794E+02  0.61145378130E+02 -0.15741231633E+02  0.67383355029E+02  0.00000000000E+00 0.  1.
<mgrwt>
<rscale>  0 0.31856622E+03</rscale>
<asrwt>0</asrwt>
<pdfrwt beam="2">  1        2 0.69006246E-01 0.31856622E+03</pdfrwt>
<pdfrwt beam="1">  1       -2 0.87021054E-02 0.31856622E+03</pdfrwt>
<totfact> 0.58263639E+03</totfact>
</mgrwt>
</event>
<event>
 6    1  0.6419647E-006  0.1867757E+03  0.7546771E-02  0.1188848E+00
         -2   -1    0    0    0  501 -0.00000000000E+00  0.00000000000E+00  0.72926594982E+02  0.72926594982E+02  0.00000000000E+00 0.  1.
          2   -1    0    0  501    0  0.00000000000E+00 -0.00000000000E+00 -0.29232075942E+03  0.29232075942E+03  0.00000000000E+00 0. -1.
          5    1    1    2  502    0 -0.10470579290E+02 -0.80196469789E+02 -0.19381242089E+03  0.21006296982E+03  0.47000000000E+01 0. -1.
         -5    1    1    2    0  502  0.10460662238E+01  0.40044434844E+02  0.20050346639E+02  0.45041729728E+02  0.47000000000E+01 0.  1.
        -11    1    1    2    0    0 -0.40591327267E+02  0.22818001399E+02 -0.14686125392E+02  0.48826215460E+02  0.00000000000E+00 0. -1.
         11    1    1    2    0    0  0.50015840333E+02  0.17334033545E+02 -0.30945964794E+02  0.61316439396E+02  0.00000000000E+00 0.  1.
<mgrwt>
<rscale>  0 0.15986604E+03</rscale>
<asrwt>0</asrwt>
<pdfrwt beam="2">  1        2 0.44972426E-01 0.18677567E+03</pdfrwt>
<pdfrwt beam="1">  1       -2 0.11219476E-01 0.18677567E+03</pdfrwt>
<totfact> 0.60368471E+03</totfact>
</mgrwt>
</event>
<event>
 7    1  0.6419647E-006  0.1258193E+03  0.7546771E-02  0.1248763E+00
          2   -1    0    0  501    0  0.00000000000E+00  0.00000000000E+00  0.30150382139E+03  0.30150382139E+03  0.00000000000E+00 0.  1.
         -2   -1    0    0    0  501 -0.00000000000E+00 -0.00000000000E+00 -0.39703352519E+02  0.39703352519E+02  0.00000000000E+00 0. -1.
         23    2    1    2    0    0  0.33259564531E+01 -0.13934300574E+02  0.15585697490E+03  0.20030452539E+03  0.12500111819E+03 0.  0.
          5    1    3    3  502    0 -0.24019392025E+02  0.22186957969E+02 -0.47404845006E+01  0.33372960469E+02  0.47000000000E+01 0. -1.
         -5    1    3    3    0  502  0.27345348478E+02 -0.36121258543E+02  0.16059745940E+03  0.16693156492E+03  0.47000000000E+01 0. -1.
        -11    1    1    2    0    0  0.97328481095E+01 -0.36915581270E+02  0.29878368348E+02  0.48478916736E+02  0.00000000000E+00 0.  1.
         11    1    1    2    0    0 -0.13058804563E+02  0.50849881843E+02  0.76065125626E+02  0.92423731782E+02  0.00000000000E+00 0. -1.
<mgrwt>
<rscale>  0 0.11662965E+03</rscale>
<asrwt>0</asrwt>
<pdfrwt beam="1">  1        2 0.46385202E-01 0.12581934E+03</pdfrwt>
<pdfrwt beam="2">  1       -2 0.61082083E-02 0.12581934E+03</pdfrwt>
<totfact> 0.14616260E+04</totfact>
</mgrwt>
</event>
<event>
 7    1  0.6419647E-006  0.2024982E+03  0.7546771E-02  0.1151766E+00
         -1   -1    0    0    0  501 -0.00000000000E+00  0.00000000000E+00  0.43015305897E+02  0.43015305897E+02  0.00000000000E+00 0. -1.
          1   -1    0    0  501    0  0.00000000000E+00 -0.00000000000E+00 -0.13188406121E+04  0.13188406121E+04  0.00000000000E+00 0.  1.
         23    2    1    2    0    0  0.15587416897E+03 -0.32908291246E+02 -0.10567548174E+04  0.10759815278E+04  0.12500316764E+03 0.  0.
          5    1    3    3  502    0  0.10207662152E+03  0.10575942576E+02 -0.32264951294E+03  0.33860934042E+03  0.47000000000E+01 0.  1.
         -5    1    3    3    0  502  0.53797547453E+02 -0.43484233822E+02 -0.73410530448E+03  0.73737218741E+03  0.47000000000E+01 0.  1.
        -11    1    1    2    0    0 -0.31763951801E+02 -0.27078032180E+02 -0.79014064026E+02  0.89361013729E+02  0.00000000000E+00 0.  1.
         11    1    1    2    0    0 -0.12411021717E+03  0.59986323426E+02 -0.14005642479E+03  0.19651337646E+03  0.00000000000E+00 0. -1.
<mgrwt>
<rscale>  0 0.19761574E+03</rscale>
<asrwt>0</asrwt>
<pdfrwt beam="2">  1        1 0.20289855E+00 0.20249816E+03</pdfrwt>
<pdfrwt beam="1">  1       -1 0.66177395E-02 0.20249816E+03</pdfrwt>
<totfact> 0.10951904E+03</totfact>
</mgrwt>
</event>
<event>
 7    1  0.6419647E-006  0.1913090E+03  0.7546771E-02  0.1162269E+00
         -2   -1    0    0    0  501 -0.00000000000E+00  0.00000000000E+00  0.17721451437E+03  0.17721451437E+03  0.00000000000E+00 0.  1.
          2   -1    0    0  501    0  0.00000000000E+00 -0.00000000000E+00 -0.22234045586E+03  0.22234045586E+03  0.00000000000E+00 0. -1.
         23    2    1    2    0    0 -0.14157077413E+03  0.30504100547E+02 -0.10593150784E+03  0.21867929827E+03  0.12500546748E+03 0.  0.
          5    1    3    3  502    0 -0.13785136671E+02 -0.31818581741E+02 -0.59526689389E+02  0.69050480713E+02  0.47000000000E+01 0.  1.
         -5    1    3    3    0  502 -0.12778563745E+03  0.62322682288E+02 -0.46404818448E+02  0.14962881755E+03  0.47000000000E+01 0.  1.
        -11    1    1    2    0    0  0.28161971672E+02 -0.28787098701E+02 -0.16599404429E+02  0.43558396751E+02  0.00000000000E+00 0.  1.
         11    1    1    2    0    0  0.11340880245E+03 -0.17170018463E+01  0.77404970785E+02  0.13731727521E+03  0.00000000000E+00 0. -1.
<mgrwt>
<rscale>  0 0.18583879E+03</rscale>
<asrwt>0</asrwt>
<pdfrwt beam="2">  1        2 0.34206224E-01 0.19130905E+03</pdfrwt>
<pdfrwt beam="1">  1       -2 0.27263771E-01 0.19130905E+03</pdfrwt>
<totfact> 0.18238472E+03</totfact>
</mgrwt>
</event>
<event>
 7    1  0.6419647E-006  0.1250635E+03  0.7546771E-02  0.1250745E+00
         -2   -1    0    0    0  501 -0.00000000000E+00  0.00000000000E+00  0.10106876479E+02  0.10106876479E+02  0.00000000000E+00 0.  1.
          2   -1    0    0  501    0  0.00000000000E+00 -0.00000000000E+00 -0.14956166235E+04  0.14956166235E+04  0.00000000000E+00 0. -1.
         23    2    1    2    0    0 -0.34865605977E+01 -0.15548381736E+01 -0.11897534538E+04  0.11963085541E+04  0.12500520777E+03 0.  0.
          5    1    3    3  502    0  0.17031634866E+02  0.58656101712E+02 -0.59351171335E+03  0.59666477920E+03  0.47000000000E+01 0. -1.
         -5    1    3    3    0  502 -0.20518195464E+02 -0.60210939885E+02 -0.59624174048E+03  0.59964377485E+03  0.47000000000E+01 0. -1.
        -11    1    1    2    0    0 -0.43415706517E+02  0.48861876492E+00 -0.12473829870E+03  0.13207878514E+03  0.00000000000E+00 0. -1.
         11    1    1    2    0    0  0.46902267115E+02  0.10662194087E+01 -0.17101799448E+03  0.17733616078E+03  0.00000000000E+00 0.  1.
<mgrwt>
<rscale>  0 0.11548050E+03</rscale>
<asrwt>0</asrwt>
<pdfrwt beam="2">  1        2 0.23009493E+00 0.12506349E+03</pdfrwt>
<pdfrwt beam="1">  1       -2 0.15549036E-02 0.12506349E+03</pdfrwt>
<totfact> 0.14811286E+04</totfact>
</mgrwt>
</event>
<event>
 6    1  0.6419647E-006  0.2398296E+03  0.7546771E-02  0.1123438E+00
          1   -1    0    0  501    0  0.00000000000E+00  0.00000000000E+00  0.10897962298E+03  0.10897962298E+03  0.00000000000E+00 0. -1.
         -1   -1    0    0    0  501 -0.00000000000E+00 -0.00000000000E+00 -0.50490759602E+03  0.50490759602E+03  0.00000000000E+00 0.  1.
          5    1    1    2  502    0 -0.81710512286E+02 -0.65662804395E+02 -0.29264069130E+02  0.10893432628E+03  0.47000000000E+01 0. -1.
         -5    1    1    2    0  502  0.21132763009E+02 -0.12460488002E+03 -0.11501603418E+03  0.17094954787E+03  0.47000000000E+01 0.  1.
        -11    1    1    2    0    0  0.68898748474E+02  0.12184385499E+03 -0.11578829278E+03  0.18165872202E+03  0.00000000000E+00 0.  1.
         11    1    1    2    0    0 -0.83209991977E+01  0.68423829424E+02 -0.13585957694E+03  0.15234462283E+03  0.00000000000E+00 0. -1.
<mgrwt>
<rscale>  0 0.23460838E+03</rscale>
<asrwt>0</asrwt>
<pdfrwt beam="1">  1        1 0.16766096E-01 0.23982960E+03</pdfrwt>
<pdfrwt beam="2">  1       -1 0.77678091E-01 0.23982960E+03</pdfrwt>
<totfact> 0.55882512E+02</totfact>
</mgrwt>
</event>
<event>
 7    1  0.6419647E-006  0.3878406E+03  0.7546771E-02  0.1048935E+00
          2   -1    0    0  501    0  0.00000000000E+00  0.00000000000E+00  0.40062808978E+04  0.40062808978E+04  0.00000000000E+00 0. -1.
         -2   -1    0    0    0  501 -0.00000000000E+00 -0.00000000000E+00 -0.38094503863E+02  0.38094503863E+02  0.00000000000E+00 0.  1.
         23    2    1    2    0    0 -0.53093094732E+02  0.36328742954E+03  0.24030361910E+04  0.24341329554E+04  0.12499470569E+03 0.  0.
          5    1    3    3  502    0 -0.94019942192E+02  0.25213492701E+03  0.17004850867E+04  0.17216513558E+04  0.47000000000E+01 0. -1.
         -5    1    3    3    0  502  0.40926847460E+02  0.11115250253E+03  0.70255110432E+03  0.71248159965E+03  0.47000000000E+01 0. -1.
        -11    1    1    2    0    0  0.19557488264E+02 -0.26603786106E+03  0.95829098280E+03  0.99472621690E+03  0.00000000000E+00 0.  1.
         11    1    1    2    0    0  0.33535606468E+02 -0.97249568481E+02  0.60685922017E+03  0.61551622934E+03  0.00000000000E+00 0. -1.
<mgrwt>
<rscale>  0 0.38545824E+03</rscale>
<asrwt>0</asrwt>
<pdfrwt beam="1">  1        2 0.61635057E+00 0.38784057E+03</pdfrwt>
<pdfrwt beam="2">  1       -2 0.58606961E-02 0.38784057E+03</pdfrwt>
<totfact> 0.65019393E+01</totfact>
</mgrwt>
</event>
<event>
 7    1  0.6419647E-006  0.1484978E+03  0.7546771E-02  0.1211450E+00
         -2   -1    0    0    0  501 -0.00000000000E+00  0.00000000000E+00  0.38794130104E+02  0.38794130104E+02  0.00000000000E+00 0.  1.
          2   -1    0    0  501    0  0.00000000000E+00 -0.00000000000E+00 -0.65220644177E+03  0.65220644177E+03  0.00000000000E+00 0. -1.
         23    2    1    2    0    0  0.76002626915E+02 -0.25597273765E+02 -0.50941032770E+03  0.53061330011E+03  0.12497988863E+03 0.  0.
          5    1    3    3  502    0  0.34408985992E+02 -0.66589072977E+02 -0.16542555032E+03  0.18167494504E+03  0.47000000000E+01 0. -1.
         -5    1    3    3    0  502  0.41593640923E+02  0.40991799212E+02 -0.34398477738E+03  0.34893835507E+03  0.47000000000E+01 0. -1.
        -11    1    1    2    0    0 -0.28774566619E+02  0.31889004787E+02  0.32031510032E+01  0.43071388261E+02  0.00000000000E+00 0.  1.
         11    1    1    2    0    0 -0.47228060296E+02 -0.62917310220E+01 -0.10720513497E+03  0.11731588350E+03  0.00000000000E+00 0. -1.
<mgrwt>
<rscale>  0 0.14140546E+03</rscale>
<asrwt>0</asrwt>
<pdfrwt beam="2">  1        2 0.10033945E+00 0.14849779E+03</pdfrwt>
<pdfrwt beam="1">  1       -2 0.59683281E-02 0.14849779E+03</pdfrwt>
<totfact> 0.66011399E+03</totfact>
</mgrwt>
</event>
<event>
 7    1  0.6419647E-006  0.1605541E+03  0.7546771E-02  0.1195876E+00
          3   -1    0    0  501    0  0.00000000000E+00  0.00000000000E+00  0.38728117881E+02  0.38728117881E+02  0.00000000000E+00 0. -1.
         -3   -1    0    0    0  501 -0.00000000000E+00 -0.00000000000E+00 -0.57215859013E+03  0.57215859013E+03  0.00000000000E+00 0.  1.
         23    2    1    2    0    0  0.97947881847E+02 -0.23621656915E+02 -0.25444349459E+03  0.30086395820E+03  0.12500343663E+03 0.  0.
          5    1    3    3  502    0  0.12086998247E+03 -0.42307105652E+02 -0.18307506718E+03  0.22346815003E+03  0.47000000000E+01 0.  1.
         -5    1    3    3    0  502 -0.22922100627E+02  0.18685448737E+02 -0.71368427410E+02  0.77395808172E+02  0.47000000000E+01 0.  1.
        -11    1    1    2    0    0 -0.53870853493E+02  0.19086309162E+02 -0.47444819889E+02  0.74278980794E+02  0.00000000000E+00 0.  1.
         11    1    1    2    0    0 -0.44077028354E+02  0.45353477524E+01 -0.23154215776E+03  0.23574376902E+03  0.00000000000E+00 0. -1.
<mgrwt>
<rscale>  0 0.15380280E+03</rscale>
<asrwt>0</asrwt>
<pdfrwt beam="1">  1        3 0.59581724E-02 0.16055413E+03</pdfrwt>
<pdfrwt beam="2">  1       -3 0.88024393E-01 0.16055413E+03</pdfrwt>
<totfact> 0.49363494E+02</totfact>
</mgrwt>
</event>
<event>
 7    1  0.6419647E-006  0.1303771E+03  0.7546771E-02  0.1240227E+00
          1   -1    0    0  501    0  0.00000000000E+00  0.00000000000E+00  0.33843008921E+03  0.33843008921E+03  0.00000000000E+00 0. -1.
         -1   -1    0    0    0  501 -0.00000000000E+00 -0.00000000000E+00 -0.44535528778E+02  0.44535528778E+02  0.00000000000E+00 0.  1.
         23    2    1    2    0    0  0.23569858306E+02 -0.28485182058E+02  0.23183380573E+03  0.26597948962E+03  0.12502492393E+03 0.  0.
          5    1    3    3  502    0  0.42286101733E+02  0.34515740674E+02  0.56623579854E+02  0.78789406328E+02  0.47000000000E+01 0. -1.
         -5    1    3    3    0  502 -0.18716243427E+02 -0.63000922731E+02  0.17521022588E+03  0.18719008330E+03  0.47000000000E+01 0. -1.
        -11    1    1    2    0    0 -0.11779072020E+02  0.46117950224E+02  0.77361494736E+02  0.90831782644E+02  0.00000000000E+00 0. -1.
         11    1    1    2    0    0 -0.11790786286E+02 -0.17632768166E+02 -0.15300740034E+02  0.26154345720E+02  0.00000000000E+00 0.  1.
<mgrwt>
<rscale>  0 0.12175683E+03</rscale>
<asrwt>0</asrwt>
<pdfrwt beam="1">  1        1 0.52066166E-01 0.13037705E+03</pdfrwt>
<pdfrwt beam="2">  1       -1 0.68516200E-02 0.13037705E+03</pdfrwt>
<totfact> 0.77841827E+03</totfact>
</mgrwt>
</event>
<event>
 7    1  0.6419647E-006  0.1270680E+03  0.7546771E-02  0.1247171E+00
         -3   -1    0    0    0  501 -0.00000000000E+00  0.00000000000E+00  0.18757350059E+03  0.18757350059E+03  0.00000000000E+00 0.  1.
          3   -1    0    0  501    0  0.00000000000E+00 -0.00000000000E+00 -0.79865158406E+02  0.79865158406E+02  0.00000000000E+00 0. -1.
         23    2    1    2    0    0 -0.22850975724E+02 -0.11588656265E+00  0.26997846293E+01  0.12709669877E+03  0.12499640587E+03 0.  0.
          5    1    3    3  502    0 -0.28090913116E+02  0.12349500088E+02  0.60258302588E+02  0.67784678084E+02  0.47000000000E+01 0.  1.
         -5    1    3    3    0  502  0.52399373920E+01 -0.12465386651E+02 -0.57558517959E+02  0.59312020686E+02  0.47000000000E+01 0.  1.
        -11    1    1    2    0    0  0.20454476646E+02  0.26392438770E+02  0.13932428455E+01  0.33419867814E+02  0.00000000000E+00 0. -1.
         11    1    1    2    0    0  0.23964990780E+01 -0.26276552207E+02  0.10361531471E+03  0.10692209242E+03  0.00000000000E+00 0.  1.
<mgrwt>
<rscale>  0 0.11756384E+03</rscale>
<asrwt>0</asrwt>
<pdfrwt beam="2">  1        3 0.12286948E-01 0.12706802E+03</pdfrwt>
<pdfrwt beam="1">  1       -3 0.28857461E-01 0.12706802E+03</pdfrwt>
<totfact> 0.13700588E+03</totfact>
</mgrwt>
</event>
<event>
 7    1  0.6419647E-006  0.1482991E+03  0.7546771E-02  0.1212037E+00
          2   -1    0    0  501    0  0.00000000000E+00  0.00000000000E+00  0.85788008799E+02  0.85788008799E+02  0.00000000000E+00 0. -1.
         -2   -1    0    0    0  501 -0.00000000000E+00 -0.00000000000E+00 -0.21217878066E+03  0.21217878066E+03  0.00000000000E+00 0.  1.
         23    2    1    2    0    0  0.57776447066E+02 -0.54991448192E+02 -0.78275107452E+02  0.16768901630E+03  0.12502174424E+03 0.  0.
          5    1    3    3  502    0  0.18340436457E+02 -0.91268244750E+02 -0.60122495596E+02  0.11091919846E+03  0.47000000000E+01 0. -1.
         -5    1    3    3    0  502  0.39436010609E+02  0.36276796558E+02 -0.18152611856E+02  0.56769817848E+02  0.47000000000E+01 0. -1.
        -11    1    1    2    0    0 -0.80925247944E+02  0.31620269383E+02 -0.43155291554E+02  0.97010908560E+02  0.00000000000E+00 0. -1.
         11    1    1    2    0    0  0.23148800878E+02  0.23371178809E+02 -0.49603728535E+01  0.33266864593E+02  0.00000000000E+00 0.  1.
<mgrwt>
<rscale>  0 0.14096462E+03</rscale>
<asrwt>0</asrwt>
<pdfrwt beam="1">  1        2 0.13198155E-01 0.14829907E+03</pdfrwt>
<pdfrwt beam="2">  1       -2 0.32642889E-01 0.14829907E+03</pdfrwt>
<totfact> 0.38297015E+03</totfact>
</mgrwt>
</event>
<event>
 7    1  0.6419647E-006  0.1284845E+03  0.7546771E-02  0.1244009E+00
          1   -1    0    0  501    0  0.00000000000E+00  0.00000000000E+00  0.64440243194E+03  0.64440243194E+03  0.00000000000E+00 0. -1.
         -1   -1    0    0    0  501 -0.00000000000E+00 -0.00000000000E+00 -0.21082472462E+02  0.21082472462E+02  0.00000000000E+00 0.  1.
         23    2    1    2    0    0  0.29724340377E+02 -0.14776947907E+01  0.44243600246E+03  0.46071452451E+03  0.12499014693E+03 0.  0.
          5    1    3    3  502    0 -0.17470773156E+02  0.41011692679E+02  0.31584831919E+03  0.31901322478E+03  0.47000000000E+01 0. -1.
         -5    1    3    3    0  502  0.47195113533E+02 -0.42489387470E+02  0.12658768327E+03  0.14170129973E+03  0.47000000000E+01 0. -1.
        -11    1    1    2    0    0 -0.16216530112E+02 -0.42472374355E+02  0.58873287475E+02  0.74383750983E+02  0.00000000000E+00 0.  1.
         11    1    1    2    0    0 -0.13507810265E+02  0.43950069146E+02  0.12201066954E+03  0.13038662891E+03  0.00000000000E+00 0. -1.
<mgrwt>
<rscale>  0 0.11944875E+03</rscale>
<asrwt>0</asrwt>
<pdfrwt beam="1">  1        1 0.99138821E-01 0.12848446E+03</pdfrwt>
<pdfrwt beam="2">  1       -1 0.32434578E-02 0.12848446E+03</pdfrwt>
<totfact> 0.10175047E+04</totfact>
</mgrwt>
</event>
<event>
 7    1  0.6419647E-006  0.1394697E+03  0.7546771E-02  0.1225001E+00
          1   -1    0    0  501    0  0.00000000000E+00  0.00000000000E+00  0.37848360282E+03  0.37848360282E+03  0.00000000000E+00 0. -1.
         -1   -1    0    0    0  501 -0.00000000000E+00 -0.00000000000E+00 -0.76186299776E+02  0.76186299776E+02  0.00000000000E+00 0.  1.
         23    2    1    2    0    0  0.56513033259E+02 -0.12092709960E+02  0.31369219272E+03  0.34329956498E+03  0.12693243470E+03 0.  0.
          5    1    3    3  502    0  0.56423400736E+02  0.44162270216E+02  0.23974884051E+03  0.25027085884E+03  0.47000000000E+01 0. -1.
         -5    1    3    3    0  502  0.89632523262E-01 -0.56254980177E+02  0.73943352215E+02  0.93028706137E+02  0.47000000000E+01 0.  1.
        -11    1    1    2    0    0 -0.69032113433E+02  0.79192886374E+01 -0.39781021814E+02  0.80066706653E+02  0.00000000000E+00 0.  1.
         11    1    1    2    0    0  0.12519080174E+02  0.41734213227E+01  0.28386132139E+02  0.31303630968E+02  0.00000000000E+00 0. -1.
<mgrwt>
<rscale>  0 0.13166823E+03</rscale>
<asrwt>0</asrwt>
<pdfrwt beam="1">  1        1 0.58228246E-01 0.13946971E+03</pdfrwt>
<pdfrwt beam="2">  1       -1 0.11720969E-01 0.13946971E+03</pdfrwt>
<totfact> 0.30080209E+03</totfact>
</mgrwt>
</event>
<event>
 7    1  0.6419647E-006  0.1625821E+03  0.7546771E-02  0.1193158E+00
          1   -1    0    0  501    0  0.00000000000E+00  0.00000000000E+00  0.10071773633E+03  0.10071773633E+03  0.00000000000E+00 0. -1.
         -1   -1    0    0    0  501 -0.00000000000E+00 -0.00000000000E+00 -0.25138322504E+03  0.25138322504E+03  0.00000000000E+00 0.  1.
         23    2    1    2    0    0  0.10260350112E+03  0.16731081948E+02 -0.23460359021E+02  0.16426606064E+03  0.12500217073E+03 0.  0.
          5    1    3    3  502    0  0.48841285574E+02 -0.18714618958E+02 -0.67933681797E+02  0.85864912867E+02  0.47000000000E+01 0. -1.
         -5    1    3    3    0  502  0.53762215546E+02  0.35445700906E+02  0.44473322776E+02  0.78401147771E+02  0.47000000000E+01 0. -1.
        -11    1    1    2    0    0 -0.65713269751E+02 -0.33763601508E+01 -0.13279741770E+03  0.14820522183E+03  0.00000000000E+00 0.  1.
         11    1    1    2    0    0 -0.36890231369E+02 -0.13354721797E+02  0.55922880049E+01  0.39629678902E+02  0.00000000000E+00 0. -1.
<mgrwt>
<rscale>  0 0.15611192E+03</rscale>
<asrwt>0</asrwt>
<pdfrwt beam="1">  1        1 0.15495036E-01 0.16258213E+03</pdfrwt>
<pdfrwt beam="2">  1       -1 0.38674342E-01 0.16258213E+03</pdfrwt>
<totfact> 0.22896099E+03</totfact>
</mgrwt>
</event>
<event>
 7    1  0.6419647E-006  0.1345842E+03  0.7546771E-02  0.1233292E+00
          2   -1    0    0  501    0  0.00000000000E+00  0.00000000000E+00  0.63462954073E+02  0.63462954073E+02  0.00000000000E+00 0. -1.
         -2   -1    0    0    0  501 -0.00000000000E+00 -0.00000000000E+00 -0.22802028507E+03  0.22802028507E+03  0.00000000000E+00 0.  1.
         23    2    1    2    0    0 -0.49782013075E+02 -0.35564377002E+01 -0.73472085757E+02  0.15333316565E+03  0.12498806034E+03 0.  0.
          5    1    3    3  502    0 -0.82000730887E+02 -0.24612084765E+02 -0.21334827667E+02  0.88358018618E+02  0.47000000000E+01 0. -1.
         -5    1    3    3    0  502  0.32218717812E+02  0.21055647065E+02 -0.52137258090E+02  0.64975147033E+02  0.47000000000E+01 0. -1.
        -11    1    1    2    0    0  0.52589422045E+02  0.37825800277E+02 -0.77921721771E+02  0.10133229101E+03  0.00000000000E+00 0.  1.
         11    1    1    2    0    0 -0.28074089707E+01 -0.34269362576E+02 -0.13163523465E+02  0.36817782477E+02  0.00000000000E+00 0. -1.
<mgrwt>
<rscale>  0 0.12614437E+03</rscale>
<asrwt>0</asrwt>
<pdfrwt beam="1">  1        2 0.97635314E-02 0.13458422E+03</pdfrwt>
<pdfrwt beam="2">  1       -2 0.35080044E-01 0.13458422E+03</pdfrwt>
<totfact> 0.48033265E+03</totfact>
</mgrwt>
</event>
<event>
 7    1  0.6419647E-006  0.1369115E+03  0.7546771E-02  0.1233863E+00
          2   -1    0    0  501    0  0.00000000000E+00  0.00000000000E+00  0.63952448869E+03  0.63952448869E+03  0.00000000000E+00 0. -1.
         -2   -1    0    0    0  501 -0.00000000000E+00 -0.00000000000E+00 -0.31823087002E+02  0.31823087002E+02  0.00000000000E+00 0.  1.
         23    2    1    2    0    0  0.47612385530E+02  0.29459116131E+02  0.52783512602E+03  0.54530237246E+03  0.12493989902E+03 0.  0.
          5    1    3    3  502    0  0.38656936772E+02  0.41380747082E+02  0.52655955272E+03  0.52961663262E+03  0.47000000000E+01 0. -1.
         -5    1    3    3    0  502  0.89554487580E+01 -0.11921630951E+02  0.12755733032E+01  0.15685739837E+02  0.47000000000E+01 0.  1.
        -11    1    1    2    0    0 -0.18824271986E+01 -0.39804003471E+02  0.86429961929E+01  0.40775036575E+02  0.00000000000E+00 0. -1.
         11    1    1    2    0    0 -0.45729958332E+02  0.10344887340E+02  0.71223279471E+02  0.85270166657E+02  0.00000000000E+00 0.  1.
<mgrwt>
<rscale>  0 0.12577533E+03</rscale>
<asrwt>0</asrwt>
<pdfrwt beam="1">  1        2 0.98388373E-01 0.13691149E+03</pdfrwt>
<pdfrwt beam="2">  1       -2 0.48958600E-02 0.13691149E+03</pdfrwt>
<totfact> 0.90650600E+03</totfact>
</mgrwt>
</event>
<event>
 7    1  0.6419647E-006  0.1561574E+03  0.7546771E-02  0.1201992E+00
          1   -1    0    0  501    0  0.00000000000E+00  0.00000000000E+00  0.23881277574E+03  0.23881277574E+03  0.00000000000E+00 0. -1.
         -1   -1    0    0    0  501 -0.00000000000E+00 -0.00000000000E+00 -0.85057717636E+02  0.85057717636E+02  0.00000000000E+00 0.  1.
         23    2    1    2    0    0 -0.88070156198E+02  0.31718334274E+02  0.91012473023E+02  0.18074405670E+03  0.12499095426E+03 0.  0.
          5    1    3    3  502    0 -0.75862351375E+02  0.21944211468E+02 -0.88041337752E+01  0.79600549902E+02  0.47000000000E+01 0.  1.
         -5    1    3    3    0  502 -0.12207804823E+02  0.97741228057E+01  0.99816606798E+02  0.10114350680E+03  0.47000000000E+01 0.  1.
        -11    1    1    2    0    0  0.35906091212E+01 -0.14976546299E+02  0.54472495891E+02  0.56607792940E+02  0.00000000000E+00 0. -1.
         11    1    1    2    0    0  0.84479547077E+02 -0.16741787975E+02  0.82700891928E+01  0.86518643737E+02  0.00000000000E+00 0.  1.
<mgrwt>
<rscale>  0 0.14877055E+03</rscale>
<asrwt>0</asrwt>
<pdfrwt beam="1">  1        1 0.36740427E-01 0.15615743E+03</pdfrwt>
<pdfrwt beam="2">  1       -1 0.13085803E-01 0.15615743E+03</pdfrwt>
<totfact> 0.45216597E+03</totfact>
</mgrwt>
</event>
<event>
 7    1  0.6419647E-006  0.2115670E+03  0.7546771E-02  0.1144021E+00
         -2   -1    0    0    0  501 -0.00000000000E+00  0.00000000000E+00  0.50143117287E+02  0.50143117287E+02  0.00000000000E+00 0.  1.
          2   -1    0    0  501    0  0.00000000000E+00 -0.00000000000E+00 -0.83216661581E+03  0.83216661581E+03  0.00000000000E+00 0. -1.
         23    2    1    2    0    0 -0.16944998158E+03 -0.20559948715E+02 -0.35164220238E+03  0.41038134907E+03  0.12499842170E+03 0.  0.
          5    1    3    3  502    0 -0.10019649292E+03 -0.72125820964E+02 -0.18199289492E+03  0.21996584972E+03  0.47000000000E+01 0. -1.
         -5    1    3    3    0  502 -0.69253488659E+02  0.51565872249E+02 -0.16964930746E+03  0.19041549935E+03  0.47000000000E+01 0. -1.
        -11    1    1    2    0    0  0.27217321728E+02 -0.14878998911E+02 -0.17278352221E+03  0.17554575688E+03  0.00000000000E+00 0. -1.
         11    1    1    2    0    0  0.14223265985E+03  0.35438947626E+02 -0.25759777393E+03  0.29638262714E+03  0.00000000000E+00 0.  1.
<mgrwt>
<rscale>  0 0.20692980E+03</rscale>
<asrwt>0</asrwt>
<pdfrwt beam="2">  1        2 0.12802562E+00 0.21156704E+03</pdfrwt>
<pdfrwt beam="1">  1       -2 0.77143266E-02 0.21156704E+03</pdfrwt>
<totfact> 0.33476034E+03</totfact>
</mgrwt>
</event>
<event>
 7    1  0.6419647E-006  0.2839956E+03  0.7546771E-02  0.1095442E+00
          1   -1    0    0  501    0  0.00000000000E+00  0.00000000000E+00  0.24786299402E+03  0.24786299402E+03  0.00000000000E+00 0. -1.
         -1   -1    0    0    0  501 -0.00000000000E+00 -0.00000000000E+00 -0.33766319601E+03  0.33766319601E+03  0.00000000000E+00 0.  1.
         23    2    1    2    0    0  0.23109580851E+03  0.10780890139E+03 -0.13022522352E+03  0.31242939668E+03  0.12500194853E+03 0.  0.
          5    1    3    3  502    0  0.11622458481E+02 -0.24557736249E+02 -0.10476216016E+02  0.29495848061E+02  0.47000000000E+01 0.  1.
         -5    1    3    3    0  502  0.21947335003E+03  0.13236663764E+03 -0.11974900751E+03  0.28293354862E+03  0.47000000000E+01 0.  1.
        -11    1    1    2    0    0 -0.19442585435E+03 -0.12078571238E+03  0.21671090198E+02  0.22991354311E+03  0.00000000000E+00 0.  1.
         11    1    1    2    0    0 -0.36669954165E+02  0.12976810986E+02  0.18753931333E+02  0.43183250252E+02  0.00000000000E+00 0. -1.
<mgrwt>
<rscale>  0 0.28045306E+03</rscale>
<asrwt>0</asrwt>
<pdfrwt beam="1">  1        1 0.38132769E-01 0.28399563E+03</pdfrwt>
<pdfrwt beam="2">  1       -1 0.51948184E-01 0.28399563E+03</pdfrwt>
<totfact> 0.42895386E+02</totfact>
</mgrwt>
</event>
<event>
 7    1  0.6419647E-006  0.1259264E+03  0.7546771E-02  0.1248235E+00
         -1   -1    0    0    0  501 -0.00000000000E+00  0.00000000000E+00  0.17115715106E+02  0.17115715106E+02  0.00000000000E+00 0.  1.
          1   -1    0    0  501    0  0.00000000000E+00 -0.00000000000E+00 -0.99588005196E+03  0.99588005196E+03  0.00000000000E+00 0. -1.
         23    2    1    2    0    0  0.10751500446E+02 -0.10809079698E+02 -0.81227307409E+03  0.82197627916E+03  0.12500010253E+03 0.  0.
          5    1    3    3  502    0  0.45536474639E+01  0.75288145650E+01 -0.53067227923E+00  0.99895128534E+01  0.47000000000E+01 0.  1.
         -5    1    3    3    0  502  0.61978529818E+01 -0.18337894263E+02 -0.81174240182E+03  0.81198676630E+03  0.47000000000E+01 0.  1.
        -11    1    1    2    0    0 -0.37986982006E+02  0.34090261693E+02 -0.13097826246E+03  0.14057191035E+03  0.00000000000E+00 0.  1.
         11    1    1    2    0    0  0.27235481560E+02 -0.23281181996E+02 -0.35513000308E+02  0.50447577561E+02  0.00000000000E+00 0. -1.
<mgrwt>
<rscale>  0 0.11693835E+03</rscale>
<asrwt>0</asrwt>
<pdfrwt beam="2">  1        1 0.15321231E+00 0.12592639E+03</pdfrwt>
<pdfrwt beam="1">  1       -1 0.26331870E-02 0.12592639E+03</pdfrwt>
<totfact> 0.71200072E+03</totfact>
</mgrwt>
</event>
<event>
 7    1  0.6419647E-006  0.2033255E+03  0.7546771E-02  0.1150795E+00
          4   -1    0    0  501    0  0.00000000000E+00  0.00000000000E+00  0.66050266153E+02  0.66050266153E+02  0.00000000000E+00 0. -1.
         -4   -1    0    0    0  501 -0.00000000000E+00 -0.00000000000E+00 -0.65057695869E+03  0.65057695869E+03  0.00000000000E+00 0.  1.
         23    2    1    2    0    0 -0.13368133587E+03  0.88574762477E+02 -0.18007098949E+03  0.27160049354E+03  0.12500031491E+03 0.  0.
          5    1    3    3  502    0 -0.79269029758E+02  0.99511733199E+02 -0.17395602092E+03  0.21556658214E+03  0.47000000000E+01 0. -1.
         -5    1    3    3    0  502 -0.54412306115E+02 -0.10936970723E+02 -0.61149685654E+01  0.56033911392E+02  0.47000000000E+01 0. -1.
        -11    1    1    2    0    0  0.84583121816E+02 -0.91271894029E+02 -0.35094731043E+03  0.37235584840E+03  0.00000000000E+00 0.  1.
         11    1    1    2    0    0  0.49098214057E+02  0.26971315520E+01 -0.53508392620E+02  0.72670882910E+02  0.00000000000E+00 0. -1.
<mgrwt>
<rscale>  0 0.19875370E+03</rscale>
<asrwt>0</asrwt>
<pdfrwt beam="1">  1        4 0.10161579E-01 0.20332552E+03</pdfrwt>
<pdfrwt beam="2">  1       -4 0.10008876E+00 0.20332552E+03</pdfrwt>
<totfact> 0.11227463E+02</totfact>
</mgrwt>
</event>
<event>
 7    1  0.6419647E-006  0.1433608E+03  0.7546771E-02  0.1217875E+00
          2   -1    0    0  501    0  0.00000000000E+00  0.00000000000E+00  0.13700056387E+03  0.13700056387E+03  0.00000000000E+00 0. -1.
         -2   -1    0    0    0  501 -0.00000000000E+00 -0.00000000000E+00 -0.12507895611E+03  0.12507895611E+03  0.00000000000E+00 0.  1.
         23    2    1    2    0    0 -0.73272583400E+01 -0.69798729521E+02  0.80765791291E+01  0.14358815359E+03  0.12500710125E+03 0.  0.
          5    1    3    3  502    0  0.10075460150E+02 -0.74224920815E+02 -0.44896986531E+02  0.87456750265E+02  0.47000000000E+01 0.  1.
         -5    1    3    3    0  502 -0.17402718490E+02  0.44261912945E+01  0.52973565660E+02  0.56131403323E+02  0.47000000000E+01 0.  1.
        -11    1    1    2    0    0 -0.25119978599E+02 -0.22602449880E+01  0.26195953399E+02  0.36364130771E+02  0.00000000000E+00 0. -1.
         11    1    1    2    0    0  0.32447236939E+02  0.72058974509E+02 -0.22350924770E+02  0.82127235619E+02  0.00000000000E+00 0.  1.
<mgrwt>
<rscale>  0 0.13667446E+03</rscale>
<asrwt>0</asrwt>
<pdfrwt beam="1">  1        2 0.21077010E-01 0.14336083E+03</pdfrwt>
<pdfrwt beam="2">  1       -2 0.19242916E-01 0.14336083E+03</pdfrwt>
<totfact> 0.56094236E+03</totfact>
</mgrwt>
</event>
<event>
 7    1  0.6419647E-006  0.2053124E+03  0.7546771E-02  0.1149582E+00
         -1   -1    0    0    0  501 -0.00000000000E+00  0.00000000000E+00  0.21435223546E+03  0.21435223546E+03  0.00000000000E+00 0.  1.
          1   -1    0    0  501    0  0.00000000000E+00 -0.00000000000E+00 -0.24511906975E+03  0.24511906975E+03  0.00000000000E+00 0. -1.
         23    2    1    2    0    0  0.13954908557E+03  0.83974054331E+02 -0.13588178077E+03  0.24620529727E+03  0.12501040346E+03 0.  0.
          5    1    3    3  502    0  0.19163602156E+02 -0.31094157223E+01  0.21752837158E+02  0.29532829837E+02  0.47000000000E+01 0. -1.
         -5    1    3    3    0  502  0.12038548341E+03  0.87083470053E+02 -0.15763461793E+03  0.21667246743E+03  0.47000000000E+01 0. -1.
        -11    1    1    2    0    0 -0.11880476089E+03 -0.26059929033E+02  0.85585815252E+02  0.14872330982E+03  0.00000000000E+00 0.  1.
         11    1    1    2    0    0 -0.20744324679E+02 -0.57914125297E+02  0.19529131225E+02  0.64542698129E+02  0.00000000000E+00 0. -1.
<mgrwt>
<rscale>  0 0.20018598E+03</rscale>
<asrwt>0</asrwt>
<pdfrwt beam="2">  1        1 0.37710626E-01 0.20531242E+03</pdfrwt>
<pdfrwt beam="1">  1       -1 0.32977267E-01 0.20531242E+03</pdfrwt>
<totfact> 0.98102425E+02</totfact>
</mgrwt>
</event>
<event>
 7    1  0.6419647E-006  0.1282148E+03  0.7546771E-02  0.1235822E+00
         -2   -1    0    0    0  501 -0.00000000000E+00  0.00000000000E+00  0.71473936392E+02  0.71473936392E+02  0.00000000000E+00 0.  1.
          2   -1    0    0  501    0  0.00000000000E+00 -0.00000000000E+00 -0.23723714779E+03  0.23723714779E+03  0.00000000000E+00 0. -1.
         23    2    1    2    0    0  0.23814722747E+02  0.15731303727E+02 -0.14361122744E+03  0.19251810034E+03  0.12499767748E+03 0.  0.
          5    1    3    3  502    0  0.49283613857E+02 -0.40391423208E+02 -0.53996566071E+02  0.83654412980E+02  0.47000000000E+01 0. -1.
         -5    1    3    3    0  502 -0.25468891109E+02  0.56122726934E+02 -0.89614661370E+02  0.10886368736E+03  0.47000000000E+01 0. -1.
        -11    1    1    2    0    0 -0.65426901500E+02  0.59548346644E+01 -0.21954375988E+02  0.69268565170E+02  0.00000000000E+00 0.  1.
         11    1    1    2    0    0  0.41612178752E+02 -0.21686138391E+02 -0.19760796810E+00  0.46924418672E+02  0.00000000000E+00 0. -1.
<mgrwt>
<rscale>  0 0.12451988E+03</rscale>
<asrwt>0</asrwt>
<pdfrwt beam="2">  1        2 0.36498022E-01 0.12821480E+03</pdfrwt>
<pdfrwt beam="1">  1       -2 0.10995990E-01 0.12821480E+03</pdfrwt>
<totfact> 0.76065794E+03</totfact>
</mgrwt>
</event>
<event>
 7    1  0.6419647E-006  0.1288705E+03  0.7546771E-02  0.1243750E+00
          1   -1    0    0  501    0  0.00000000000E+00  0.00000000000E+00  0.28197829671E+03  0.28197829671E+03  0.00000000000E+00 0. -1.
         -1   -1    0    0    0  501 -0.00000000000E+00 -0.00000000000E+00 -0.46774287732E+02  0.46774287732E+02  0.00000000000E+00 0.  1.
         23    2    1    2    0    0 -0.12698501766E+02 -0.28564063962E+02  0.16865781997E+03  0.21225708116E+03  0.12502180038E+03 0.  0.
          5    1    3    3  502    0  0.23130750207E+02  0.29901452685E+01 -0.11066662259E+02  0.26239923541E+02  0.47000000000E+01 0.  1.
         -5    1    3    3    0  502 -0.35829251973E+02 -0.31554209230E+02  0.17972448223E+03  0.18601715762E+03  0.47000000000E+01 0.  1.
        -11    1    1    2    0    0  0.12493556576E+02  0.55752351346E+02  0.68543070694E+02  0.89233212296E+02  0.00000000000E+00 0. -1.
         11    1    1    2    0    0  0.20494518961E+00 -0.27188287384E+02 -0.19968816825E+01  0.27262290987E+02  0.00000000000E+00 0.  1.
<mgrwt>
<rscale>  0 0.11960521E+03</rscale>
<asrwt>0</asrwt>
<pdfrwt beam="1">  1        1 0.43381275E-01 0.12887051E+03</pdfrwt>
<pdfrwt beam="2">  1       -1 0.71960445E-02 0.12887051E+03</pdfrwt>
<totfact> 0.90579160E+03</totfact>
</mgrwt>
</event>
<event>
 7    1  0.6419647E-006  0.1300505E+03  0.7546771E-02  0.1240975E+00
         -1   -1    0    0    0  501 -0.00000000000E+00  0.00000000000E+00  0.24843253263E+02  0.24843253263E+02  0.00000000000E+00 0.  1.
          1   -1    0    0  501    0  0.00000000000E+00 -0.00000000000E+00 -0.62231073757E+03  0.62231073757E+03  0.00000000000E+00 0. -1.
         23    2    1    2    0    0  0.27709123617E+02  0.22810697238E+02 -0.46041069134E+03  0.47842568413E+03  0.12500002839E+03 0.  0.
          5    1    3    3  502    0  0.13060309627E+02 -0.46938679446E+02 -0.10419297016E+03  0.11511766305E+03  0.47000000000E+01 0. -1.
         -5    1    3    3    0  502  0.14648813990E+02  0.69749376685E+02 -0.35621772117E+03  0.36330802108E+03  0.47000000000E+01 0. -1.
        -11    1    1    2    0    0 -0.11173934573E+02 -0.56293460292E+02 -0.10433109103E+03  0.11907471201E+03  0.00000000000E+00 0. -1.
         11    1    1    2    0    0 -0.16535189044E+02  0.33482763053E+02 -0.32725701946E+02  0.49653594696E+02  0.00000000000E+00 0.  1.
<mgrwt>
<rscale>  0 0.12129549E+03</rscale>
<asrwt>0</asrwt>
<pdfrwt beam="2">  1        1 0.95740114E-01 0.13005049E+03</pdfrwt>
<pdfrwt beam="1">  1       -1 0.38220389E-02 0.13005049E+03</pdfrwt>
<totfact> 0.84073979E+03</totfact>
</mgrwt>
</event>
<event>
 7    1  0.6419647E-006  0.1456333E+03  0.7546771E-02  0.1214797E+00
          2   -1    0    0  501    0  0.00000000000E+00  0.00000000000E+00  0.82729378909E+03  0.82729378909E+03  0.00000000000E+00 0. -1.
         -2   -1    0    0    0  501 -0.00000000000E+00 -0.00000000000E+00 -0.21928676809E+02  0.21928676809E+02  0.00000000000E+00 0.  1.
         23    2    1    2    0    0  0.74559475384E+02 -0.50945473115E+01  0.37490127141E+03  0.40219399366E+03  0.12499590173E+03 0.  0.
          5    1    3    3  502    0  0.13005667097E+02 -0.25151833450E+02  0.30670537016E+03  0.30804550993E+03  0.47000000000E+01 0.  1.
         -5    1    3    3    0  502  0.61553808286E+02  0.20057286139E+02  0.68195901252E+02  0.94148483734E+02  0.47000000000E+01 0.  1.
        -11    1    1    2    0    0 -0.86790340733E+02  0.27456264704E+02  0.37649918676E+03  0.38734745042E+03  0.00000000000E+00 0. -1.
         11    1    1    2    0    0  0.12230865349E+02 -0.22361717393E+02  0.53964654106E+02  0.59681021813E+02  0.00000000000E+00 0.  1.
<mgrwt>
<rscale>  0 0.13891481E+03</rscale>
<asrwt>0</asrwt>
<pdfrwt beam="1">  1        2 0.12727594E+00 0.14563326E+03</pdfrwt>
<pdfrwt beam="2">  1       -2 0.33736432E-02 0.14563326E+03</pdfrwt>
<totfact> 0.11613694E+04</totfact>
</mgrwt>
</event>
<event>
 7    1  0.6419647E-006  0.1718394E+03  0.7546771E-02  0.1182220E+00
         -1   -1    0    0    0  501 -0.00000000000E+00  0.00000000000E+00  0.39600943945E+03  0.39600943945E+03  0.00000000000E+00 0.  1.
          1   -1    0    0  501    0  0.00000000000E+00 -0.00000000000E+00 -0.70494258692E+02  0.70494258692E+02  0.00000000000E+00 0. -1.
         23    2    1    2    0    0  0.99304020838E+02  0.63573127518E+02  0.10875781340E+03  0.20336430483E+03  0.12500378957E+03 0.  0.
          5    1    3    3  502    0  0.15675787556E+02  0.64410880670E+02  0.98713659890E+02  0.11899986770E+03  0.47000000000E+01 0. -1.
         -5    1    3    3    0  502  0.83628233282E+02 -0.83775315144E+00  0.10044153507E+02  0.84364437128E+02  0.47000000000E+01 0. -1.
        -11    1    1    2    0    0 -0.47950707881E+02 -0.53887377213E+02  0.19241131494E+03  0.20548779508E+03  0.00000000000E+00 0.  1.
         11    1    1    2    0    0 -0.51353312957E+02 -0.96857503053E+01  0.24346052423E+02  0.57651598237E+02  0.00000000000E+00 0. -1.
<mgrwt>
<rscale>  0 0.16587436E+03</rscale>
<asrwt>0</asrwt>
<pdfrwt beam="2">  1        1 0.10845271E-01 0.17183940E+03</pdfrwt>
<pdfrwt beam="1">  1       -1 0.60924528E-01 0.17183940E+03</pdfrwt>
<totfact> 0.15976870E+03</totfact>
</mgrwt>
</event>
<event>
 7    1  0.6419647E-006  0.1295923E+03  0.7546771E-02  0.1241682E+00
         -1   -1    0    0    0  501 -0.00000000000E+00  0.00000000000E+00  0.11323579870E+03  0.11323579870E+03  0.00000000000E+00 0.  1.
          1   -1    0    0  501    0  0.00000000000E+00 -0.00000000000E+00 -0.11471788654E+03  0.11471788654E+03  0.00000000000E+00 0. -1.
         23    2    1    2    0    0  0.20186889003E+02  0.27574738764E+02 -0.67506904727E+01  0.12976805438E+03  0.12500519753E+03 0.  0.
          5    1    3    3  502    0  0.80810707919E+01  0.83358405664E+01  0.58857198334E+02  0.60175158818E+02  0.47000000000E+01 0.  1.
         -5    1    3    3    0  502  0.12105818211E+02  0.19238898198E+02 -0.65607888807E+02  0.69592895558E+02  0.47000000000E+01 0.  1.
        -11    1    1    2    0    0  0.87757338227E+00  0.15619745905E+02  0.37289178243E+02  0.40437969920E+02  0.00000000000E+00 0.  1.
         11    1    1    2    0    0 -0.21064462385E+02 -0.43194484669E+02 -0.32020575613E+02  0.57747660940E+02  0.00000000000E+00 0. -1.
<mgrwt>
<rscale>  0 0.12086205E+03</rscale>
<asrwt>0</asrwt>
<pdfrwt beam="2">  1        1 0.17648906E-01 0.12959235E+03</pdfrwt>
<pdfrwt beam="1">  1       -1 0.17420892E-01 0.12959235E+03</pdfrwt>
<totfact> 0.71676430E+03</totfact>
</mgrwt>
</event>
<event>
 7    1  0.6419647E-006  0.1658386E+03  0.7546771E-02  0.1187290E+00
          4   -1    0    0  501    0  0.00000000000E+00  0.00000000000E+00  0.10089652937E+03  0.10089652937E+03  0.00000000000E+00 0. -1.
         -4   -1    0    0    0  501 -0.00000000000E+00 -0.00000000000E+00 -0.25858009204E+03  0.25858009204E+03  0.00000000000E+00 0.  1.
         23    2    1    2    0    0  0.48308917715E+02 -0.97683584628E+02 -0.41024280171E+02  0.17083746213E+03  0.12500645051E+03 0.  0.
          5    1    3    3  502    0 -0.21901761734E+02 -0.60084693980E+02  0.23431225522E+02  0.68271296657E+02  0.47000000000E+01 0. -1.
         -5    1    3    3    0  502  0.70210679449E+02 -0.37598890648E+02 -0.64455505693E+02  0.10256616548E+03  0.47000000000E+01 0. -1.
        -11    1    1    2    0    0 -0.33632354992E+02  0.69688463203E+02 -0.13238009330E+03  0.15333657851E+03  0.00000000000E+00 0.  1.
         11    1    1    2    0    0 -0.14676562723E+02  0.27995121426E+02  0.15720810794E+02  0.35302580770E+02  0.00000000000E+00 0. -1.
<mgrwt>
<rscale>  0 0.16125241E+03</rscale>
<asrwt>0</asrwt>
<pdfrwt beam="1">  1        4 0.15522543E-01 0.16583862E+03</pdfrwt>
<pdfrwt beam="2">  1       -4 0.39781552E-01 0.16583862E+03</pdfrwt>
<totfact> 0.37616692E+02</totfact>
</mgrwt>
</event>
<event>
 7    1  0.6419647E-006  0.1395460E+03  0.7546771E-02  0.1224867E+00
         -1   -1    0    0    0  501 -0.00000000000E+00  0.00000000000E+00  0.19525629737E+03  0.19525629737E+03  0.00000000000E+00 0.  1.
          1   -1    0    0  501    0  0.00000000000E+00 -0.00000000000E+00 -0.12799074286E+03  0.12799074286E+03  0.00000000000E+00 0. -1.
         23    2    1    2    0    0  0.30027995423E+02 -0.54319967747E+02 -0.62188785964E+02  0.15277611278E+03  0.12498302337E+03 0.  0.
          5    1    3    3  502    0  0.72420167425E+02 -0.17182572734E+02 -0.89652140067E+01  0.75115820689E+02  0.47000000000E+01 0.  1.
         -5    1    3    3    0  502 -0.42392172003E+02 -0.37137395014E+02 -0.53223571957E+02  0.77660292089E+02  0.47000000000E+01 0.  1.
        -11    1    1    2    0    0  0.14264154243E+02  0.52272859480E+02  0.30837485943E+02  0.62344754982E+02  0.00000000000E+00 0. -1.
         11    1    1    2    0    0 -0.44292149666E+02  0.20471082672E+01  0.98616854537E+02  0.10812617247E+03  0.00000000000E+00 0.  1.
<mgrwt>
<rscale>  0 0.13176034E+03</rscale>
<asrwt>0</asrwt>
<pdfrwt beam="2">  1        1 0.19690883E-01 0.13954603E+03</pdfrwt>
<pdfrwt beam="1">  1       -1 0.30039430E-01 0.13954603E+03</pdfrwt>
<totfact> 0.25775911E+03</totfact>
</mgrwt>
</event>
<event>
 7    1  0.6419647E-006  0.1266924E+03  0.7546771E-02  0.1247941E+00
          2   -1    0    0  501    0  0.00000000000E+00  0.00000000000E+00  0.13783858172E+04  0.13783858172E+04  0.00000000000E+00 0.  1.
         -2   -1    0    0    0  501 -0.00000000000E+00 -0.00000000000E+00 -0.96387398705E+01  0.96387398705E+01  0.00000000000E+00 0. -1.
         23    2    1    2    0    0 -0.10905846130E+02  0.17403857966E+02  0.99349682891E+03  0.10015422712E+04  0.12501655991E+03 0.  0.
          5    1    3    3  502    0  0.53326484164E+02 -0.12986024345E+02  0.39462912697E+03  0.39845525294E+03  0.47000000000E+01 0. -1.
         -5    1    3    3    0  502 -0.64232330295E+02  0.30389882311E+02  0.59886770193E+03  0.60308701828E+03  0.47000000000E+01 0. -1.
        -11    1    1    2    0    0  0.49582231267E+02  0.30299550652E+00  0.18447020320E+03  0.19101765712E+03  0.00000000000E+00 0. -1.
         11    1    1    2    0    0 -0.38676385137E+02 -0.17706853473E+02  0.19078004525E+03  0.19546462875E+03  0.00000000000E+00 0.  1.
<mgrwt>
<rscale>  0 0.11711045E+03</rscale>
<asrwt>0</asrwt>
<pdfrwt beam="1">  1        2 0.21205920E+00 0.12669243E+03</pdfrwt>
<pdfrwt beam="2">  1       -2 0.14828841E-02 0.12669243E+03</pdfrwt>
<totfact> 0.18279402E+04</totfact>
</mgrwt>
</event>
<event>
 7    1  0.6419647E-006  0.2167805E+03  0.7546771E-02  0.1139768E+00
         -2   -1    0    0    0  501 -0.00000000000E+00  0.00000000000E+00  0.16356921864E+03  0.16356921864E+03  0.00000000000E+00 0.  1.
          2   -1    0    0  501    0  0.00000000000E+00 -0.00000000000E+00 -0.29390127922E+03  0.29390127922E+03  0.00000000000E+00 0. -1.
         23    2    1    2    0    0  0.15576787058E+03  0.84311031082E+02 -0.13969775222E+03  0.25789388333E+03  0.12498725383E+03 0.  0.
          5    1    3    3  502    0  0.58472570238E+02  0.76423843805E+02 -0.12690622946E+03  0.15933275385E+03  0.47000000000E+01 0. -1.
         -5    1    3    3    0  502  0.97295300339E+02  0.78871872770E+01 -0.12791522759E+02  0.98561129487E+02  0.47000000000E+01 0. -1.
        -11    1    1    2    0    0 -0.72631925131E+02  0.87506931424E+01  0.14927655407E+02  0.74664623984E+02  0.00000000000E+00 0. -1.
         11    1    1    2    0    0 -0.83135945446E+02 -0.93061724224E+02 -0.55619637661E+01  0.12491199054E+03  0.00000000000E+00 0.  1.
<mgrwt>
<rscale>  0 0.21228676E+03</rscale>
<asrwt>0</asrwt>
<pdfrwt beam="2">  1        2 0.45215581E-01 0.21678052E+03</pdfrwt>
<pdfrwt beam="1">  1       -2 0.25164495E-01 0.21678052E+03</pdfrwt>
<totfact> 0.15614520E+03</totfact>
</mgrwt>
</event>
<event>
 7    1  0.6419647E-006  0.1487879E+03  0.7546771E-02  0.1210953E+00
          1   -1    0    0  501    0  0.00000000000E+00  0.00000000000E+00  0.14312103626E+03  0.14312103626E+03  0.00000000000E+00 0. -1.
         -1   -1    0    0    0  501 -0.00000000000E+00 -0.00000000000E+00 -0.13423088049E+03  0.13423088049E+03  0.00000000000E+00 0.  1.
         23    2    1    2    0    0  0.34009486859E+02 -0.73184684573E+02  0.32816839071E+02  0.15236402229E+03  0.12500082843E+03 0.  0.
          5    1    3    3  502    0  0.13216357934E+02 -0.40815297413E+02 -0.46892942152E+02  0.63730672707E+02  0.47000000000E+01 0.  1.
         -5    1    3    3    0  502  0.20793128925E+02 -0.32369387160E+02  0.79709781224E+02  0.88633349583E+02  0.47000000000E+01 0.  1.
        -11    1    1    2    0    0  0.10079765869E+02  0.51325174877E+02  0.22862684934E+02  0.57083952373E+02  0.00000000000E+00 0. -1.
         11    1    1    2    0    0 -0.44089252728E+02  0.21859509696E+02 -0.46789368235E+02  0.67903942081E+02  0.00000000000E+00 0.  1.
<mgrwt>
<rscale>  0 0.14178034E+03</rscale>
<asrwt>0</asrwt>
<pdfrwt beam="1">  1        1 0.22018621E-01 0.14878794E+03</pdfrwt>
<pdfrwt beam="2">  1       -1 0.20650905E-01 0.14878794E+03</pdfrwt>
<totfact> 0.41571973E+03</totfact>
</mgrwt>
</event>
<event>
 7    1  0.6419647E-006  0.1284002E+03  0.7546771E-02  0.1240364E+00
         -2   -1    0    0    0  501 -0.00000000000E+00  0.00000000000E+00  0.41889875029E+02  0.41889875029E+02  0.00000000000E+00 0.  1.
          2   -1    0    0  501    0  0.00000000000E+00 -0.00000000000E+00 -0.40417088370E+03  0.40417088370E+03  0.00000000000E+00 0. -1.
         23    2    1    2    0    0  0.55610748570E+00  0.29352737500E+02 -0.29726344623E+03  0.32380883129E+03  0.12499884120E+03 0.  0.
          5    1    3    3  502    0 -0.26086696173E+02 -0.23117596597E+02 -0.20269986127E+02  0.40594350928E+02  0.47000000000E+01 0.  1.
         -5    1    3    3    0  502  0.26642803659E+02  0.52470334096E+02 -0.27699346011E+03  0.28321448036E+03  0.47000000000E+01 0.  1.
        -11    1    1    2    0    0 -0.10901942543E+01  0.36097667915E+02 -0.12111843610E+02  0.38091034484E+02  0.00000000000E+00 0. -1.
         11    1    1    2    0    0  0.53408676859E+00 -0.65450405414E+02 -0.52905718824E+02  0.84160892948E+02  0.00000000000E+00 0.  1.
<mgrwt>
<rscale>  0 0.12167173E+03</rscale>
<asrwt>0</asrwt>
<pdfrwt beam="2">  1        2 0.62180135E-01 0.12840017E+03</pdfrwt>
<pdfrwt beam="1">  1       -2 0.64445963E-02 0.12840017E+03</pdfrwt>
<totfact> 0.98912649E+03</totfact>
</mgrwt>
</event>
<event>
 7    1  0.6419647E-006  0.1254840E+03  0.7546771E-02  0.1250130E+00
          1   -1    0    0  501    0  0.00000000000E+00  0.00000000000E+00  0.58615338312E+02  0.58615338312E+02  0.00000000000E+00 0. -1.
         -1   -1    0    0    0  501 -0.00000000000E+00 -0.00000000000E+00 -0.20227284798E+03  0.20227284798E+03  0.00000000000E+00 0.  1.
         23    2    1    2    0    0 -0.10887895529E+02 -0.12765408017E+01 -0.69756155389E+02  0.14356934561E+03  0.12500423976E+03 0.  0.
          5    1    3    3  502    0  0.27756665919E+02 -0.47978529880E+02 -0.60298335209E+02  0.82038716844E+02  0.47000000000E+01 0.  1.
         -5    1    3    3    0  502 -0.38644561448E+02  0.46701989078E+02 -0.94578201802E+01  0.61530628763E+02  0.47000000000E+01 0.  1.
        -11    1    1    2    0    0 -0.34088187034E+02  0.18300932784E+02 -0.15534443228E+02  0.41692296200E+02  0.00000000000E+00 0. -1.
         11    1    1    2    0    0  0.44976082563E+02 -0.17024391983E+02 -0.58366911051E+02  0.75626544485E+02  0.00000000000E+00 0.  1.
<mgrwt>
<rscale>  0 0.11583534E+03</rscale>
<asrwt>0</asrwt>
<pdfrwt beam="1">  1        1 0.90177444E-02 0.12548401E+03</pdfrwt>
<pdfrwt beam="2">  1       -1 0.31118899E-01 0.12548401E+03</pdfrwt>
<totfact> 0.66741260E+03</totfact>
</mgrwt>
</event>
<event>
 7    1  0.6419647E-006  0.1682247E+03  0.7546771E-02  0.1186328E+00
         -2   -1    0    0    0  501 -0.00000000000E+00  0.00000000000E+00  0.53982708900E+02  0.53982708900E+02  0.00000000000E+00 0.  1.
          2   -1    0    0  501    0  0.00000000000E+00 -0.00000000000E+00 -0.47806926456E+03  0.47806926456E+03  0.00000000000E+00 0. -1.
         23    2    1    2    0    0  0.10865093099E+03 -0.29479322255E+02 -0.28570065501E+03  0.33154849430E+03  0.12500193820E+03 0.  0.
          5    1    3    3  502    0  0.87269638026E+02  0.39235129896E+02 -0.17285153600E+03  0.19762370464E+03  0.47000000000E+01 0. -1.
         -5    1    3    3    0  502  0.21381292961E+02 -0.68714452151E+02 -0.11284911901E+03  0.13392478966E+03  0.47000000000E+01 0. -1.
        -11    1    1    2    0    0  0.61571383605E+01 -0.18903064150E+02 -0.25896194196E+02  0.32647343856E+02  0.00000000000E+00 0.  1.
         11    1    1    2    0    0 -0.11480806935E+03  0.48382386405E+02 -0.11248970646E+03  0.16785613531E+03  0.00000000000E+00 0. -1.
<mgrwt>
<rscale>  0 0.16211617E+03</rscale>
<asrwt>0</asrwt>
<pdfrwt beam="2">  1        2 0.73549118E-01 0.16822467E+03</pdfrwt>
<pdfrwt beam="1">  1       -2 0.83050321E-02 0.16822467E+03</pdfrwt>
<totfact> 0.56769218E+03</totfact>
</mgrwt>
</event>
<event>
 7    1  0.6419647E-006  0.1271152E+03  0.7546771E-02  0.1245466E+00
         -1   -1    0    0    0  501 -0.00000000000E+00  0.00000000000E+00  0.50857931009E+02  0.50857931009E+02  0.00000000000E+00 0.  1.
          1   -1    0    0  501    0  0.00000000000E+00 -0.00000000000E+00 -0.33008644482E+03  0.33008644482E+03  0.00000000000E+00 0. -1.
         23    2    1    2    0    0  0.21793520735E+02 -0.76868789526E+01 -0.24982857035E+03  0.28030804114E+03  0.12499695080E+03 0.  0.
          5    1    3    3  502    0  0.27979252976E+02  0.48720367554E+02 -0.18792482180E+03  0.19619974888E+03  0.47000000000E+01 0. -1.
         -5    1    3    3    0  502 -0.61857322413E+01 -0.56407246507E+02 -0.61903748547E+02  0.84108292254E+02  0.47000000000E+01 0. -1.
        -11    1    1    2    0    0  0.41570458167E+01 -0.19260952932E+02  0.26713779704E+02  0.33194749040E+02  0.00000000000E+00 0.  1.
         11    1    1    2    0    0 -0.25950566552E+02  0.26947831884E+02 -0.56113723163E+02  0.67441585649E+02  0.00000000000E+00 0. -1.
<mgrwt>
<rscale>  0 0.11857524E+03</rscale>
<asrwt>0</asrwt>
<pdfrwt beam="2">  1        1 0.50782529E-01 0.12711524E+03</pdfrwt>
<pdfrwt beam="1">  1       -1 0.78242972E-02 0.12711524E+03</pdfrwt>
<totfact> 0.65679300E+03</totfact>
</mgrwt>
</event>
<event>
 7    1  0.6419647E-006  0.1539321E+03  0.7546771E-02  0.1203568E+00
         -2   -1    0    0    0  501 -0.00000000000E+00  0.00000000000E+00  0.40300188172E+02  0.40300188172E+02  0.00000000000E+00 0.  1.
          2   -1    0    0  501    0  0.00000000000E+00 -0.00000000000E+00 -0.50019380761E+03  0.50019380761E+03  0.00000000000E+00 0. -1.
         23    2    1    2    0    0 -0.83967265472E+00  0.89836891513E+02 -0.26014709962E+03  0.30227733993E+03  0.12499481856E+03 0.  0.
          5    1    3    3  502    0  0.14808705700E+02  0.71259113650E+02 -0.44970515188E+02  0.85683115484E+02  0.47000000000E+01 0.  1.
         -5    1    3    3    0  502 -0.15648378355E+02  0.18577777863E+02 -0.21517658443E+03  0.21659422445E+03  0.47000000000E+01 0.  1.
        -11    1    1    2    0    0  0.11664761439E+02 -0.10544532674E+03 -0.18804516220E+03  0.21590684708E+03  0.00000000000E+00 0. -1.
         11    1    1    2    0    0 -0.10825088784E+02  0.15608435223E+02 -0.11701357615E+02  0.22309808769E+02  0.00000000000E+00 0.  1.
<mgrwt>
<rscale>  0 0.14750847E+03</rscale>
<asrwt>0</asrwt>
<pdfrwt beam="2">  1        2 0.76952898E-01 0.15393205E+03</pdfrwt>
<pdfrwt beam="1">  1       -2 0.62000286E-02 0.15393205E+03</pdfrwt>
<totfact> 0.84290632E+03</totfact>
</mgrwt>
</event>
<event>
 7    1  0.6419647E-006  0.1365953E+03  0.7546771E-02  0.1229366E+00
          2   -1    0    0  501    0  0.00000000000E+00  0.00000000000E+00  0.46469128573E+03  0.46469128573E+03  0.00000000000E+00 0.  1.
         -2   -1    0    0    0  501 -0.00000000000E+00 -0.00000000000E+00 -0.46251999684E+02  0.46251999684E+02  0.00000000000E+00 0. -1.
         23    2    1    2    0    0 -0.37743997895E+02 -0.40100983590E+02  0.36695514298E+03  0.39155377355E+03  0.12500232941E+03 0.  0.
          5    1    3    3  502    0 -0.31244457963E+02 -0.83950104733E+02  0.27696698765E+03  0.29112993403E+03  0.47000000000E+01 0. -1.
         -5    1    3    3    0  502 -0.64995399322E+01  0.43849121144E+02  0.89988155332E+02  0.10042383952E+03  0.47000000000E+01 0. -1.
        -11    1    1    2    0    0  0.26172638646E+02  0.67090037365E+02  0.53861299856E+02  0.89928414583E+02  0.00000000000E+00 0.  1.
         11    1    1    2    0    0  0.11571359250E+02 -0.26989053775E+02 -0.23771567929E+01  0.29461097281E+02  0.00000000000E+00 0. -1.
<mgrwt>
<rscale>  0 0.12872096E+03</rscale>
<asrwt>0</asrwt>
<pdfrwt beam="1">  1        2 0.71490964E-01 0.13659532E+03</pdfrwt>
<pdfrwt beam="2">  1       -2 0.71156926E-02 0.13659532E+03</pdfrwt>
<totfact> 0.73479357E+03</totfact>
</mgrwt>
</event>
<event>
 7    1  0.6419647E-006  0.1293901E+03  0.7546771E-02  0.1243026E+00
         -2   -1    0    0    0  501 -0.00000000000E+00  0.00000000000E+00  0.43961944590E+02  0.43961944590E+02  0.00000000000E+00 0. -1.
          2   -1    0    0  501    0  0.00000000000E+00 -0.00000000000E+00 -0.38689240203E+03  0.38689240203E+03  0.00000000000E+00 0.  1.
         23    2    1    2    0    0 -0.11097559095E+01 -0.33255492148E+02 -0.29821730108E+03  0.32507744559E+03  0.12503850468E+03 0.  0.
          5    1    3    3  502    0 -0.30992658103E+02 -0.12622672037E+02 -0.11004097648E+02  0.35539511402E+02  0.47000000000E+01 0.  1.
         -5    1    3    3    0  502  0.29882902194E+02 -0.20632820110E+02 -0.28721320343E+03  0.28953793419E+03  0.47000000000E+01 0.  1.
        -11    1    1    2    0    0 -0.36691692627E+02  0.28228692528E+02  0.92553833926E+00  0.46303304535E+02  0.00000000000E+00 0. -1.
         11    1    1    2    0    0  0.37801448537E+02  0.50267996199E+01 -0.45638694698E+02  0.59473596491E+02  0.00000000000E+00 0.  1.
<mgrwt>
<rscale>  0 0.12004307E+03</rscale>
<asrwt>0</asrwt>
<pdfrwt beam="2">  1        2 0.59521910E-01 0.12939006E+03</pdfrwt>
<pdfrwt beam="1">  1       -2 0.67633759E-02 0.12939006E+03</pdfrwt>
<totfact> 0.96335810E+03</totfact>
</mgrwt>
</event>
<event>
 7    1  0.6419647E-006  0.2598740E+03  0.7546771E-02  0.1109744E+00
         -1   -1    0    0    0  501 -0.00000000000E+00  0.00000000000E+00  0.21562766135E+03  0.21562766135E+03  0.00000000000E+00 0.  1.
          1   -1    0    0  501    0  0.00000000000E+00 -0.00000000000E+00 -0.38970542006E+03  0.38970542006E+03  0.00000000000E+00 0. -1.
         23    2    1    2    0    0  0.15074708229E+03  0.17083522260E+03 -0.23913257848E+03  0.35315562056E+03  0.12500058456E+03 0.  0.
          5    1    3    3  502    0 -0.28506713904E+01  0.82297470561E+02 -0.72954868604E+02  0.11011586099E+03  0.47000000000E+01 0. -1.
         -5    1    3    3    0  502  0.15359775368E+03  0.88537752041E+02 -0.16617770988E+03  0.24303975957E+03  0.47000000000E+01 0. -1.
        -11    1    1    2    0    0  0.10907788350E+02 -0.15744019867E+02  0.10053798011E+01  0.19179801792E+02  0.00000000000E+00 0. -1.
         11    1    1    2    0    0 -0.16165487064E+03 -0.15509120273E+03  0.64049439970E+02  0.23299765906E+03  0.00000000000E+00 0.  1.
<mgrwt>
<rscale>  0 0.25571730E+03</rscale>
<asrwt>0</asrwt>
<pdfrwt beam="2">  1        1 0.59954680E-01 0.25987401E+03</pdfrwt>
<pdfrwt beam="1">  1       -1 0.33173487E-01 0.25987401E+03</pdfrwt>
<totfact> 0.54100139E+02</totfact>
</mgrwt>
</event>
<event>
 7    1  0.6419647E-006  0.1276831E+03  0.7546771E-02  0.1244707E+00
         -2   -1    0    0    0  501 -0.00000000000E+00  0.00000000000E+00  0.23559947989E+02  0.23559947989E+02  0.00000000000E+00 0.  1.
          2   -1    0    0  501    0  0.00000000000E+00 -0.00000000000E+00 -0.53804513084E+03  0.53804513084E+03  0.00000000000E+00 0. -1.
         23    2    1    2    0    0  0.25793916985E+02  0.42197848351E+01 -0.31977087443E+03  0.34432016460E+03  0.12497932180E+03 0.  0.
          5    1    3    3  502    0 -0.34728340914E+02 -0.14916149262E+02 -0.23630426131E+03  0.23935401205E+03  0.47000000000E+01 0. -1.
         -5    1    3    3    0  502  0.60522257899E+02  0.19135934097E+02 -0.83466613122E+02  0.10496615255E+03  0.47000000000E+01 0. -1.
        -11    1    1    2    0    0 -0.13384188568E+02 -0.47492819533E+02 -0.79254238841E+02  0.93359192290E+02  0.00000000000E+00 0.  1.
         11    1    1    2    0    0 -0.12409728417E+02  0.43273034698E+02 -0.11546006958E+03  0.12392572194E+03  0.00000000000E+00 0. -1.
<mgrwt>
<rscale>  0 0.11902958E+03</rscale>
<asrwt>0</asrwt>
<pdfrwt beam="2">  1        2 0.82776168E-01 0.12768306E+03</pdfrwt>
<pdfrwt beam="1">  1       -2 0.36246077E-02 0.12768306E+03</pdfrwt>
<totfact> 0.17156276E+04</totfact>
</mgrwt>
</event>
<event>
 7    1  0.6419647E-006  0.1415140E+03  0.7546771E-02  0.1221684E+00
         -3   -1    0    0    0  501 -0.00000000000E+00  0.00000000000E+00  0.40298713736E+03  0.40298713736E+03  0.00000000000E+00 0.  1.
          3   -1    0    0  501    0  0.00000000000E+00 -0.00000000000E+00 -0.40512050652E+02  0.40512050652E+02  0.00000000000E+00 0. -1.
         23    2    1    2    0    0 -0.66237388075E+02  0.38532951469E+01  0.18906603732E+03  0.23616132736E+03  0.12499586638E+03 0.  0.
          5    1    3    3  502    0 -0.95139420832E+02 -0.26932155901E+02  0.13474914768E+03  0.16720129550E+03  0.47000000000E+01 0. -1.
         -5    1    3    3    0  502  0.28902032757E+02  0.30785451048E+02  0.54316889643E+02  0.68960031861E+02  0.47000000000E+01 0. -1.
        -11    1    1    2    0    0 -0.21045691946E+02 -0.14746019971E+02  0.38859673339E+02  0.46587986289E+02  0.00000000000E+00 0. -1.
         11    1    1    2    0    0  0.87283080021E+02  0.10892724824E+02  0.13454937605E+03  0.16074987436E+03  0.00000000000E+00 0.  1.
<mgrwt>
<rscale>  0 0.13396771E+03</rscale>
<asrwt>0</asrwt>
<pdfrwt beam="2">  1        3 0.62326235E-02 0.14151398E+03</pdfrwt>
<pdfrwt beam="1">  1       -3 0.61998018E-01 0.14151398E+03</pdfrwt>
<totfact> 0.95604477E+02</totfact>
</mgrwt>
</event>
<event>
 7    1  0.6419647E-006  0.1250159E+03  0.7546771E-02  0.1244105E+00
         -2   -1    0    0    0  501 -0.00000000000E+00  0.00000000000E+00  0.89098124767E+01  0.89098124767E+01  0.00000000000E+00 0.  1.
          2   -1    0    0  501    0  0.00000000000E+00 -0.00000000000E+00 -0.23024485285E+04  0.23024485285E+04  0.00000000000E+00 0. -1.
         23    2    1    2    0    0 -0.45405514162E+02 -0.35687092899E+01 -0.19064506999E+04  0.19105452726E+04  0.11642410155E+03 0.  0.
          5    1    3    3  502    0 -0.48585563912E+02  0.42186348608E+02 -0.15176049334E+04  0.15189756644E+04  0.47000000000E+01 0. -1.
         -5    1    3    3    0  502  0.31800497506E+01 -0.45755057898E+02 -0.38884576644E+03  0.39156960827E+03  0.47000000000E+01 0.  1.
        -11    1    1    2    0    0  0.51375517645E+02 -0.32727653231E+02 -0.16895867393E+03  0.17960394371E+03  0.00000000000E+00 0.  1.
         11    1    1    2    0    0 -0.59700034835E+01  0.36296362521E+02 -0.21812934220E+03  0.22120912459E+03  0.00000000000E+00 0. -1.
<mgrwt>
<rscale>  0 0.11939113E+03</rscale>
<asrwt>0</asrwt>
<pdfrwt beam="2">  1        2 0.35422271E+00 0.12501587E+03</pdfrwt>
<pdfrwt beam="1">  1       -2 0.13707409E-02 0.12501587E+03</pdfrwt>
<totfact> 0.68531320E+03</totfact>
</mgrwt>
</event>
<event>
 7    1  0.6419647E-006  0.1703574E+03  0.7546771E-02  0.1184042E+00
         -2   -1    0    0    0  501 -0.00000000000E+00  0.00000000000E+00  0.44995603804E+02  0.44995603804E+02  0.00000000000E+00 0.  1.
          2   -1    0    0  501    0  0.00000000000E+00 -0.00000000000E+00 -0.56966044388E+03  0.56966044388E+03  0.00000000000E+00 0. -1.
         23    2    1    2    0    0 -0.21225599520E+01 -0.11584293516E+03 -0.32200578163E+03  0.36429298509E+03  0.12489021056E+03 0.  0.
          5    1    3    3  502    0 -0.20920125962E+02 -0.90311141129E+02 -0.87353039965E+02  0.12746135678E+03  0.47000000000E+01 0. -1.
         -5    1    3    3    0  502  0.18797566010E+02 -0.25531794033E+02 -0.23465274166E+03  0.23683162830E+03  0.47000000000E+01 0. -1.
        -11    1    1    2    0    0  0.31838686674E+02  0.88062270187E+02 -0.18214031960E+03  0.20480176128E+03  0.00000000000E+00 0.  1.
         11    1    1    2    0    0 -0.29716126722E+02  0.27780664974E+02 -0.20518738849E+02  0.45561301317E+02  0.00000000000E+00 0. -1.
<mgrwt>
<rscale>  0 0.16419317E+03</rscale>
<asrwt>0</asrwt>
<pdfrwt beam="2">  1        2 0.87640072E-01 0.17035743E+03</pdfrwt>
<pdfrwt beam="1">  1       -2 0.69224003E-02 0.17035743E+03</pdfrwt>
<totfact> 0.61915249E+03</totfact>
</mgrwt>
</event>
<event>
 7    1  0.6419647E-006  0.1286299E+03  0.7546771E-02  0.1239573E+00
         -2   -1    0    0    0  501 -0.00000000000E+00  0.00000000000E+00  0.10439909390E+03  0.10439909390E+03  0.00000000000E+00 0.  1.
          2   -1    0    0  501    0  0.00000000000E+00 -0.00000000000E+00 -0.15487940299E+03  0.15487940299E+03  0.00000000000E+00 0. -1.
         23    2    1    2    0    0  0.14317645623E+02  0.26769805076E+02 -0.78827248340E+02  0.15086213895E+03  0.12499612973E+03 0.  0.
          5    1    3    3  502    0  0.29371841846E+00  0.69496795192E+02 -0.12776771528E+02  0.70818265322E+02  0.47000000000E+01 0.  1.
         -5    1    3    3    0  502  0.14023927204E+02 -0.42726990116E+02 -0.66050476812E+02  0.80043873630E+02  0.47000000000E+01 0.  1.
        -11    1    1    2    0    0 -0.44066926648E+02 -0.45265078925E+01 -0.19030333482E+02  0.48213451342E+02  0.00000000000E+00 0. -1.
         11    1    1    2    0    0  0.29749281025E+02 -0.22243297184E+02  0.47377272731E+02  0.60202906596E+02  0.00000000000E+00 0.  1.
<mgrwt>
<rscale>  0 0.12216195E+03</rscale>
<asrwt>0</asrwt>
<pdfrwt beam="2">  1        2 0.23827600E-01 0.12862990E+03</pdfrwt>
<pdfrwt beam="1">  1       -2 0.16061399E-01 0.12862990E+03</pdfrwt>
<totfact> 0.65601055E+03</totfact>
</mgrwt>
</event>
<event>
 7    1  0.6419647E-006  0.1281692E+03  0.7546771E-02  0.1244407E+00
          2   -1    0    0  501    0  0.00000000000E+00  0.00000000000E+00  0.11930918848E+04  0.11930918848E+04  0.00000000000E+00 0. -1.
         -2   -1    0    0    0  501 -0.00000000000E+00 -0.00000000000E+00 -0.10634442131E+02  0.10634442131E+02  0.00000000000E+00 0.  1.
         23    2    1    2    0    0  0.28152250834E+02 -0.21872093008E+01  0.73669857322E+03  0.74776475824E+03  0.12502004945E+03 0.  0.
          5    1    3    3  502    0  0.53174778401E+02  0.17802085048E+02  0.68116892106E+03  0.68348932713E+03  0.47000000000E+01 0. -1.
         -5    1    3    3    0  502 -0.25022527567E+02 -0.19989294349E+02  0.55529652168E+02  0.64275431109E+02  0.47000000000E+01 0. -1.
        -11    1    1    2    0    0 -0.53006303277E+02 -0.22761144458E+02  0.32858051849E+03  0.33360589776E+03  0.00000000000E+00 0.  1.
         11    1    1    2    0    0  0.24854052443E+02  0.24948353758E+02  0.11717835095E+03  0.12235567094E+03  0.00000000000E+00 0. -1.
<mgrwt>
<rscale>  0 0.11920958E+03</rscale>
<asrwt>0</asrwt>
<pdfrwt beam="1">  1        2 0.18355249E+00 0.12816921E+03</pdfrwt>
<pdfrwt beam="2">  1       -2 0.16360690E-02 0.12816921E+03</pdfrwt>
<totfact> 0.19990348E+04</totfact>
</mgrwt>
</event>
<event>
 7    1  0.6419647E-006  0.1414953E+03  0.7546771E-02  0.1222661E+00
          2   -1    0    0  501    0  0.00000000000E+00  0.00000000000E+00  0.40798091459E+02  0.40798091459E+02  0.00000000000E+00 0.  1.
         -2   -1    0    0    0  501 -0.00000000000E+00 -0.00000000000E+00 -0.43284829674E+03  0.43284829674E+03  0.00000000000E+00 0. -1.
         23    2    1    2    0    0  0.74485767549E+01  0.65889442963E+02 -0.14478575849E+03  0.20244461609E+03  0.12499602687E+03 0.  0.
          5    1    3    3  502    0 -0.89260425894E+01  0.44148827519E+02  0.90219711104E+01  0.46176608476E+02  0.47000000000E+01 0.  1.
         -5    1    3    3    0  502  0.16374619344E+02  0.21740615443E+02 -0.15380772960E+03  0.15626800762E+03  0.47000000000E+01 0.  1.
        -11    1    1    2    0    0 -0.37909966849E+02 -0.42553265454E+02 -0.21043083462E+03  0.21801165599E+03  0.00000000000E+00 0. -1.
         11    1    1    2    0    0  0.30461390094E+02 -0.23336177508E+02 -0.36833612159E+02  0.53190116110E+02  0.00000000000E+00 0.  1.
<mgrwt>
<rscale>  0 0.13328489E+03</rscale>
<asrwt>0</asrwt>
<pdfrwt beam="1">  1        2 0.62766295E-02 0.14149525E+03</pdfrwt>
<pdfrwt beam="2">  1       -2 0.66592045E-01 0.14149525E+03</pdfrwt>
<totfact> 0.23798635E+03</totfact>
</mgrwt>
</event>
<event>
 7    1  0.6419647E-006  0.1384093E+03  0.7546771E-02  0.1230096E+00
          1   -1    0    0  501    0  0.00000000000E+00  0.00000000000E+00  0.60821328692E+03  0.60821328692E+03  0.00000000000E+00 0. -1.
         -1   -1    0    0    0  501 -0.00000000000E+00 -0.00000000000E+00 -0.23957208069E+02  0.23957208069E+02  0.00000000000E+00 0.  1.
         23    2    1    2    0    0 -0.58488862549E+02  0.10581535902E+02  0.36475989503E+03  0.39013705628E+03  0.12499690284E+03 0.  0.
          5    1    3    3  502    0 -0.59404223326E+02 -0.42420857052E+02  0.28511329354E+03  0.29434685494E+03  0.47000000000E+01 0.  1.
         -5    1    3    3    0  502  0.91536077704E+00  0.53002392954E+02  0.79646601486E+02  0.95790201339E+02  0.47000000000E+01 0.  1.
        -11    1    1    2    0    0  0.79461589318E+02 -0.13347551898E+02  0.16652031095E+03  0.18499004102E+03  0.00000000000E+00 0.  1.
         11    1    1    2    0    0 -0.20972726769E+02  0.27660159957E+01  0.52975872882E+02  0.57043397692E+02  0.00000000000E+00 0. -1.
<mgrwt>
<rscale>  0 0.12823648E+03</rscale>
<asrwt>0</asrwt>
<pdfrwt beam="1">  1        1 0.93571263E-01 0.13840933E+03</pdfrwt>
<pdfrwt beam="2">  1       -1 0.36857248E-02 0.13840933E+03</pdfrwt>
<totfact> 0.91859250E+03</totfact>
</mgrwt>
</event>
<event>
 7    1  0.6419647E-006  0.1408523E+03  0.7546771E-02  0.1223094E+00
          1   -1    0    0  501    0  0.00000000000E+00  0.00000000000E+00  0.38767036101E+02  0.38767036101E+02  0.00000000000E+00 0. -1.
         -1   -1    0    0    0  501 -0.00000000000E+00 -0.00000000000E+00 -0.42127563020E+03  0.42127563020E+03  0.00000000000E+00 0.  1.
         23    2    1    2    0    0 -0.50617822697E+02  0.40644151359E+02 -0.17882333100E+03  0.22763382349E+03  0.12500105148E+03 0.  0.
          5    1    3    3  502    0 -0.18169181610E+01 -0.36409902519E+02 -0.10156022722E+03  0.10800718470E+03  0.47000000000E+01 0. -1.
         -5    1    3    3    0  502 -0.48800904536E+02  0.77054053878E+02 -0.77263103781E+02  0.11962663879E+03  0.47000000000E+01 0. -1.
        -11    1    1    2    0    0 -0.10531736776E+02 -0.42067712775E+02 -0.12770699818E+03  0.13486914889E+03  0.00000000000E+00 0.  1.
         11    1    1    2    0    0  0.61149559473E+02  0.14235614163E+01 -0.75978264914E+02  0.97539693921E+02  0.00000000000E+00 0. -1.
<mgrwt>
<rscale>  0 0.13298429E+03</rscale>
<asrwt>0</asrwt>
<pdfrwt beam="1">  1        1 0.59641600E-02 0.14085231E+03</pdfrwt>
<pdfrwt beam="2">  1       -1 0.64811629E-01 0.14085231E+03</pdfrwt>
<totfact> 0.31427115E+03</totfact>
</mgrwt>
</event>
<event>
 7    1  0.6419647E-006  0.1287071E+03  0.7546771E-02  0.1243477E+00
         -2   -1    0    0    0  501 -0.00000000000E+00  0.00000000000E+00  0.15747591729E+02  0.15747591729E+02  0.00000000000E+00 0.  1.
          2   -1    0    0  501    0  0.00000000000E+00 -0.00000000000E+00 -0.89205813392E+03  0.89205813392E+03  0.00000000000E+00 0. -1.
         23    2    1    2    0    0 -0.97579558400E+01  0.29087587954E+02 -0.63496796235E+03  0.64788103901E+03  0.12499688810E+03 0.  0.
          5    1    3    3  502    0 -0.66961453201E+02  0.99952218389E+01 -0.35955074488E+03  0.36589967042E+03  0.47000000000E+01 0. -1.
         -5    1    3    3    0  502  0.57203497361E+02  0.19092366116E+02 -0.27541721747E+03  0.28198136859E+03  0.47000000000E+01 0. -1.
        -11    1    1    2    0    0  0.33420109873E+02 -0.42891967080E+02 -0.82968255450E+02  0.99198568520E+02  0.00000000000E+00 0.  1.
         11    1    1    2    0    0 -0.23662154033E+02  0.13804379126E+02 -0.15837432439E+03  0.16072611811E+03  0.00000000000E+00 0. -1.
<mgrwt>
<rscale>  0 0.11976985E+03</rscale>
<asrwt>0</asrwt>
<pdfrwt beam="2">  1        2 0.13723971E+00 0.12870714E+03</pdfrwt>
<pdfrwt beam="1">  1       -2 0.24227065E-02 0.12870714E+03</pdfrwt>
<totfact> 0.17002105E+04</totfact>
</mgrwt>
</event>
<event>
 7    1  0.6419647E-006  0.1328165E+03  0.7546771E-02  0.1237181E+00
         -2   -1    0    0    0  501 -0.00000000000E+00  0.00000000000E+00  0.32102143707E+02  0.32102143707E+02  0.00000000000E+00 0.  1.
          2   -1    0    0  501    0  0.00000000000E+00 -0.00000000000E+00 -0.54379419610E+03  0.54379419610E+03  0.00000000000E+00 0. -1.
         23    2    1    2    0    0 -0.95726591314E+01 -0.43860908276E+02 -0.41952507396E+03  0.44004717124E+03  0.12499924066E+03 0.  0.
          5    1    3    3  502    0 -0.44654252565E+02 -0.63978793995E+02 -0.35684815285E+03  0.36530806526E+03  0.47000000000E+01 0.  1.
         -5    1    3    3    0  502  0.35081593433E+02  0.20117885719E+02 -0.62676921103E+02  0.74739105979E+02  0.47000000000E+01 0.  1.
        -11    1    1    2    0    0  0.23397376739E+02  0.67740195566E+02 -0.59984985517E+02  0.93457850505E+02  0.00000000000E+00 0.  1.
         11    1    1    2    0    0 -0.13824717607E+02 -0.23879287289E+02 -0.32181992917E+02  0.42391318056E+02  0.00000000000E+00 0. -1.
<mgrwt>
<rscale>  0 0.12365817E+03</rscale>
<asrwt>0</asrwt>
<pdfrwt beam="2">  1        2 0.83660647E-01 0.13281651E+03</pdfrwt>
<pdfrwt beam="1">  1       -2 0.49387913E-02 0.13281651E+03</pdfrwt>
<totfact> 0.10731398E+04</totfact>
</mgrwt>
</event>
<event>
 7    1  0.6419647E-006  0.1427954E+03  0.7546771E-02  0.1220031E+00
          1   -1    0    0  501    0  0.00000000000E+00  0.00000000000E+00  0.64123564502E+02  0.64123564502E+02  0.00000000000E+00 0. -1.
         -1   -1    0    0    0  501 -0.00000000000E+00 -0.00000000000E+00 -0.30399418062E+03  0.30399418062E+03  0.00000000000E+00 0.  1.
         23    2    1    2    0    0 -0.48430046495E+02  0.49189469149E+02 -0.60017812453E+02  0.15489562264E+03  0.12500177128E+03 0.  0.
          5    1    3    3  502    0  0.22115502151E+02  0.40548453336E+02  0.17507162209E+02  0.49617166706E+02  0.47000000000E+01 0.  1.
         -5    1    3    3    0  502 -0.70545548646E+02  0.86410158129E+01 -0.77524974662E+02  0.10527845594E+03  0.47000000000E+01 0.  1.
        -11    1    1    2    0    0 -0.15133172030E+01 -0.19166915890E+02  0.46119981219E+01  0.19771983218E+02  0.00000000000E+00 0. -1.
         11    1    1    2    0    0  0.49943363698E+02 -0.30022553260E+02 -0.18446480179E+03  0.19345013926E+03  0.00000000000E+00 0.  1.
<mgrwt>
<rscale>  0 0.13513362E+03</rscale>
<asrwt>0</asrwt>
<pdfrwt beam="1">  1        1 0.98651638E-02 0.14279536E+03</pdfrwt>
<pdfrwt beam="2">  1       -1 0.46768335E-01 0.14279536E+03</pdfrwt>
<totfact> 0.29387525E+03</totfact>
</mgrwt>
</event>
<event>
 7    1  0.6419647E-006  0.1499414E+03  0.7546771E-02  0.1210250E+00
          2   -1    0    0  501    0  0.00000000000E+00  0.00000000000E+00  0.10260162422E+04  0.10260162422E+04  0.00000000000E+00 0. -1.
         -2   -1    0    0    0  501 -0.00000000000E+00 -0.00000000000E+00 -0.17977035086E+02  0.17977035086E+02  0.00000000000E+00 0.  1.
         23    2    1    2    0    0  0.70916278526E+01  0.82512872252E+02  0.55394198636E+03  0.57387642798E+03  0.12499506020E+03 0.  0.
          5    1    3    3  502    0 -0.29155069964E+02 -0.16796977698E+02  0.62168537901E+02  0.70846126705E+02  0.47000000000E+01 0. -1.
         -5    1    3    3    0  502  0.36246697816E+02  0.99309849949E+02  0.49177344845E+03  0.50303030128E+03  0.47000000000E+01 0. -1.
        -11    1    1    2    0    0 -0.14921509096E+02  0.65903234670E+01  0.15534717559E+02  0.22525790702E+02  0.00000000000E+00 0.  1.
         11    1    1    2    0    0  0.78298812433E+01 -0.89103195719E+02  0.43856250322E+03  0.44759105862E+03  0.00000000000E+00 0. -1.
<mgrwt>
<rscale>  0 0.14231293E+03</rscale>
<asrwt>0</asrwt>
<pdfrwt beam="1">  1        2 0.15784861E+00 0.14994142E+03</pdfrwt>
<pdfrwt beam="2">  1       -2 0.27656985E-02 0.14994142E+03</pdfrwt>
<totfact> 0.11715460E+04</totfact>
</mgrwt>
</event>
<event>
 7    1  0.6419647E-006  0.1309268E+03  0.7546771E-02  0.1238794E+00
          1   -1    0    0  501    0  0.00000000000E+00  0.00000000000E+00  0.54013354653E+02  0.54013354653E+02  0.00000000000E+00 0. -1.
         -1   -1    0    0    0  501 -0.00000000000E+00 -0.00000000000E+00 -0.25372130880E+03  0.25372130880E+03  0.00000000000E+00 0.  1.
         23    2    1    2    0    0  0.98126845890E+01  0.37685744583E+02 -0.90827826863E+02  0.15934717297E+03  0.12500129310E+03 0.  0.
          5    1    3    3  502    0 -0.41806054831E+02  0.40867909104E+02 -0.47831166354E+01  0.58846413823E+02  0.47000000000E+01 0. -1.
         -5    1    3    3    0  502  0.51618739420E+02 -0.31821645206E+01 -0.86044710228E+02  0.10050075914E+03  0.47000000000E+01 0. -1.
        -11    1    1    2    0    0  0.98702926900E+01 -0.52026990128E+02 -0.20618089800E+02  0.56827247043E+02  0.00000000000E+00 0. -1.
         11    1    1    2    0    0 -0.19682977279E+02  0.14341245544E+02 -0.88262037485E+02  0.91560243443E+02  0.00000000000E+00 0.  1.
<mgrwt>
<rscale>  0 0.12264626E+03</rscale>
<asrwt>0</asrwt>
<pdfrwt beam="1">  1        1 0.83097468E-02 0.13092680E+03</pdfrwt>
<pdfrwt beam="2">  1       -1 0.39034048E-01 0.13092680E+03</pdfrwt>
<totfact> 0.50642477E+03</totfact>
</mgrwt>
</event>
<event>
 7    1  0.6419647E-006  0.1472199E+03  0.7546771E-02  0.1212720E+00
          2   -1    0    0  501    0  0.00000000000E+00  0.00000000000E+00  0.19919065371E+03  0.19919065371E+03  0.00000000000E+00 0. -1.
         -2   -1    0    0    0  501 -0.00000000000E+00 -0.00000000000E+00 -0.91794090132E+02  0.91794090132E+02  0.00000000000E+00 0.  1.
         23    2    1    2    0    0  0.72510947642E+02  0.28127227117E+02  0.72639156625E+02  0.16416495425E+03  0.12499882678E+03 0.  0.
          5    1    3    3  502    0  0.43413086460E+02 -0.42682398113E+02  0.61492961714E+02  0.86660011107E+02  0.47000000000E+01 0. -1.
         -5    1    3    3    0  502  0.29097861182E+02  0.70809625230E+02  0.11146194911E+02  0.77504943142E+02  0.47000000000E+01 0. -1.
        -11    1    1    2    0    0 -0.27827240347E+02 -0.12656156434E+02 -0.32490384127E+02  0.44611194355E+02  0.00000000000E+00 0.  1.
         11    1    1    2    0    0 -0.44683707295E+02 -0.15471070683E+02  0.67247791076E+02  0.82208595234E+02  0.00000000000E+00 0. -1.
<mgrwt>
<rscale>  0 0.14045350E+03</rscale>
<asrwt>0</asrwt>
<pdfrwt beam="1">  1        2 0.30644716E-01 0.14721985E+03</pdfrwt>
<pdfrwt beam="2">  1       -2 0.14122168E-01 0.14721985E+03</pdfrwt>
<totfact> 0.62029049E+03</totfact>
</mgrwt>
</event>
<event>
 7    1  0.6419647E-006  0.1852552E+03  0.7546771E-02  0.1168186E+00
          2   -1    0    0  501    0  0.00000000000E+00  0.00000000000E+00  0.21714054848E+04  0.21714054848E+04  0.00000000000E+00 0. -1.
         -2   -1    0    0    0  501 -0.00000000000E+00 -0.00000000000E+00 -0.14824715359E+02  0.14824715359E+02  0.00000000000E+00 0.  1.
         23    2    1    2    0    0  0.13641466117E+03  0.95839521997E+01  0.13960815701E+04  0.14083192926E+04  0.12497466758E+03 0.  0.
          5    1    3    3  502    0  0.12560096048E+03  0.52656774490E+02  0.11666549904E+04  0.11745868609E+04  0.47000000000E+01 0. -1.
         -5    1    3    3    0  502  0.10813700689E+02 -0.43072822290E+02  0.22942657970E+03  0.23373243168E+03  0.47000000000E+01 0. -1.
        -11    1    1    2    0    0 -0.13518395879E+03  0.15233421648E+02  0.68656215512E+03  0.69991024617E+03  0.00000000000E+00 0. -1.
         11    1    1    2    0    0 -0.12307023739E+01 -0.24817373847E+02  0.73937044155E+02  0.78000661352E+02  0.00000000000E+00 0.  1.
<mgrwt>
<rscale>  0 0.17960439E+03</rscale>
<asrwt>0</asrwt>
<pdfrwt beam="1">  1        2 0.33406213E+00 0.18525517E+03</pdfrwt>
<pdfrwt beam="2">  1       -2 0.22807272E-02 0.18525517E+03</pdfrwt>
<totfact> 0.38422585E+03</totfact>
</mgrwt>
</event>
<event>
 7    1  0.6419647E-006  0.1421495E+03  0.7546771E-02  0.1221062E+00
         -1   -1    0    0    0  501 -0.00000000000E+00  0.00000000000E+00  0.55375654873E+02  0.55375654873E+02  0.00000000000E+00 0.  1.
          1   -1    0    0  501    0  0.00000000000E+00 -0.00000000000E+00 -0.31140781242E+03  0.31140781242E+03  0.00000000000E+00 0. -1.
         23    2    1    2    0    0 -0.51441428668E+02  0.43999576020E+02 -0.18299663037E+03  0.23172017590E+03  0.12499715964E+03 0.  0.
          5    1    3    3  502    0 -0.46953964419E+02  0.34346339133E+02 -0.20154391236E+03  0.20982465154E+03  0.47000000000E+01 0.  1.
         -5    1    3    3    0  502 -0.44874642484E+01  0.96532368870E+01  0.18547281987E+02  0.21895524358E+02  0.47000000000E+01 0.  1.
        -11    1    1    2    0    0  0.45353411226E+02 -0.17563175914E+02 -0.90541315755E+02  0.10277707389E+03  0.00000000000E+00 0. -1.
         11    1    1    2    0    0  0.60880174419E+01 -0.26436400106E+02  0.17505788580E+02  0.32286217505E+02  0.00000000000E+00 0.  1.
<mgrwt>
<rscale>  0 0.13440515E+03</rscale>
<asrwt>0</asrwt>
<pdfrwt beam="2">  1        1 0.47908893E-01 0.14214947E+03</pdfrwt>
<pdfrwt beam="1">  1       -1 0.85193317E-02 0.14214947E+03</pdfrwt>
<totfact> 0.62530962E+03</totfact>
</mgrwt>
</event>
<event>
 7    1  0.6419647E-006  0.1754096E+03  0.7546771E-02  0.1180073E+00
         -2   -1    0    0    0  501 -0.00000000000E+00  0.00000000000E+00  0.87855600950E+02  0.87855600950E+02  0.00000000000E+00 0.  1.
          2   -1    0    0  501    0  0.00000000000E+00 -0.00000000000E+00 -0.30938978192E+03  0.30938978192E+03  0.00000000000E+00 0. -1.
         23    2    1    2    0    0 -0.80398384041E+02  0.93161991646E+02 -0.16100119793E+03  0.23809645540E+03  0.12500191797E+03 0.  0.
          5    1    3    3  502    0 -0.95067844572E+02  0.26899958493E+02 -0.12996222356E+03  0.16332107149E+03  0.47000000000E+01 0.  1.
         -5    1    3    3    0  502  0.14669460531E+02  0.66262033153E+02 -0.31038974368E+02  0.74775383915E+02  0.47000000000E+01 0.  1.
        -11    1    1    2    0    0  0.29741201618E+02 -0.22397188086E+02 -0.61758120051E+02  0.72112679191E+02  0.00000000000E+00 0. -1.
         11    1    1    2    0    0  0.50657182423E+02 -0.70764803560E+02  0.12251370071E+01  0.87036248280E+02  0.00000000000E+00 0.  1.
<mgrwt>
<rscale>  0 0.16788340E+03</rscale>
<asrwt>0</asrwt>
<pdfrwt beam="2">  1        2 0.47598428E-01 0.17540962E+03</pdfrwt>
<pdfrwt beam="1">  1       -2 0.13516246E-01 0.17540962E+03</pdfrwt>
<totfact> 0.41944698E+03</totfact>
</mgrwt>
</event>
<event>
 7    1  0.6419647E-006  0.1326463E+03  0.7546771E-02  0.1238287E+00
         -1   -1    0    0    0  501 -0.00000000000E+00  0.00000000000E+00  0.38164182507E+03  0.38164182507E+03  0.00000000000E+00 0.  1.
          1   -1    0    0  501    0  0.00000000000E+00 -0.00000000000E+00 -0.34869760532E+02  0.34869760532E+02  0.00000000000E+00 0. -1.
         23    2    1    2    0    0  0.40200193250E+02  0.18774349693E+02  0.19282542670E+03  0.23404419684E+03  0.12500603645E+03 0.  0.
          5    1    3    3  502    0 -0.46230934741E+01  0.24541800852E+02 -0.91592298619E+01  0.27012117170E+02  0.47000000000E+01 0.  1.
         -5    1    3    3    0  502  0.44823286724E+02 -0.57674511591E+01  0.20198465656E+03  0.20703207967E+03  0.47000000000E+01 0.  1.
        -11    1    1    2    0    0 -0.41290035107E+02 -0.34391582337E+02  0.15749926194E+03  0.16641413836E+03  0.00000000000E+00 0.  1.
         11    1    1    2    0    0  0.10898418569E+01  0.15617232644E+02 -0.35526240959E+01  0.16053250409E+02  0.00000000000E+00 0. -1.
<mgrwt>
<rscale>  0 0.12296336E+03</rscale>
<asrwt>0</asrwt>
<pdfrwt beam="2">  1        1 0.53645788E-02 0.13264630E+03</pdfrwt>
<pdfrwt beam="1">  1       -1 0.58714124E-01 0.13264630E+03</pdfrwt>
<totfact> 0.43696512E+03</totfact>
</mgrwt>
</event>
<event>
 7    1  0.6419647E-006  0.1737240E+03  0.7546771E-02  0.1180156E+00
          1   -1    0    0  501    0  0.00000000000E+00  0.00000000000E+00  0.96968951722E+03  0.96968951722E+03  0.00000000000E+00 0. -1.
         -1   -1    0    0    0  501 -0.00000000000E+00 -0.00000000000E+00 -0.27230793278E+02  0.27230793278E+02  0.00000000000E+00 0.  1.
         23    2    1    2    0    0  0.11903194156E+03 -0.19733333909E+02  0.49621987216E+03  0.52575108065E+03  0.12498811826E+03 0.  0.
          5    1    3    3  502    0  0.32009100591E+02 -0.61129321589E+02  0.28915912365E+03  0.29731543059E+03  0.47000000000E+01 0.  1.
         -5    1    3    3    0  502  0.87022840965E+02  0.41395987680E+02  0.20706074851E+03  0.22843565006E+03  0.47000000000E+01 0.  1.
        -11    1    1    2    0    0 -0.37110454865E+02  0.41575193531E+02  0.26878963566E+03  0.27450601235E+03  0.00000000000E+00 0. -1.
         11    1    1    2    0    0 -0.81921486691E+02 -0.21841859622E+02  0.17744921612E+03  0.19666321750E+03  0.00000000000E+00 0.  1.
<mgrwt>
<rscale>  0 0.16780556E+03</rscale>
<asrwt>0</asrwt>
<pdfrwt beam="1">  1        1 0.14918298E+00 0.17372403E+03</pdfrwt>
<pdfrwt beam="2">  1       -1 0.41893536E-02 0.17372403E+03</pdfrwt>
<totfact> 0.38214234E+03</totfact>
</mgrwt>
</event>
<event>
 7    1  0.6419647E-006  0.1502488E+03  0.7546771E-02  0.1208211E+00
         -2   -1    0    0    0  501 -0.00000000000E+00  0.00000000000E+00  0.17889721972E+03  0.17889721972E+03  0.00000000000E+00 0.  1.
          2   -1    0    0  501    0  0.00000000000E+00 -0.00000000000E+00 -0.13260845955E+03  0.13260845955E+03  0.00000000000E+00 0. -1.
         23    2    1    2    0    0 -0.43186748753E+02 -0.71297430236E+02 -0.43621632339E+02  0.15645298072E+03  0.12500507806E+03 0.  0.
          5    1    3    3  502    0  0.61126241944E+01 -0.42981847724E+02 -0.78328305614E+02  0.89678408041E+02  0.47000000000E+01 0. -1.
         -5    1    3    3    0  502 -0.49299372947E+02 -0.28315582513E+02  0.34706673275E+02  0.66774572675E+02  0.47000000000E+01 0. -1.
        -11    1    1    2    0    0  0.33936946405E+02  0.16187485191E+02 -0.11453784947E+02  0.39305727289E+02  0.00000000000E+00 0. -1.
         11    1    1    2    0    0  0.92498023476E+01  0.55109945045E+02  0.10136417745E+03  0.11574697126E+03  0.00000000000E+00 0.  1.
<mgrwt>
<rscale>  0 0.14387278E+03</rscale>
<asrwt>0</asrwt>
<pdfrwt beam="2">  1        2 0.20401301E-01 0.15024875E+03</pdfrwt>
<pdfrwt beam="1">  1       -2 0.27522649E-01 0.15024875E+03</pdfrwt>
<totfact> 0.31429251E+03</totfact>
</mgrwt>
</event>
<event>
 7    1  0.6419647E-006  0.1408233E+03  0.7546771E-02  0.1223660E+00
         -2   -1    0    0    0  501 -0.00000000000E+00  0.00000000000E+00  0.13973846209E+03  0.13973846209E+03  0.00000000000E+00 0.  1.
          2   -1    0    0  501    0  0.00000000000E+00 -0.00000000000E+00 -0.21629210089E+03  0.21629210089E+03  0.00000000000E+00 0. -1.
         23    2    1    2    0    0  0.50041425971E+02 -0.41267174182E+02 -0.16313813283E+03  0.21551159072E+03  0.12499628543E+03 0.  0.
          5    1    3    3  502    0  0.27036301108E+02  0.10419867474E+02  0.11766805996E+02  0.31624087957E+02  0.47000000000E+01 0. -1.
         -5    1    3    3    0  502  0.23005124863E+02 -0.51687041656E+02 -0.17490493883E+03  0.18388750276E+03  0.47000000000E+01 0. -1.
        -11    1    1    2    0    0 -0.11682026802E+02  0.61683444430E+02  0.69946457457E+02  0.93988424701E+02  0.00000000000E+00 0.  1.
         11    1    1    2    0    0 -0.38359399169E+02 -0.20416270248E+02  0.16638036573E+02  0.46530547562E+02  0.00000000000E+00 0. -1.
<mgrwt>
<rscale>  0 0.13259194E+03</rscale>
<asrwt>0</asrwt>
<pdfrwt beam="2">  1        2 0.33275708E-01 0.14082328E+03</pdfrwt>
<pdfrwt beam="1">  1       -2 0.21498225E-01 0.14082328E+03</pdfrwt>
<totfact> 0.28111109E+03</totfact>
</mgrwt>
</event>
<event>
 7    1  0.6419647E-006  0.1439110E+03  0.7546771E-02  0.1216442E+00
         -2   -1    0    0    0  501 -0.00000000000E+00  0.00000000000E+00  0.28169995188E+02  0.28169995188E+02  0.00000000000E+00 0.  1.
          2   -1    0    0  501    0  0.00000000000E+00 -0.00000000000E+00 -0.10144241209E+04  0.10144241209E+04  0.00000000000E+00 0. -1.
         23    2    1    2    0    0  0.30280864859E+02 -0.64561387424E+02 -0.84342838446E+03  0.85561780210E+03  0.12500112011E+03 0.  0.
          5    1    3    3  502    0  0.70656507559E+02 -0.73239497483E+02 -0.56643322687E+03  0.57552155178E+03  0.47000000000E+01 0.  1.
         -5    1    3    3    0  502 -0.40375642700E+02  0.86781100592E+01 -0.27699515759E+03  0.28009625032E+03  0.47000000000E+01 0.  1.
        -11    1    1    2    0    0 -0.37737615963E+02 -0.84092760870E+01 -0.85657015630E+02  0.93978550263E+02  0.00000000000E+00 0. -1.
         11    1    1    2    0    0  0.74567511039E+01  0.72970663511E+02 -0.57168725637E+02  0.92997763743E+02  0.00000000000E+00 0.  1.
<mgrwt>
<rscale>  0 0.13771120E+03</rscale>
<asrwt>0</asrwt>
<pdfrwt beam="2">  1        2 0.15606527E+00 0.14391103E+03</pdfrwt>
<pdfrwt beam="1">  1       -2 0.43338448E-02 0.14391103E+03</pdfrwt>
<totfact> 0.61085223E+03</totfact>
</mgrwt>
</event>
<event>
 7    1  0.6419647E-006  0.1470734E+03  0.7546771E-02  0.1213934E+00
         -1   -1    0    0    0  501 -0.00000000000E+00  0.00000000000E+00  0.12731301166E+03  0.12731301166E+03  0.00000000000E+00 0.  1.
          1   -1    0    0  501    0  0.00000000000E+00 -0.00000000000E+00 -0.14310095598E+03  0.14310095598E+03  0.00000000000E+00 0. -1.
         23    2    1    2    0    0 -0.59459523279E+02  0.49698209845E+02  0.13385946678E+02  0.14768130031E+03  0.12500094369E+03 0.  0.
          5    1    3    3  502    0 -0.86694273550E+02 -0.29241520736E+01  0.15320051893E+02  0.88211346899E+02  0.47000000000E+01 0. -1.
         -5    1    3    3    0  502  0.27234750271E+02  0.52622361919E+02 -0.19341052151E+01  0.59469953416E+02  0.47000000000E+01 0. -1.
        -11    1    1    2    0    0  0.69451450498E+02 -0.20469481245E+01 -0.25094775158E+02  0.73874499749E+02  0.00000000000E+00 0.  1.
         11    1    1    2    0    0 -0.99919272192E+01 -0.47651261721E+02 -0.40791158349E+01  0.48858167579E+02  0.00000000000E+00 0. -1.
<mgrwt>
<rscale>  0 0.13955108E+03</rscale>
<asrwt>0</asrwt>
<pdfrwt beam="2">  1        1 0.22015532E-01 0.14707339E+03</pdfrwt>
<pdfrwt beam="1">  1       -1 0.19586617E-01 0.14707339E+03</pdfrwt>
<totfact> 0.45246951E+03</totfact>
</mgrwt>
</event>
<event>
 7    1  0.6419647E-006  0.2041060E+03  0.7546771E-02  0.1150868E+00
         -1   -1    0    0    0  501 -0.00000000000E+00  0.00000000000E+00  0.15392116164E+02  0.15392116164E+02  0.00000000000E+00 0. -1.
          1   -1    0    0  501    0  0.00000000000E+00 -0.00000000000E+00 -0.25402435101E+04  0.25402435101E+04  0.00000000000E+00 0.  1.
         23    2    1    2    0    0  0.12321493835E+03 -0.10426628990E+03 -0.15856102200E+04  0.15986929096E+04  0.12492345294E+03 0.  0.
          5    1    3    3  502    0  0.27602629197E+02 -0.40802307959E+02 -0.10374441418E+04  0.10386236907E+04  0.47000000000E+01 0. -1.
         -5    1    3    3    0  502  0.95612309153E+02 -0.63463981936E+02 -0.54816607822E+03  0.56006921892E+03  0.47000000000E+01 0. -1.
        -11    1    1    2    0    0 -0.23792018459E+01  0.46249004158E+02 -0.17435982619E+03  0.18040504421E+03  0.00000000000E+00 0.  1.
         11    1    1    2    0    0 -0.12083573650E+03  0.58017285737E+02 -0.76488134770E+03  0.77653767244E+03  0.00000000000E+00 0. -1.
<mgrwt>
<rscale>  0 0.19866814E+03</rscale>
<asrwt>0</asrwt>
<pdfrwt beam="2">  1        1 0.39080633E+00 0.20410598E+03</pdfrwt>
<pdfrwt beam="1">  1       -1 0.23680201E-02 0.20410598E+03</pdfrwt>
<totfact> 0.80463140E+02</totfact>
</mgrwt>
</event>
<event>
 7    1  0.6419647E-006  0.1382036E+03  0.7546771E-02  0.1229518E+00
          2   -1    0    0  501    0  0.00000000000E+00  0.00000000000E+00  0.20914256753E+03  0.20914256753E+03  0.00000000000E+00 0.  1.
         -2   -1    0    0    0  501 -0.00000000000E+00 -0.00000000000E+00 -0.99784388688E+02  0.99784388688E+02  0.00000000000E+00 0. -1.
         23    2    1    2    0    0  0.51888653732E+02  0.27950916651E+02  0.14402524050E+03  0.19960839558E+03  0.12500622207E+03 0.  0.
          5    1    3    3  502    0  0.18260049323E+02  0.29279516423E+02 -0.14322422634E+02  0.37655560988E+02  0.47000000000E+01 0.  1.
         -5    1    3    3    0  502  0.33628604409E+02 -0.13285997716E+01  0.15834766313E+03  0.16195283459E+03  0.47000000000E+01 0.  1.
        -11    1    1    2    0    0 -0.30970993554E+02 -0.50636392636E+02 -0.47376879492E+02  0.75946134934E+02  0.00000000000E+00 0. -1.
         11    1    1    2    0    0 -0.20917660178E+02  0.22685475985E+02  0.12709817831E+02  0.33372425702E+02  0.00000000000E+00 0.  1.
<mgrwt>
<rscale>  0 0.12862023E+03</rscale>
<asrwt>0</asrwt>
<pdfrwt beam="1">  1        2 0.32175780E-01 0.13820362E+03</pdfrwt>
<pdfrwt beam="2">  1       -2 0.15351444E-01 0.13820362E+03</pdfrwt>
<totfact> 0.51148381E+03</totfact>
</mgrwt>
</event>
<event>
 7    1  0.6419647E-006  0.1311904E+03  0.7546771E-02  0.1240151E+00
          1   -1    0    0  501    0  0.00000000000E+00  0.00000000000E+00  0.56165466662E+03  0.56165466662E+03  0.00000000000E+00 0. -1.
         -1   -1    0    0    0  501 -0.00000000000E+00 -0.00000000000E+00 -0.25154266339E+02  0.25154266339E+02  0.00000000000E+00 0.  1.
         23    2    1    2    0    0  0.38415343046E+02  0.10519206342E+02  0.38420724279E+03  0.40598784114E+03  0.12499811781E+03 0.  0.
          5    1    3    3  502    0  0.79521477636E+02  0.24176140722E+02  0.19873053817E+03  0.21546245146E+03  0.47000000000E+01 0.  1.
         -5    1    3    3    0  502 -0.41106134590E+02 -0.13656934380E+02  0.18547670461E+03  0.19052538968E+03  0.47000000000E+01 0.  1.
        -11    1    1    2    0    0  0.18125397826E+02 -0.27491811060E+02  0.85810525508E+02  0.91911783846E+02  0.00000000000E+00 0. -1.
         11    1    1    2    0    0 -0.56540740872E+02  0.16972604719E+02  0.66482631983E+02  0.88909307975E+02  0.00000000000E+00 0.  1.
<mgrwt>
<rscale>  0 0.12180342E+03</rscale>
<asrwt>0</asrwt>
<pdfrwt beam="1">  1        1 0.86408401E-01 0.13119040E+03</pdfrwt>
<pdfrwt beam="2">  1       -1 0.38698876E-02 0.13119040E+03</pdfrwt>
<totfact> 0.94909228E+03</totfact>
</mgrwt>
</event>
<event>
 7    1  0.6419647E-006  0.1251993E+03  0.7546771E-02  0.1249045E+00
          3   -1    0    0  501    0  0.00000000000E+00  0.00000000000E+00  0.59623280384E+02  0.59623280384E+02  0.00000000000E+00 0. -1.
         -3   -1    0    0    0  501 -0.00000000000E+00 -0.00000000000E+00 -0.23886557958E+03  0.23886557958E+03  0.00000000000E+00 0.  1.
         23    2    1    2    0    0 -0.16079344931E+01  0.69688612205E+01 -0.41557051154E+02  0.13191605279E+03  0.12499482390E+03 0.  0.
          5    1    3    3  502    0 -0.40753234297E+02 -0.35325331705E+02  0.92780561461E+01  0.54926109380E+02  0.47000000000E+01 0. -1.
         -5    1    3    3    0  502  0.39145299804E+02  0.42294192925E+02 -0.50835107300E+02  0.76989943409E+02  0.47000000000E+01 0. -1.
        -11    1    1    2    0    0 -0.25957960551E+02  0.14275829258E+02 -0.12664114403E+03  0.13005996455E+03  0.00000000000E+00 0.  1.
         11    1    1    2    0    0  0.27565895044E+02 -0.21244690479E+02 -0.11044104007E+02  0.36512842623E+02  0.00000000000E+00 0. -1.
<mgrwt>
<rscale>  0 0.11646501E+03</rscale>
<asrwt>0</asrwt>
<pdfrwt beam="1">  1        3 0.91728124E-02 0.12519927E+03</pdfrwt>
<pdfrwt beam="2">  1       -3 0.36748551E-01 0.12519927E+03</pdfrwt>
<totfact> 0.14126556E+03</totfact>
</mgrwt>
</event>
<event>
 7    1  0.6419647E-006  0.1267456E+03  0.7546771E-02  0.1246747E+00
         -3   -1    0    0    0  501 -0.00000000000E+00  0.00000000000E+00  0.16667487564E+03  0.16667487564E+03  0.00000000000E+00 0.  1.
          3   -1    0    0  501    0  0.00000000000E+00 -0.00000000000E+00 -0.23121323108E+03  0.23121323108E+03  0.00000000000E+00 0. -1.
         23    2    1    2    0    0  0.14185929599E+02 -0.15478631813E+02 -0.19751425995E+03  0.23468349208E+03  0.12499451961E+03 0.  0.
          5    1    3    3  502    0 -0.22733749599E+02  0.21758927230E+01  0.83288330294E+01  0.24759186974E+02  0.47000000000E+01 0. -1.
         -5    1    3    3    0  502  0.36919679198E+02 -0.17654524536E+02 -0.20584309298E+03  0.20992430511E+03  0.47000000000E+01 0. -1.
        -11    1    1    2    0    0 -0.32805054855E+02  0.47201248519E+02  0.74072355510E+02  0.93759497314E+02  0.00000000000E+00 0. -1.
         11    1    1    2    0    0  0.18619125256E+02 -0.31722616706E+02  0.58903548993E+02  0.69445117322E+02  0.00000000000E+00 0.  1.
<mgrwt>
<rscale>  0 0.11781397E+03</rscale>
<asrwt>0</asrwt>
<pdfrwt beam="2">  1        3 0.35571266E-01 0.12674565E+03</pdfrwt>
<pdfrwt beam="1">  1       -3 0.25642289E-01 0.12674565E+03</pdfrwt>
<totfact> 0.25818679E+02</totfact>
</mgrwt>
</event>
<event>
 7    1  0.6419647E-006  0.2484085E+03  0.7546771E-02  0.1116766E+00
          2   -1    0    0  501    0  0.00000000000E+00  0.00000000000E+00  0.71123315003E+03  0.71123315003E+03  0.00000000000E+00 0. -1.
         -2   -1    0    0    0  501 -0.00000000000E+00 -0.00000000000E+00 -0.10528928366E+03  0.10528928366E+03  0.00000000000E+00 0.  1.
         23    2    1    2    0    0  0.21351538650E+03  0.22201425943E+02  0.50365464507E+03  0.56158239474E+03  0.12500024399E+03 0.  0.
          5    1    3    3  502    0  0.38048072710E+02  0.43913309862E+02  0.21752955748E+03  0.22520486894E+03  0.47000000000E+01 0. -1.
         -5    1    3    3    0  502  0.17546731379E+03 -0.21711883919E+02  0.28612508760E+03  0.33637752580E+03  0.47000000000E+01 0. -1.
        -11    1    1    2    0    0 -0.29353704933E+02  0.26757640167E+02  0.24087481394E+01  0.39792126962E+02  0.00000000000E+00 0.  1.
         11    1    1    2    0    0 -0.18416168157E+03 -0.48959066110E+02  0.99880473153E+02  0.21514791198E+03  0.00000000000E+00 0. -1.
<mgrwt>
<rscale>  0 0.24459953E+03</rscale>
<asrwt>0</asrwt>
<pdfrwt beam="1">  1        2 0.10942048E+00 0.24840850E+03</pdfrwt>
<pdfrwt beam="2">  1       -2 0.16198352E-01 0.24840850E+03</pdfrwt>
<totfact> 0.12387440E+03</totfact>
</mgrwt>
</event>
<event>
 7    1  0.6419647E-006  0.2068766E+03  0.7546771E-02  0.1148518E+00
          1   -1    0    0  501    0  0.00000000000E+00  0.00000000000E+00  0.13500909771E+03  0.13500909771E+03  0.00000000000E+00 0. -1.
         -1   -1    0    0    0  501 -0.00000000000E+00 -0.00000000000E+00 -0.34141543732E+03  0.34141543732E+03  0.00000000000E+00 0.  1.
         23    2    1    2    0    0  0.11480265532E+03  0.11829327098E+03 -0.11807071573E+02  0.20721324548E+03  0.12499989814E+03 0.  0.
          5    1    3    3  502    0 -0.78857064438E+01 -0.32928979070E+01 -0.31804332419E+02  0.33266095403E+02  0.47000000000E+01 0.  1.
         -5    1    3    3    0  502  0.12268836177E+03  0.12158616889E+03  0.19997260846E+02  0.17394715008E+03  0.47000000000E+01 0.  1.
        -11    1    1    2    0    0 -0.82570195971E+02 -0.23905107123E+02 -0.82167511421E+02  0.11891505936E+03  0.00000000000E+00 0.  1.
         11    1    1    2    0    0 -0.32232459352E+02 -0.94388163861E+02 -0.11243175662E+03  0.15029623019E+03  0.00000000000E+00 0. -1.
<mgrwt>
<rscale>  0 0.20145460E+03</rscale>
<asrwt>0</asrwt>
<pdfrwt beam="1">  1        1 0.20770630E-01 0.20687659E+03</pdfrwt>
<pdfrwt beam="2">  1       -1 0.52525452E-01 0.20687659E+03</pdfrwt>
<totfact> 0.90860410E+02</totfact>
</mgrwt>
</event>
<event>
 7    1  0.6419647E-006  0.1392171E+03  0.7546771E-02  0.1225692E+00
         -1   -1    0    0    0  501 -0.00000000000E+00  0.00000000000E+00  0.45813392962E+02  0.45813392962E+02  0.00000000000E+00 0.  1.
          1   -1    0    0  501    0  0.00000000000E+00 -0.00000000000E+00 -0.34741904528E+03  0.34741904528E+03  0.00000000000E+00 0. -1.
         23    2    1    2    0    0 -0.49322816221E+02 -0.36430791379E+02 -0.19965237478E+03  0.24339774031E+03  0.12498578509E+03 0.  0.
          5    1    3    3  502    0  0.20836632974E+02  0.20766973490E+02 -0.11698805340E+03  0.12072169274E+03  0.47000000000E+01 0. -1.
         -5    1    3    3    0  502 -0.70159449195E+02 -0.57197764868E+02 -0.82664321383E+02  0.12267604757E+03  0.47000000000E+01 0. -1.
        -11    1    1    2    0    0  0.27535560099E+02 -0.17113719161E+02  0.24353512073E+00  0.32421378176E+02  0.00000000000E+00 0.  1.
         11    1    1    2    0    0  0.21787256122E+02  0.53544510539E+02 -0.10219681266E+03  0.11741331976E+03  0.00000000000E+00 0. -1.
<mgrwt>
<rscale>  0 0.13119570E+03</rscale>
<asrwt>0</asrwt>
<pdfrwt beam="2">  1        1 0.53449084E-01 0.13921706E+03</pdfrwt>
<pdfrwt beam="1">  1       -1 0.70482143E-02 0.13921706E+03</pdfrwt>
<totfact> 0.72529745E+03</totfact>
</mgrwt>
</event>
<event>
 7    1  0.6419647E-006  0.2180704E+03  0.7546771E-02  0.1138644E+00
         -3   -1    0    0    0  501 -0.00000000000E+00  0.00000000000E+00  0.15440133165E+03  0.15440133165E+03  0.00000000000E+00 0.  1.
          3   -1    0    0  501    0  0.00000000000E+00 -0.00000000000E+00 -0.32017783381E+03  0.32017783381E+03  0.00000000000E+00 0. -1.
         23    2    1    2    0    0 -0.17778787790E+03 -0.17909172828E+02 -0.16481695853E+03  0.27334837358E+03  0.12500174206E+03 0.  0.
          5    1    3    3  502    0 -0.18175948018E+03  0.16851717934E+02 -0.14200282277E+03  0.23131662437E+03  0.47000000000E+01 0.  1.
         -5    1    3    3    0  502  0.39716022797E+01 -0.34760890762E+02 -0.22814135767E+02  0.42031749215E+02  0.47000000000E+01 0.  1.
        -11    1    1    2    0    0 -0.67767471169E+01  0.14898791323E+02  0.27892233251E+01  0.16603555376E+02  0.00000000000E+00 0.  1.
         11    1    1    2    0    0  0.18456462502E+03  0.30103815047E+01 -0.37487669498E+01  0.18462723650E+03  0.00000000000E+00 0. -1.
<mgrwt>
<rscale>  0 0.21373219E+03</rscale>
<asrwt>0</asrwt>
<pdfrwt beam="2">  1        3 0.49258128E-01 0.21807041E+03</pdfrwt>
<pdfrwt beam="1">  1       -3 0.23754051E-01 0.21807041E+03</pdfrwt>
<totfact> 0.16722720E+02</totfact>
</mgrwt>
</event>
<event>
 6    1  0.6419647E-006  0.3189737E+03  0.7546771E-02  0.1122249E+00
          2   -1    0    0  501    0  0.00000000000E+00  0.00000000000E+00  0.27900426715E+03  0.27900426715E+03  0.00000000000E+00 0. -1.
         -2   -1    0    0    0  501 -0.00000000000E+00 -0.00000000000E+00 -0.15797060977E+03  0.15797060977E+03  0.00000000000E+00 0.  1.
          5    1    1    2  502    0  0.81165132692E+01 -0.11701958175E+03  0.16368285935E+03  0.20142896699E+03  0.47000000000E+01 0. -1.
         -5    1    1    2    0  502 -0.33328836847E+02  0.12803928123E+03 -0.43623303116E+02  0.13939136085E+03  0.47000000000E+01 0.  1.
        -11    1    1    2    0    0  0.55703409084E+02 -0.13445934954E+02  0.19337515703E+02  0.60478115578E+02  0.00000000000E+00 0.  1.
         11    1    1    2    0    0 -0.30491085506E+02  0.24262354722E+01 -0.18363414550E+02  0.35676433508E+02  0.00000000000E+00 0. -1.
<mgrwt>
<rscale>  0 0.23634859E+03</rscale>
<asrwt>0</asrwt>
<pdfrwt beam="1">  1        2 0.42923734E-01 0.31897366E+03</pdfrwt>
<pdfrwt beam="2">  1       -2 0.24303171E-01 0.31897366E+03</pdfrwt>
<totfact> 0.17716749E+03</totfact>
</mgrwt>
</event>
<event>
 7    1  0.6419647E-006  0.1374278E+03  0.7546771E-02  0.1262818E+00
         -2   -1    0    0    0  501 -0.00000000000E+00  0.00000000000E+00  0.14981893108E+02  0.14981893108E+02  0.00000000000E+00 0.  1.
          2   -1    0    0  501    0  0.00000000000E+00 -0.00000000000E+00 -0.61281419142E+03  0.61281419142E+03  0.00000000000E+00 0. -1.
         23    2    1    2    0    0 -0.50320139367E+02  0.75979022744E+01 -0.44279734015E+03  0.46363334013E+03  0.12765792215E+03 0.  0.
          5    1    3    3  502    0 -0.14224738628E+02  0.37335204715E+02 -0.39338337638E+03  0.39543499024E+03  0.47000000000E+01 0. -1.
         -5    1    3    3    0  502 -0.36095400739E+02 -0.29737302440E+02 -0.49413963772E+02  0.68198349882E+02  0.47000000000E+01 0.  1.
        -11    1    1    2    0    0  0.16342264062E+02  0.59421997526E+01 -0.48346965111E+02  0.51379065465E+02  0.00000000000E+00 0. -1.
         11    1    1    2    0    0  0.33977875305E+02 -0.13540102027E+02 -0.10668799306E+03  0.11278367894E+03  0.00000000000E+00 0.  1.
<mgrwt>
<rscale>  0 0.10879502E+03</rscale>
<asrwt>0</asrwt>
<pdfrwt beam="2">  1        2 0.94279094E-01 0.13742776E+03</pdfrwt>
<pdfrwt beam="1">  1       -2 0.23049069E-02 0.13742776E+03</pdfrwt>
<totfact> 0.28978992E+04</totfact>
</mgrwt>
</event>
<event>
 7    1  0.6419647E-006  0.2048138E+03  0.7546771E-02  0.1149889E+00
         -2   -1    0    0    0  501 -0.00000000000E+00  0.00000000000E+00  0.33039533672E+02  0.33039533672E+02  0.00000000000E+00 0.  1.
          2   -1    0    0  501    0  0.00000000000E+00 -0.00000000000E+00 -0.11547848088E+04  0.11547848088E+04  0.00000000000E+00 0. -1.
         23    2    1    2    0    0 -0.33534088629E+02  0.15876763516E+03 -0.61092380933E+03  0.64434199265E+03  0.12496801835E+03 0.  0.
          5    1    3    3  502    0 -0.74225053077E+00 -0.15039064307E+02 -0.11971970468E+02  0.19802587406E+02  0.47000000000E+01 0.  1.
         -5    1    3    3    0  502 -0.32791838098E+02  0.17380669947E+03 -0.59895183886E+03  0.62453940524E+03  0.47000000000E+01 0.  1.
        -11    1    1    2    0    0  0.96503768369E+01 -0.76262018014E+02 -0.11416302928E+03  0.13763074664E+03  0.00000000000E+00 0.  1.
         11    1    1    2    0    0  0.23883711792E+02 -0.82505617150E+02 -0.39665843654E+03  0.40585160321E+03  0.00000000000E+00 0. -1.
<mgrwt>
<rscale>  0 0.19982217E+03</rscale>
<asrwt>0</asrwt>
<pdfrwt beam="2">  1        2 0.17765921E+00 0.20481382E+03</pdfrwt>
<pdfrwt beam="1">  1       -2 0.50830050E-02 0.20481382E+03</pdfrwt>
<totfact> 0.40240861E+03</totfact>
</mgrwt>
</event>
<event>
 7    1  0.6419647E-006  0.1564940E+03  0.7546771E-02  0.1200759E+00
          3   -1    0    0  501    0  0.00000000000E+00  0.00000000000E+00  0.13733859570E+03  0.13733859570E+03  0.00000000000E+00 0. -1.
         -3   -1    0    0    0  501 -0.00000000000E+00 -0.00000000000E+00 -0.21846958099E+03  0.21846958099E+03  0.00000000000E+00 0.  1.
         23    2    1    2    0    0 -0.14219614108E+01  0.94138221506E+02  0.55774457729E+02  0.16613596546E+03  0.12500536853E+03 0.  0.
          5    1    3    3  502    0  0.30339548154E+02  0.52135753944E+02 -0.28319705947E+02  0.66803598454E+02  0.47000000000E+01 0. -1.
         -5    1    3    3    0  502 -0.31761509564E+02  0.42002467562E+02  0.84094163676E+02  0.99332367008E+02  0.47000000000E+01 0. -1.
        -11    1    1    2    0    0  0.30568807960E+01 -0.12714608389E+02  0.13398700521E+02  0.18722472121E+02  0.00000000000E+00 0. -1.
         11    1    1    2    0    0 -0.16349193852E+01 -0.81423613117E+02 -0.15030414354E+03  0.17094973911E+03  0.00000000000E+00 0.  1.
<mgrwt>
<rscale>  0 0.14976717E+03</rscale>
<asrwt>0</asrwt>
<pdfrwt beam="1">  1        3 0.21129015E-01 0.15649399E+03</pdfrwt>
<pdfrwt beam="2">  1       -3 0.33610705E-01 0.15649399E+03</pdfrwt>
<totfact> 0.41789959E+02</totfact>
</mgrwt>
</event>
<event>
 7    1  0.6419647E-006  0.1611910E+03  0.7546771E-02  0.1194641E+00
         -2   -1    0    0    0  501 -0.00000000000E+00  0.00000000000E+00  0.16829852835E+02  0.16829852835E+02  0.00000000000E+00 0.  1.
          2   -1    0    0  501    0  0.00000000000E+00 -0.00000000000E+00 -0.14493948294E+04  0.14493948294E+04  0.00000000000E+00 0. -1.
         23    2    1    2    0    0  0.96976652536E+02 -0.31097837309E+02 -0.98434340485E+03  0.99745398953E+03  0.12494389112E+03 0.  0.
          5    1    3    3  502    0  0.50981602996E+02  0.44157609110E+02 -0.55627922333E+03  0.56037280679E+03  0.47000000000E+01 0. -1.
         -5    1    3    3    0  502  0.45995049539E+02 -0.75255446419E+02 -0.42806418152E+03  0.43708118273E+03  0.47000000000E+01 0. -1.
        -11    1    1    2    0    0 -0.11528328201E+03  0.27912082254E+02 -0.38202004508E+03  0.40001079272E+03  0.00000000000E+00 0. -1.
         11    1    1    2    0    0  0.18306629475E+02  0.31857550550E+01 -0.66201526619E+02  0.68759899976E+02  0.00000000000E+00 0.  1.
<mgrwt>
<rscale>  0 0.15484613E+03</rscale>
<asrwt>0</asrwt>
<pdfrwt beam="2">  1        2 0.22298385E+00 0.16119095E+03</pdfrwt>
<pdfrwt beam="1">  1       -2 0.25892078E-02 0.16119095E+03</pdfrwt>
<totfact> 0.75447181E+03</totfact>
</mgrwt>
</event>
<event>
 7    1  0.6419647E-006  0.1556408E+03  0.7546771E-02  0.1201916E+00
          1   -1    0    0  501    0  0.00000000000E+00  0.00000000000E+00  0.12729504556E+03  0.12729504556E+03  0.00000000000E+00 0. -1.
         -1   -1    0    0    0  501 -0.00000000000E+00 -0.00000000000E+00 -0.16045393092E+03  0.16045393092E+03  0.00000000000E+00 0.  1.
         23    2    1    2    0    0 -0.61613903741E+02 -0.69303740807E+02 -0.20777410725E+02  0.15702153956E+03  0.12499912586E+03 0.  0.
          5    1    3    3  502    0 -0.24727133783E+02  0.15263865321E+00 -0.62853299889E+02  0.67705847241E+02  0.47000000000E+01 0.  1.
         -5    1    3    3    0  502 -0.36886769958E+02 -0.69456379461E+02  0.42075889164E+02  0.89315692321E+02  0.47000000000E+01 0.  1.
        -11    1    1    2    0    0 -0.11400587576E+02  0.21992219248E+02  0.25753969449E+02  0.35733710231E+02  0.00000000000E+00 0. -1.
         11    1    1    2    0    0  0.73014491317E+02  0.47311521560E+02 -0.38135444078E+02  0.94993726686E+02  0.00000000000E+00 0.  1.
<mgrwt>
<rscale>  0 0.14883160E+03</rscale>
<asrwt>0</asrwt>
<pdfrwt beam="1">  1        1 0.19583853E-01 0.15564081E+03</pdfrwt>
<pdfrwt beam="2">  1       -1 0.24685220E-01 0.15564081E+03</pdfrwt>
<totfact> 0.36167080E+03</totfact>
</mgrwt>
</event>
<event>
 7    1  0.6419647E-006  0.1755672E+03  0.7546771E-02  0.1177689E+00
          2   -1    0    0  501    0  0.00000000000E+00  0.00000000000E+00  0.23548332309E+04  0.23548332309E+04  0.00000000000E+00 0. -1.
         -2   -1    0    0    0  501 -0.00000000000E+00 -0.00000000000E+00 -0.13746412985E+02  0.13746412985E+02  0.00000000000E+00 0.  1.
         23    2    1    2    0    0  0.10086567453E+03  0.70852910525E+02  0.17002523021E+04  0.17092927611E+04  0.12501933087E+03 0.  0.
          5    1    3    3  502    0  0.21272763074E+02  0.87042158368E+02  0.10812647156E+04  0.10849812639E+04  0.47000000000E+01 0. -1.
         -5    1    3    3    0  502  0.79592911456E+02 -0.16189247843E+02  0.61898758641E+03  0.62431149712E+03  0.47000000000E+01 0. -1.
        -11    1    1    2    0    0 -0.30964908776E+02  0.83961553448E+01  0.52418039734E+02  0.61457073553E+02  0.00000000000E+00 0.  1.
         11    1    1    2    0    0 -0.69900765755E+02 -0.79249065870E+02  0.58841647607E+03  0.59782980923E+03  0.00000000000E+00 0. -1.
<mgrwt>
<rscale>  0 0.17015201E+03</rscale>
<asrwt>0</asrwt>
<pdfrwt beam="1">  1        2 0.36228171E+00 0.17556723E+03</pdfrwt>
<pdfrwt beam="2">  1       -2 0.21148346E-02 0.17556723E+03</pdfrwt>
<totfact> 0.34367656E+03</totfact>
</mgrwt>
</event>
<event>
 7    1  0.6419647E-006  0.1462668E+03  0.7546771E-02  0.1214813E+00
         -1   -1    0    0    0  501 -0.00000000000E+00  0.00000000000E+00  0.53310846321E+02  0.53310846321E+02  0.00000000000E+00 0.  1.
          1   -1    0    0  501    0  0.00000000000E+00 -0.00000000000E+00 -0.33865349273E+03  0.33865349273E+03  0.00000000000E+00 0. -1.
         23    2    1    2    0    0  0.12403103943E+02  0.74967131694E+02 -0.18835376395E+03  0.23847664504E+03  0.12498024650E+03 0.  0.
          5    1    3    3  502    0  0.36898457010E+02  0.70027039390E+02 -0.19640376840E+03  0.21180607314E+03  0.47000000000E+01 0.  1.
         -5    1    3    3    0  502 -0.24495353067E+02  0.49400923039E+01  0.80500044547E+01  0.26670571902E+02  0.47000000000E+01 0.  1.
        -11    1    1    2    0    0 -0.70891145455E+00 -0.43101105631E+02 -0.10921076379E+03  0.11741038621E+03  0.00000000000E+00 0. -1.
         11    1    1    2    0    0 -0.11694192488E+02 -0.31866026063E+02  0.12221881330E+02  0.36077307802E+02  0.00000000000E+00 0.  1.
<mgrwt>
<rscale>  0 0.13890250E+03</rscale>
<asrwt>0</asrwt>
<pdfrwt beam="2">  1        1 0.52100538E-01 0.14626678E+03</pdfrwt>
<pdfrwt beam="1">  1       -1 0.82016685E-02 0.14626678E+03</pdfrwt>
<totfact> 0.59772643E+03</totfact>
</mgrwt>
</event>
<event>
 7    1  0.6419647E-006  0.1760679E+03  0.7546771E-02  0.1177283E+00
          2   -1    0    0  501    0  0.00000000000E+00  0.00000000000E+00  0.13994309314E+03  0.13994309314E+03  0.00000000000E+00 0. -1.
         -2   -1    0    0    0  501 -0.00000000000E+00 -0.00000000000E+00 -0.20327712199E+03  0.20327712199E+03  0.00000000000E+00 0.  1.
         23    2    1    2    0    0  0.42324037711E+02  0.11655329165E+03 -0.73546977700E+00  0.17606942222E+03  0.12499562616E+03 0.  0.
          5    1    3    3  502    0  0.35161223504E+02 -0.18814780385E+02  0.39585826617E+01  0.40349324355E+02  0.47000000000E+01 0. -1.
         -5    1    3    3    0  502  0.71628142067E+01  0.13536807204E+03 -0.46940524387E+01  0.13572009786E+03  0.47000000000E+01 0. -1.
        -11    1    1    2    0    0 -0.11905484700E+02 -0.56486031663E+02 -0.79007501698E+02  0.97849873089E+02  0.00000000000E+00 0.  1.
         11    1    1    2    0    0 -0.30418553010E+02 -0.60067259992E+02  0.16408942626E+02  0.69300919823E+02  0.00000000000E+00 0. -1.
<mgrwt>
<rscale>  0 0.17054287E+03</rscale>
<asrwt>0</asrwt>
<pdfrwt beam="1">  1        2 0.21529707E-01 0.17606789E+03</pdfrwt>
<pdfrwt beam="2">  1       -2 0.31273403E-01 0.17606789E+03</pdfrwt>
<totfact> 0.23677283E+03</totfact>
</mgrwt>
</event>
<event>
 7    1  0.6419647E-006  0.1269983E+03  0.7546771E-02  0.1247222E+00
          2   -1    0    0  501    0  0.00000000000E+00  0.00000000000E+00  0.17551237872E+03  0.17551237872E+03  0.00000000000E+00 0. -1.
         -2   -1    0    0    0  501 -0.00000000000E+00 -0.00000000000E+00 -0.94443586842E+02  0.94443586842E+02  0.00000000000E+00 0.  1.
         23    2    1    2    0    0 -0.11620328329E+02  0.19289164501E+02  0.11448054632E+03  0.17098059186E+03  0.12498585283E+03 0.  0.
          5    1    3    3  502    0 -0.46874168800E+02 -0.25077438513E+02  0.98313534529E+02  0.11186468028E+03  0.47000000000E+01 0.  1.
         -5    1    3    3    0  502  0.35253840471E+02  0.44366603014E+02  0.16167011796E+02  0.59115911575E+02  0.47000000000E+01 0.  1.
        -11    1    1    2    0    0  0.49549146946E+02  0.84791194993E+00 -0.11991582007E+02  0.50986615467E+02  0.00000000000E+00 0. -1.
         11    1    1    2    0    0 -0.37928818617E+02 -0.20137076451E+02 -0.21420172441E+02  0.47988758236E+02  0.00000000000E+00 0.  1.
<mgrwt>
<rscale>  0 0.11753359E+03</rscale>
<asrwt>0</asrwt>
<pdfrwt beam="1">  1        2 0.27001904E-01 0.12699830E+03</pdfrwt>
<pdfrwt beam="2">  1       -2 0.14529783E-01 0.12699830E+03</pdfrwt>
<totfact> 0.67289414E+03</totfact>
</mgrwt>
</event>
<event>
 7    1  0.6419647E-006  0.1423570E+03  0.7546771E-02  0.1220661E+00
         -1   -1    0    0    0  501 -0.00000000000E+00  0.00000000000E+00  0.14391285225E+03  0.14391285225E+03  0.00000000000E+00 0.  1.
          1   -1    0    0  501    0  0.00000000000E+00 -0.00000000000E+00 -0.11440138556E+03  0.11440138556E+03  0.00000000000E+00 0. -1.
         23    2    1    2    0    0  0.62420489318E+02 -0.27280223092E+02  0.11384861548E+02  0.14281154021E+03  0.12499997154E+03 0.  0.
          5    1    3    3  502    0 -0.24953236643E+01 -0.55491256848E+02  0.37539010638E+02  0.67206945671E+02  0.47000000000E+01 0.  1.
         -5    1    3    3    0  502  0.64915812982E+02  0.28211033756E+02 -0.26154149090E+02  0.75604594539E+02  0.47000000000E+01 0.  1.
        -11    1    1    2    0    0 -0.52754203162E+02  0.10091299153E+02  0.52988608981E+02  0.75449539108E+02  0.00000000000E+00 0.  1.
         11    1    1    2    0    0 -0.96662861564E+01  0.17188923939E+02 -0.34862003838E+02  0.40053158500E+02  0.00000000000E+00 0. -1.
<mgrwt>
<rscale>  0 0.13468785E+03</rscale>
<asrwt>0</asrwt>
<pdfrwt beam="2">  1        1 0.17600213E-01 0.14235702E+03</pdfrwt>
<pdfrwt beam="1">  1       -1 0.22140439E-01 0.14235702E+03</pdfrwt>
<totfact> 0.49287754E+03</totfact>
</mgrwt>
</event>
<event>
 7    1  0.6419647E-006  0.1329203E+03  0.7546771E-02  0.1238441E+00
         -1   -1    0    0    0  501 -0.00000000000E+00  0.00000000000E+00  0.26733942316E+02  0.26733942316E+02  0.00000000000E+00 0.  1.
          1   -1    0    0  501    0  0.00000000000E+00 -0.00000000000E+00 -0.51918661160E+03  0.51918661160E+03  0.00000000000E+00 0. -1.
         23    2    1    2    0    0 -0.36078925335E+02  0.27249849024E+02 -0.34160741759E+03  0.36655616818E+03  0.12499421407E+03 0.  0.
          5    1    3    3  502    0 -0.43409530808E+02  0.44683809943E+02 -0.68333462966E+02  0.92588241138E+02  0.47000000000E+01 0.  1.
         -5    1    3    3    0  502  0.73306054729E+01 -0.17433960919E+02 -0.27327395462E+03  0.27396792704E+03  0.47000000000E+01 0.  1.
        -11    1    1    2    0    0  0.23059904078E+02  0.30125380309E+02 -0.65766874275E+02  0.75924827736E+02  0.00000000000E+00 0.  1.
         11    1    1    2    0    0  0.13019021257E+02 -0.57375229334E+02 -0.85078377416E+02  0.10343955800E+03  0.00000000000E+00 0. -1.
<mgrwt>
<rscale>  0 0.12286669E+03</rscale>
<asrwt>0</asrwt>
<pdfrwt beam="2">  1        1 0.79874853E-01 0.13292026E+03</pdfrwt>
<pdfrwt beam="1">  1       -1 0.41129147E-02 0.13292026E+03</pdfrwt>
<totfact> 0.96409646E+03</totfact>
</mgrwt>
</event>
<event>
 7    1  0.6419647E-006  0.1247218E+03  0.7546771E-02  0.1243844E+00
          4   -1    0    0  501    0  0.00000000000E+00  0.00000000000E+00  0.76293107021E+02  0.76293107021E+02  0.00000000000E+00 0. -1.
         -4   -1    0    0    0  501 -0.00000000000E+00 -0.00000000000E+00 -0.21364341518E+03  0.21364341518E+03  0.00000000000E+00 0.  1.
         23    2    1    2    0    0 -0.28604852097E+01 -0.55873368889E+02 -0.10608441949E+02  0.12517215249E+03  0.11146978511E+03 0.  0.
          5    1    3    3  502    0 -0.22299988185E+02 -0.32671245400E+02  0.45973530425E+02  0.60830545360E+02  0.47000000000E+01 0. -1.
         -5    1    3    3    0  502  0.19439502975E+02 -0.23202123490E+02 -0.56581972374E+02  0.64341607130E+02  0.47000000000E+01 0.  1.
        -11    1    1    2    0    0  0.26530627715E+02  0.42654133721E+02 -0.19067261410E+02  0.53729040454E+02  0.00000000000E+00 0. -1.
         11    1    1    2    0    0 -0.23670142505E+02  0.13219235168E+02 -0.10767460480E+03  0.11103532926E+03  0.00000000000E+00 0.  1.
<mgrwt>
<rscale>  0 0.11954815E+03</rscale>
<asrwt>0</asrwt>
<pdfrwt beam="1">  1        4 0.11737401E-01 0.12472181E+03</pdfrwt>
<pdfrwt beam="2">  1       -4 0.32868217E-01 0.12472181E+03</pdfrwt>
<totfact> 0.83671363E+02</totfact>
</mgrwt>
</event>
<event>
 7    1  0.6419647E-006  0.1406852E+03  0.7546771E-02  0.1223288E+00
          2   -1    0    0  501    0  0.00000000000E+00  0.00000000000E+00  0.26155586025E+03  0.26155586025E+03  0.00000000000E+00 0.  1.
         -2   -1    0    0    0  501 -0.00000000000E+00 -0.00000000000E+00 -0.61241367141E+02  0.61241367141E+02  0.00000000000E+00 0. -1.
         23    2    1    2    0    0  0.61061026732E+02 -0.20979391063E+02  0.12232720340E+03  0.18643032408E+03  0.12499494873E+03 0.  0.
          5    1    3    3  502    0 -0.49966394074E+01 -0.61445222819E+02  0.66678468535E+02  0.90931787505E+02  0.47000000000E+01 0. -1.
         -5    1    3    3    0  502  0.66057666139E+02  0.40465831755E+02  0.55648734866E+02  0.95498536573E+02  0.47000000000E+01 0. -1.
        -11    1    1    2    0    0 -0.60506186262E+02 -0.55378743417E+01  0.77039781609E+01  0.61245554188E+02  0.00000000000E+00 0. -1.
         11    1    1    2    0    0 -0.55484046917E+00  0.26517265405E+02  0.70283311550E+02  0.75121349129E+02  0.00000000000E+00 0.  1.
<mgrwt>
<rscale>  0 0.13284965E+03</rscale>
<asrwt>0</asrwt>
<pdfrwt beam="1">  1        2 0.40239362E-01 0.14068518E+03</pdfrwt>
<pdfrwt beam="2">  1       -2 0.94217490E-02 0.14068518E+03</pdfrwt>
<totfact> 0.87998696E+03</totfact>
</mgrwt>
</event>
<event>
 7    1  0.6419647E-006  0.1481890E+03  0.7546771E-02  0.1210178E+00
          1   -1    0    0  501    0  0.00000000000E+00  0.00000000000E+00  0.14322044319E+04  0.14322044319E+04  0.00000000000E+00 0. -1.
         -1   -1    0    0    0  501 -0.00000000000E+00 -0.00000000000E+00 -0.13154649219E+02  0.13154649219E+02  0.00000000000E+00 0.  1.
         23    2    1    2    0    0 -0.43334606877E+02  0.66762156597E+02  0.78469060855E+03  0.79856079048E+03  0.12499964495E+03 0.  0.
          5    1    3    3  502    0  0.85497617542E+01 -0.31990881227E+02  0.12069451989E+03  0.12524285224E+03  0.47000000000E+01 0.  1.
         -5    1    3    3    0  502 -0.51884368631E+02  0.98753037823E+02  0.66399608866E+03  0.67331793823E+03  0.47000000000E+01 0.  1.
        -11    1    1    2    0    0  0.71771329177E+02 -0.62718723310E+02  0.53267476012E+03  0.54113506818E+03  0.00000000000E+00 0.  1.
         11    1    1    2    0    0 -0.28436722300E+02 -0.40434332870E+01  0.10168441400E+03  0.10566322245E+03  0.00000000000E+00 0. -1.
<mgrwt>
<rscale>  0 0.14236755E+03</rscale>
<asrwt>0</asrwt>
<pdfrwt beam="1">  1        1 0.22033902E+00 0.14818902E+03</pdfrwt>
<pdfrwt beam="2">  1       -1 0.20237933E-02 0.14818902E+03</pdfrwt>
<totfact> 0.52683440E+03</totfact>
</mgrwt>
</event>
<event>
 7    1  0.6419647E-006  0.1276385E+03  0.7546771E-02  0.1246258E+00
         -1   -1    0    0    0  501 -0.00000000000E+00  0.00000000000E+00  0.21141849650E+03  0.21141849650E+03  0.00000000000E+00 0.  1.
          1   -1    0    0  501    0  0.00000000000E+00 -0.00000000000E+00 -0.57942815156E+02  0.57942815156E+02  0.00000000000E+00 0. -1.
         23    2    1    2    0    0  0.25294915252E+02  0.52304899424E+01  0.83534286625E+02  0.15254367328E+03  0.12499761779E+03 0.  0.
          5    1    3    3  502    0 -0.17940038039E+02 -0.50948939354E+02  0.50876578645E+02  0.74351567843E+02  0.47000000000E+01 0.  1.
         -5    1    3    3    0  502  0.43234953291E+02  0.56179429296E+02  0.32657707981E+02  0.78192105437E+02  0.47000000000E+01 0.  1.
        -11    1    1    2    0    0  0.30013227311E+01  0.39913216035E+02  0.34347771069E+02  0.52743171404E+02  0.00000000000E+00 0.  1.
         11    1    1    2    0    0 -0.28296237983E+02 -0.45143705977E+02  0.35593623649E+02  0.64074466972E+02  0.00000000000E+00 0. -1.
<mgrwt>
<rscale>  0 0.11810429E+03</rscale>
<asrwt>0</asrwt>
<pdfrwt beam="2">  1        1 0.89142794E-02 0.12763853E+03</pdfrwt>
<pdfrwt beam="1">  1       -1 0.32525922E-01 0.12763853E+03</pdfrwt>
<totfact> 0.62974995E+03</totfact>
</mgrwt>
</event>
<event>
 6    1  0.6419647E-006  0.2206505E+03  0.7546771E-02  0.1140752E+00
          1   -1    0    0  501    0  0.00000000000E+00  0.00000000000E+00  0.38201241855E+02  0.38201241855E+02  0.00000000000E+00 0. -1.
         -1   -1    0    0    0  501 -0.00000000000E+00 -0.00000000000E+00 -0.10895825307E+04  0.10895825307E+04  0.00000000000E+00 0.  1.
          5    1    1    2  502    0 -0.35263559904E+02 -0.11323852702E+03 -0.15169692119E+03  0.19261497490E+03  0.47000000000E+01 0. -1.
         -5    1    1    2    0  502 -0.58255320541E+02 -0.14125218320E+02 -0.35478107049E+03  0.35984010635E+03  0.47000000000E+01 0.  1.
        -11    1    1    2    0    0  0.21755373656E+02  0.10587893621E+03 -0.35834525200E+03  0.37429261954E+03  0.00000000000E+00 0.  1.
         11    1    1    2    0    0  0.71763506789E+02  0.21484809123E+02 -0.18655804519E+03  0.20103607177E+03  0.00000000000E+00 0. -1.
<mgrwt>
<rscale>  0 0.21103125E+03</rscale>
<asrwt>0</asrwt>
<pdfrwt beam="1">  1        1 0.58771139E-02 0.22065054E+03</pdfrwt>
<pdfrwt beam="2">  1       -1 0.16762809E+00 0.22065054E+03</pdfrwt>
<totfact> 0.37249472E+02</totfact>
</mgrwt>
</event>
<event>
 7    1  0.6419647E-006  0.1522268E+03  0.7546771E-02  0.1206336E+00
          2   -1    0    0  501    0  0.00000000000E+00  0.00000000000E+00  0.59532204294E+03  0.59532204294E+03  0.00000000000E+00 0.  1.
         -2   -1    0    0    0  501 -0.00000000000E+00 -0.00000000000E+00 -0.35410289899E+02  0.35410289899E+02  0.00000000000E+00 0. -1.
         23    2    1    2    0    0  0.80236721655E+02  0.33301927593E+02  0.39210448705E+03  0.42061731343E+03  0.12500418275E+03 0.  0.
          5    1    3    3  502    0  0.66255661470E+02  0.57654266517E+02  0.37936267842E+03  0.38942516470E+03  0.47000000000E+01 0. -1.
         -5    1    3    3    0  502  0.13981060185E+02 -0.24352338924E+02  0.12741808632E+02  0.31192148727E+02  0.47000000000E+01 0. -1.
        -11    1    1    2    0    0 -0.13827570287E+02  0.25351501920E+02  0.12832753689E+02  0.31600315139E+02  0.00000000000E+00 0. -1.
         11    1    1    2    0    0 -0.66409151368E+02 -0.58653429513E+02  0.15497451230E+03  0.17851470427E+03  0.00000000000E+00 0.  1.
<mgrwt>
<rscale>  0 0.14532694E+03</rscale>
<asrwt>0</asrwt>
<pdfrwt beam="1">  1        2 0.91588000E-01 0.15222679E+03</pdfrwt>
<pdfrwt beam="2">  1       -2 0.54477373E-02 0.15222679E+03</pdfrwt>
<totfact> 0.84336774E+03</totfact>
</mgrwt>
</event>
<event>
 7    1  0.6419647E-006  0.1447873E+03  0.7546771E-02  0.1217435E+00
         -1   -1    0    0    0  501 -0.00000000000E+00  0.00000000000E+00  0.14246965931E+03  0.14246965931E+03  0.00000000000E+00 0.  1.
          1   -1    0    0  501    0  0.00000000000E+00 -0.00000000000E+00 -0.12072858761E+03  0.12072858761E+03  0.00000000000E+00 0. -1.
         23    2    1    2    0    0 -0.32230770623E+02 -0.65580917296E+02 -0.18011091823E+01  0.14479847936E+03  0.12499470525E+03 0.  0.
          5    1    3    3  502    0 -0.34603405078E+02  0.31558654630E+02 -0.58594831118E+01  0.47431717947E+02  0.47000000000E+01 0.  1.
         -5    1    3    3    0  502  0.23726344552E+01 -0.97139571926E+02  0.40583739295E+01  0.97366761409E+02  0.47000000000E+01 0.  1.
        -11    1    1    2    0    0 -0.10611421514E+02  0.53154922533E+01  0.40782877231E+02  0.42474695993E+02  0.00000000000E+00 0.  1.
         11    1    1    2    0    0  0.42842192137E+02  0.60265425043E+02 -0.17240696341E+02  0.75925071570E+02  0.00000000000E+00 0. -1.
<mgrwt>
<rscale>  0 0.13699214E+03</rscale>
<asrwt>0</asrwt>
<pdfrwt beam="2">  1        1 0.18573629E-01 0.14478728E+03</pdfrwt>
<pdfrwt beam="1">  1       -1 0.21918409E-01 0.14478728E+03</pdfrwt>
<totfact> 0.46808720E+03</totfact>
</mgrwt>
</event>
<event>
 6    1  0.6419647E-006  0.3980390E+03  0.7546771E-02  0.1095810E+00
         -2   -1    0    0    0  501 -0.00000000000E+00  0.00000000000E+00  0.13942929471E+03  0.13942929471E+03  0.00000000000E+00 0.  1.
          2   -1    0    0  501    0  0.00000000000E+00 -0.00000000000E+00 -0.47255695626E+03  0.47255695626E+03  0.00000000000E+00 0. -1.
          5    1    1    2  502    0  0.15442706207E+03 -0.90906410528E+02 -0.21185081526E+03  0.27751495617E+03  0.47000000000E+01 0. -1.
         -5    1    1    2    0  502 -0.18070131502E+03  0.10230102950E+03 -0.11426494086E+03  0.23705913312E+03  0.47000000000E+01 0.  1.
        -11    1    1    2    0    0 -0.23316505709E+02 -0.35138872525E+02 -0.35924925883E+01  0.42323820761E+02  0.00000000000E+00 0.  1.
         11    1    1    2    0    0  0.49590758654E+02  0.23744253552E+02 -0.34194128552E+01  0.55088340917E+02  0.00000000000E+00 0. -1.
<mgrwt>
<rscale>  0 0.27977923E+03</rscale>
<asrwt>0</asrwt>
<pdfrwt beam="2">  1        2 0.72701069E-01 0.39803895E+03</pdfrwt>
<pdfrwt beam="1">  1       -2 0.21450661E-01 0.39803895E+03</pdfrwt>
<totfact> 0.12392404E+03</totfact>
</mgrwt>
</event>
<event>
 7    1  0.6419647E-006  0.1530846E+03  0.7546771E-02  0.1204872E+00
          4   -1    0    0  501    0  0.00000000000E+00  0.00000000000E+00  0.28243258796E+02  0.28243258796E+02  0.00000000000E+00 0. -1.
         -4   -1    0    0    0  501 -0.00000000000E+00 -0.00000000000E+00 -0.70095291669E+03  0.70095291669E+03  0.00000000000E+00 0.  1.
         23    2    1    2    0    0 -0.87601003722E+02  0.11631199998E+02 -0.36301338481E+03  0.39397158003E+03  0.12500267059E+03 0.  0.
          5    1    3    3  502    0 -0.10455588698E+02 -0.33753778980E+02 -0.23188611646E+02  0.42525740917E+02  0.47000000000E+01 0. -1.
         -5    1    3    3    0  502 -0.77145415024E+02  0.45384978978E+02 -0.33982477316E+03  0.35144583911E+03  0.47000000000E+01 0. -1.
        -11    1    1    2    0    0  0.13286594799E+02 -0.39133882498E+02 -0.16663944774E+03  0.17168779777E+03  0.00000000000E+00 0. -1.
         11    1    1    2    0    0  0.74314408922E+02  0.27502682500E+02 -0.14305682535E+03  0.16353679768E+03  0.00000000000E+00 0.  1.
<mgrwt>
<rscale>  0 0.14647539E+03</rscale>
<asrwt>0</asrwt>
<pdfrwt beam="1">  1        4 0.43451169E-02 0.15308458E+03</pdfrwt>
<pdfrwt beam="2">  1       -4 0.10783891E+00 0.15308458E+03</pdfrwt>
<totfact> 0.36521075E+02</totfact>
</mgrwt>
</event>
<event>
 7    1  0.6419647E-006  0.1449066E+03  0.7546771E-02  0.1218216E+00
         -2   -1    0    0    0  501 -0.00000000000E+00  0.00000000000E+00  0.38675395241E+03  0.38675395241E+03  0.00000000000E+00 0.  1.
          2   -1    0    0  501    0  0.00000000000E+00 -0.00000000000E+00 -0.47754490460E+02  0.47754490460E+02  0.00000000000E+00 0. -1.
         23    2    1    2    0    0  0.72679668737E+02  0.11553300492E+02  0.12188745435E+03  0.18935280158E+03  0.12482835790E+03 0.  0.
          5    1    3    3  502    0  0.88689772492E+02 -0.34663667814E+02  0.73402978540E+02  0.12032261994E+03  0.47000000000E+01 0. -1.
         -5    1    3    3    0  502 -0.16010103755E+02  0.46216968307E+02  0.48484475811E+02  0.69030181634E+02  0.47000000000E+01 0. -1.
        -11    1    1    2    0    0 -0.79020280418E+02  0.10952622276E+02  0.20233908299E+03  0.21749774518E+03  0.00000000000E+00 0. -1.
         11    1    1    2    0    0  0.63406116812E+01 -0.22505922769E+02  0.14772924614E+02  0.27657896121E+02  0.00000000000E+00 0.  1.
<mgrwt>
<rscale>  0 0.13642915E+03</rscale>
<asrwt>0</asrwt>
<pdfrwt beam="2">  1        2 0.73468449E-02 0.14490663E+03</pdfrwt>
<pdfrwt beam="1">  1       -2 0.59500606E-01 0.14490663E+03</pdfrwt>
<totfact> 0.24630547E+03</totfact>
</mgrwt>
</event>
<event>
 7    1  0.6419647E-006  0.1370426E+03  0.7546771E-02  0.1228364E+00
         -1   -1    0    0    0  501 -0.00000000000E+00  0.00000000000E+00  0.22140322408E+02  0.22140322408E+02  0.00000000000E+00 0.  1.
          1   -1    0    0  501    0  0.00000000000E+00 -0.00000000000E+00 -0.95810636278E+03  0.95810636278E+03  0.00000000000E+00 0. -1.
         23    2    1    2    0    0 -0.43763018065E+02 -0.35246464032E+02 -0.76755076345E+03  0.77968893873E+03  0.12499260672E+03 0.  0.
          5    1    3    3  502    0 -0.35800281017E+02 -0.65693405437E+02 -0.70983952346E+03  0.71378674876E+03  0.47000000000E+01 0. -1.
         -5    1    3    3    0  502 -0.79627370483E+01  0.30446941404E+02 -0.57711239988E+02  0.65902189972E+02  0.47000000000E+01 0. -1.
        -11    1    1    2    0    0  0.71444234093E+02  0.37267775625E+02 -0.13377961047E+03  0.15617346081E+03  0.00000000000E+00 0.  1.
         11    1    1    2    0    0 -0.27681216028E+02 -0.20213115925E+01 -0.34635666461E+02  0.44384285648E+02  0.00000000000E+00 0. -1.
<mgrwt>
<rscale>  0 0.12939004E+03</rscale>
<asrwt>0</asrwt>
<pdfrwt beam="2">  1        1 0.14740097E+00 0.13704257E+03</pdfrwt>
<pdfrwt beam="1">  1       -1 0.34062036E-02 0.13704257E+03</pdfrwt>
<totfact> 0.52411620E+03</totfact>
</mgrwt>
</event>
<event>
 7    1  0.6419647E-006  0.1192743E+03  0.7546771E-02  0.1251632E+00
          1   -1    0    0  501    0  0.00000000000E+00  0.00000000000E+00  0.55063212571E+03  0.55063212571E+03  0.00000000000E+00 0. -1.
         -1   -1    0    0    0  501 -0.00000000000E+00 -0.00000000000E+00 -0.24130144618E+02  0.24130144618E+02  0.00000000000E+00 0.  1.
         23    2    1    2    0    0  0.27470951996E+02  0.30780799536E+02  0.35739088528E+03  0.37676864859E+03  0.11191183517E+03 0.  0.
          5    1    3    3  502    0  0.26467150890E+02 -0.17610420266E+02  0.24671584690E+02  0.40514368677E+02  0.47000000000E+01 0. -1.
         -5    1    3    3    0  502  0.10038011057E+01  0.48391219803E+02  0.33271930059E+03  0.33625427991E+03  0.47000000000E+01 0.  1.
        -11    1    1    2    0    0  0.27424348309E+02 -0.34124351110E+02  0.47916790675E+02  0.64904430107E+02  0.00000000000E+00 0.  1.
         11    1    1    2    0    0 -0.54895300305E+02  0.33435515740E+01  0.12119430513E+03  0.13308919163E+03  0.00000000000E+00 0. -1.
<mgrwt>
<rscale>  0 0.11497103E+03</rscale>
<asrwt>0</asrwt>
<pdfrwt beam="1">  1        1 0.84712626E-01 0.11927435E+03</pdfrwt>
<pdfrwt beam="2">  1       -1 0.37123303E-02 0.11927435E+03</pdfrwt>
<totfact> 0.10285703E+04</totfact>
</mgrwt>
</event>
<event>
 7    1  0.6419647E-006  0.1273719E+03  0.7546771E-02  0.1246383E+00
          2   -1    0    0  501    0  0.00000000000E+00  0.00000000000E+00  0.29820109659E+03  0.29820109659E+03  0.00000000000E+00 0. -1.
         -2   -1    0    0    0  501 -0.00000000000E+00 -0.00000000000E+00 -0.46391852524E+02  0.46391852524E+02  0.00000000000E+00 0.  1.
         23    2    1    2    0    0 -0.21799784430E+02 -0.10924212020E+02  0.20059895547E+03  0.23762056646E+03  0.12501609360E+03 0.  0.
          5    1    3    3  502    0  0.51966287997E+02 -0.76247555477E+01  0.95466324925E+02  0.10906209782E+03  0.47000000000E+01 0.  1.
         -5    1    3    3    0  502 -0.73766072427E+02 -0.32994564718E+01  0.10513263054E+03  0.12855846864E+03  0.47000000000E+01 0.  1.
        -11    1    1    2    0    0  0.49719971302E+02  0.27244694463E+02  0.48338617181E+02  0.74504837652E+02  0.00000000000E+00 0.  1.
         11    1    1    2    0    0 -0.27920186871E+02 -0.16320482443E+02  0.28716714196E+01  0.32467545008E+02  0.00000000000E+00 0. -1.
<mgrwt>
<rscale>  0 0.11802999E+03</rscale>
<asrwt>0</asrwt>
<pdfrwt beam="1">  1        2 0.45877091E-01 0.12737187E+03</pdfrwt>
<pdfrwt beam="2">  1       -2 0.71372083E-02 0.12737187E+03</pdfrwt>
<totfact> 0.11679000E+04</totfact>
</mgrwt>
</event>
<event>
 7    1  0.6419647E-006  0.1692355E+03  0.7546771E-02  0.1185590E+00
          1   -1    0    0  501    0  0.00000000000E+00  0.00000000000E+00  0.61265029924E+03  0.61265029924E+03  0.00000000000E+00 0. -1.
         -1   -1    0    0    0  501 -0.00000000000E+00 -0.00000000000E+00 -0.48783516416E+02  0.48783516416E+02  0.00000000000E+00 0.  1.
         23    2    1    2    0    0 -0.57398525143E+02  0.98566634406E+02  0.43788915417E+03  0.46945454649E+03  0.12502274902E+03 0.  0.
          5    1    3    3  502    0  0.29485282997E+02 -0.83136362923E+01  0.68230397291E+02  0.74939813026E+02  0.47000000000E+01 0.  1.
         -5    1    3    3    0  502 -0.86883808140E+02  0.10688027070E+03  0.36965875688E+03  0.39451473347E+03  0.47000000000E+01 0.  1.
        -11    1    1    2    0    0  0.22124768993E+02 -0.57291046181E+02  0.77771549385E+01  0.61905197798E+02  0.00000000000E+00 0.  1.
         11    1    1    2    0    0  0.35273756150E+02 -0.41275588225E+02  0.11820047371E+03  0.13007407137E+03  0.00000000000E+00 0. -1.
<mgrwt>
<rscale>  0 0.16278298E+03</rscale>
<asrwt>0</asrwt>
<pdfrwt beam="1">  1        1 0.94253887E-01 0.16923552E+03</pdfrwt>
<pdfrwt beam="2">  1       -1 0.75051568E-02 0.16923552E+03</pdfrwt>
<totfact> 0.31892821E+03</totfact>
</mgrwt>
</event>
<event>
 7    1  0.6419647E-006  0.1551580E+03  0.7546771E-02  0.1198305E+00
         -2   -1    0    0    0  501 -0.00000000000E+00  0.00000000000E+00  0.21124378725E+03  0.21124378725E+03  0.00000000000E+00 0.  1.
          2   -1    0    0  501    0  0.00000000000E+00 -0.00000000000E+00 -0.26566333212E+03  0.26566333212E+03  0.00000000000E+00 0. -1.
         23    2    1    2    0    0 -0.93167521380E+02  0.55112099509E+02 -0.21330436902E+03  0.26376650090E+03  0.11115971663E+03 0.  0.
          5    1    3    3  502    0 -0.59773174525E+02 -0.26626606898E+02 -0.10680880513E+03  0.12534759448E+03  0.47000000000E+01 0. -1.
         -5    1    3    3    0  502 -0.33394346855E+02  0.81738706406E+02 -0.10649556389E+03  0.13841890642E+03  0.47000000000E+01 0.  1.
        -11    1    1    2    0    0  0.10375766183E+03 -0.20605759565E+02  0.11351253727E+03  0.15516232092E+03  0.00000000000E+00 0.  1.
         11    1    1    2    0    0 -0.10590140448E+02 -0.34506339943E+02  0.45372286877E+02  0.57978297555E+02  0.00000000000E+00 0. -1.
<mgrwt>
<rscale>  0 0.15177772E+03</rscale>
<asrwt>0</asrwt>
<pdfrwt beam="2">  1        2 0.40871282E-01 0.15515803E+03</pdfrwt>
<pdfrwt beam="1">  1       -2 0.32499044E-01 0.15515803E+03</pdfrwt>
<totfact> 0.10907788E+03</totfact>
</mgrwt>
</event>
<event>
 6    1  0.6419647E-006  0.2373321E+03  0.7546771E-02  0.1151731E+00
         -1   -1    0    0    0  501 -0.00000000000E+00  0.00000000000E+00  0.97611385220E+02  0.97611385220E+02  0.00000000000E+00 0.  1.
          1   -1    0    0  501    0  0.00000000000E+00 -0.00000000000E+00 -0.34853730793E+03  0.34853730793E+03  0.00000000000E+00 0. -1.
          5    1    1    2  502    0  0.62809020381E+02  0.10370935055E+03 -0.24638780751E+03  0.27464457781E+03  0.47000000000E+01 0. -1.
         -5    1    1    2    0  502 -0.32684608541E+02 -0.40847807729E+02  0.17215160844E+02  0.55274576386E+02  0.47000000000E+01 0.  1.
        -11    1    1    2    0    0  0.11234985467E+02 -0.70951847856E+02 -0.16992429585E+02  0.73818238097E+02  0.00000000000E+00 0. -1.
         11    1    1    2    0    0 -0.41359397307E+02  0.80903050396E+01 -0.47608464586E+01  0.42411300856E+02  0.00000000000E+00 0.  1.
<mgrwt>
<rscale>  0 0.19765640E+03</rscale>
<asrwt>0</asrwt>
<pdfrwt beam="2">  1        1 0.53621124E-01 0.23733214E+03</pdfrwt>
<pdfrwt beam="1">  1       -1 0.15017136E-01 0.23733214E+03</pdfrwt>
<totfact> 0.23063691E+03</totfact>
</mgrwt>
</event>
<event>
 7    1  0.6419647E-006  0.1334317E+03  0.7546771E-02  0.1242231E+00
          1   -1    0    0  501    0  0.00000000000E+00  0.00000000000E+00  0.33101780631E+03  0.33101780631E+03  0.00000000000E+00 0. -1.
         -1   -1    0    0    0  501 -0.00000000000E+00 -0.00000000000E+00 -0.54643016990E+02  0.54643016990E+02  0.00000000000E+00 0.  1.
         23    2    1    2    0    0 -0.57195640737E+01 -0.46313930208E+02  0.26422636226E+03  0.29600605635E+03  0.12500528522E+03 0.  0.
          5    1    3    3  502    0 -0.21957746105E+02 -0.40686871993E+02  0.27244865983E+03  0.27638365800E+03  0.47000000000E+01 0.  1.
         -5    1    3    3    0  502  0.16238182031E+02 -0.56270582143E+01 -0.82222975609E+01  0.19622398350E+02  0.47000000000E+01 0.  1.
        -11    1    1    2    0    0  0.34065807805E+02  0.23987877924E+02 -0.15230393578E+02  0.44360595547E+02  0.00000000000E+00 0.  1.
         11    1    1    2    0    0 -0.28346243731E+02  0.22326052284E+02  0.27378820638E+02  0.45294171410E+02  0.00000000000E+00 0. -1.
<mgrwt>
<rscale>  0 0.12052623E+03</rscale>
<asrwt>0</asrwt>
<pdfrwt beam="1">  1        1 0.50925815E-01 0.13343169E+03</pdfrwt>
<pdfrwt beam="2">  1       -1 0.84066182E-02 0.13343169E+03</pdfrwt>
<totfact> 0.58918478E+03</totfact>
</mgrwt>
</event>
<event>
 6    1  0.6419647E-006  0.1722279E+03  0.7546771E-02  0.1196943E+00
          1   -1    0    0  501    0  0.00000000000E+00  0.00000000000E+00  0.80436967577E+03  0.80436967577E+03  0.00000000000E+00 0. -1.
         -1   -1    0    0    0  501 -0.00000000000E+00 -0.00000000000E+00 -0.26542645797E+02  0.26542645797E+02  0.00000000000E+00 0.  1.
          5    1    1    2  502    0 -0.71651827997E+02 -0.43056421318E+02  0.42718310052E+03  0.43531061466E+03  0.47000000000E+01 0. -1.
         -5    1    1    2    0  502  0.44338366275E+02  0.60658095170E+02  0.16408338866E+03  0.18052906599E+03  0.47000000000E+01 0.  1.
        -11    1    1    2    0    0  0.97834400560E+01  0.39325209441E+02  0.40314131764E+02  0.57161324484E+02  0.00000000000E+00 0.  1.
         11    1    1    2    0    0  0.17530021666E+02 -0.56926883293E+02  0.14624640904E+03  0.15791131643E+03  0.00000000000E+00 0. -1.
<mgrwt>
<rscale>  0 0.15290968E+03</rscale>
<asrwt>0</asrwt>
<pdfrwt beam="1">  1        1 0.12374916E+00 0.17222790E+03</pdfrwt>
<pdfrwt beam="2">  1       -1 0.40834846E-02 0.17222790E+03</pdfrwt>
<totfact> 0.53447815E+03</totfact>
</mgrwt>
</event>
<event>
 7    1  0.6419647E-006  0.1281135E+03  0.7546771E-02  0.1245004E+00
         -3   -1    0    0    0  501 -0.00000000000E+00  0.00000000000E+00  0.26620340234E+02  0.26620340234E+02  0.00000000000E+00 0.  1.
          3   -1    0    0  501    0  0.00000000000E+00 -0.00000000000E+00 -0.47569668049E+03  0.47569668049E+03  0.00000000000E+00 0. -1.
         23    2    1    2    0    0 -0.14658912906E+02  0.23952025136E+02 -0.29088265251E+03  0.31784555627E+03  0.12499798747E+03 0.  0.
          5    1    3    3  502    0  0.14589513498E+02  0.68550720629E+02 -0.12314672269E+03  0.14177186079E+03  0.47000000000E+01 0.  1.
         -5    1    3    3    0  502 -0.29248426404E+02 -0.44598695492E+02 -0.16773592981E+03  0.17607369547E+03  0.47000000000E+01 0.  1.
        -11    1    1    2    0    0 -0.40341653545E+01 -0.40339875242E+02 -0.22194268732E+02  0.46218671435E+02  0.00000000000E+00 0.  1.
         11    1    1    2    0    0  0.18693078261E+02  0.16387850106E+02 -0.13599941902E+03  0.13825279303E+03  0.00000000000E+00 0. -1.
<mgrwt>
<rscale>  0 0.11885121E+03</rscale>
<asrwt>0</asrwt>
<pdfrwt beam="2">  1        3 0.73184097E-01 0.12811354E+03</pdfrwt>
<pdfrwt beam="1">  1       -3 0.40954374E-02 0.12811354E+03</pdfrwt>
<totfact> 0.12919421E+03</totfact>
</mgrwt>
</event>
<event>
 7    1  0.6419647E-006  0.1389348E+03  0.7546771E-02  0.1225815E+00
         -1   -1    0    0    0  501 -0.00000000000E+00  0.00000000000E+00  0.21190146001E+02  0.21190146001E+02  0.00000000000E+00 0.  1.
          1   -1    0    0  501    0  0.00000000000E+00 -0.00000000000E+00 -0.73850099866E+03  0.73850099866E+03  0.00000000000E+00 0. -1.
         23    2    1    2    0    0  0.34526599185E+02  0.49881978553E+02 -0.43451217693E+03  0.45618384414E+03  0.12499027931E+03 0.  0.
          5    1    3    3  502    0 -0.22599364194E+02  0.51460815756E+02 -0.85069891415E+02  0.10206822838E+03  0.47000000000E+01 0. -1.
         -5    1    3    3    0  502  0.57125963379E+02 -0.15788372032E+01 -0.34944228551E+03  0.35411561576E+03  0.47000000000E+01 0. -1.
        -11    1    1    2    0    0 -0.48325261907E+02 -0.69809385033E+02 -0.20109104465E+03  0.21828030011E+03  0.00000000000E+00 0.  1.
         11    1    1    2    0    0  0.13798662721E+02  0.19927406480E+02 -0.81707631087E+02  0.85227000415E+02  0.00000000000E+00 0. -1.
<mgrwt>
<rscale>  0 0.13111206E+03</rscale>
<asrwt>0</asrwt>
<pdfrwt beam="2">  1        1 0.11361553E+00 0.13893476E+03</pdfrwt>
<pdfrwt beam="1">  1       -1 0.32600228E-02 0.13893476E+03</pdfrwt>
<totfact> 0.83616956E+03</totfact>
</mgrwt>
</event>
<event>
 7    1  0.6419647E-006  0.1928155E+03  0.7546771E-02  0.1160828E+00
         -2   -1    0    0    0  501 -0.00000000000E+00  0.00000000000E+00  0.14228845965E+02  0.14228845965E+02  0.00000000000E+00 0.  1.
          2   -1    0    0  501    0  0.00000000000E+00 -0.00000000000E+00 -0.24566264122E+04  0.24566264122E+04  0.00000000000E+00 0. -1.
         23    2    1    2    0    0  0.14154709798E+03 -0.38959237110E+02 -0.15572867402E+04  0.15691780669E+04  0.12499764514E+03 0.  0.
          5    1    3    3  502    0 -0.42287360419E+00  0.31404593385E+02 -0.36908818561E+03  0.37045189440E+03  0.47000000000E+01 0. -1.
         -5    1    3    3    0  502  0.14196997158E+03 -0.70363830495E+02 -0.11881985546E+04  0.11987261725E+04  0.47000000000E+01 0. -1.
        -11    1    1    2    0    0 -0.57201174273E+02 -0.27224705418E+02 -0.27352814682E+03  0.28076824255E+03  0.00000000000E+00 0.  1.
         11    1    1    2    0    0 -0.84345923704E+02  0.66183942528E+02 -0.61158267929E+03  0.62090894880E+03  0.00000000000E+00 0. -1.
<mgrwt>
<rscale>  0 0.18739974E+03</rscale>
<asrwt>0</asrwt>
<pdfrwt beam="2">  1        2 0.37794230E+00 0.19281549E+03</pdfrwt>
<pdfrwt beam="1">  1       -2 0.21890545E-02 0.19281549E+03</pdfrwt>
<totfact> 0.28797057E+03</totfact>
</mgrwt>
</event>
<event>
 7    1  0.6419647E-006  0.1365406E+03  0.7546771E-02  0.1223998E+00
         -2   -1    0    0    0  501 -0.00000000000E+00  0.00000000000E+00  0.17199492021E+02  0.17199492021E+02  0.00000000000E+00 0.  1.
          2   -1    0    0  501    0  0.00000000000E+00 -0.00000000000E+00 -0.18725285491E+04  0.18725285491E+04  0.00000000000E+00 0. -1.
         23    2    1    2    0    0  0.55084279406E+02  0.54141727626E+02 -0.16158879949E+04  0.16216464901E+04  0.11259539238E+03 0.  0.
          5    1    3    3  502    0 -0.10264808583E+02  0.19818576955E+02 -0.11237515167E+04  0.11239829641E+04  0.47000000000E+01 0. -1.
         -5    1    3    3    0  502  0.65349087989E+02  0.34323150671E+02 -0.49213647821E+03  0.49766352605E+03  0.47000000000E+01 0.  1.
        -11    1    1    2    0    0  0.19402108241E+02  0.44907091899E+00 -0.92623102197E+02  0.94634467978E+02  0.00000000000E+00 0. -1.
         11    1    1    2    0    0 -0.74486387647E+02 -0.54590798545E+02 -0.14681795995E+03  0.17344708298E+03  0.00000000000E+00 0.  1.
<mgrwt>
<rscale>  0 0.13235817E+03</rscale>
<asrwt>0</asrwt>
<pdfrwt beam="2">  1        2 0.28808118E+00 0.13654057E+03</pdfrwt>
<pdfrwt beam="1">  1       -2 0.26460769E-02 0.13654057E+03</pdfrwt>
<totfact> 0.44003745E+03</totfact>
</mgrwt>
</event>
<event>
 7    1  0.6419647E-006  0.1929305E+03  0.7546771E-02  0.1159028E+00
          2   -1    0    0  501    0  0.00000000000E+00  0.00000000000E+00  0.19357193645E+03  0.19357193645E+03  0.00000000000E+00 0. -1.
         -2   -1    0    0    0  501 -0.00000000000E+00 -0.00000000000E+00 -0.18435433184E+03  0.18435433184E+03  0.00000000000E+00 0.  1.
         23    2    1    2    0    0 -0.14296340186E+03  0.62297695849E+02 -0.28165611194E+02  0.19497554538E+03  0.11358971988E+03 0.  0.
          5    1    3    3  502    0 -0.88835331469E+02  0.94186305055E+02 -0.13225885399E+02  0.13022975935E+03  0.47000000000E+01 0. -1.
         -5    1    3    3    0  502 -0.54128070393E+02 -0.31888609206E+02 -0.14939725795E+02  0.64745786028E+02  0.47000000000E+01 0.  1.
        -11    1    1    2    0    0  0.12249743838E+03 -0.10319438819E+02  0.20796909267E+02  0.12467808413E+03  0.00000000000E+00 0. -1.
         11    1    1    2    0    0  0.20465963480E+02 -0.51978257030E+02  0.16586306542E+02  0.58272638774E+02  0.00000000000E+00 0.  1.
<mgrwt>
<rscale>  0 0.18937333E+03</rscale>
<asrwt>0</asrwt>
<pdfrwt beam="1">  1        2 0.29780298E-01 0.19293046E+03</pdfrwt>
<pdfrwt beam="2">  1       -2 0.28362205E-01 0.19293046E+03</pdfrwt>
<totfact> 0.19767950E+03</totfact>
</mgrwt>
</event>
<event>
 7    1  0.6419647E-006  0.1889656E+03  0.7546771E-02  0.1164456E+00
          3   -1    0    0  501    0  0.00000000000E+00  0.00000000000E+00  0.10966362733E+03  0.10966362733E+03  0.00000000000E+00 0. -1.
         -3   -1    0    0    0  501 -0.00000000000E+00 -0.00000000000E+00 -0.29095924827E+03  0.29095924827E+03  0.00000000000E+00 0.  1.
         23    2    1    2    0    0 -0.14146057886E+03  0.84884992127E+01 -0.10338773066E+03  0.21539967878E+03  0.12499939509E+03 0.  0.
          5    1    3    3  502    0 -0.14856804614E+03  0.15298989634E+01 -0.44034159426E+02  0.15503516414E+03  0.47000000000E+01 0. -1.
         -5    1    3    3    0  502  0.71074672725E+01  0.69586002493E+01 -0.59353571238E+02  0.60364514636E+02  0.47000000000E+01 0. -1.
        -11    1    1    2    0    0  0.28977042845E+02 -0.37239643646E+02 -0.43384978508E+02  0.64099270129E+02  0.00000000000E+00 0. -1.
         11    1    1    2    0    0  0.11248353602E+03  0.28751144433E+02 -0.34522911767E+02  0.12112392670E+03  0.00000000000E+00 0.  1.
<mgrwt>
<rscale>  0 0.18350221E+03</rscale>
<asrwt>0</asrwt>
<pdfrwt beam="1">  1        3 0.16871327E-01 0.18896560E+03</pdfrwt>
<pdfrwt beam="2">  1       -3 0.44762961E-01 0.18896560E+03</pdfrwt>
<totfact> 0.36582131E+02</totfact>
</mgrwt>
</event>
<event>
 6    1  0.6419647E-006  0.2849376E+03  0.7546771E-02  0.1093022E+00
         -1   -1    0    0    0  501 -0.00000000000E+00  0.00000000000E+00  0.26982260519E+02  0.26982260519E+02  0.00000000000E+00 0.  1.
          1   -1    0    0  501    0  0.00000000000E+00 -0.00000000000E+00 -0.75224848992E+03  0.75224848992E+03  0.00000000000E+00 0. -1.
          5    1    1    2  502    0  0.68544685575E+02 -0.43735617739E+02 -0.54849004819E+03  0.55450392347E+03  0.47000000000E+01 0. -1.
         -5    1    1    2    0  502 -0.29912198298E+02  0.17581028217E+02 -0.47609088078E+02  0.59097778536E+02  0.47000000000E+01 0.  1.
        -11    1    1    2    0    0  0.62990626508E+01  0.50666048061E+02 -0.50760987416E+02  0.71995864186E+02  0.00000000000E+00 0.  1.
         11    1    1    2    0    0 -0.44931549928E+02 -0.24511458539E+02 -0.78406105716E+02  0.93633184247E+02  0.00000000000E+00 0. -1.
<mgrwt>
<rscale>  0 0.28493764E+03</rscale>
<asrwt>0</asrwt>
<pdfrwt beam="2">  1        1 0.11573055E+00 0.28493764E+03</pdfrwt>
<pdfrwt beam="1">  1       -1 0.41511166E-02 0.28493764E+03</pdfrwt>
<totfact> 0.58849966E+03</totfact>
</mgrwt>
</event>
<event>
 7    1  0.6419647E-006  0.1519540E+03  0.7546771E-02  0.1207129E+00
          2   -1    0    0  501    0  0.00000000000E+00  0.00000000000E+00  0.18393433169E+03  0.18393433169E+03  0.00000000000E+00 0. -1.
         -2   -1    0    0    0  501 -0.00000000000E+00 -0.00000000000E+00 -0.10425469337E+03  0.10425469337E+03  0.00000000000E+00 0.  1.
         23    2    1    2    0    0 -0.58540665998E+02 -0.63558073100E+02  0.42080196701E+02  0.15767292068E+03  0.12499347474E+03 0.  0.
          5    1    3    3  502    0  0.37260100588E+02 -0.33540992012E+02  0.23076125847E+02  0.55388724710E+02  0.47000000000E+01 0.  1.
         -5    1    3    3    0  502 -0.95800766586E+02 -0.30017081087E+02  0.19004070854E+02  0.10228419597E+03  0.47000000000E+01 0.  1.
        -11    1    1    2    0    0  0.34856638810E+02  0.85473445657E+02  0.23183610127E+02  0.95174444890E+02  0.00000000000E+00 0. -1.
         11    1    1    2    0    0  0.23684027188E+02 -0.21915372558E+02  0.14415831490E+02  0.35341659494E+02  0.00000000000E+00 0.  1.
<mgrwt>
<rscale>  0 0.14470939E+03</rscale>
<asrwt>0</asrwt>
<pdfrwt beam="1">  1        2 0.28297589E-01 0.15195396E+03</pdfrwt>
<pdfrwt beam="2">  1       -2 0.16039184E-01 0.15195396E+03</pdfrwt>
<totfact> 0.55023444E+03</totfact>
</mgrwt>
</event>
<event>
 7    1  0.6419647E-006  0.1827127E+03  0.7546771E-02  0.1170885E+00
          4   -1    0    0  501    0  0.00000000000E+00  0.00000000000E+00  0.22528706513E+03  0.22528706513E+03  0.00000000000E+00 0. -1.
         -4   -1    0    0    0  501 -0.00000000000E+00 -0.00000000000E+00 -0.19697759596E+03  0.19697759596E+03  0.00000000000E+00 0.  1.
         23    2    1    2    0    0 -0.83374361609E+02 -0.10395623915E+03  0.13713678627E+03  0.22845225114E+03  0.12500299625E+03 0.  0.
          5    1    3    3  502    0 -0.16930653259E+02 -0.47087474987E+02  0.13139659127E+03  0.14068060108E+03  0.47000000000E+01 0.  1.
         -5    1    3    3    0  502 -0.66443708350E+02 -0.56868764160E+02  0.57401949949E+01  0.87771650064E+02  0.47000000000E+01 0.  1.
        -11    1    1    2    0    0  0.56493092465E+02  0.60174302394E+02 -0.11554786180E+03  0.14199903004E+03  0.00000000000E+00 0.  1.
         11    1    1    2    0    0  0.26881269144E+02  0.43781936753E+02  0.67205446963E+01  0.51813379909E+02  0.00000000000E+00 0. -1.
<mgrwt>
<rscale>  0 0.17685207E+03</rscale>
<asrwt>0</asrwt>
<pdfrwt beam="1">  1        4 0.34659549E-01 0.18271271E+03</pdfrwt>
<pdfrwt beam="2">  1       -4 0.30304245E-01 0.18271271E+03</pdfrwt>
<totfact> 0.14738491E+02</totfact>
</mgrwt>
</event>
<event>
 7    1  0.6768942E-006  0.1614941E+03  0.7546771E-02  0.1194242E+00
          1   -1    0    0  501    0  0.00000000000E+00  0.00000000000E+00  0.10770289289E+04  0.10770289289E+04  0.00000000000E+00 0. -1.
         -1   -1    0    0    0  501 -0.00000000000E+00 -0.00000000000E+00 -0.21740083501E+02  0.21740083501E+02  0.00000000000E+00 0.  1.
         23    2    1    2    0    0 -0.25698462024E+02  0.98969726477E+02  0.68292240680E+03  0.70175734555E+03  0.12499976247E+03 0.  0.
          5    1    3    3  502    0 -0.54185129984E+00  0.10131217061E+03  0.27635209475E+03  0.29437564402E+03  0.47000000000E+01 0. -1.
         -5    1    3    3    0  502 -0.25156610724E+02 -0.23424441334E+01  0.40657031204E+03  0.40738170153E+03  0.47000000000E+01 0. -1.
        -11    1    1    2    0    0  0.16700313498E+01  0.16080163652E+02  0.20955690958E+02  0.26466991732E+02  0.00000000000E+00 0.  1.
         11    1    1    2    0    0  0.24028430674E+02 -0.11504989013E+03  0.35141074762E+03  0.37054467510E+03  0.00000000000E+00 0. -1.
<mgrwt>
<rscale>  0 0.15518569E+03</rscale>
<asrwt>0</asrwt>
<pdfrwt beam="1">  1        1 0.16569672E+00 0.16149414E+03</pdfrwt>
<pdfrwt beam="2">  1       -1 0.33446291E-02 0.16149414E+03</pdfrwt>
<totfact> 0.44347925E+03</totfact>
</mgrwt>
</event>
<event>
 7    1  0.6419647E-006  0.1323461E+03  0.7546771E-02  0.1237719E+00
         -2   -1    0    0    0  501 -0.00000000000E+00  0.00000000000E+00  0.19423356343E+03  0.19423356343E+03  0.00000000000E+00 0. -1.
          2   -1    0    0  501    0  0.00000000000E+00 -0.00000000000E+00 -0.94717289207E+02  0.94717289207E+02  0.00000000000E+00 0.  1.
         23    2    1    2    0    0  0.35671505795E+02 -0.24855405610E+02 -0.19361511452E+02  0.13375482963E+03  0.12500095524E+03 0.  0.
          5    1    3    3  502    0  0.40081684822E+02  0.26262315759E+02 -0.53478680062E+02  0.71960474626E+02  0.47000000000E+01 0. -1.
         -5    1    3    3    0  502 -0.44101790267E+01 -0.51117721369E+02  0.34117168610E+02  0.61794355009E+02  0.47000000000E+01 0. -1.
        -11    1    1    2    0    0 -0.15528010804E+02 -0.31212768791E+02  0.21256835136E+02  0.40831471871E+02  0.00000000000E+00 0.  1.
         11    1    1    2    0    0 -0.20143494991E+02  0.56068174402E+02  0.97620950536E+02  0.11436455113E+03  0.00000000000E+00 0. -1.
<mgrwt>
<rscale>  0 0.12331967E+03</rscale>
<asrwt>0</asrwt>
<pdfrwt beam="2">  1        2 0.14571891E-01 0.13234609E+03</pdfrwt>
<pdfrwt beam="1">  1       -2 0.29882087E-01 0.13234609E+03</pdfrwt>
<totfact> 0.39705086E+03</totfact>
</mgrwt>
</event>
<event>
 7    1  0.6467990E-006  0.1808732E+03  0.7546771E-02  0.1172885E+00
         -1   -1    0    0    0  501 -0.00000000000E+00  0.00000000000E+00  0.17529441037E+02  0.17529441037E+02  0.00000000000E+00 0.  1.
          1   -1    0    0  501    0  0.00000000000E+00 -0.00000000000E+00 -0.30665186699E+04  0.30665186699E+04  0.00000000000E+00 0. -1.
         23    2    1    2    0    0 -0.19082705395E+02 -0.12933120597E+03 -0.26310271920E+04  0.26372370359E+04  0.12499755156E+03 0.  0.
          5    1    3    3  502    0 -0.55325766743E+02 -0.45344925653E+02 -0.62101604828E+03  0.62514008427E+03  0.47000000000E+01 0. -1.
         -5    1    3    3    0  502  0.36243061348E+02 -0.83986280318E+02 -0.20100111437E+04  0.20120969516E+04  0.47000000000E+01 0. -1.
        -11    1    1    2    0    0 -0.23903485953E+02  0.18405634422E+02 -0.37188937312E+02  0.47886961457E+02  0.00000000000E+00 0.  1.
         11    1    1    2    0    0  0.42986191348E+02  0.11092557155E+03 -0.38077309956E+03  0.39892411361E+03  0.00000000000E+00 0. -1.
<mgrwt>
<rscale>  0 0.17484764E+03</rscale>
<asrwt>0</asrwt>
<pdfrwt beam="2">  1        1 0.47177206E+00 0.18087316E+03</pdfrwt>
<pdfrwt beam="1">  1       -1 0.26968373E-02 0.18087316E+03</pdfrwt>
<totfact> 0.29385918E+02</totfact>
</mgrwt>
</event>
<event>
 7    1  0.6419647E-006  0.1480703E+03  0.7546771E-02  0.1212761E+00
          1   -1    0    0  501    0  0.00000000000E+00  0.00000000000E+00  0.72278435421E+02  0.72278435421E+02  0.00000000000E+00 0. -1.
         -1   -1    0    0    0  501 -0.00000000000E+00 -0.00000000000E+00 -0.28405754425E+03  0.28405754425E+03  0.00000000000E+00 0.  1.
         23    2    1    2    0    0  0.74777063336E+02  0.26648258752E+02 -0.52611196514E+02  0.15713923957E+03  0.12499225463E+03 0.  0.
          5    1    3    3  502    0 -0.74081099584E+00  0.63234607138E+02 -0.15590731154E+02  0.65301801191E+02  0.47000000000E+01 0. -1.
         -5    1    3    3    0  502  0.75517874332E+02 -0.36586348386E+02 -0.37020465360E+02  0.91837438375E+02  0.47000000000E+01 0. -1.
        -11    1    1    2    0    0 -0.39165398070E+02  0.10984502589E+02 -0.13687791270E+03  0.14279408492E+03  0.00000000000E+00 0.  1.
         11    1    1    2    0    0 -0.35611665266E+02 -0.37632761341E+02 -0.22289999618E+02  0.56402655187E+02  0.00000000000E+00 0. -1.
<mgrwt>
<rscale>  0 0.14042297E+03</rscale>
<asrwt>0</asrwt>
<pdfrwt beam="1">  1        1 0.11119759E-01 0.14807026E+03</pdfrwt>
<pdfrwt beam="2">  1       -1 0.43701160E-01 0.14807026E+03</pdfrwt>
<totfact> 0.28373464E+03</totfact>
</mgrwt>
</event>
<event>
 7    1  0.6419647E-006  0.1375299E+03  0.7546771E-02  0.1228459E+00
          2   -1    0    0  501    0  0.00000000000E+00  0.00000000000E+00  0.19276056719E+03  0.19276056719E+03  0.00000000000E+00 0. -1.
         -2   -1    0    0    0  501 -0.00000000000E+00 -0.00000000000E+00 -0.90480779444E+02  0.90480779444E+02  0.00000000000E+00 0.  1.
         23    2    1    2    0    0 -0.46977734064E+02  0.32953756263E+02  0.10901251027E+03  0.17549417016E+03  0.12498647452E+03 0.  0.
          5    1    3    3  502    0 -0.13924003313E+02 -0.16748518834E+02  0.11329633807E+03  0.11546662276E+03  0.47000000000E+01 0.  1.
         -5    1    3    3    0  502 -0.33053730751E+02  0.49702275097E+02 -0.42838277937E+01  0.60027547401E+02  0.47000000000E+01 0.  1.
        -11    1    1    2    0    0 -0.22821277005E+02 -0.25429882215E+02  0.99520424148E+01  0.35588379309E+02  0.00000000000E+00 0.  1.
         11    1    1    2    0    0  0.69799011069E+02 -0.75238740487E+01 -0.16684764946E+02  0.72158797165E+02  0.00000000000E+00 0. -1.
<mgrwt>
<rscale>  0 0.12932633E+03</rscale>
<asrwt>0</asrwt>
<pdfrwt beam="1">  1        2 0.29655472E-01 0.13752991E+03</pdfrwt>
<pdfrwt beam="2">  1       -2 0.13920120E-01 0.13752991E+03</pdfrwt>
<totfact> 0.65505474E+03</totfact>
</mgrwt>
</event>
<event>
 7    1  0.6419647E-006  0.1355617E+03  0.7546771E-02  0.1231849E+00
          1   -1    0    0  501    0  0.00000000000E+00  0.00000000000E+00  0.81089992273E+02  0.81089992273E+02  0.00000000000E+00 0. -1.
         -1   -1    0    0    0  501 -0.00000000000E+00 -0.00000000000E+00 -0.39375386659E+03  0.39375386659E+03  0.00000000000E+00 0.  1.
         23    2    1    2    0    0 -0.48242633321E+02  0.20591200032E+02  0.96956751099E+01  0.13590794348E+03  0.12500245516E+03 0.  0.
          5    1    3    3  502    0  0.28104157808E+02  0.44293662791E+02  0.17378884577E+02  0.55460687687E+02  0.47000000000E+01 0. -1.
         -5    1    3    3    0  502 -0.76346791129E+02 -0.23702462759E+02 -0.76832094668E+01  0.80447255791E+02  0.47000000000E+01 0. -1.
        -11    1    1    2    0    0 -0.15629849807E+02  0.21990585036E+02 -0.10531986618E+03  0.10872052358E+03  0.00000000000E+00 0. -1.
         11    1    1    2    0    0  0.63872483127E+02 -0.42581785067E+02 -0.21703968325E+03  0.23021539181E+03  0.00000000000E+00 0.  1.
<mgrwt>
<rscale>  0 0.12708323E+03</rscale>
<asrwt>0</asrwt>
<pdfrwt beam="1">  1        1 0.12475384E-01 0.13556166E+03</pdfrwt>
<pdfrwt beam="2">  1       -1 0.60577517E-01 0.13556166E+03</pdfrwt>
<totfact> 0.13327868E+03</totfact>
</mgrwt>
</event>
<event>
 7    1  0.6419647E-006  0.1399857E+03  0.7546771E-02  0.1225750E+00
          2   -1    0    0  501    0  0.00000000000E+00  0.00000000000E+00  0.14990916168E+03  0.14990916168E+03  0.00000000000E+00 0. -1.
         -2   -1    0    0    0  501 -0.00000000000E+00 -0.00000000000E+00 -0.10279968607E+03  0.10279968607E+03  0.00000000000E+00 0.  1.
         23    2    1    2    0    0 -0.32560320004E+02  0.53957724657E+02  0.19285092694E+02  0.14130787639E+03  0.12499756254E+03 0.  0.
          5    1    3    3  502    0 -0.33020970277E+02  0.88527829281E+02  0.37720920965E+02  0.10184556404E+03  0.47000000000E+01 0. -1.
         -5    1    3    3    0  502  0.46065027250E+00 -0.34570104624E+02 -0.18435828271E+02  0.39462312355E+02  0.47000000000E+01 0. -1.
        -11    1    1    2    0    0  0.50010015780E+02 -0.20546399999E+02 -0.13235812011E+02  0.55662760899E+02  0.00000000000E+00 0.  1.
         11    1    1    2    0    0 -0.17449695776E+02 -0.33411324658E+02  0.41060194927E+02  0.55738210462E+02  0.00000000000E+00 0. -1.
<mgrwt>
<rscale>  0 0.13115600E+03</rscale>
<asrwt>0</asrwt>
<pdfrwt beam="1">  1        2 0.23062948E-01 0.13998572E+03</pdfrwt>
<pdfrwt beam="2">  1       -2 0.15815336E-01 0.13998572E+03</pdfrwt>
<totfact> 0.70184835E+03</totfact>
</mgrwt>
</event>
<event>
 7    1  0.6419647E-006  0.1348592E+03  0.7546771E-02  0.1231989E+00
         -1   -1    0    0    0  501 -0.00000000000E+00  0.00000000000E+00  0.47466389273E+02  0.47466389273E+02  0.00000000000E+00 0.  1.
          1   -1    0    0  501    0  0.00000000000E+00 -0.00000000000E+00 -0.35528253018E+03  0.35528253018E+03  0.00000000000E+00 0. -1.
         23    2    1    2    0    0 -0.43995446578E+02 -0.25011058542E+02 -0.24455578165E+03  0.27927501527E+03  0.12500340574E+03 0.  0.
          5    1    3    3  502    0 -0.38122475332E+02 -0.54467777836E+02 -0.52542182240E+02  0.84869504903E+02  0.47000000000E+01 0. -1.
         -5    1    3    3    0  502 -0.58729712453E+01  0.29456719294E+02 -0.19201359941E+03  0.19440551037E+03  0.47000000000E+01 0. -1.
        -11    1    1    2    0    0  0.54928072208E+02  0.18758323015E+02  0.93944065520E+00  0.58050412122E+02  0.00000000000E+00 0.  1.
         11    1    1    2    0    0 -0.10932625630E+02  0.62527355270E+01 -0.64199799904E+02  0.65423492053E+02  0.00000000000E+00 0. -1.
<mgrwt>
<rscale>  0 0.12699166E+03</rscale>
<asrwt>0</asrwt>
<pdfrwt beam="2">  1        1 0.54658849E-01 0.13485920E+03</pdfrwt>
<pdfrwt beam="1">  1       -1 0.73025216E-02 0.13485920E+03</pdfrwt>
<totfact> 0.66742085E+03</totfact>
</mgrwt>
</event>
<event>
 7    1  0.6419647E-006  0.1281639E+03  0.7546771E-02  0.1244155E+00
         -2   -1    0    0    0  501 -0.00000000000E+00  0.00000000000E+00  0.54893319624E+02  0.54893319624E+02  0.00000000000E+00 0.  1.
          2   -1    0    0  501    0  0.00000000000E+00 -0.00000000000E+00 -0.31690990100E+03  0.31690990100E+03  0.00000000000E+00 0. -1.
         23    2    1    2    0    0 -0.27944000186E+02 -0.45310553153E+01 -0.24124137212E+03  0.27317280568E+03  0.12499833813E+03 0.  0.
          5    1    3    3  502    0  0.29766601393E+02  0.42786770784E+02 -0.82469447228E+02  0.97673220684E+02  0.47000000000E+01 0. -1.
         -5    1    3    3    0  502 -0.57710601580E+02 -0.47317826100E+02 -0.15877192489E+03  0.17549958500E+03  0.47000000000E+01 0. -1.
        -11    1    1    2    0    0  0.44235503328E+02 -0.17086624302E+02  0.18524288890E+02  0.50910527041E+02  0.00000000000E+00 0.  1.
         11    1    1    2    0    0 -0.16291503141E+02  0.21617679618E+02 -0.39299498147E+02  0.47719887901E+02  0.00000000000E+00 0. -1.
<mgrwt>
<rscale>  0 0.11936124E+03</rscale>
<asrwt>0</asrwt>
<pdfrwt beam="2">  1        2 0.48755369E-01 0.12816389E+03</pdfrwt>
<pdfrwt beam="1">  1       -2 0.84451261E-02 0.12816389E+03</pdfrwt>
<totfact> 0.84570643E+03</totfact>
</mgrwt>
</event>
<event>
 7    1  0.6419647E-006  0.1346630E+03  0.7546771E-02  0.1232578E+00
         -2   -1    0    0    0  501 -0.00000000000E+00  0.00000000000E+00  0.98501490485E+02  0.98501490485E+02  0.00000000000E+00 0.  1.
          2   -1    0    0  501    0  0.00000000000E+00 -0.00000000000E+00 -0.20525473523E+03  0.20525473523E+03  0.00000000000E+00 0. -1.
         23    2    1    2    0    0  0.48315980832E+02  0.13073882734E+02 -0.13917073175E+03  0.19365592314E+03  0.12501505340E+03 0.  0.
          5    1    3    3  502    0 -0.91267053767E+01  0.57866546506E+02 -0.82264405960E+02  0.10110072425E+03  0.47000000000E+01 0. -1.
         -5    1    3    3    0  502  0.57442686209E+02 -0.44792663772E+02 -0.56906325785E+02  0.92555198887E+02  0.47000000000E+01 0. -1.
        -11    1    1    2    0    0 -0.40549223060E+02  0.36666016791E+02  0.13411672959E+02  0.56289512785E+02  0.00000000000E+00 0. -1.
         11    1    1    2    0    0 -0.77667577719E+01 -0.49739899525E+02  0.19005814040E+02  0.53810789795E+02  0.00000000000E+00 0.  1.
<mgrwt>
<rscale>  0 0.12660780E+03</rscale>
<asrwt>0</asrwt>
<pdfrwt beam="2">  1        2 0.31577651E-01 0.13466300E+03</pdfrwt>
<pdfrwt beam="1">  1       -2 0.15154076E-01 0.13466300E+03</pdfrwt>
<totfact> 0.53227637E+03</totfact>
</mgrwt>
</event>
<event>
 7    1  0.6419647E-006  0.1387454E+03  0.7546771E-02  0.1224357E+00
         -2   -1    0    0    0  501 -0.00000000000E+00  0.00000000000E+00  0.13302063242E+03  0.13302063242E+03  0.00000000000E+00 0. -1.
          2   -1    0    0  501    0  0.00000000000E+00 -0.00000000000E+00 -0.12137733364E+03  0.12137733364E+03  0.00000000000E+00 0.  1.
         23    2    1    2    0    0  0.27128516091E+02  0.53762034726E+02 -0.65754642726E+01  0.13890114603E+03  0.12499591543E+03 0.  0.
          5    1    3    3  502    0  0.61020319924E+02  0.57387262083E+01 -0.37816393771E+02  0.72170506857E+02  0.47000000000E+01 0. -1.
         -5    1    3    3    0  502 -0.33891803834E+02  0.48023308518E+02  0.31240929498E+02  0.66730639170E+02  0.47000000000E+01 0. -1.
        -11    1    1    2    0    0 -0.26215848018E+02  0.23323311882E+02  0.15494685695E+02  0.38357956791E+02  0.00000000000E+00 0.  1.
         11    1    1    2    0    0 -0.91266807266E+00 -0.77085346608E+02  0.27240773582E+01  0.77138863241E+02  0.00000000000E+00 0. -1.
<mgrwt>
<rscale>  0 0.13211089E+03</rscale>
<asrwt>0</asrwt>
<pdfrwt beam="2">  1        2 0.18673436E-01 0.13874542E+03</pdfrwt>
<pdfrwt beam="1">  1       -2 0.20464713E-01 0.13874542E+03</pdfrwt>
<totfact> 0.57852392E+03</totfact>
</mgrwt>
</event>
<event>
 7    1  0.6419647E-006  0.1803584E+03  0.7546771E-02  0.1173026E+00
          3   -1    0    0  501    0  0.00000000000E+00  0.00000000000E+00  0.79573101112E+02  0.79573101112E+02  0.00000000000E+00 0. -1.
         -3   -1    0    0    0  501 -0.00000000000E+00 -0.00000000000E+00 -0.38471787746E+03  0.38471787746E+03  0.00000000000E+00 0.  1.
         23    2    1    2    0    0 -0.44252288809E+02  0.12226341868E+03 -0.10461730503E+03  0.20850399536E+03  0.12499010744E+03 0.  0.
          5    1    3    3  502    0  0.23358055257E+02  0.42970050680E+02 -0.90854857166E+02  0.10328949158E+03  0.47000000000E+01 0. -1.
         -5    1    3    3    0  502 -0.67610344065E+02  0.79293367998E+02 -0.13762447860E+02  0.10521450377E+03  0.47000000000E+01 0. -1.
        -11    1    1    2    0    0 -0.23484509913E+02 -0.63590058917E+02 -0.69868644515E+02  0.97349089802E+02  0.00000000000E+00 0. -1.
         11    1    1    2    0    0  0.67736798722E+02 -0.58673359761E+02 -0.13065882680E+03  0.15843789341E+03  0.00000000000E+00 0.  1.
<mgrwt>
<rscale>  0 0.17470732E+03</rscale>
<asrwt>0</asrwt>
<pdfrwt beam="1">  1        3 0.12242015E-01 0.18035835E+03</pdfrwt>
<pdfrwt beam="2">  1       -3 0.59187367E-01 0.18035835E+03</pdfrwt>
<totfact> 0.35875634E+02</totfact>
</mgrwt>
</event>
<event>
 7    1  0.6419647E-006  0.1941153E+03  0.7546771E-02  0.1159132E+00
          1   -1    0    0  501    0  0.00000000000E+00  0.00000000000E+00  0.14618017463E+04  0.14618017463E+04  0.00000000000E+00 0. -1.
         -1   -1    0    0    0  501 -0.00000000000E+00 -0.00000000000E+00 -0.23441897553E+02  0.23441897553E+02  0.00000000000E+00 0.  1.
         23    2    1    2    0    0  0.12812925173E+03  0.75069865549E+02  0.80137621853E+03  0.82455113761E+03  0.12501257958E+03 0.  0.
          5    1    3    3  502    0  0.10123727180E+03  0.10179543599E+03  0.48347051077E+03  0.50435812750E+03  0.47000000000E+01 0.  1.
         -5    1    3    3    0  502  0.26891979933E+02 -0.26725570444E+02  0.31790570776E+03  0.32019301012E+03  0.47000000000E+01 0.  1.
        -11    1    1    2    0    0 -0.75711280706E+02 -0.83404930577E+01  0.17318295830E+03  0.18919328449E+03  0.00000000000E+00 0.  1.
         11    1    1    2    0    0 -0.52417971025E+02 -0.66729372491E+02  0.46380067193E+03  0.47149922176E+03  0.00000000000E+00 0. -1.
<mgrwt>
<rscale>  0 0.18925808E+03</rscale>
<asrwt>0</asrwt>
<pdfrwt beam="1">  1        1 0.22489250E+00 0.19411526E+03</pdfrwt>
<pdfrwt beam="2">  1       -1 0.36064469E-02 0.19411526E+03</pdfrwt>
<totfact> 0.21760993E+03</totfact>
</mgrwt>
</event>
<event>
 7    1  0.6419647E-006  0.1631245E+03  0.7546771E-02  0.1192294E+00
         -2   -1    0    0    0  501 -0.00000000000E+00  0.00000000000E+00  0.80387994675E+02  0.80387994675E+02  0.00000000000E+00 0.  1.
          2   -1    0    0  501    0  0.00000000000E+00 -0.00000000000E+00 -0.28781661501E+03  0.28781661501E+03  0.00000000000E+00 0. -1.
         23    2    1    2    0    0 -0.70932193430E+02 -0.77168712387E+02 -0.13076141741E+03  0.20906497566E+03  0.12499291792E+03 0.  0.
          5    1    3    3  502    0 -0.20339151712E+02 -0.10146026800E+03 -0.64170531466E+02  0.12185160722E+03  0.47000000000E+01 0. -1.
         -5    1    3    3    0  502 -0.50593041717E+02  0.24291555608E+02 -0.66590885942E+02  0.87213368440E+02  0.47000000000E+01 0. -1.
        -11    1    1    2    0    0  0.30108878459E+02  0.31073483633E+02 -0.86564514445E+02  0.96775622490E+02  0.00000000000E+00 0. -1.
         11    1    1    2    0    0  0.40823314970E+02  0.46095228753E+02  0.98973115190E+01  0.62364011532E+02  0.00000000000E+00 0.  1.
<mgrwt>
<rscale>  0 0.15685473E+03</rscale>
<asrwt>0</asrwt>
<pdfrwt beam="2">  1        2 0.44279479E-01 0.16312454E+03</pdfrwt>
<pdfrwt beam="1">  1       -2 0.12367384E-01 0.16312454E+03</pdfrwt>
<totfact> 0.52113551E+03</totfact>
</mgrwt>
</event>
<event>
 7    1  0.1112623E-005  0.1638209E+03  0.7546771E-02  0.1191657E+00
         -1   -1    0    0    0  501 -0.00000000000E+00  0.00000000000E+00  0.80932024654E+02  0.80932024654E+02  0.00000000000E+00 0.  1.
          1   -1    0    0  501    0  0.00000000000E+00 -0.00000000000E+00 -0.28794781561E+03  0.28794781561E+03  0.00000000000E+00 0. -1.
         23    2    1    2    0    0  0.64630636275E+02 -0.83880613978E+02 -0.13194219857E+03  0.21034739603E+03  0.12499682679E+03 0.  0.
          5    1    3    3  502    0 -0.22752079395E+02 -0.30605383486E+02  0.56128122226E+01  0.38832206687E+02  0.47000000000E+01 0. -1.
         -5    1    3    3    0  502  0.87382715670E+02 -0.53275230492E+02 -0.13755501079E+03  0.17151518935E+03  0.47000000000E+01 0. -1.
        -11    1    1    2    0    0 -0.35730176820E+02  0.81664801418E+02 -0.13075081294E+02  0.90092969077E+02  0.00000000000E+00 0.  1.
         11    1    1    2    0    0 -0.28900459455E+02  0.22158125595E+01 -0.61998511088E+02  0.68439475153E+02  0.00000000000E+00 0. -1.
<mgrwt>
<rscale>  0 0.15740608E+03</rscale>
<asrwt>0</asrwt>
<pdfrwt beam="2">  1        1 0.44299664E-01 0.16382089E+03</pdfrwt>
<pdfrwt beam="1">  1       -1 0.12451081E-01 0.16382089E+03</pdfrwt>
<totfact> 0.38813337E+03</totfact>
</mgrwt>
</event>
<event>
 7    1  0.6419647E-006  0.1645842E+03  0.7546771E-02  0.1186731E+00
          2   -1    0    0  501    0  0.00000000000E+00  0.00000000000E+00  0.11489709903E+04  0.11489709903E+04  0.00000000000E+00 0. -1.
         -2   -1    0    0    0  501 -0.00000000000E+00 -0.00000000000E+00 -0.22257796761E+02  0.22257796761E+02  0.00000000000E+00 0.  1.
         23    2    1    2    0    0 -0.89587703721E+02  0.83338634021E+02  0.64296403991E+03  0.66369473581E+03  0.11007570639E+03 0.  0.
          5    1    3    3  502    0 -0.89828111248E+01 -0.16257289438E+02  0.24140023853E+03  0.24215935975E+03  0.47000000000E+01 0. -1.
         -5    1    3    3    0  502 -0.80604892596E+02  0.99595923459E+02  0.40156380139E+03  0.42153537605E+03  0.47000000000E+01 0.  1.
        -11    1    1    2    0    0  0.83430612134E+02 -0.14957962812E+02  0.27766960645E+03  0.29031847691E+03  0.00000000000E+00 0.  1.
         11    1    1    2    0    0  0.61570915869E+01 -0.68380671209E+02  0.20607954719E+03  0.21721557436E+03  0.00000000000E+00 0. -1.
<mgrwt>
<rscale>  0 0.16175340E+03</rscale>
<asrwt>0</asrwt>
<pdfrwt beam="1">  1        2 0.17676472E+00 0.16458416E+03</pdfrwt>
<pdfrwt beam="2">  1       -2 0.34242773E-02 0.16458416E+03</pdfrwt>
<totfact> 0.72861914E+03</totfact>
</mgrwt>
</event>
<event>
 7    1  0.6419647E-006  0.1887259E+03  0.7546771E-02  0.1163691E+00
          2   -1    0    0  501    0  0.00000000000E+00  0.00000000000E+00  0.42130555291E+03  0.42130555291E+03  0.00000000000E+00 0. -1.
         -2   -1    0    0    0  501 -0.00000000000E+00 -0.00000000000E+00 -0.97545355483E+02  0.97545355483E+02  0.00000000000E+00 0.  1.
         23    2    1    2    0    0 -0.11903264309E+03 -0.76311744672E+02  0.28663947599E+03  0.34319042620E+03  0.12500090777E+03 0.  0.
          5    1    3    3  502    0 -0.68593320855E+02 -0.10568636492E+03  0.16032838846E+03  0.20396552047E+03  0.47000000000E+01 0.  1.
         -5    1    3    3    0  502 -0.50439322239E+02  0.29374620244E+02  0.12631108754E+03  0.13922490573E+03  0.47000000000E+01 0.  1.
        -11    1    1    2    0    0  0.10068369774E+03  0.68340036352E+02  0.67599671327E+02  0.13920231005E+03  0.00000000000E+00 0. -1.
         11    1    1    2    0    0  0.18348945353E+02  0.79717083198E+01 -0.30478949894E+02  0.36458172140E+02  0.00000000000E+00 0.  1.
<mgrwt>
<rscale>  0 0.18431563E+03</rscale>
<asrwt>0</asrwt>
<pdfrwt beam="1">  1        2 0.64816238E-01 0.18872594E+03</pdfrwt>
<pdfrwt beam="2">  1       -2 0.15006978E-01 0.18872594E+03</pdfrwt>
<totfact> 0.25438269E+03</totfact>
</mgrwt>
</event>
<event>
 7    1  0.6419647E-006  0.1459439E+03  0.7546771E-02  0.1216749E+00
          1   -1    0    0  501    0  0.00000000000E+00  0.00000000000E+00  0.13401230747E+03  0.13401230747E+03  0.00000000000E+00 0. -1.
         -1   -1    0    0    0  501 -0.00000000000E+00 -0.00000000000E+00 -0.12916712430E+03  0.12916712430E+03  0.00000000000E+00 0.  1.
         23    2    1    2    0    0  0.10222674374E+02 -0.74624048492E+02  0.19729199286E+02  0.14727142704E+03  0.12500552081E+03 0.  0.
          5    1    3    3  502    0 -0.43293630639E+02 -0.57475277759E+01 -0.23492054645E+02  0.49813042076E+02  0.47000000000E+01 0.  1.
         -5    1    3    3    0  502  0.53516305013E+02 -0.68876520716E+02  0.43221253931E+02  0.97458384963E+02  0.47000000000E+01 0.  1.
        -11    1    1    2    0    0 -0.19398525199E+01 -0.19737522996E+02  0.10150626953E+01  0.19858579861E+02  0.00000000000E+00 0.  1.
         11    1    1    2    0    0 -0.82828218546E+01  0.94361571488E+02 -0.15899078813E+02  0.96049424874E+02  0.00000000000E+00 0. -1.
<mgrwt>
<rscale>  0 0.13748815E+03</rscale>
<asrwt>0</asrwt>
<pdfrwt beam="1">  1        1 0.20617278E-01 0.14594393E+03</pdfrwt>
<pdfrwt beam="2">  1       -1 0.19871865E-01 0.14594393E+03</pdfrwt>
<totfact> 0.48025275E+03</totfact>
</mgrwt>
</event>
<event>
 7    1  0.6419647E-006  0.1419453E+03  0.7546771E-02  0.1221313E+00
          4   -1    0    0  501    0  0.00000000000E+00  0.00000000000E+00  0.38404901991E+02  0.38404901991E+02  0.00000000000E+00 0. -1.
         -4   -1    0    0    0  501 -0.00000000000E+00 -0.00000000000E+00 -0.42671659663E+03  0.42671659663E+03  0.00000000000E+00 0.  1.
         23    2    1    2    0    0  0.66997375433E+02 -0.58012406814E+01 -0.20011443946E+03  0.24534515136E+03  0.12500460674E+03 0.  0.
          5    1    3    3  502    0 -0.27514319245E+02 -0.13466216792E+02 -0.95305059110E+01  0.32423715104E+02  0.47000000000E+01 0.  1.
         -5    1    3    3    0  502  0.94511694678E+02  0.76649761103E+01 -0.19058393355E+03  0.21292143625E+03  0.47000000000E+01 0.  1.
        -11    1    1    2    0    0 -0.11151766239E+02 -0.25338664486E+02 -0.83731470354E+01  0.28922645098E+02  0.00000000000E+00 0. -1.
         11    1    1    2    0    0 -0.55845609194E+02  0.31139905168E+02 -0.17982410814E+03  0.19085370216E+03  0.00000000000E+00 0.  1.
<mgrwt>
<rscale>  0 0.13422846E+03</rscale>
<asrwt>0</asrwt>
<pdfrwt beam="1">  1        4 0.59084457E-02 0.14194525E+03</pdfrwt>
<pdfrwt beam="2">  1       -4 0.65648716E-01 0.14194525E+03</pdfrwt>
<totfact> 0.66674581E+02</totfact>
</mgrwt>
</event>
<event>
 7    1  0.6419647E-006  0.4440054E+03  0.7546771E-02  0.1030208E+00
          1   -1    0    0  501    0  0.00000000000E+00  0.00000000000E+00  0.51676202440E+03  0.51676202440E+03  0.00000000000E+00 0. -1.
         -1   -1    0    0    0  501 -0.00000000000E+00 -0.00000000000E+00 -0.79243699605E+03  0.79243699605E+03  0.00000000000E+00 0.  1.
         23    2    1    2    0    0 -0.42552500135E+03 -0.69316032643E+01  0.33723752467E+03  0.55755708861E+03  0.12657482024E+03 0.  0.
          5    1    3    3  502    0 -0.33296421824E+03 -0.15599874011E+02  0.32153382622E+03  0.46315722827E+03  0.47000000000E+01 0. -1.
         -5    1    3    3    0  502 -0.92560783106E+02  0.86682707468E+01  0.15703698451E+02  0.94399860339E+02  0.47000000000E+01 0.  1.
        -11    1    1    2    0    0  0.77636341396E+02  0.36766401598E+02 -0.11796505097E+03  0.14592780078E+03  0.00000000000E+00 0. -1.
         11    1    1    2    0    0  0.34788865995E+03 -0.29834798334E+02 -0.49494744535E+03  0.60571413106E+03  0.00000000000E+00 0.  1.
<mgrwt>
<rscale>  0 0.44175970E+03</rscale>
<asrwt>0</asrwt>
<pdfrwt beam="1">  1        1 0.79501850E-01 0.44400536E+03</pdfrwt>
<pdfrwt beam="2">  1       -1 0.12191338E+00 0.44400536E+03</pdfrwt>
<totfact> 0.26884396E+01</totfact>
</mgrwt>
</event>
<event>
 7    1  0.6419647E-006  0.1442440E+03  0.7546771E-02  0.1217557E+00
          4   -1    0    0  501    0  0.00000000000E+00  0.00000000000E+00  0.70057104666E+03  0.70057104666E+03  0.00000000000E+00 0. -1.
         -4   -1    0    0    0  501 -0.00000000000E+00 -0.00000000000E+00 -0.33218392430E+02  0.33218392430E+02  0.00000000000E+00 0.  1.
         23    2    1    2    0    0 -0.66332994016E+02  0.27947144925E+02  0.54781655919E+03  0.56648859515E+03  0.12500094763E+03 0.  0.
          5    1    3    3  502    0 -0.72074842777E+02  0.70289188412E+02  0.36230994309E+03  0.37606640083E+03  0.47000000000E+01 0.  1.
         -5    1    3    3    0  502  0.57418487611E+01 -0.42342043488E+02  0.18550661610E+03  0.19042219433E+03  0.47000000000E+01 0.  1.
        -11    1    1    2    0    0  0.52411817430E+01 -0.12201394575E+02 -0.14193406167E+02  0.19436995505E+02  0.00000000000E+00 0.  1.
         11    1    1    2    0    0  0.61091812273E+02 -0.15745750350E+02  0.13372950121E+03  0.14786384843E+03  0.00000000000E+00 0. -1.
<mgrwt>
<rscale>  0 0.13690404E+03</rscale>
<asrwt>0</asrwt>
<pdfrwt beam="1">  1        4 0.10778015E+00 0.14424405E+03</pdfrwt>
<pdfrwt beam="2">  1       -4 0.51105225E-02 0.14424405E+03</pdfrwt>
<totfact> 0.27887143E+02</totfact>
</mgrwt>
</event>
<event>
 7    1  0.6419647E-006  0.1365090E+03  0.7546771E-02  0.1230266E+00
         -1   -1    0    0    0  501 -0.00000000000E+00  0.00000000000E+00  0.49055011985E+03  0.49055011985E+03  0.00000000000E+00 0.  1.
          1   -1    0    0  501    0  0.00000000000E+00 -0.00000000000E+00 -0.29973081026E+02  0.29973081026E+02  0.00000000000E+00 0. -1.
         23    2    1    2    0    0  0.53485765446E+02 -0.12149788228E+02  0.26549243719E+03  0.29853132671E+03  0.12500549733E+03 0.  0.
          5    1    3    3  502    0  0.11615588230E+02 -0.62521480153E+02  0.83565529935E+02  0.10511491409E+03  0.47000000000E+01 0.  1.
         -5    1    3    3    0  502  0.41870177215E+02  0.50371691925E+02  0.18192690726E+03  0.19341641262E+03  0.47000000000E+01 0.  1.
        -11    1    1    2    0    0 -0.35242514906E+02  0.51243211884E+02  0.12661539845E+03  0.14106509400E+03  0.00000000000E+00 0.  1.
         11    1    1    2    0    0 -0.18243250540E+02 -0.39093423656E+02  0.68469203184E+02  0.80926780167E+02  0.00000000000E+00 0. -1.
<mgrwt>
<rscale>  0 0.12812437E+03</rscale>
<asrwt>0</asrwt>
<pdfrwt beam="2">  1        1 0.46112436E-02 0.13650904E+03</pdfrwt>
<pdfrwt beam="1">  1       -1 0.75469244E-01 0.13650904E+03</pdfrwt>
<totfact> 0.33003974E+03</totfact>
</mgrwt>
</event>
<event>
 7    1  0.6419647E-006  0.1249839E+03  0.7546771E-02  0.1261638E+00
          2   -1    0    0  501    0  0.00000000000E+00  0.00000000000E+00  0.30203022889E+03  0.30203022889E+03  0.00000000000E+00 0. -1.
         -2   -1    0    0    0  501 -0.00000000000E+00 -0.00000000000E+00 -0.33550815622E+02  0.33550815622E+02  0.00000000000E+00 0.  1.
         23    2    1    2    0    0  0.17892257193E+01 -0.12778612096E+01  0.19559243742E+03  0.23211502742E+03  0.12496459546E+03 0.  0.
          5    1    3    3  502    0  0.15466398631E+02  0.59159779749E+02  0.11516088088E+03  0.13047301450E+03  0.47000000000E+01 0. -1.
         -5    1    3    3    0  502 -0.13677172912E+02 -0.60437640959E+02  0.80431556537E+02  0.10164201292E+03  0.47000000000E+01 0. -1.
        -11    1    1    2    0    0  0.20654452739E+02  0.22589975280E+02  0.64507795116E+02  0.71401463793E+02  0.00000000000E+00 0. -1.
         11    1    1    2    0    0 -0.22443678458E+02 -0.21312114070E+02  0.83791807375E+01  0.32064553306E+02  0.00000000000E+00 0.  1.
<mgrwt>
<rscale>  0 0.10942498E+03</rscale>
<asrwt>0</asrwt>
<pdfrwt beam="1">  1        2 0.46466187E-01 0.12498394E+03</pdfrwt>
<pdfrwt beam="2">  1       -2 0.51616641E-02 0.12498394E+03</pdfrwt>
<totfact> 0.18793705E+04</totfact>
</mgrwt>
</event>
<event>
 7    1  0.6419647E-006  0.1679978E+03  0.7546771E-02  0.1188737E+00
         -3   -1    0    0    0  501 -0.00000000000E+00  0.00000000000E+00  0.53468649552E+03  0.53468649552E+03  0.00000000000E+00 0.  1.
          3   -1    0    0  501    0  0.00000000000E+00 -0.00000000000E+00 -0.44161810094E+02  0.44161810094E+02  0.00000000000E+00 0. -1.
         23    2    1    2    0    0  0.73043382352E+02 -0.85228996816E+02  0.24324076613E+03  0.29561685325E+03  0.12499574399E+03 0.  0.
          5    1    3    3  502    0  0.82320572474E+02 -0.40438236430E+02  0.67539407643E+02  0.11399819824E+03  0.47000000000E+01 0. -1.
         -5    1    3    3    0  502 -0.92771901219E+01 -0.44790760386E+02  0.17570135848E+03  0.18161865500E+03  0.47000000000E+01 0. -1.
        -11    1    1    2    0    0 -0.37963714867E+02  0.14344941301E+02  0.16163309208E+03  0.16665016484E+03  0.00000000000E+00 0.  1.
         11    1    1    2    0    0 -0.35079667485E+02  0.70884055515E+02  0.85650827222E+02  0.11658128753E+03  0.00000000000E+00 0. -1.
<mgrwt>
<rscale>  0 0.15996447E+03</rscale>
<asrwt>0</asrwt>
<pdfrwt beam="2">  1        3 0.67941250E-02 0.16799778E+03</pdfrwt>
<pdfrwt beam="1">  1       -3 0.82259456E-01 0.16799778E+03</pdfrwt>
<totfact> 0.46666855E+02</totfact>
</mgrwt>
</event>
<event>
 7    1  0.6419647E-006  0.1298553E+03  0.7546771E-02  0.1241766E+00
          1   -1    0    0  501    0  0.00000000000E+00  0.00000000000E+00  0.40264059831E+03  0.40264059831E+03  0.00000000000E+00 0. -1.
         -1   -1    0    0    0  501 -0.00000000000E+00 -0.00000000000E+00 -0.32996524356E+02  0.32996524356E+02  0.00000000000E+00 0.  1.
         23    2    1    2    0    0 -0.23798559093E+02 -0.25887235815E+02  0.24738720944E+03  0.27939724332E+03  0.12500347111E+03 0.  0.
          5    1    3    3  502    0 -0.34703730444E+02 -0.46491525488E+02  0.24885438288E+03  0.25557074310E+03  0.47000000000E+01 0.  1.
         -5    1    3    3    0  502  0.10905171351E+02  0.20604289673E+02 -0.14671734381E+01  0.23826500226E+02  0.47000000000E+01 0.  1.
        -11    1    1    2    0    0 -0.21882271424E+02  0.41383358747E+02  0.43611111369E+02  0.63979256159E+02  0.00000000000E+00 0.  1.
         11    1    1    2    0    0  0.45680830517E+02 -0.15496122932E+02  0.78645753146E+02  0.92260623185E+02  0.00000000000E+00 0. -1.
<mgrwt>
<rscale>  0 0.12081056E+03</rscale>
<asrwt>0</asrwt>
<pdfrwt beam="1">  1        1 0.61944704E-01 0.12985526E+03</pdfrwt>
<pdfrwt beam="2">  1       -1 0.50763886E-02 0.12985526E+03</pdfrwt>
<totfact> 0.97816176E+03</totfact>
</mgrwt>
</event>
<event>
 7    1  0.6419647E-006  0.1313853E+03  0.7546771E-02  0.1238175E+00
          2   -1    0    0  501    0  0.00000000000E+00  0.00000000000E+00  0.57695357446E+03  0.57695357446E+03  0.00000000000E+00 0. -1.
         -2   -1    0    0    0  501 -0.00000000000E+00 -0.00000000000E+00 -0.29630745034E+02  0.29630745034E+02  0.00000000000E+00 0.  1.
         23    2    1    2    0    0 -0.18101042935E+01  0.40405872733E+02  0.43996255300E+03  0.45916135089E+03  0.12500474821E+03 0.  0.
          5    1    3    3  502    0  0.21883384328E+01  0.79787440149E+02  0.37090123201E+03  0.37942145213E+03  0.47000000000E+01 0. -1.
         -5    1    3    3    0  502 -0.39984427263E+01 -0.39381567417E+02  0.69061320995E+02  0.79739898758E+02  0.47000000000E+01 0. -1.
        -11    1    1    2    0    0  0.13644723545E+02 -0.68768566747E+02  0.70408894512E+02  0.99361494954E+02  0.00000000000E+00 0. -1.
         11    1    1    2    0    0 -0.11834619252E+02  0.28362694014E+02  0.36951381918E+02  0.48061473658E+02  0.00000000000E+00 0.  1.
<mgrwt>
<rscale>  0 0.12303367E+03</rscale>
<asrwt>0</asrwt>
<pdfrwt beam="1">  1        2 0.88762080E-01 0.13138530E+03</pdfrwt>
<pdfrwt beam="2">  1       -2 0.45585766E-02 0.13138530E+03</pdfrwt>
<totfact> 0.11314070E+04</totfact>
</mgrwt>
</event>
<event>
 7    1  0.6419647E-006  0.1343529E+03  0.7546771E-02  0.1234660E+00
         -2   -1    0    0    0  501 -0.00000000000E+00  0.00000000000E+00  0.19949634713E+03  0.19949634713E+03  0.00000000000E+00 0.  1.
          2   -1    0    0  501    0  0.00000000000E+00 -0.00000000000E+00 -0.76586473754E+02  0.76586473754E+02  0.00000000000E+00 0. -1.
         23    2    1    2    0    0 -0.58946696610E+01 -0.49234224032E+02  0.28272742410E+02  0.13729544131E+03  0.12486766713E+03 0.  0.
          5    1    3    3  502    0 -0.59054471011E+02  0.23995238367E+01  0.20032871738E+02  0.62582698976E+02  0.47000000000E+01 0. -1.
         -5    1    3    3    0  502  0.53159801350E+02 -0.51633747869E+02  0.82398706721E+01  0.74712742335E+02  0.47000000000E+01 0. -1.
        -11    1    1    2    0    0 -0.26584544629E+02  0.44741218322E+02  0.17393948920E+02  0.54873163651E+02  0.00000000000E+00 0. -1.
         11    1    1    2    0    0  0.32479214290E+02  0.44930057101E+01  0.77243182042E+02  0.83914215918E+02  0.00000000000E+00 0.  1.
<mgrwt>
<rscale>  0 0.12526223E+03</rscale>
<asrwt>0</asrwt>
<pdfrwt beam="2">  1        2 0.11782535E-01 0.13435286E+03</pdfrwt>
<pdfrwt beam="1">  1       -2 0.30691745E-01 0.13435286E+03</pdfrwt>
<totfact> 0.48762449E+03</totfact>
</mgrwt>
</event>
<event>
 7    1  0.6419647E-006  0.1419725E+03  0.7546771E-02  0.1220478E+00
         -2   -1    0    0    0  501 -0.00000000000E+00  0.00000000000E+00  0.27653110364E+03  0.27653110364E+03  0.00000000000E+00 0.  1.
          2   -1    0    0  501    0  0.00000000000E+00 -0.00000000000E+00 -0.85220752827E+02  0.85220752827E+02  0.00000000000E+00 0. -1.
         23    2    1    2    0    0 -0.23710037056E+02 -0.62995127915E+02  0.43705337206E+01  0.14203975918E+03  0.12500255847E+03 0.  0.
          5    1    3    3  502    0 -0.61680445836E+02 -0.24860892545E+02 -0.34904023198E+02  0.75252390076E+02  0.47000000000E+01 0.  1.
         -5    1    3    3    0  502  0.37970408781E+02 -0.38134235370E+02  0.39274556919E+02  0.66787369100E+02  0.47000000000E+01 0.  1.
        -11    1    1    2    0    0  0.27870109827E+02  0.24806184430E+01  0.56516170386E+01  0.28545354522E+02  0.00000000000E+00 0. -1.
         11    1    1    2    0    0 -0.41600727715E+01  0.60514509472E+02  0.18128820005E+03  0.19116674277E+03  0.00000000000E+00 0.  1.
<mgrwt>
<rscale>  0 0.13481691E+03</rscale>
<asrwt>0</asrwt>
<pdfrwt beam="2">  1        2 0.13110885E-01 0.14197250E+03</pdfrwt>
<pdfrwt beam="1">  1       -2 0.42543246E-01 0.14197250E+03</pdfrwt>
<totfact> 0.23460989E+03</totfact>
</mgrwt>
</event>
<event>
 7    1  0.6419647E-006  0.1291193E+03  0.7546771E-02  0.1242864E+00
         -4   -1    0    0    0  501 -0.00000000000E+00  0.00000000000E+00  0.17102727930E+02  0.17102727930E+02  0.00000000000E+00 0. -1.
          4   -1    0    0  501    0  0.00000000000E+00 -0.00000000000E+00 -0.76185790535E+03  0.76185790535E+03  0.00000000000E+00 0.  1.
         23    2    1    2    0    0 -0.30337645896E+02  0.11102638101E+02 -0.48027122992E+03  0.49732508567E+03  0.12501258023E+03 0.  0.
          5    1    3    3  502    0 -0.43072262656E+02  0.24881227486E+01 -0.47829198114E+02  0.64584307362E+02  0.47000000000E+01 0.  1.
         -5    1    3    3    0  502  0.12734616761E+02  0.86145153520E+01 -0.43244203180E+03  0.43274077831E+03  0.47000000000E+01 0.  1.
        -11    1    1    2    0    0  0.40845807883E+02 -0.30693308074E+02 -0.24984955341E+03  0.25502011395E+03  0.00000000000E+00 0.  1.
         11    1    1    2    0    0 -0.10508161987E+02  0.19590669974E+02 -0.14634394092E+02  0.26615433658E+02  0.00000000000E+00 0. -1.
<mgrwt>
<rscale>  0 0.12014130E+03</rscale>
<asrwt>0</asrwt>
<pdfrwt beam="2">  1        4 0.11720892E+00 0.12911927E+03</pdfrwt>
<pdfrwt beam="1">  1       -4 0.26311887E-02 0.12911927E+03</pdfrwt>
<totfact> 0.64046801E+02</totfact>
</mgrwt>
</event>
<event>
 7    1  0.6419647E-006  0.1444704E+03  0.7546771E-02  0.1217666E+00
          2   -1    0    0  501    0  0.00000000000E+00  0.00000000000E+00  0.69555634444E+03  0.69555634444E+03  0.00000000000E+00 0. -1.
         -2   -1    0    0    0  501 -0.00000000000E+00 -0.00000000000E+00 -0.93792629522E+02  0.93792629522E+02  0.00000000000E+00 0.  1.
         23    2    1    2    0    0 -0.20383332028E+02  0.69496219511E+02  0.64825811752E+03  0.66416133206E+03  0.12500593317E+03 0.  0.
          5    1    3    3  502    0 -0.41073551584E+01  0.27732502378E+01  0.50676071816E+03  0.50680674498E+03  0.47000000000E+01 0.  1.
         -5    1    3    3    0  502 -0.16275976869E+02  0.66722969273E+02  0.14149739935E+03  0.15735458708E+03  0.47000000000E+01 0.  1.
        -11    1    1    2    0    0  0.56408248499E+02 -0.41858725518E+02 -0.22059563162E+02  0.73625184058E+02  0.00000000000E+00 0.  1.
         11    1    1    2    0    0 -0.36024916471E+02 -0.27637493993E+02 -0.24434839435E+02  0.51562457846E+02  0.00000000000E+00 0. -1.
<mgrwt>
<rscale>  0 0.13682545E+03</rscale>
<asrwt>0</asrwt>
<pdfrwt beam="1">  1        2 0.10700867E+00 0.14447037E+03</pdfrwt>
<pdfrwt beam="2">  1       -2 0.14429636E-01 0.14447037E+03</pdfrwt>
<totfact> 0.15318732E+03</totfact>
</mgrwt>
</event>
<event>
 6    1  0.6419647E-006  0.1673413E+03  0.7546771E-02  0.1204033E+00
          1   -1    0    0  501    0  0.00000000000E+00  0.00000000000E+00  0.72565896529E+03  0.72565896529E+03  0.00000000000E+00 0. -1.
         -1   -1    0    0    0  501 -0.00000000000E+00 -0.00000000000E+00 -0.37530935240E+02  0.37530935240E+02  0.00000000000E+00 0.  1.
          5    1    1    2  502    0  0.85232529168E+01 -0.56091472868E+02  0.96458887786E+02  0.11200583111E+03  0.47000000000E+01 0. -1.
         -5    1    1    2    0  502 -0.51187827111E+02  0.65989857915E+02  0.52349732234E+03  0.53013808719E+03  0.47000000000E+01 0.  1.
        -11    1    1    2    0    0  0.59737419228E+02 -0.18135912047E+02  0.14453344429E+02  0.64080962282E+02  0.00000000000E+00 0.  1.
         11    1    1    2    0    0 -0.17072845034E+02  0.82375270003E+01  0.53718475499E+02  0.56965019956E+02  0.00000000000E+00 0. -1.
<mgrwt>
<rscale>  0 0.14713908E+03</rscale>
<asrwt>0</asrwt>
<pdfrwt beam="1">  1        1 0.11163983E+00 0.16734130E+03</pdfrwt>
<pdfrwt beam="2">  1       -1 0.57739906E-02 0.16734130E+03</pdfrwt>
<totfact> 0.37197404E+03</totfact>
</mgrwt>
</event>
<event>
 7    1  0.6419647E-006  0.1259225E+03  0.7546771E-02  0.1248674E+00
         -2   -1    0    0    0  501 -0.00000000000E+00  0.00000000000E+00  0.56841611580E+02  0.56841611580E+02  0.00000000000E+00 0.  1.
          2   -1    0    0  501    0  0.00000000000E+00 -0.00000000000E+00 -0.25503709144E+03  0.25503709144E+03  0.00000000000E+00 0. -1.
         23    2    1    2    0    0  0.11584413759E+02  0.98945914938E+01 -0.17603756142E+03  0.21643867194E+03  0.12499749636E+03 0.  0.
          5    1    3    3  502    0 -0.18231449045E+02 -0.41185589129E+02 -0.20006064820E+02  0.49507283461E+02  0.47000000000E+01 0.  1.
         -5    1    3    3    0  502  0.29815862804E+02  0.51080180623E+02 -0.15603149660E+03  0.16693138848E+03  0.47000000000E+01 0.  1.
        -11    1    1    2    0    0 -0.24624166074E+01 -0.39986484256E+02 -0.42171404961E+02  0.58167085324E+02  0.00000000000E+00 0. -1.
         11    1    1    2    0    0 -0.91219971516E+01  0.30091892762E+02  0.20013486528E+02  0.37272945752E+02  0.00000000000E+00 0.  1.
<mgrwt>
<rscale>  0 0.11668156E+03</rscale>
<asrwt>0</asrwt>
<pdfrwt beam="2">  1        2 0.39236476E-01 0.12592250E+03</pdfrwt>
<pdfrwt beam="1">  1       -2 0.87448632E-02 0.12592250E+03</pdfrwt>
<totfact> 0.10068679E+04</totfact>
</mgrwt>
</event>
<event>
 7    1  0.6419647E-006  0.1425476E+03  0.7546771E-02  0.1219893E+00
          1   -1    0    0  501    0  0.00000000000E+00  0.00000000000E+00  0.47582981776E+03  0.47582981776E+03  0.00000000000E+00 0. -1.
         -1   -1    0    0    0  501 -0.00000000000E+00 -0.00000000000E+00 -0.35161111924E+02  0.35161111924E+02  0.00000000000E+00 0.  1.
         23    2    1    2    0    0 -0.48538862147E+02  0.48314525463E+02  0.26183039187E+03  0.29811903842E+03  0.12501796851E+03 0.  0.
          5    1    3    3  502    0 -0.38755215119E+02  0.18625403799E+02  0.10108517118E+02  0.44420090994E+02  0.47000000000E+01 0. -1.
         -5    1    3    3    0  502 -0.97836470282E+01  0.29689121664E+02  0.25172187475E+03  0.25369894742E+03  0.47000000000E+01 0. -1.
        -11    1    1    2    0    0  0.19387927821E+02 -0.72647039542E+02  0.13767843383E+03  0.15687203461E+03  0.00000000000E+00 0. -1.
         11    1    1    2    0    0  0.29150934326E+02  0.24332514079E+02  0.41159880133E+02  0.55999856661E+02  0.00000000000E+00 0.  1.
<mgrwt>
<rscale>  0 0.13523182E+03</rscale>
<asrwt>0</asrwt>
<pdfrwt beam="1">  1        1 0.73204583E-01 0.14254756E+03</pdfrwt>
<pdfrwt beam="2">  1       -1 0.54094022E-02 0.14254756E+03</pdfrwt>
<totfact> 0.72389999E+03</totfact>
</mgrwt>
</event>
<event>
 7    1  0.6419647E-006  0.1156209E+03  0.7546771E-02  0.1259371E+00
          3   -1    0    0  501    0  0.00000000000E+00  0.00000000000E+00  0.11771138581E+03  0.11771138581E+03  0.00000000000E+00 0. -1.
         -3   -1    0    0    0  501 -0.00000000000E+00 -0.00000000000E+00 -0.96106097187E+02  0.96106097187E+02  0.00000000000E+00 0.  1.
         23    2    1    2    0    0  0.13702331004E+02  0.28699314829E+02  0.15326609664E+02  0.11663231732E+03  0.11116109001E+03 0.  0.
          5    1    3    3  502    0  0.54098829952E+02  0.21461477839E+02  0.37848425674E+02  0.69583559547E+02  0.47000000000E+01 0. -1.
         -5    1    3    3    0  502 -0.40396498948E+02  0.72378369892E+01 -0.22521816010E+02  0.47048757772E+02  0.47000000000E+01 0.  1.
        -11    1    1    2    0    0 -0.36394512279E+02 -0.12907190487E+02 -0.31872449310E+02  0.50070042094E+02  0.00000000000E+00 0.  1.
         11    1    1    2    0    0  0.22692181275E+02 -0.15792124342E+02  0.38151128269E+02  0.47115123585E+02  0.00000000000E+00 0. -1.
<mgrwt>
<rscale>  0 0.11064969E+03</rscale>
<asrwt>0</asrwt>
<pdfrwt beam="1">  1        3 0.18109444E-01 0.11562090E+03</pdfrwt>
<pdfrwt beam="2">  1       -3 0.14785553E-01 0.11562090E+03</pdfrwt>
<totfact> 0.22628327E+03</totfact>
</mgrwt>
</event>
<event>
 7    1  0.6419647E-006  0.1139467E+03  0.7546771E-02  0.1262248E+00
          2   -1    0    0  501    0  0.00000000000E+00  0.00000000000E+00  0.47255287540E+03  0.47255287540E+03  0.00000000000E+00 0. -1.
         -2   -1    0    0    0  501 -0.00000000000E+00 -0.00000000000E+00 -0.70179651135E+02  0.70179651135E+02  0.00000000000E+00 0.  1.
         23    2    1    2    0    0 -0.12626165762E+02  0.15180225810E+01  0.42856776177E+03  0.44345708218E+03  0.11323485705E+03 0.  0.
          5    1    3    3  502    0 -0.61590666167E+02 -0.11445488240E+02  0.25149596814E+03  0.25922330402E+03  0.47000000000E+01 0. -1.
         -5    1    3    3    0  502  0.48964500406E+02  0.12963510821E+02  0.17707179363E+03  0.18423377815E+03  0.47000000000E+01 0.  1.
        -11    1    1    2    0    0  0.35076546360E+02 -0.36224106425E+01  0.25072985635E+02  0.43268239761E+02  0.00000000000E+00 0.  1.
         11    1    1    2    0    0 -0.22450380598E+02  0.21043880615E+01 -0.51267523138E+02  0.56007204597E+02  0.00000000000E+00 0. -1.
<mgrwt>
<rscale>  0 0.10909865E+03</rscale>
<asrwt>0</asrwt>
<pdfrwt beam="1">  1        2 0.72700440E-01 0.11394673E+03</pdfrwt>
<pdfrwt beam="2">  1       -2 0.10796870E-01 0.11394673E+03</pdfrwt>
<totfact> 0.37396577E+03</totfact>
</mgrwt>
</event>
<event>
 6    1  0.6419647E-006  0.1739369E+03  0.7546771E-02  0.1192451E+00
         -2   -1    0    0    0  501 -0.00000000000E+00  0.00000000000E+00  0.30421677385E+02  0.30421677385E+02  0.00000000000E+00 0.  1.
          2   -1    0    0  501    0  0.00000000000E+00 -0.00000000000E+00 -0.84810266903E+03  0.84810266903E+03  0.00000000000E+00 0. -1.
          5    1    1    2  502    0 -0.17564802376E+02 -0.85753001195E+02 -0.27717585248E+03  0.29070714249E+03  0.47000000000E+01 0. -1.
         -5    1    1    2    0  502 -0.31309468939E+02  0.76950243829E+02 -0.38917103016E+03  0.39796708857E+03  0.47000000000E+01 0.  1.
        -11    1    1    2    0    0  0.60022809795E+02  0.45074878689E+02 -0.84753206153E+02  0.11321478851E+03  0.00000000000E+00 0.  1.
         11    1    1    2    0    0 -0.11148538480E+02 -0.36272121323E+02 -0.66580902850E+02  0.76635326840E+02  0.00000000000E+00 0. -1.
<mgrwt>
<rscale>  0 0.15671930E+03</rscale>
<asrwt>0</asrwt>
<pdfrwt beam="2">  1        2 0.13047734E+00 0.17393685E+03</pdfrwt>
<pdfrwt beam="1">  1       -2 0.46802577E-02 0.17393685E+03</pdfrwt>
<totfact> 0.69699464E+03</totfact>
</mgrwt>
</event>
<event>
 7    1  0.6419647E-006  0.1435183E+03  0.7546771E-02  0.1218355E+00
          2   -1    0    0  501    0  0.00000000000E+00  0.00000000000E+00  0.77528690650E+03  0.77528690650E+03  0.00000000000E+00 0. -1.
         -2   -1    0    0    0  501 -0.00000000000E+00 -0.00000000000E+00 -0.27407412141E+02  0.27407412141E+02  0.00000000000E+00 0.  1.
         23    2    1    2    0    0  0.48730568893E+01  0.70336884393E+02  0.58428430726E+03  0.60165242527E+03  0.12500586037E+03 0.  0.
          5    1    3    3  502    0  0.29280596869E+02  0.91424484004E+02  0.52743759856E+03  0.53612339998E+03  0.47000000000E+01 0.  1.
         -5    1    3    3    0  502 -0.24407539980E+02 -0.21087599610E+02  0.56846708704E+02  0.65529025292E+02  0.47000000000E+01 0.  1.
        -11    1    1    2    0    0  0.55824561601E+01 -0.63882902633E+02  0.17368371005E+03  0.18514378251E+03  0.00000000000E+00 0. -1.
         11    1    1    2    0    0 -0.10455513049E+02 -0.64539817604E+01 -0.10088522953E+02  0.15898110865E+02  0.00000000000E+00 0.  1.
<mgrwt>
<rscale>  0 0.13632944E+03</rscale>
<asrwt>0</asrwt>
<pdfrwt beam="1">  1        2 0.11927489E+00 0.14351825E+03</pdfrwt>
<pdfrwt beam="2">  1       -2 0.42165255E-02 0.14351825E+03</pdfrwt>
<totfact> 0.90357094E+03</totfact>
</mgrwt>
</event>
<event>
 7    1  0.6419647E-006  0.1480415E+03  0.7546771E-02  0.1213184E+00
         -2   -1    0    0    0  501 -0.00000000000E+00  0.00000000000E+00  0.85800726315E+03  0.85800726315E+03  0.00000000000E+00 0.  1.
          2   -1    0    0  501    0  0.00000000000E+00 -0.00000000000E+00 -0.20742040197E+02  0.20742040197E+02  0.00000000000E+00 0. -1.
         23    2    1    2    0    0  0.71675629277E+02 -0.33967948580E+02  0.46537042390E+03  0.48835021302E+03  0.12500032700E+03 0.  0.
          5    1    3    3  502    0 -0.13809076522E+02 -0.57384591142E+02  0.17872471152E+03  0.18827717441E+03  0.47000000000E+01 0. -1.
         -5    1    3    3    0  502  0.85484705800E+02  0.23416642562E+02  0.28664571238E+03  0.30007303861E+03  0.47000000000E+01 0. -1.
        -11    1    1    2    0    0 -0.15383017500E+01  0.24749760681E+02  0.21150976528E+02  0.32592650002E+02  0.00000000000E+00 0. -1.
         11    1    1    2    0    0 -0.70137327527E+02  0.92181878990E+01  0.35074382252E+03  0.35780644033E+03  0.00000000000E+00 0.  1.
<mgrwt>
<rscale>  0 0.14010772E+03</rscale>
<asrwt>0</asrwt>
<pdfrwt beam="2">  1        2 0.31910838E-02 0.14804155E+03</pdfrwt>
<pdfrwt beam="1">  1       -2 0.13200109E+00 0.14804155E+03</pdfrwt>
<totfact> 0.12263015E+03</totfact>
</mgrwt>
</event>
<event>
 7    1  0.6419647E-006  0.2802586E+03  0.7546771E-02  0.1097469E+00
          1   -1    0    0  501    0  0.00000000000E+00  0.00000000000E+00  0.89551003035E+03  0.89551003035E+03  0.00000000000E+00 0. -1.
         -1   -1    0    0    0  501 -0.00000000000E+00 -0.00000000000E+00 -0.10150644891E+03  0.10150644891E+03  0.00000000000E+00 0.  1.
         23    2    1    2    0    0 -0.43230080096E+01  0.25083275621E+03  0.61527012767E+03  0.67609335901E+03  0.12493654432E+03 0.  0.
          5    1    3    3  502    0 -0.99942560618E+00  0.11831286537E+03  0.44369274238E+03  0.45922137647E+03  0.47000000000E+01 0.  1.
         -5    1    3    3    0  502 -0.33235824034E+01  0.13251989084E+03  0.17157738529E+03  0.21687198254E+03  0.47000000000E+01 0.  1.
        -11    1    1    2    0    0 -0.12676941002E+02 -0.97037470662E+01  0.37988183774E+02  0.41206427250E+02  0.00000000000E+00 0. -1.
         11    1    1    2    0    0  0.16999949011E+02 -0.24112900914E+03  0.14074527000E+03  0.27971669300E+03  0.00000000000E+00 0.  1.
<mgrwt>
<rscale>  0 0.27676534E+03</rscale>
<asrwt>0</asrwt>
<pdfrwt beam="1">  1        1 0.13777077E+00 0.28025863E+03</pdfrwt>
<pdfrwt beam="2">  1       -1 0.15616377E-01 0.28025863E+03</pdfrwt>
<totfact> 0.58221460E+02</totfact>
</mgrwt>
</event>
<event>
 6    1  0.6419647E-006  0.1706011E+03  0.7546771E-02  0.1194509E+00
         -1   -1    0    0    0  501 -0.00000000000E+00  0.00000000000E+00  0.13194165734E+03  0.13194165734E+03  0.00000000000E+00 0.  1.
          1   -1    0    0  501    0  0.00000000000E+00 -0.00000000000E+00 -0.17197423352E+03  0.17197423352E+03  0.00000000000E+00 0. -1.
          5    1    1    2  502    0 -0.38171170499E+02  0.17295147115E+02 -0.11527016349E+03  0.12274143946E+03  0.47000000000E+01 0. -1.
         -5    1    1    2    0  502 -0.41258633468E+01  0.40278412531E+02  0.45933643748E+02  0.61411423142E+02  0.47000000000E+01 0.  1.
        -11    1    1    2    0    0  0.15814686897E+02 -0.79889890274E+02  0.22180622824E+02  0.84406628404E+02  0.00000000000E+00 0.  1.
         11    1    1    2    0    0  0.26482346949E+02  0.22316330629E+02  0.71233207369E+01  0.35356399859E+02  0.00000000000E+00 0. -1.
<mgrwt>
<rscale>  0 0.15495854E+03</rscale>
<asrwt>0</asrwt>
<pdfrwt beam="2">  1        1 0.26457574E-01 0.17060107E+03</pdfrwt>
<pdfrwt beam="1">  1       -1 0.20298717E-01 0.17060107E+03</pdfrwt>
<totfact> 0.34128901E+03</totfact>
</mgrwt>
</event>
<event>
 7    1  0.6419647E-006  0.1460699E+03  0.7546771E-02  0.1209976E+00
          1   -1    0    0  501    0  0.00000000000E+00  0.00000000000E+00  0.16888099158E+03  0.16888099158E+03  0.00000000000E+00 0. -1.
         -1   -1    0    0    0  501 -0.00000000000E+00 -0.00000000000E+00 -0.12200843259E+03  0.12200843259E+03  0.00000000000E+00 0.  1.
         23    2    1    2    0    0 -0.74841303762E+02  0.10485393612E+02  0.59877643972E+02  0.15786620944E+03  0.12500097442E+03 0.  0.
          5    1    3    3  502    0 -0.68711237323E+02  0.42202290712E+02  0.84561667564E+02  0.11694029715E+03  0.47000000000E+01 0. -1.
         -5    1    3    3    0  502 -0.61300664382E+01 -0.31716897100E+02 -0.24684023592E+02  0.40925912291E+02  0.47000000000E+01 0. -1.
        -11    1    1    2    0    0  0.11185823739E+02 -0.33773636015E+02  0.35043893827E+02  0.49938518570E+02  0.00000000000E+00 0. -1.
         11    1    1    2    0    0  0.63655480023E+02  0.23288242403E+02 -0.48048978815E+02  0.83084696161E+02  0.00000000000E+00 0.  1.
<mgrwt>
<rscale>  0 0.14252169E+03</rscale>
<asrwt>0</asrwt>
<pdfrwt beam="1">  1        1 0.25981691E-01 0.14606987E+03</pdfrwt>
<pdfrwt beam="2">  1       -1 0.18770528E-01 0.14606987E+03</pdfrwt>
<totfact> 0.39294349E+03</totfact>
</mgrwt>
</event>
<event>
 7    1  0.6419647E-006  0.1358654E+03  0.7546771E-02  0.1230941E+00
          4   -1    0    0  501    0  0.00000000000E+00  0.00000000000E+00  0.21447744795E+03  0.21447744795E+03  0.00000000000E+00 0. -1.
         -4   -1    0    0    0  501 -0.00000000000E+00 -0.00000000000E+00 -0.72489118314E+02  0.72489118314E+02  0.00000000000E+00 0.  1.
         23    2    1    2    0    0 -0.20584769210E+02  0.49249019279E+02  0.11403499041E+03  0.17737923593E+03  0.12494084872E+03 0.  0.
          5    1    3    3  502    0 -0.41240674605E+02  0.11696957606E+02  0.12555259632E+03  0.13275223727E+03  0.47000000000E+01 0. -1.
         -5    1    3    3    0  502  0.20655905395E+02  0.37552061673E+02 -0.11517605904E+02  0.44626998659E+02  0.47000000000E+01 0. -1.
        -11    1    1    2    0    0  0.44839242441E+02 -0.14260888889E+02 -0.14727861116E+02  0.49303554716E+02  0.00000000000E+00 0.  1.
         11    1    1    2    0    0 -0.24254473231E+02 -0.34988130391E+02  0.42681200334E+02  0.60283775611E+02  0.00000000000E+00 0. -1.
<mgrwt>
<rscale>  0 0.12767900E+03</rscale>
<asrwt>0</asrwt>
<pdfrwt beam="1">  1        4 0.32996530E-01 0.13586543E+03</pdfrwt>
<pdfrwt beam="2">  1       -4 0.11152172E-01 0.13586543E+03</pdfrwt>
<totfact> 0.92258750E+02</totfact>
</mgrwt>
</event>
<event>
 7    1  0.6419647E-006  0.1337391E+03  0.7546771E-02  0.1234293E+00
          2   -1    0    0  501    0  0.00000000000E+00  0.00000000000E+00  0.16566015707E+04  0.16566015707E+04  0.00000000000E+00 0.  1.
         -2   -1    0    0    0  501 -0.00000000000E+00 -0.00000000000E+00 -0.13059545984E+02  0.13059545984E+02  0.00000000000E+00 0. -1.
         23    2    1    2    0    0 -0.32843279656E+02 -0.33806407959E+02  0.13797857464E+04  0.13862520839E+04  0.12515821948E+03 0.  0.
          5    1    3    3  502    0 -0.73018001749E+02 -0.47510511792E+02  0.10676183190E+04  0.10711768492E+04  0.47000000000E+01 0. -1.
         -5    1    3    3    0  502  0.40174722093E+02  0.13704103833E+02  0.31216742746E+03  0.31507523470E+03  0.47000000000E+01 0. -1.
        -11    1    1    2    0    0  0.11171621209E+02 -0.29749826181E+02  0.12890132202E+03  0.13276071745E+03  0.00000000000E+00 0.  1.
         11    1    1    2    0    0  0.21671658448E+02  0.63556234140E+02  0.13485495630E+03  0.15064831535E+03  0.00000000000E+00 0. -1.
<mgrwt>
<rscale>  0 0.12549789E+03</rscale>
<asrwt>0</asrwt>
<pdfrwt beam="1">  1        2 0.25486161E+00 0.13373905E+03</pdfrwt>
<pdfrwt beam="2">  1       -2 0.20091622E-02 0.13373905E+03</pdfrwt>
<totfact> 0.84717334E+03</totfact>
</mgrwt>
</event>
<event>
 6    1  0.6419647E-006  0.1461199E+03  0.7546771E-02  0.1224192E+00
         -1   -1    0    0    0  501 -0.00000000000E+00  0.00000000000E+00  0.34771392711E+02  0.34771392711E+02  0.00000000000E+00 0.  1.
          1   -1    0    0  501    0  0.00000000000E+00 -0.00000000000E+00 -0.49570263760E+03  0.49570263760E+03  0.00000000000E+00 0. -1.
          5    1    1    2  502    0  0.16399449854E+02 -0.74559593641E+02 -0.11055224836E+03  0.13443200726E+03  0.47000000000E+01 0. -1.
         -5    1    1    2    0  502 -0.21893732853E+02  0.40892504094E+02 -0.25527845947E+03  0.25950089460E+03  0.47000000000E+01 0.  1.
        -11    1    1    2    0    0 -0.27025562671E+02  0.45927815010E+02 -0.26222548237E+02  0.59391643060E+02  0.00000000000E+00 0.  1.
         11    1    1    2    0    0  0.32519845670E+02 -0.12260725463E+02 -0.68877988823E+02  0.77149485388E+02  0.00000000000E+00 0. -1.
<mgrwt>
<rscale>  0 0.13222463E+03</rscale>
<asrwt>0</asrwt>
<pdfrwt beam="2">  1        1 0.76261943E-01 0.14611990E+03</pdfrwt>
<pdfrwt beam="1">  1       -1 0.53494451E-02 0.14611990E+03</pdfrwt>
<totfact> 0.69890442E+03</totfact>
</mgrwt>
</event>
<event>
 7    1  0.6419647E-006  0.1535540E+03  0.7546771E-02  0.1205117E+00
         -2   -1    0    0    0  501 -0.00000000000E+00  0.00000000000E+00  0.30304041889E+03  0.30304041889E+03  0.00000000000E+00 0.  1.
          2   -1    0    0  501    0  0.00000000000E+00 -0.00000000000E+00 -0.65840760467E+02  0.65840760467E+02  0.00000000000E+00 0. -1.
         23    2    1    2    0    0 -0.74695246914E+02  0.48714036338E+02  0.15415341908E+03  0.21758242534E+03  0.12500559169E+03 0.  0.
          5    1    3    3  502    0 -0.97389699038E+02  0.49353344061E+02  0.68799014117E+02  0.12913520199E+03  0.47000000000E+01 0.  1.
         -5    1    3    3    0  502  0.22694452124E+02 -0.63930772282E+00  0.85354404968E+02  0.88447223353E+02  0.47000000000E+01 0.  1.
        -11    1    1    2    0    0  0.42066475162E+02 -0.46941656237E+02  0.97069977537E+02  0.11573974236E+03  0.00000000000E+00 0.  1.
         11    1    1    2    0    0  0.32628771752E+02 -0.17723801010E+01 -0.14023738194E+02  0.35559011659E+02  0.00000000000E+00 0. -1.
<mgrwt>
<rscale>  0 0.14628260E+03</rscale>
<asrwt>0</asrwt>
<pdfrwt beam="2">  1        2 0.10129348E-01 0.15355401E+03</pdfrwt>
<pdfrwt beam="1">  1       -2 0.46621602E-01 0.15355401E+03</pdfrwt>
<totfact> 0.26968269E+03</totfact>
</mgrwt>
</event>
<event>
 7    1  0.6419647E-006  0.1490300E+03  0.7546771E-02  0.1210228E+00
          1   -1    0    0  501    0  0.00000000000E+00  0.00000000000E+00  0.19609526250E+04  0.19609526250E+04  0.00000000000E+00 0. -1.
         -1   -1    0    0    0  501 -0.00000000000E+00 -0.00000000000E+00 -0.97274801076E+01  0.97274801076E+01  0.00000000000E+00 0.  1.
         23    2    1    2    0    0  0.16060390805E+01 -0.81134972992E+02  0.12122966126E+04  0.12214225329E+04  0.12499785502E+03 0.  0.
          5    1    3    3  502    0  0.52208614385E+02 -0.18917363767E+01  0.54497120256E+03  0.54748974392E+03  0.47000000000E+01 0. -1.
         -5    1    3    3    0  502 -0.50602575304E+02 -0.79243236615E+02  0.66732541007E+03  0.67393278901E+03  0.47000000000E+01 0. -1.
        -11    1    1    2    0    0  0.44960546699E+02  0.53299132109E+02  0.41617134634E+03  0.42197255569E+03  0.00000000000E+00 0.  1.
         11    1    1    2    0    0 -0.46566585779E+02  0.27835840882E+02  0.32275718590E+03  0.32728501646E+03  0.00000000000E+00 0. -1.
<mgrwt>
<rscale>  0 0.14232947E+03</rscale>
<asrwt>0</asrwt>
<pdfrwt beam="1">  1        1 0.30168470E+00 0.14902995E+03</pdfrwt>
<pdfrwt beam="2">  1       -1 0.14965370E-02 0.14902995E+03</pdfrwt>
<totfact> 0.37242628E+03</totfact>
</mgrwt>
</event>
<event>
 7    1  0.6419647E-006  0.1847143E+03  0.7546771E-02  0.1167928E+00
         -1   -1    0    0    0  501 -0.00000000000E+00  0.00000000000E+00  0.67575879111E+02  0.67575879111E+02  0.00000000000E+00 0.  1.
          1   -1    0    0  501    0  0.00000000000E+00 -0.00000000000E+00 -0.48252453232E+03  0.48252453232E+03  0.00000000000E+00 0. -1.
         23    2    1    2    0    0 -0.35215190867E+02  0.13133505503E+03 -0.28314397827E+03  0.33806786905E+03  0.12502145938E+03 0.  0.
          5    1    3    3  502    0  0.22542391455E+01  0.14305413215E+03 -0.19944416596E+03  0.24549874064E+03  0.47000000000E+01 0.  1.
         -5    1    3    3    0  502 -0.37469430013E+02 -0.11719077119E+02 -0.83699812312E+02  0.92569128413E+02  0.47000000000E+01 0.  1.
        -11    1    1    2    0    0 -0.21039191497E+02 -0.85549469499E+02 -0.98711910602E+02  0.13230797635E+03  0.00000000000E+00 0. -1.
         11    1    1    2    0    0  0.56254382364E+02 -0.45785585531E+02 -0.33092764330E+02  0.79724566029E+02  0.00000000000E+00 0.  1.
<mgrwt>
<rscale>  0 0.17987059E+03</rscale>
<asrwt>0</asrwt>
<pdfrwt beam="2">  1        1 0.74234543E-01 0.18471430E+03</pdfrwt>
<pdfrwt beam="1">  1       -1 0.10396289E-01 0.18471430E+03</pdfrwt>
<totfact> 0.26794364E+03</totfact>
</mgrwt>
</event>
<event>
 7    1  0.6419647E-006  0.1734197E+03  0.7546771E-02  0.1179950E+00
         -1   -1    0    0    0  501 -0.00000000000E+00  0.00000000000E+00  0.74171840680E+02  0.74171840680E+02  0.00000000000E+00 0.  1.
          1   -1    0    0  501    0  0.00000000000E+00 -0.00000000000E+00 -0.36925454908E+03  0.36925454908E+03  0.00000000000E+00 0. -1.
         23    2    1    2    0    0  0.94241082620E+02 -0.74603390432E+02 -0.19430375717E+03  0.26043875385E+03  0.12500938740E+03 0.  0.
          5    1    3    3  502    0  0.91883456770E+02 -0.68759302954E+02 -0.21197756925E+03  0.24109539862E+03  0.47000000000E+01 0.  1.
         -5    1    3    3    0  502  0.23576258495E+01 -0.58440874776E+01  0.17673812080E+02  0.19343355230E+02  0.47000000000E+01 0.  1.
        -11    1    1    2    0    0 -0.56411611893E+02  0.89699291729E+02 -0.48021427950E+02  0.11633696934E+03  0.00000000000E+00 0.  1.
         11    1    1    2    0    0 -0.37829470726E+02 -0.15095901297E+02 -0.52757523284E+02  0.66650666572E+02  0.00000000000E+00 0. -1.
<mgrwt>
<rscale>  0 0.16799978E+03</rscale>
<asrwt>0</asrwt>
<pdfrwt beam="2">  1        1 0.56808392E-01 0.17341971E+03</pdfrwt>
<pdfrwt beam="1">  1       -1 0.11411053E-01 0.17341971E+03</pdfrwt>
<totfact> 0.32628346E+03</totfact>
</mgrwt>
</event>
<event>
 7    1  0.6419647E-006  0.1928231E+03  0.7546771E-02  0.1160633E+00
         -2   -1    0    0    0  501 -0.00000000000E+00  0.00000000000E+00  0.72314467282E+02  0.72314467282E+02  0.00000000000E+00 0.  1.
          2   -1    0    0  501    0  0.00000000000E+00 -0.00000000000E+00 -0.46328111498E+03  0.46328111498E+03  0.00000000000E+00 0. -1.
         23    2    1    2    0    0  0.12203161521E+03 -0.81634988485E+02 -0.21926920814E+03  0.29199270797E+03  0.12499907765E+03 0.  0.
          5    1    3    3  502    0  0.11695049791E+03 -0.19543899892E+02 -0.18751984599E+03  0.22191251795E+03  0.47000000000E+01 0.  1.
         -5    1    3    3    0  502  0.50811172999E+01 -0.62091088593E+02 -0.31749362151E+02  0.70080190016E+02  0.47000000000E+01 0.  1.
        -11    1    1    2    0    0 -0.73436669017E+02  0.47244354674E+02 -0.34216398350E+02  0.93785581626E+02  0.00000000000E+00 0.  1.
         11    1    1    2    0    0 -0.48594946197E+02  0.34390633811E+02 -0.13748104121E+03  0.14981729267E+03  0.00000000000E+00 0. -1.
<mgrwt>
<rscale>  0 0.18761166E+03</rscale>
<asrwt>0</asrwt>
<pdfrwt beam="2">  1        2 0.71274018E-01 0.19282312E+03</pdfrwt>
<pdfrwt beam="1">  1       -2 0.11125303E-01 0.19282312E+03</pdfrwt>
<totfact> 0.37285547E+03</totfact>
</mgrwt>
</event>
<event>
 7    1  0.6419647E-006  0.2223226E+03  0.7546771E-02  0.1135436E+00
         -1   -1    0    0    0  501 -0.00000000000E+00  0.00000000000E+00  0.30120438581E+03  0.30120438581E+03  0.00000000000E+00 0.  1.
          1   -1    0    0  501    0  0.00000000000E+00 -0.00000000000E+00 -0.22935740169E+03  0.22935740169E+03  0.00000000000E+00 0. -1.
         23    2    1    2    0    0 -0.46309288339E+02  0.17792508660E+03 -0.11735967314E+03  0.25139736953E+03  0.12500183158E+03 0.  0.
          5    1    3    3  502    0  0.29107712369E+01  0.13959448066E+03 -0.28270053620E+02  0.14253553084E+03  0.47000000000E+01 0.  1.
         -5    1    3    3    0  502 -0.49220059576E+02  0.38330605937E+02 -0.89089619523E+02  0.10886183869E+03  0.47000000000E+01 0.  1.
        -11    1    1    2    0    0 -0.47850272680E+00  0.10682799743E+02  0.70153995183E+01  0.12789331711E+02  0.00000000000E+00 0.  1.
         11    1    1    2    0    0  0.46787791066E+02 -0.18860788634E+03  0.18219125775E+03  0.26637508626E+03  0.00000000000E+00 0. -1.
<mgrwt>
<rscale>  0 0.21792965E+03</rscale>
<asrwt>0</asrwt>
<pdfrwt beam="2">  1        1 0.35285754E-01 0.22232261E+03</pdfrwt>
<pdfrwt beam="1">  1       -1 0.46339137E-01 0.22232261E+03</pdfrwt>
<totfact> 0.58488258E+02</totfact>
</mgrwt>
</event>
<event>
 7    1  0.6419647E-006  0.2751921E+03  0.7546771E-02  0.1100299E+00
          2   -1    0    0  501    0  0.00000000000E+00  0.00000000000E+00  0.15594164548E+04  0.15594164548E+04  0.00000000000E+00 0. -1.
         -2   -1    0    0    0  501 -0.00000000000E+00 -0.00000000000E+00 -0.59818497321E+02  0.59818497321E+02  0.00000000000E+00 0.  1.
         23    2    1    2    0    0  0.85330631842E+02  0.22983704426E+03  0.11508663777E+04  0.11833106479E+04  0.12499714596E+03 0.  0.
          5    1    3    3  502    0  0.87173260029E+02  0.10449941729E+03  0.78022271162E+03  0.79201570389E+03  0.47000000000E+01 0. -1.
         -5    1    3    3    0  502 -0.18426281871E+01  0.12533762697E+03  0.37064366607E+03  0.39129494401E+03  0.47000000000E+01 0. -1.
        -11    1    1    2    0    0 -0.33050258967E+02 -0.25298650712E+02  0.22422641608E+02  0.47277015582E+02  0.00000000000E+00 0.  1.
         11    1    1    2    0    0 -0.52280372875E+02 -0.20453839355E+03  0.32630893815E+03  0.38864728861E+03  0.00000000000E+00 0. -1.
<mgrwt>
<rscale>  0 0.27172016E+03</rscale>
<asrwt>0</asrwt>
<pdfrwt beam="1">  1        2 0.23991019E+00 0.27519206E+03</pdfrwt>
<pdfrwt beam="2">  1       -2 0.92028469E-02 0.27519206E+03</pdfrwt>
<totfact> 0.96202082E+02</totfact>
</mgrwt>
</event>
<event>
 7    1  0.6419647E-006  0.1561656E+03  0.7546771E-02  0.1201825E+00
          4   -1    0    0  501    0  0.00000000000E+00  0.00000000000E+00  0.31504454363E+02  0.31504454363E+02  0.00000000000E+00 0. -1.
         -4   -1    0    0    0  501 -0.00000000000E+00 -0.00000000000E+00 -0.69312640650E+03  0.69312640650E+03  0.00000000000E+00 0.  1.
         23    2    1    2    0    0 -0.79187805157E+02 -0.49914745495E+02 -0.26567858629E+03  0.30817660469E+03  0.12500207263E+03 0.  0.
          5    1    3    3  502    0 -0.51149449276E+02 -0.51692276512E+02 -0.44957201916E+02  0.85624748854E+02  0.47000000000E+01 0.  1.
         -5    1    3    3    0  502 -0.28038355881E+02  0.17775310170E+01 -0.22072138437E+03  0.22255185584E+03  0.47000000000E+01 0.  1.
        -11    1    1    2    0    0  0.31612785018E+02  0.66193978313E+02 -0.29074777553E+03  0.29985876662E+03  0.00000000000E+00 0. -1.
         11    1    1    2    0    0  0.47575020139E+02 -0.16279232818E+02 -0.10519559032E+03  0.11659548956E+03  0.00000000000E+00 0.  1.
<mgrwt>
<rscale>  0 0.14890465E+03</rscale>
<asrwt>0</asrwt>
<pdfrwt beam="1">  1        4 0.48468395E-02 0.15616564E+03</pdfrwt>
<pdfrwt beam="2">  1       -4 0.10663482E+00 0.15616564E+03</pdfrwt>
<totfact> 0.31580302E+02</totfact>
</mgrwt>
</event>
<event>
 7    1  0.6419647E-006  0.1408685E+03  0.7546771E-02  0.1224248E+00
         -1   -1    0    0    0  501 -0.00000000000E+00  0.00000000000E+00  0.17682030660E+03  0.17682030660E+03  0.00000000000E+00 0. -1.
          1   -1    0    0  501    0  0.00000000000E+00 -0.00000000000E+00 -0.89034296686E+02  0.89034296686E+02  0.00000000000E+00 0.  1.
         23    2    1    2    0    0  0.16609969615E+02  0.62783771880E+02  0.38532373443E+02  0.14604340261E+03  0.12500495407E+03 0.  0.
          5    1    3    3  502    0  0.29091974066E+02  0.97927914687E+02  0.20283619271E+02  0.10425801955E+03  0.47000000000E+01 0. -1.
         -5    1    3    3    0  502 -0.12482004451E+02 -0.35144142806E+02  0.18248754172E+02  0.41785383061E+02  0.47000000000E+01 0. -1.
        -11    1    1    2    0    0  0.12764559650E+02 -0.44589241946E+02  0.66592200856E+02  0.81152052933E+02  0.00000000000E+00 0. -1.
         11    1    1    2    0    0 -0.29374529265E+02 -0.18194529934E+02 -0.17338564387E+02  0.38659147741E+02  0.00000000000E+00 0.  1.
<mgrwt>
<rscale>  0 0.13218586E+03</rscale>
<asrwt>0</asrwt>
<pdfrwt beam="2">  1        1 0.13697584E-01 0.14086849E+03</pdfrwt>
<pdfrwt beam="1">  1       -1 0.27203124E-01 0.14086849E+03</pdfrwt>
<totfact> 0.48580218E+03</totfact>
</mgrwt>
</event>
<event>
 7    1  0.6419647E-006  0.1706397E+03  0.7546771E-02  0.1183814E+00
          1   -1    0    0  501    0  0.00000000000E+00  0.00000000000E+00  0.20265607412E+04  0.20265607412E+04  0.00000000000E+00 0. -1.
         -1   -1    0    0    0  501 -0.00000000000E+00 -0.00000000000E+00 -0.21174611764E+02  0.21174611764E+02  0.00000000000E+00 0.  1.
         23    2    1    2    0    0  0.52888700883E+02  0.10342008162E+03  0.17027149985E+04  0.17112440761E+04  0.12499997482E+03 0.  0.
          5    1    3    3  502    0 -0.24782858983E+01  0.96323240843E+02  0.14047884939E+04  0.14080969821E+04  0.47000000000E+01 0.  1.
         -5    1    3    3    0  502  0.55366986782E+02  0.70968407781E+01  0.29792650466E+03  0.30314709392E+03  0.47000000000E+01 0.  1.
        -11    1    1    2    0    0 -0.45871328829E+02 -0.21672343051E+02  0.19281080465E+03  0.19937370853E+03  0.00000000000E+00 0. -1.
         11    1    1    2    0    0 -0.70173720548E+01 -0.81747738571E+02  0.10986032630E+03  0.13711756841E+03  0.00000000000E+00 0.  1.
<mgrwt>
<rscale>  0 0.16440252E+03</rscale>
<asrwt>0</asrwt>
<pdfrwt beam="1">  1        1 0.31177842E+00 0.17063974E+03</pdfrwt>
<pdfrwt beam="2">  1       -1 0.32576342E-02 0.17063974E+03</pdfrwt>
<totfact> 0.10926053E+03</totfact>
</mgrwt>
</event>
<event>
 6    1  0.6419647E-006  0.2690795E+03  0.7546771E-02  0.1125108E+00
         -1   -1    0    0    0  501 -0.00000000000E+00  0.00000000000E+00  0.48001396755E+02  0.48001396755E+02  0.00000000000E+00 0.  1.
          1   -1    0    0  501    0  0.00000000000E+00 -0.00000000000E+00 -0.13904082040E+04  0.13904082040E+04  0.00000000000E+00 0. -1.
          5    1    1    2  502    0  0.13196599159E+03 -0.29200955713E+02 -0.86181756132E+03  0.87236421164E+03  0.47000000000E+01 0. -1.
         -5    1    1    2    0  502 -0.84139703409E+02 -0.80358632307E+02 -0.34618498532E+03  0.36524393703E+03  0.47000000000E+01 0.  1.
        -11    1    1    2    0    0  0.22235374507E+02  0.17617152992E+02 -0.50652197787E+02  0.58055327918E+02  0.00000000000E+00 0. -1.
         11    1    1    2    0    0 -0.70061662688E+02  0.91942435028E+02 -0.83752062809E+02  0.14274612416E+03  0.00000000000E+00 0.  1.
<mgrwt>
<rscale>  0 0.23218978E+03</rscale>
<asrwt>0</asrwt>
<pdfrwt beam="2">  1        1 0.21390897E+00 0.26907950E+03</pdfrwt>
<pdfrwt beam="1">  1       -1 0.73848296E-02 0.26907950E+03</pdfrwt>
<totfact> 0.82582097E+02</totfact>
</mgrwt>
</event>
<event>
 7    1  0.6419647E-006  0.1420083E+03  0.7546771E-02  0.1220901E+00
         -2   -1    0    0    0  501 -0.00000000000E+00  0.00000000000E+00  0.19465863746E+02  0.19465863746E+02  0.00000000000E+00 0.  1.
          2   -1    0    0  501    0  0.00000000000E+00 -0.00000000000E+00 -0.84396001455E+03  0.84396001455E+03  0.00000000000E+00 0. -1.
         23    2    1    2    0    0 -0.66135669629E+02  0.12953596256E+02 -0.45529731729E+03  0.47692977917E+03  0.12499857867E+03 0.  0.
          5    1    3    3  502    0 -0.24743632392E+01  0.31635638505E+01  0.74594722860E+01  0.96883608759E+01  0.47000000000E+01 0.  1.
         -5    1    3    3    0  502 -0.63661306390E+02  0.97900324052E+01 -0.46275678958E+03  0.46724141829E+03  0.47000000000E+01 0.  1.
        -11    1    1    2    0    0  0.81917893695E+02  0.10085571837E+01 -0.34413957341E+03  0.35375641971E+03  0.00000000000E+00 0. -1.
         11    1    1    2    0    0 -0.15782224066E+02 -0.13962153439E+02 -0.25057260102E+02  0.32739679426E+02  0.00000000000E+00 0.  1.
<mgrwt>
<rscale>  0 0.13451850E+03</rscale>
<asrwt>0</asrwt>
<pdfrwt beam="2">  1        2 0.12984001E+00 0.14200833E+03</pdfrwt>
<pdfrwt beam="1">  1       -2 0.29947480E-02 0.14200833E+03</pdfrwt>
<totfact> 0.13477160E+04</totfact>
</mgrwt>
</event>
<event>
 7    1  0.6419647E-006  0.1268668E+03  0.7546771E-02  0.1247160E+00
         -1   -1    0    0    0  501 -0.00000000000E+00  0.00000000000E+00  0.77412306496E+02  0.77412306496E+02  0.00000000000E+00 0.  1.
          1   -1    0    0  501    0  0.00000000000E+00 -0.00000000000E+00 -0.20047168206E+03  0.20047168206E+03  0.00000000000E+00 0. -1.
         23    2    1    2    0    0  0.15107086595E+02 -0.15652669937E+02 -0.13297763509E+03  0.18378857870E+03  0.12498783974E+03 0.  0.
          5    1    3    3  502    0 -0.55041324959E+02 -0.11581783372E+02 -0.58857647271E+02  0.81547518672E+02  0.47000000000E+01 0.  1.
         -5    1    3    3    0  502  0.70148411554E+02 -0.40708865653E+01 -0.74119987822E+02  0.10224106003E+03  0.47000000000E+01 0.  1.
        -11    1    1    2    0    0  0.14315524823E+02 -0.24032330445E+02  0.29773152837E+02  0.40852512621E+02  0.00000000000E+00 0.  1.
         11    1    1    2    0    0 -0.29422611418E+02  0.39685000382E+02 -0.19854893312E+02  0.53242897239E+02  0.00000000000E+00 0. -1.
<mgrwt>
<rscale>  0 0.11757003E+03</rscale>
<asrwt>0</asrwt>
<pdfrwt beam="2">  1        1 0.30841797E-01 0.12686682E+03</pdfrwt>
<pdfrwt beam="1">  1       -1 0.11909586E-01 0.12686682E+03</pdfrwt>
<totfact> 0.64187460E+03</totfact>
</mgrwt>
</event>
<event>
 7    1  0.6419647E-006  0.1395840E+03  0.7546771E-02  0.1224808E+00
          2   -1    0    0  501    0  0.00000000000E+00  0.00000000000E+00  0.34944813594E+02  0.34944813594E+02  0.00000000000E+00 0. -1.
         -2   -1    0    0    0  501 -0.00000000000E+00 -0.00000000000E+00 -0.46010720052E+03  0.46010720052E+03  0.00000000000E+00 0.  1.
         23    2    1    2    0    0  0.57143890185E+02 -0.24352361344E+02 -0.27436523940E+03  0.30783109848E+03  0.12500095565E+03 0.  0.
          5    1    3    3  502    0  0.21216878088E+01 -0.68581329312E+02 -0.13967297376E+03  0.15568728236E+03  0.47000000000E+01 0. -1.
         -5    1    3    3    0  502  0.55022202376E+02  0.44228967968E+02 -0.13469226564E+03  0.15214381612E+03  0.47000000000E+01 0. -1.
        -11    1    1    2    0    0  0.22689754262E+02  0.21135241898E+02 -0.44767004457E+02  0.54457396987E+02  0.00000000000E+00 0.  1.
         11    1    1    2    0    0 -0.79833644447E+02  0.32171194461E+01 -0.10603014307E+03  0.13276351865E+03  0.00000000000E+00 0. -1.
<mgrwt>
<rscale>  0 0.13180060E+03</rscale>
<asrwt>0</asrwt>
<pdfrwt beam="1">  1        2 0.53761248E-02 0.13958403E+03</pdfrwt>
<pdfrwt beam="2">  1       -2 0.70785728E-01 0.13958403E+03</pdfrwt>
<totfact> 0.25524998E+03</totfact>
</mgrwt>
</event>
<event>
 7    1  0.6419647E-006  0.1301217E+03  0.7546771E-02  0.1240180E+00
         -2   -1    0    0    0  501 -0.00000000000E+00  0.00000000000E+00  0.71530549609E+03  0.71530549609E+03  0.00000000000E+00 0.  1.
          2   -1    0    0  501    0  0.00000000000E+00 -0.00000000000E+00 -0.19909813434E+02  0.19909813434E+02  0.00000000000E+00 0. -1.
         23    2    1    2    0    0  0.35821918951E+02  0.47867879212E+01  0.29259424568E+03  0.32022345376E+03  0.12500217805E+03 0.  0.
          5    1    3    3  502    0 -0.34898648164E+02 -0.31765900511E+02  0.77941602271E+02  0.91235801326E+02  0.47000000000E+01 0. -1.
         -5    1    3    3    0  502  0.70720567115E+02  0.36552688432E+02  0.21465264340E+03  0.22898765243E+03  0.47000000000E+01 0. -1.
        -11    1    1    2    0    0  0.29712292830E+02  0.69334264279E+01  0.85477024895E+02  0.90759101649E+02  0.00000000000E+00 0.  1.
         11    1    1    2    0    0 -0.65534211781E+02 -0.11720214349E+02  0.31732441209E+03  0.32423275412E+03  0.00000000000E+00 0. -1.
<mgrwt>
<rscale>  0 0.12178538E+03</rscale>
<asrwt>0</asrwt>
<pdfrwt beam="2">  1        2 0.30630488E-02 0.13012174E+03</pdfrwt>
<pdfrwt beam="1">  1       -2 0.11004698E+00 0.13012174E+03</pdfrwt>
<totfact> 0.19909656E+03</totfact>
</mgrwt>
</event>
<event>
 7    1  0.6419647E-006  0.1298148E+03  0.7546771E-02  0.1242088E+00
          2   -1    0    0  501    0  0.00000000000E+00  0.00000000000E+00  0.74385488442E+03  0.74385488442E+03  0.00000000000E+00 0. -1.
         -2   -1    0    0    0  501 -0.00000000000E+00 -0.00000000000E+00 -0.31317492075E+02  0.31317492075E+02  0.00000000000E+00 0.  1.
         23    2    1    2    0    0 -0.22465446200E+02 -0.26856019591E+02  0.64314841615E+03  0.65611871953E+03  0.12500378740E+03 0.  0.
          5    1    3    3  502    0  0.69657896761E+00  0.45194159106E+02  0.13746181624E+03  0.14477858323E+03  0.47000000000E+01 0. -1.
         -5    1    3    3    0  502 -0.23162025167E+02 -0.72050178696E+02  0.50568659991E+03  0.51134013630E+03  0.47000000000E+01 0. -1.
        -11    1    1    2    0    0 -0.25897644419E+02 -0.12263553416E+02  0.42210544002E+01  0.28963770975E+02  0.00000000000E+00 0.  1.
         11    1    1    2    0    0  0.48363090619E+02  0.39119573007E+02  0.65167921797E+02  0.90089885991E+02  0.00000000000E+00 0. -1.
<mgrwt>
<rscale>  0 0.12061368E+03</rscale>
<asrwt>0</asrwt>
<pdfrwt beam="1">  1        2 0.11443920E+00 0.12981483E+03</pdfrwt>
<pdfrwt beam="2">  1       -2 0.48180763E-02 0.12981483E+03</pdfrwt>
<totfact> 0.77424588E+03</totfact>
</mgrwt>
</event>
<event>
 7    1  0.6419647E-006  0.1615386E+03  0.7546771E-02  0.1194267E+00
         -1   -1    0    0    0  501 -0.00000000000E+00  0.00000000000E+00  0.98995570170E+02  0.98995570170E+02  0.00000000000E+00 0.  1.
          1   -1    0    0  501    0  0.00000000000E+00 -0.00000000000E+00 -0.23690670709E+03  0.23690670709E+03  0.00000000000E+00 0. -1.
         23    2    1    2    0    0  0.89243358952E+02  0.50041538563E+02 -0.11041760933E+03  0.19567003587E+03  0.12500472705E+03 0.  0.
          5    1    3    3  502    0  0.14172592850E+02  0.43716535794E+02 -0.11095192525E+03  0.12018493087E+03  0.47000000000E+01 0.  1.
         -5    1    3    3    0  502  0.75070766102E+02  0.63250027692E+01  0.53431592119E+00  0.75485104998E+02  0.47000000000E+01 0.  1.
        -11    1    1    2    0    0 -0.98508610541E+02 -0.66247533723E+02 -0.21643567735E+02  0.12066949117E+03  0.00000000000E+00 0. -1.
         11    1    1    2    0    0  0.92652515893E+01  0.16205995160E+02 -0.58499598551E+01  0.19562750227E+02  0.00000000000E+00 0.  1.
<mgrwt>
<rscale>  0 0.15516412E+03</rscale>
<asrwt>0</asrwt>
<pdfrwt beam="2">  1        1 0.36447186E-01 0.16153859E+03</pdfrwt>
<pdfrwt beam="1">  1       -1 0.15230088E-01 0.16153859E+03</pdfrwt>
<totfact> 0.36069899E+03</totfact>
</mgrwt>
</event>
<event>
 7    1  0.6419647E-006  0.1493722E+03  0.7546771E-02  0.1212253E+00
         -3   -1    0    0    0  501 -0.00000000000E+00  0.00000000000E+00  0.38923235502E+03  0.38923235502E+03  0.00000000000E+00 0.  1.
          3   -1    0    0  501    0  0.00000000000E+00 -0.00000000000E+00 -0.45939265318E+02  0.45939265318E+02  0.00000000000E+00 0. -1.
         23    2    1    2    0    0  0.69562209657E+02 -0.43005124355E+02  0.18495960903E+03  0.23774378479E+03  0.12499483390E+03 0.  0.
          5    1    3    3  502    0  0.15410485707E+02  0.10687563712E+02 -0.14490040576E+02  0.24161091940E+02  0.47000000000E+01 0. -1.
         -5    1    3    3    0  502  0.54151723950E+02 -0.53692688067E+02  0.19944964961E+03  0.21358269285E+03  0.47000000000E+01 0. -1.
        -11    1    1    2    0    0 -0.16619365842E+02  0.26011621417E+02  0.13601833513E+01  0.30897538227E+02  0.00000000000E+00 0. -1.
         11    1    1    2    0    0 -0.52942843816E+02  0.16993502938E+02  0.15697329732E+03  0.16653029732E+03  0.00000000000E+00 0.  1.
<mgrwt>
<rscale>  0 0.14080284E+03</rscale>
<asrwt>0</asrwt>
<pdfrwt beam="2">  1        3 0.70675795E-02 0.14937219E+03</pdfrwt>
<pdfrwt beam="1">  1       -3 0.59881899E-01 0.14937219E+03</pdfrwt>
<totfact> 0.84592409E+02</totfact>
</mgrwt>
</event>
<event>
 7    1  0.6419647E-006  0.2932223E+03  0.7546771E-02  0.1090295E+00
          2   -1    0    0  501    0  0.00000000000E+00  0.00000000000E+00  0.14432044823E+04  0.14432044823E+04  0.00000000000E+00 0. -1.
         -2   -1    0    0    0  501 -0.00000000000E+00 -0.00000000000E+00 -0.74391698508E+02  0.74391698508E+02  0.00000000000E+00 0.  1.
         23    2    1    2    0    0  0.12702850006E+03 -0.23284838937E+03  0.10613366514E+04  0.11010970822E+04  0.12499873884E+03 0.  0.
          5    1    3    3  502    0  0.10397395133E+03 -0.17275610006E+03  0.55206006384E+03  0.58774795343E+03  0.47000000000E+01 0.  1.
         -5    1    3    3    0  502  0.23054548724E+02 -0.60092289315E+02  0.50927658751E+03  0.51334912879E+03  0.47000000000E+01 0.  1.
        -11    1    1    2    0    0 -0.82367295345E+02  0.18627261006E+03  0.28029815194E+03  0.34648075067E+03  0.00000000000E+00 0. -1.
         11    1    1    2    0    0 -0.44661204713E+02  0.46575779316E+02  0.27177980540E+02  0.70018347963E+02  0.00000000000E+00 0.  1.
<mgrwt>
<rscale>  0 0.29010347E+03</rscale>
<asrwt>0</asrwt>
<pdfrwt beam="1">  1        2 0.22203144E+00 0.29322227E+03</pdfrwt>
<pdfrwt beam="2">  1       -2 0.11444878E-01 0.29322227E+03</pdfrwt>
<totfact> 0.78215451E+02</totfact>
</mgrwt>
</event>
<event>
 7    1  0.6419647E-006  0.2021544E+03  0.7546771E-02  0.1151953E+00
         -2   -1    0    0    0  501 -0.00000000000E+00  0.00000000000E+00  0.32322980615E+03  0.32322980615E+03  0.00000000000E+00 0.  1.
          2   -1    0    0  501    0  0.00000000000E+00 -0.00000000000E+00 -0.12456125837E+03  0.12456125837E+03  0.00000000000E+00 0. -1.
         23    2    1    2    0    0  0.15699166685E+03  0.24264609607E+02  0.42417034010E+02  0.20655657532E+03  0.12502503466E+03 0.  0.
          5    1    3    3  502    0  0.39698024563E+02  0.61757921679E+02  0.39032134626E+02  0.83280079117E+02  0.47000000000E+01 0. -1.
         -5    1    3    3    0  502  0.11729364229E+03 -0.37493312072E+02  0.33848993839E+01  0.12327649620E+03  0.47000000000E+01 0. -1.
        -11    1    1    2    0    0 -0.54935134237E+02 -0.35390303061E+02  0.11151045222E+03  0.12924752794E+03  0.00000000000E+00 0.  1.
         11    1    1    2    0    0 -0.10205653261E+03  0.11125693454E+02  0.44741061538E+02  0.11198696126E+03  0.00000000000E+00 0. -1.
<mgrwt>
<rscale>  0 0.19739865E+03</rscale>
<asrwt>0</asrwt>
<pdfrwt beam="2">  1        2 0.19163271E-01 0.20215443E+03</pdfrwt>
<pdfrwt beam="1">  1       -2 0.49727662E-01 0.20215443E+03</pdfrwt>
<totfact> 0.11246135E+03</totfact>
</mgrwt>
</event>
<event>
 7    1  0.6419647E-006  0.1898345E+03  0.7546771E-02  0.1163820E+00
         -1   -1    0    0    0  501 -0.00000000000E+00  0.00000000000E+00  0.36810070441E+03  0.36810070441E+03  0.00000000000E+00 0.  1.
          1   -1    0    0  501    0  0.00000000000E+00 -0.00000000000E+00 -0.29888338160E+03  0.29888338160E+03  0.00000000000E+00 0. -1.
         23    2    1    2    0    0  0.14024404516E+03  0.27282394017E+02 -0.24538422272E+03  0.31024275655E+03  0.12499772002E+03 0.  0.
          5    1    3    3  502    0 -0.12093140507E+02  0.50626749879E+01  0.62090596213E+01  0.15248512935E+02  0.47000000000E+01 0. -1.
         -5    1    3    3    0  502  0.15233718566E+03  0.22219719029E+02 -0.25159328234E+03  0.29499424362E+03  0.47000000000E+01 0. -1.
        -11    1    1    2    0    0 -0.92957351910E+02 -0.58507066990E+02  0.23048549813E+03  0.25531884187E+03  0.00000000000E+00 0.  1.
         11    1    1    2    0    0 -0.47286693248E+02  0.31224672973E+02  0.84116047391E+02  0.10142248759E+03  0.00000000000E+00 0. -1.
<mgrwt>
<rscale>  0 0.18417726E+03</rscale>
<asrwt>0</asrwt>
<pdfrwt beam="2">  1        1 0.45982059E-01 0.18983454E+03</pdfrwt>
<pdfrwt beam="1">  1       -1 0.56630878E-01 0.18983454E+03</pdfrwt>
<totfact> 0.28993669E+02</totfact>
</mgrwt>
</event>
<event>
 7    1  0.6419647E-006  0.1360755E+03  0.7546771E-02  0.1231394E+00
          2   -1    0    0  501    0  0.00000000000E+00  0.00000000000E+00  0.13139543412E+04  0.13139543412E+04  0.00000000000E+00 0. -1.
         -2   -1    0    0    0  501 -0.00000000000E+00 -0.00000000000E+00 -0.17626079773E+02  0.17626079773E+02  0.00000000000E+00 0.  1.
         23    2    1    2    0    0  0.29535913622E+02 -0.44933694381E+02  0.11069919868E+04  0.11153240773E+04  0.12500052598E+03 0.  0.
          5    1    3    3  502    0  0.69499539328E+02 -0.60679347317E+02  0.79662608483E+03  0.80196469884E+03  0.47000000000E+01 0.  1.
         -5    1    3    3    0  502 -0.39963625706E+02  0.15745652936E+02  0.31036590201E+03  0.31335937850E+03  0.47000000000E+01 0.  1.
        -11    1    1    2    0    0  0.27319500960E+02  0.37495400608E+02  0.71879217713E+02  0.85550465448E+02  0.00000000000E+00 0.  1.
         11    1    1    2    0    0 -0.56855414582E+02  0.74382937737E+01  0.11745705691E+03  0.13070587821E+03  0.00000000000E+00 0. -1.
<mgrwt>
<rscale>  0 0.12738131E+03</rscale>
<asrwt>0</asrwt>
<pdfrwt beam="1">  1        2 0.20214675E+00 0.13607549E+03</pdfrwt>
<pdfrwt beam="2">  1       -2 0.27117056E-02 0.13607549E+03</pdfrwt>
<totfact> 0.82709345E+03</totfact>
</mgrwt>
</event>
<event>
 7    1  0.6419647E-006  0.1300306E+03  0.7546771E-02  0.1242238E+00
         -1   -1    0    0    0  501 -0.00000000000E+00  0.00000000000E+00  0.38249872994E+02  0.38249872994E+02  0.00000000000E+00 0.  1.
          1   -1    0    0  501    0  0.00000000000E+00 -0.00000000000E+00 -0.50987170132E+03  0.50987170132E+03  0.00000000000E+00 0. -1.
         23    2    1    2    0    0  0.49153729882E+01 -0.35487264468E+02 -0.41891383769E+03  0.43863056290E+03  0.12499784186E+03 0.  0.
          5    1    3    3  502    0  0.43201143930E+02 -0.32759641061E+02 -0.75624847592E+02  0.93170491534E+02  0.47000000000E+01 0. -1.
         -5    1    3    3    0  502 -0.38285770942E+02 -0.27276234074E+01 -0.34328899010E+03  0.34546007136E+03  0.47000000000E+01 0. -1.
        -11    1    1    2    0    0  0.37723527671E+02  0.11767339766E+02 -0.45342863350E+02  0.60145740347E+02  0.00000000000E+00 0. -1.
         11    1    1    2    0    0 -0.42638900659E+02  0.23719924702E+02 -0.73651272918E+01  0.49345271073E+02  0.00000000000E+00 0.  1.
<mgrwt>
<rscale>  0 0.12052235E+03</rscale>
<asrwt>0</asrwt>
<pdfrwt beam="2">  1        1 0.78441792E-01 0.13003064E+03</pdfrwt>
<pdfrwt beam="1">  1       -1 0.58845964E-02 0.13003064E+03</pdfrwt>
<totfact> 0.58073409E+03</totfact>
</mgrwt>
</event>
<event>
 7    1  0.6419647E-006  0.1813368E+03  0.7546771E-02  0.1171948E+00
          1   -1    0    0  501    0  0.00000000000E+00  0.00000000000E+00  0.45540340107E+02  0.45540340107E+02  0.00000000000E+00 0. -1.
         -1   -1    0    0    0  501 -0.00000000000E+00 -0.00000000000E+00 -0.66411217013E+03  0.66411217013E+03  0.00000000000E+00 0.  1.
         23    2    1    2    0    0  0.11928405855E+03  0.55029965494E+02 -0.26040605197E+03  0.31732372051E+03  0.12500419181E+03 0.  0.
          5    1    3    3  502    0  0.14481212612E+03  0.52925400452E+02 -0.20971793530E+03  0.26033699750E+03  0.47000000000E+01 0. -1.
         -5    1    3    3    0  502 -0.25528067562E+02  0.21045650423E+01 -0.50688116669E+02  0.56986723006E+02  0.47000000000E+01 0. -1.
        -11    1    1    2    0    0 -0.31534477220E+02  0.14290931942E+02 -0.30619713714E+02  0.46219269328E+02  0.00000000000E+00 0. -1.
         11    1    1    2    0    0 -0.87749581335E+02 -0.69320897436E+02 -0.32754606434E+03  0.34610952040E+03  0.00000000000E+00 0.  1.
<mgrwt>
<rscale>  0 0.17578322E+03</rscale>
<asrwt>0</asrwt>
<pdfrwt beam="1">  1        1 0.70062063E-02 0.18133679E+03</pdfrwt>
<pdfrwt beam="2">  1       -1 0.10217110E+00 0.18133679E+03</pdfrwt>
<totfact> 0.99329968E+02</totfact>
</mgrwt>
</event>
<event>
 7    1  0.6419647E-006  0.1525870E+03  0.7546771E-02  0.1206833E+00
         -2   -1    0    0    0  501 -0.00000000000E+00  0.00000000000E+00  0.17197302258E+03  0.17197302258E+03  0.00000000000E+00 0.  1.
          2   -1    0    0  501    0  0.00000000000E+00 -0.00000000000E+00 -0.13683132285E+03  0.13683132285E+03  0.00000000000E+00 0. -1.
         23    2    1    2    0    0  0.80140276292E+02 -0.35144206394E+02 -0.47259170461E+02  0.15973800171E+03  0.12500088347E+03 0.  0.
          5    1    3    3  502    0  0.77247376777E+02 -0.70841171108E+02 -0.60683336013E+02  0.12120307757E+03  0.47000000000E+01 0. -1.
         -5    1    3    3    0  502  0.28928995140E+01  0.35696964714E+02  0.13424165552E+02  0.38534924136E+02  0.47000000000E+01 0. -1.
        -11    1    1    2    0    0 -0.59967572235E+02  0.17727011681E+01  0.23696453509E+01  0.60040548035E+02  0.00000000000E+00 0. -1.
         11    1    1    2    0    0 -0.20172704056E+02  0.33371505226E+02  0.80031224837E+02  0.89025795694E+02  0.00000000000E+00 0.  1.
<mgrwt>
<rscale>  0 0.14493958E+03</rscale>
<asrwt>0</asrwt>
<pdfrwt beam="2">  1        2 0.21050973E-01 0.15258702E+03</pdfrwt>
<pdfrwt beam="1">  1       -2 0.26457388E-01 0.15258702E+03</pdfrwt>
<totfact> 0.32559141E+03</totfact>
</mgrwt>
</event>
<event>
 7    1  0.6419647E-006  0.1292204E+03  0.7546771E-02  0.1229011E+00
          2   -1    0    0  501    0  0.00000000000E+00  0.00000000000E+00  0.84107318434E+02  0.84107318434E+02  0.00000000000E+00 0. -1.
         -2   -1    0    0    0  501 -0.00000000000E+00 -0.00000000000E+00 -0.37932616659E+03  0.37932616659E+03  0.00000000000E+00 0.  1.
         23    2    1    2    0    0  0.27327975507E+02  0.40340778699E+02  0.13384970300E+02  0.12886774279E+03  0.11854763190E+03 0.  0.
          5    1    3    3  502    0  0.55028908244E+02  0.61697364076E+02 -0.14275611638E+02  0.84027546461E+02  0.47000000000E+01 0. -1.
         -5    1    3    3    0  502 -0.27700932738E+02 -0.21356585378E+02  0.27660581938E+02  0.44840196327E+02  0.47000000000E+01 0.  1.
        -11    1    1    2    0    0  0.29541104839E+02 -0.12245555639E+02 -0.17145377522E+02  0.36284907032E+02  0.00000000000E+00 0. -1.
         11    1    1    2    0    0 -0.56869080345E+02 -0.28095223060E+02 -0.29145844094E+03  0.29828083521E+03  0.00000000000E+00 0.  1.
<mgrwt>
<rscale>  0 0.12895720E+03</rscale>
<asrwt>0</asrwt>
<pdfrwt beam="1">  1        2 0.12939587E-01 0.12922043E+03</pdfrwt>
<pdfrwt beam="2">  1       -2 0.58357872E-01 0.12922043E+03</pdfrwt>
<totfact> 0.12703152E+03</totfact>
</mgrwt>
</event>
<event>
 7    1  0.6419647E-006  0.1530280E+03  0.7546771E-02  0.1200450E+00
         -2   -1    0    0    0  501 -0.00000000000E+00  0.00000000000E+00  0.89994995317E+02  0.89994995317E+02  0.00000000000E+00 0.  1.
          2   -1    0    0  501    0  0.00000000000E+00 -0.00000000000E+00 -0.54055192433E+03  0.54055192433E+03  0.00000000000E+00 0. -1.
         23    2    1    2    0    0  0.33141787751E+02  0.81805531298E+02 -0.46398446976E+03  0.48856847192E+03  0.12500816185E+03 0.  0.
          5    1    3    3  502    0  0.11621317054E+02  0.11047539488E+03 -0.39902028492E+03  0.41422113135E+03  0.47000000000E+01 0.  1.
         -5    1    3    3    0  502  0.21520470697E+02 -0.28669863584E+02 -0.64964184842E+02  0.74347340566E+02  0.47000000000E+01 0.  1.
        -11    1    1    2    0    0  0.11684030885E+02  0.18891947088E+02  0.22201360829E+02  0.31405774392E+02  0.00000000000E+00 0.  1.
         11    1    1    2    0    0 -0.44825818636E+02 -0.10069747839E+03 -0.87738200820E+01  0.11057267333E+03  0.00000000000E+00 0. -1.
<mgrwt>
<rscale>  0 0.15001891E+03</rscale>
<asrwt>0</asrwt>
<pdfrwt beam="2">  1        2 0.83161832E-01 0.15302798E+03</pdfrwt>
<pdfrwt beam="1">  1       -2 0.13845384E-01 0.15302798E+03</pdfrwt>
<totfact> 0.21921485E+03</totfact>
</mgrwt>
</event>
<event>
 7    1  0.6419647E-006  0.2446996E+03  0.7546771E-02  0.1119281E+00
         -2   -1    0    0    0  501 -0.00000000000E+00  0.00000000000E+00  0.63379398859E+02  0.63379398859E+02  0.00000000000E+00 0. -1.
          2   -1    0    0  501    0  0.00000000000E+00 -0.00000000000E+00 -0.10739184152E+04  0.10739184152E+04  0.00000000000E+00 0.  1.
         23    2    1    2    0    0 -0.12734262775E+03  0.16743739323E+03 -0.75626429792E+03  0.79486703511E+03  0.12500595866E+03 0.  0.
          5    1    3    3  502    0 -0.68894375428E+02  0.21131366084E+01 -0.19956464673E+03  0.21118484447E+03  0.47000000000E+01 0.  1.
         -5    1    3    3    0  502 -0.58448252318E+02  0.16532425663E+03 -0.55669965120E+03  0.58368219064E+03  0.47000000000E+01 0.  1.
        -11    1    1    2    0    0  0.79084548461E+02 -0.57379975001E+02 -0.16852505121E+03  0.19480123260E+03  0.00000000000E+00 0.  1.
         11    1    1    2    0    0  0.48258079285E+02 -0.11005741823E+03 -0.85749667173E+02  0.14762954631E+03  0.00000000000E+00 0. -1.
<mgrwt>
<rscale>  0 0.24076953E+03</rscale>
<asrwt>0</asrwt>
<pdfrwt beam="2">  1        2 0.16521821E+00 0.24469964E+03</pdfrwt>
<pdfrwt beam="1">  1       -2 0.97506769E-02 0.24469964E+03</pdfrwt>
<totfact> 0.16360137E+03</totfact>
</mgrwt>
</event>
<event>
 7    1  0.6419647E-006  0.1253557E+03  0.7546771E-02  0.1248795E+00
          4   -1    0    0  501    0  0.00000000000E+00  0.00000000000E+00  0.35119408468E+03  0.35119408468E+03  0.00000000000E+00 0. -1.
         -4   -1    0    0    0  501 -0.00000000000E+00 -0.00000000000E+00 -0.38672160600E+02  0.38672160600E+02  0.00000000000E+00 0.  1.
         23    2    1    2    0    0 -0.95863354494E+01 -0.34304152222E+01  0.24171305926E+03  0.27228526474E+03  0.12494157355E+03 0.  0.
          5    1    3    3  502    0  0.48318098663E+02 -0.21043035094E+02  0.56633190506E+02  0.77503911200E+02  0.47000000000E+01 0.  1.
         -5    1    3    3    0  502 -0.57904434113E+02  0.17612619872E+02  0.18507986875E+03  0.19478135354E+03  0.47000000000E+01 0.  1.
        -11    1    1    2    0    0  0.17962809769E+01  0.32706948253E+02 -0.75106827004E+01  0.33606270902E+02  0.00000000000E+00 0.  1.
         11    1    1    2    0    0  0.77900544725E+01 -0.29276533030E+02  0.78319547523E+02  0.83974709641E+02  0.00000000000E+00 0. -1.
<mgrwt>
<rscale>  0 0.11661079E+03</rscale>
<asrwt>0</asrwt>
<pdfrwt beam="1">  1        4 0.54029857E-01 0.12535574E+03</pdfrwt>
<pdfrwt beam="2">  1       -4 0.59495634E-02 0.12535574E+03</pdfrwt>
<totfact> 0.96673916E+02</totfact>
</mgrwt>
</event>
<event>
 7    1  0.6419647E-006  0.1308527E+03  0.7546771E-02  0.1238602E+00
         -1   -1    0    0    0  501 -0.00000000000E+00  0.00000000000E+00  0.37956473823E+03  0.37956473823E+03  0.00000000000E+00 0.  1.
          1   -1    0    0  501    0  0.00000000000E+00 -0.00000000000E+00 -0.42075754994E+02  0.42075754994E+02  0.00000000000E+00 0. -1.
         23    2    1    2    0    0 -0.21429102669E+02 -0.32116970780E+02  0.10419618738E+03  0.16727008633E+03  0.12502691735E+03 0.  0.
          5    1    3    3  502    0 -0.11440873743E+02 -0.61823929969E+02  0.11714566281E+03  0.13303491355E+03  0.47000000000E+01 0. -1.
         -5    1    3    3    0  502 -0.99882289256E+01  0.29706959189E+02 -0.12949475428E+02  0.34235172779E+02  0.47000000000E+01 0. -1.
        -11    1    1    2    0    0 -0.33885518619E+02  0.12382037755E+02  0.13620052223E+03  0.14089757090E+03  0.00000000000E+00 0.  1.
         11    1    1    2    0    0  0.55314621288E+02  0.19734933025E+02  0.97092273624E+02  0.11347283599E+03  0.00000000000E+00 0. -1.
<mgrwt>
<rscale>  0 0.12276647E+03</rscale>
<asrwt>0</asrwt>
<pdfrwt beam="2">  1        1 0.64731933E-02 0.13085273E+03</pdfrwt>
<pdfrwt beam="1">  1       -1 0.58394573E-01 0.13085273E+03</pdfrwt>
<totfact> 0.34181446E+03</totfact>
</mgrwt>
</event>
<event>
 7    1  0.6419647E-006  0.1395096E+03  0.7546771E-02  0.1225306E+00
         -2   -1    0    0    0  501 -0.00000000000E+00  0.00000000000E+00  0.69214078003E+02  0.69214078003E+02  0.00000000000E+00 0.  1.
          2   -1    0    0  501    0  0.00000000000E+00 -0.00000000000E+00 -0.34989228364E+03  0.34989228364E+03  0.00000000000E+00 0. -1.
         23    2    1    2    0    0 -0.31014751654E+02 -0.53623251846E+02 -0.27571696878E+03  0.30900285964E+03  0.12500220970E+03 0.  0.
          5    1    3    3  502    0 -0.77241521244E+02 -0.51481667853E+02 -0.17980183073E+03  0.20240405891E+03  0.47000000000E+01 0. -1.
         -5    1    3    3    0  502  0.46226769590E+02 -0.21415839922E+01 -0.95915138056E+02  0.10659880073E+03  0.47000000000E+01 0. -1.
        -11    1    1    2    0    0  0.14399812826E+02 -0.25332137253E+02 -0.40083904537E+01  0.29413244997E+02  0.00000000000E+00 0. -1.
         11    1    1    2    0    0  0.16614938828E+02  0.78955389099E+02 -0.95284639992E+00  0.80690257010E+02  0.00000000000E+00 0.  1.
<mgrwt>
<rscale>  0 0.13145979E+03</rscale>
<asrwt>0</asrwt>
<pdfrwt beam="2">  1        2 0.53829581E-01 0.13950957E+03</pdfrwt>
<pdfrwt beam="1">  1       -2 0.10648320E-01 0.13950957E+03</pdfrwt>
<totfact> 0.53275095E+03</totfact>
</mgrwt>
</event>
<event>
 7    1  0.6419647E-006  0.1422955E+03  0.7546771E-02  0.1213490E+00
          2   -1    0    0  501    0  0.00000000000E+00  0.00000000000E+00  0.53304528206E+03  0.53304528206E+03  0.00000000000E+00 0. -1.
         -2   -1    0    0    0  501 -0.00000000000E+00 -0.00000000000E+00 -0.37146274199E+02  0.37146274199E+02  0.00000000000E+00 0.  1.
         23    2    1    2    0    0  0.90224509280E+01  0.67390076174E+02  0.31581002321E+03  0.34638704299E+03  0.12500074323E+03 0.  0.
          5    1    3    3  502    0  0.15195540353E+02  0.96449127151E+02  0.15843825521E+03  0.18616688558E+03  0.47000000000E+01 0.  1.
         -5    1    3    3    0  502 -0.61730894253E+01 -0.29059050977E+02  0.15737176800E+03  0.16022015741E+03  0.47000000000E+01 0.  1.
        -11    1    1    2    0    0 -0.46675902552E+02 -0.57375399297E+02  0.16709412512E+03  0.18273210712E+03  0.00000000000E+00 0. -1.
         11    1    1    2    0    0  0.37653451624E+02 -0.10014676877E+02  0.12994859532E+02  0.41072406143E+02  0.00000000000E+00 0.  1.
<mgrwt>
<rscale>  0 0.13988019E+03</rscale>
<asrwt>0</asrwt>
<pdfrwt beam="1">  1        2 0.82006961E-01 0.14229551E+03</pdfrwt>
<pdfrwt beam="2">  1       -2 0.57148118E-02 0.14229551E+03</pdfrwt>
<totfact> 0.88467381E+03</totfact>
</mgrwt>
</event>
<event>
 6    1  0.6419647E-006  0.1838730E+03  0.7546771E-02  0.1192218E+00
          1   -1    0    0  501    0  0.00000000000E+00  0.00000000000E+00  0.16967111078E+03  0.16967111078E+03  0.00000000000E+00 0. -1.
         -1   -1    0    0    0  501 -0.00000000000E+00 -0.00000000000E+00 -0.29232961795E+03  0.29232961795E+03  0.00000000000E+00 0.  1.
          5    1    1    2  502    0 -0.87080713440E+02 -0.10017279966E+02  0.80265020520E+02  0.11894519776E+03  0.47000000000E+01 0. -1.
         -5    1    1    2    0  502  0.79582914253E+02  0.41472190961E+02  0.26558643833E+02  0.93706106665E+02  0.47000000000E+01 0.  1.
        -11    1    1    2    0    0  0.12982941197E+02  0.31444140950E+02 -0.70149647076E+02  0.77963220476E+02  0.00000000000E+00 0. -1.
         11    1    1    2    0    0 -0.54851420098E+01 -0.62899051946E+02 -0.15933252444E+03  0.17138620383E+03  0.00000000000E+00 0.  1.
<mgrwt>
<rscale>  0 0.15692009E+03</rscale>
<asrwt>0</asrwt>
<pdfrwt beam="1">  1        1 0.26103248E-01 0.18387301E+03</pdfrwt>
<pdfrwt beam="2">  1       -1 0.44973788E-01 0.18387301E+03</pdfrwt>
<totfact> 0.90122078E+02</totfact>
</mgrwt>
</event>
<event>
 7    1  0.6419647E-006  0.1700521E+03  0.7546771E-02  0.1184647E+00
          1   -1    0    0  501    0  0.00000000000E+00  0.00000000000E+00  0.65528410387E+03  0.65528410387E+03  0.00000000000E+00 0. -1.
         -1   -1    0    0    0  501 -0.00000000000E+00 -0.00000000000E+00 -0.45969795014E+02  0.45969795014E+02  0.00000000000E+00 0.  1.
         23    2    1    2    0    0  0.92502263186E+02  0.68820243789E+02  0.46904444710E+03  0.49891923844E+03  0.12499927393E+03 0.  0.
          5    1    3    3  502    0  0.87619878377E+02  0.10259514367E+03  0.38963925621E+03  0.41236373091E+03  0.47000000000E+01 0.  1.
         -5    1    3    3    0  502  0.48823848084E+01 -0.33774899882E+02  0.79405190887E+02  0.86555507526E+02  0.47000000000E+01 0.  1.
        -11    1    1    2    0    0 -0.94581847857E+02 -0.46516017122E+02  0.14517546363E+03  0.17940284566E+03  0.00000000000E+00 0.  1.
         11    1    1    2    0    0  0.20795846712E+01 -0.22304226666E+02 -0.49056018659E+01  0.22931814783E+02  0.00000000000E+00 0. -1.
<mgrwt>
<rscale>  0 0.16364068E+03</rscale>
<asrwt>0</asrwt>
<pdfrwt beam="1">  1        1 0.10081293E+00 0.17005209E+03</pdfrwt>
<pdfrwt beam="2">  1       -1 0.70722766E-02 0.17005209E+03</pdfrwt>
<totfact> 0.31767776E+03</totfact>
</mgrwt>
</event>
<event>
 6    1  0.6419647E-006  0.1521442E+03  0.7546771E-02  0.1219536E+00
          1   -1    0    0  501    0  0.00000000000E+00  0.00000000000E+00  0.24510138697E+03  0.24510138697E+03  0.00000000000E+00 0. -1.
         -1   -1    0    0    0  501 -0.00000000000E+00 -0.00000000000E+00 -0.22024912959E+03  0.22024912959E+03  0.00000000000E+00 0.  1.
          5    1    1    2  502    0 -0.71082880336E+02  0.58599907416E+02  0.10192814039E+03  0.13747058169E+03  0.47000000000E+01 0. -1.
         -5    1    1    2    0  502  0.32361900158E+02 -0.46095804010E+02  0.10666966451E+03  0.12071711998E+03  0.47000000000E+01 0.  1.
        -11    1    1    2    0    0  0.31491663569E+02 -0.10398876753E+01 -0.18974333430E+03  0.19234172494E+03  0.00000000000E+00 0.  1.
         11    1    1    2    0    0  0.72293166090E+01 -0.11464215731E+02  0.59977867785E+01  0.14821089946E+02  0.00000000000E+00 0. -1.
<mgrwt>
<rscale>  0 0.13548551E+03</rscale>
<asrwt>0</asrwt>
<pdfrwt beam="1">  1        1 0.37707906E-01 0.15214416E+03</pdfrwt>
<pdfrwt beam="2">  1       -1 0.33884482E-01 0.15214416E+03</pdfrwt>
<totfact> 0.93284451E+02</totfact>
</mgrwt>
</event>
<event>
 7    1  0.6419647E-006  0.1597590E+03  0.7546771E-02  0.1196843E+00
          3   -1    0    0  501    0  0.00000000000E+00  0.00000000000E+00  0.25911369968E+03  0.25911369968E+03  0.00000000000E+00 0. -1.
         -3   -1    0    0    0  501 -0.00000000000E+00 -0.00000000000E+00 -0.84621197257E+02  0.84621197257E+02  0.00000000000E+00 0.  1.
         23    2    1    2    0    0  0.95716990974E+02  0.27128915634E+02  0.11468441512E+03  0.19666078576E+03  0.12500091664E+03 0.  0.
          5    1    3    3  502    0 -0.55913533245E+01 -0.25714334737E+02  0.68134996384E+02  0.73191242476E+02  0.47000000000E+01 0.  1.
         -5    1    3    3    0  502  0.10130834430E+03  0.52843250371E+02  0.46549418734E+02  0.12346954328E+03  0.47000000000E+01 0.  1.
        -11    1    1    2    0    0 -0.86999958804E+02  0.60750214216E+01  0.11728739730E+02  0.87996943429E+02  0.00000000000E+00 0.  1.
         11    1    1    2    0    0 -0.87170321694E+01 -0.33203937056E+02  0.48079347575E+02  0.59077167748E+02  0.00000000000E+00 0. -1.
<mgrwt>
<rscale>  0 0.15299249E+03</rscale>
<asrwt>0</asrwt>
<pdfrwt beam="1">  1        3 0.39863646E-01 0.15975904E+03</pdfrwt>
<pdfrwt beam="2">  1       -3 0.13018646E-01 0.15975904E+03</pdfrwt>
<totfact> 0.70099016E+02</totfact>
</mgrwt>
</event>
<event>
 7    1  0.6639457E-006  0.1284607E+03  0.7546771E-02  0.1241287E+00
         -1   -1    0    0    0  501 -0.00000000000E+00  0.00000000000E+00  0.16118396489E+03  0.16118396489E+03  0.00000000000E+00 0.  1.
          1   -1    0    0  501    0  0.00000000000E+00 -0.00000000000E+00 -0.86788478449E+02  0.86788478449E+02  0.00000000000E+00 0. -1.
         23    2    1    2    0    0 -0.19197098657E+02  0.22552110819E+02  0.12381811167E+02  0.12905599432E+03  0.12500005649E+03 0.  0.
          5    1    3    3  502    0 -0.24534953024E+01 -0.53740065793E+01  0.65847873941E+02  0.66279198007E+02  0.47000000000E+01 0.  1.
         -5    1    3    3    0  502 -0.16743603355E+02  0.27926117398E+02 -0.53466062775E+02  0.62776796309E+02  0.47000000000E+01 0.  1.
        -11    1    1    2    0    0 -0.35677089105E+02 -0.48093474553E+01  0.47220399573E+02  0.59378031676E+02  0.00000000000E+00 0.  1.
         11    1    1    2    0    0  0.54874187762E+02 -0.17742763364E+02  0.14793275705E+02  0.59538417349E+02  0.00000000000E+00 0. -1.
<mgrwt>
<rscale>  0 0.12110390E+03</rscale>
<asrwt>0</asrwt>
<pdfrwt beam="2">  1        1 0.13352074E-01 0.12846066E+03</pdfrwt>
<pdfrwt beam="1">  1       -1 0.24797533E-01 0.12846066E+03</pdfrwt>
<totfact> 0.58156183E+03</totfact>
</mgrwt>
</event>
<event>
 7    1  0.6419647E-006  0.1264165E+03  0.7546771E-02  0.1248021E+00
          1   -1    0    0  501    0  0.00000000000E+00  0.00000000000E+00  0.96125691478E+02  0.96125691478E+02  0.00000000000E+00 0. -1.
         -1   -1    0    0    0  501 -0.00000000000E+00 -0.00000000000E+00 -0.12692485182E+03  0.12692485182E+03  0.00000000000E+00 0.  1.
         23    2    1    2    0    0  0.15916317519E+02  0.10360815264E+02 -0.47147949679E+01  0.12650434810E+03  0.12498177923E+03 0.  0.
          5    1    3    3  502    0  0.34566386638E+02 -0.51142521030E+02 -0.43982600916E+01  0.62063090757E+02  0.47000000000E+01 0. -1.
         -5    1    3    3    0  502 -0.18650069119E+02  0.61503336294E+02 -0.31653487633E+00  0.64441257341E+02  0.47000000000E+01 0. -1.
        -11    1    1    2    0    0  0.30153718733E+02 -0.23652899465E+02 -0.29664835713E+02  0.48463479904E+02  0.00000000000E+00 0.  1.
         11    1    1    2    0    0 -0.46070036251E+02  0.13292084201E+02  0.35804703371E+01  0.48082715298E+02  0.00000000000E+00 0. -1.
<mgrwt>
<rscale>  0 0.11706358E+03</rscale>
<asrwt>0</asrwt>
<pdfrwt beam="1">  1        1 0.14788568E-01 0.12641646E+03</pdfrwt>
<pdfrwt beam="2">  1       -1 0.19526900E-01 0.12641646E+03</pdfrwt>
<totfact> 0.74895301E+03</totfact>
</mgrwt>
</event>
<event>
 7    1  0.6419647E-006  0.1255274E+03  0.7546771E-02  0.1243775E+00
          1   -1    0    0  501    0  0.00000000000E+00  0.00000000000E+00  0.81449655008E+03  0.81449655008E+03  0.00000000000E+00 0. -1.
         -1   -1    0    0    0  501 -0.00000000000E+00 -0.00000000000E+00 -0.31299685890E+02  0.31299685890E+02  0.00000000000E+00 0.  1.
         23    2    1    2    0    0  0.42034890324E+02  0.25229655938E+02  0.70515731441E+03  0.71624295173E+03  0.11555803862E+03 0.  0.
          5    1    3    3  502    0  0.33947408894E+02 -0.21861489823E+02  0.59105393690E+03  0.59245016468E+03  0.47000000000E+01 0. -1.
         -5    1    3    3    0  502  0.80874814301E+01  0.47091145760E+02  0.11410337751E+03  0.12379278705E+03  0.47000000000E+01 0.  1.
        -11    1    1    2    0    0 -0.15121328454E+02  0.29314881153E+02  0.32372386465E+01  0.33143574721E+02  0.00000000000E+00 0.  1.
         11    1    1    2    0    0 -0.26913561870E+02 -0.54544537091E+02  0.74802311129E+02  0.96409709517E+02  0.00000000000E+00 0. -1.
<mgrwt>
<rscale>  0 0.11959026E+03</rscale>
<asrwt>0</asrwt>
<pdfrwt beam="1">  1        1 0.12530715E+00 0.12552740E+03</pdfrwt>
<pdfrwt beam="2">  1       -1 0.48153369E-02 0.12552740E+03</pdfrwt>
<totfact> 0.40588894E+03</totfact>
</mgrwt>
</event>
<event>
 7    1  0.6419647E-006  0.1571476E+03  0.7546771E-02  0.1199918E+00
         -2   -1    0    0    0  501 -0.00000000000E+00  0.00000000000E+00  0.28432102930E+02  0.28432102930E+02  0.00000000000E+00 0.  1.
          2   -1    0    0  501    0  0.00000000000E+00 -0.00000000000E+00 -0.73552189054E+03  0.73552189054E+03  0.00000000000E+00 0. -1.
         23    2    1    2    0    0 -0.73286610696E+02  0.60832289411E+02 -0.37757091906E+03  0.40896843513E+03  0.12499554902E+03 0.  0.
          5    1    3    3  502    0 -0.27205300963E+02  0.91305253127E+02 -0.29033955083E+03  0.30560746461E+03  0.47000000000E+01 0. -1.
         -5    1    3    3    0  502 -0.46081309733E+02 -0.30472963716E+02 -0.87231368226E+02  0.10336097052E+03  0.47000000000E+01 0. -1.
        -11    1    1    2    0    0  0.79563181096E+01 -0.60871438896E+02 -0.11022630658E+03  0.12616843398E+03  0.00000000000E+00 0.  1.
         11    1    1    2    0    0  0.65330292586E+02  0.39149484322E-01 -0.21929256198E+03  0.22881712436E+03  0.00000000000E+00 0. -1.
<mgrwt>
<rscale>  0 0.15045253E+03</rscale>
<asrwt>0</asrwt>
<pdfrwt beam="2">  1        2 0.11315722E+00 0.15714764E+03</pdfrwt>
<pdfrwt beam="1">  1       -2 0.43741696E-02 0.15714764E+03</pdfrwt>
<totfact> 0.91696691E+03</totfact>
</mgrwt>
</event>
<event>
 7    1  0.6419647E-006  0.1151420E+03  0.7546771E-02  0.1260444E+00
         -1   -1    0    0    0  501 -0.00000000000E+00  0.00000000000E+00  0.49709971333E+02  0.49709971333E+02  0.00000000000E+00 0.  1.
          1   -1    0    0  501    0  0.00000000000E+00 -0.00000000000E+00 -0.23145848650E+03  0.23145848650E+03  0.00000000000E+00 0. -1.
         23    2    1    2    0    0 -0.91621122697E+01  0.24375883690E+02 -0.12304520090E+03  0.16851646927E+03  0.11215859728E+03 0.  0.
          5    1    3    3  502    0 -0.48070774478E+01  0.69355691323E+02 -0.72680827497E+02  0.10068720176E+03  0.47000000000E+01 0. -1.
         -5    1    3    3    0  502 -0.43550348219E+01 -0.44979807633E+02 -0.50364373400E+02  0.67829267510E+02  0.47000000000E+01 0.  1.
        -11    1    1    2    0    0 -0.15018762607E+01  0.33716798696E+02 -0.77063909992E+01  0.34618876482E+02  0.00000000000E+00 0. -1.
         11    1    1    2    0    0  0.10663988530E+02 -0.58092682386E+02 -0.50996923275E+02  0.78033112085E+02  0.00000000000E+00 0.  1.
<mgrwt>
<rscale>  0 0.11006775E+03</rscale>
<asrwt>0</asrwt>
<pdfrwt beam="2">  1        1 0.35608998E-01 0.11514199E+03</pdfrwt>
<pdfrwt beam="1">  1       -1 0.76476878E-02 0.11514199E+03</pdfrwt>
<totfact> 0.10451479E+04</totfact>
</mgrwt>
</event>
<event>
 7    1  0.6419647E-006  0.2101526E+03  0.7546771E-02  0.1145270E+00
          1   -1    0    0  501    0  0.00000000000E+00  0.00000000000E+00  0.66817837495E+03  0.66817837495E+03  0.00000000000E+00 0. -1.
         -1   -1    0    0    0  501 -0.00000000000E+00 -0.00000000000E+00 -0.19536216696E+03  0.19536216696E+03  0.00000000000E+00 0.  1.
         23    2    1    2    0    0 -0.16882436498E+03 -0.62540938002E+01  0.59847128687E+03  0.63429644663E+03  0.12499328420E+03 0.  0.
          5    1    3    3  502    0 -0.87517598293E+02 -0.59207316353E+01  0.49441239065E+03  0.50215544118E+03  0.47000000000E+01 0.  1.
         -5    1    3    3    0  502 -0.81306766684E+02 -0.33336216485E+00  0.10405889622E+03  0.13214100545E+03  0.47000000000E+01 0.  1.
        -11    1    1    2    0    0  0.27881266793E+02  0.14462504605E+02 -0.71387405179E+02  0.77991606572E+02  0.00000000000E+00 0.  1.
         11    1    1    2    0    0  0.14094309818E+03 -0.82084108049E+01 -0.54267673705E+02  0.15125248872E+03  0.00000000000E+00 0. -1.
<mgrwt>
<rscale>  0 0.20538956E+03</rscale>
<asrwt>0</asrwt>
<pdfrwt beam="1">  1        1 0.10279667E+00 0.21015257E+03</pdfrwt>
<pdfrwt beam="2">  1       -1 0.30055718E-01 0.21015257E+03</pdfrwt>
<totfact> 0.31195543E+02</totfact>
</mgrwt>
</event>
<event>
 7    1  0.6419647E-006  0.1396642E+03  0.7546771E-02  0.1222770E+00
          3   -1    0    0  501    0  0.00000000000E+00  0.00000000000E+00  0.11866796104E+03  0.11866796104E+03  0.00000000000E+00 0. -1.
         -3   -1    0    0    0  501 -0.00000000000E+00 -0.00000000000E+00 -0.18700430224E+03  0.18700430224E+03  0.00000000000E+00 0.  1.
         23    2    1    2    0    0  0.13706007879E+02 -0.60769979912E+02  0.42040431663E+02  0.14585431294E+03  0.12500095039E+03 0.  0.
          5    1    3    3  502    0  0.34553758700E+00 -0.52240430301E+02 -0.37586426252E+02  0.64529151495E+02  0.47000000000E+01 0. -1.
         -5    1    3    3    0  502  0.13360470292E+02 -0.85295496109E+01  0.79626857914E+02  0.81325161447E+02  0.47000000000E+01 0. -1.
        -11    1    1    2    0    0  0.23341508986E+02  0.17556903360E+02  0.64065001013E+01  0.29901741436E+02  0.00000000000E+00 0. -1.
         11    1    1    2    0    0 -0.37047516865E+02  0.43213076552E+02 -0.11678327296E+03  0.12991620890E+03  0.00000000000E+00 0.  1.
<mgrwt>
<rscale>  0 0.13320928E+03</rscale>
<asrwt>0</asrwt>
<pdfrwt beam="1">  1        3 0.18256610E-01 0.13966418E+03</pdfrwt>
<pdfrwt beam="2">  1       -3 0.28769892E-01 0.13966418E+03</pdfrwt>
<totfact> 0.71061735E+02</totfact>
</mgrwt>
</event>
<event>
 7    1  0.6419647E-006  0.4135680E+03  0.7546771E-02  0.1039989E+00
          2   -1    0    0  501    0  0.00000000000E+00  0.00000000000E+00  0.40957063725E+03  0.40957063725E+03  0.00000000000E+00 0. -1.
         -2   -1    0    0    0  501 -0.00000000000E+00 -0.00000000000E+00 -0.61192659850E+03  0.61192659850E+03  0.00000000000E+00 0.  1.
         23    2    1    2    0    0 -0.22925762743E+03  0.32071176631E+03  0.19290291736E+03  0.45634417280E+03  0.12499348679E+03 0.  0.
          5    1    3    3  502    0 -0.16928243051E+03  0.29525647286E+03  0.19246148631E+03  0.39101974344E+03  0.47000000000E+01 0.  1.
         -5    1    3    3    0  502 -0.59975196924E+02  0.25455293453E+02  0.44143105155E+00  0.65324429368E+02  0.47000000000E+01 0.  1.
        -11    1    1    2    0    0  0.11578361246E+03 -0.18179493154E+03 -0.27411750278E+03  0.34870567443E+03  0.00000000000E+00 0.  1.
         11    1    1    2    0    0  0.11347401497E+03 -0.13891683477E+03 -0.12114137584E+03  0.21644738852E+03  0.00000000000E+00 0. -1.
<mgrwt>
<rscale>  0 0.41113995E+03</rscale>
<asrwt>0</asrwt>
<pdfrwt beam="1">  1        2 0.63010867E-01 0.41356797E+03</pdfrwt>
<pdfrwt beam="2">  1       -2 0.94142553E-01 0.41356797E+03</pdfrwt>
<totfact> 0.76306538E+01</totfact>
</mgrwt>
</event>
<event>
 7    1  0.6419647E-006  0.1388315E+03  0.7546771E-02  0.1226289E+00
          1   -1    0    0  501    0  0.00000000000E+00  0.00000000000E+00  0.11851341371E+03  0.11851341371E+03  0.00000000000E+00 0. -1.
         -1   -1    0    0    0  501 -0.00000000000E+00 -0.00000000000E+00 -0.15487288807E+03  0.15487288807E+03  0.00000000000E+00 0.  1.
         23    2    1    2    0    0 -0.59138846392E+02 -0.12500291510E+02  0.34537777533E+02  0.14306305880E+03  0.12498207982E+03 0.  0.
          5    1    3    3  502    0 -0.22158650611E+02 -0.57417750290E+02  0.53506077626E+02  0.81687172728E+02  0.47000000000E+01 0.  1.
         -5    1    3    3    0  502 -0.36980195781E+02  0.44917458780E+02 -0.18968300093E+02  0.61375886076E+02  0.47000000000E+01 0.  1.
        -11    1    1    2    0    0 -0.23993305878E+02  0.20364897352E-01 -0.78530831141E+01  0.25245792840E+02  0.00000000000E+00 0. -1.
         11    1    1    2    0    0  0.83132152270E+02  0.12479926613E+02 -0.63044168777E+02  0.10507745013E+03  0.00000000000E+00 0.  1.
<mgrwt>
<rscale>  0 0.13078925E+03</rscale>
<asrwt>0</asrwt>
<pdfrwt beam="1">  1        1 0.18232833E-01 0.13883148E+03</pdfrwt>
<pdfrwt beam="2">  1       -1 0.23826598E-01 0.13883148E+03</pdfrwt>
<totfact> 0.41736101E+03</totfact>
</mgrwt>
</event>
<event>
 7    1  0.6419647E-006  0.2184585E+03  0.7546771E-02  0.1139815E+00
         -2   -1    0    0    0  501 -0.00000000000E+00  0.00000000000E+00  0.10953951415E+04  0.10953951415E+04  0.00000000000E+00 0.  1.
          2   -1    0    0  501    0  0.00000000000E+00 -0.00000000000E+00 -0.39751831655E+02  0.39751831655E+02  0.00000000000E+00 0. -1.
         23    2    1    2    0    0  0.62419780088E+02  0.16793681637E+03  0.47649047840E+03  0.52418250287E+03  0.12500046826E+03 0.  0.
          5    1    3    3  502    0  0.40901147836E+02  0.16742531204E+03  0.29756541150E+03  0.34390609638E+03  0.47000000000E+01 0. -1.
         -5    1    3    3    0  502  0.21518632252E+02  0.51150433459E+00  0.17892506690E+03  0.18027640649E+03  0.47000000000E+01 0. -1.
        -11    1    1    2    0    0  0.15216355815E+02 -0.52715303060E+02  0.18946335445E+03  0.19724807563E+03  0.00000000000E+00 0.  1.
         11    1    1    2    0    0 -0.77636135903E+02 -0.11522151331E+03  0.38968947704E+03  0.41371639470E+03  0.00000000000E+00 0. -1.
<mgrwt>
<rscale>  0 0.21222605E+03</rscale>
<asrwt>0</asrwt>
<pdfrwt beam="2">  1        2 0.61156672E-02 0.21845851E+03</pdfrwt>
<pdfrwt beam="1">  1       -2 0.16852231E+00 0.21845851E+03</pdfrwt>
<totfact> 0.27996494E+02</totfact>
</mgrwt>
</event>
<event>
 7    1  0.6419647E-006  0.1572067E+03  0.7546771E-02  0.1195958E+00
         -2   -1    0    0    0  501 -0.00000000000E+00  0.00000000000E+00  0.30710918947E+02  0.30710918947E+02  0.00000000000E+00 0.  1.
          2   -1    0    0  501    0  0.00000000000E+00 -0.00000000000E+00 -0.82002373535E+03  0.82002373535E+03  0.00000000000E+00 0. -1.
         23    2    1    2    0    0 -0.10938649479E+03  0.40585584595E+01 -0.54538832541E+03  0.56759348894E+03  0.11283645712E+03 0.  0.
          5    1    3    3  502    0 -0.80720463751E+02 -0.23838900457E+02 -0.49938942756E+03  0.50645431858E+03  0.47000000000E+01 0. -1.
         -5    1    3    3    0  502 -0.28666031040E+02  0.27897458917E+02 -0.45998897844E+02  0.61139170362E+02  0.47000000000E+01 0.  1.
        -11    1    1    2    0    0  0.85653884830E+02  0.39338811849E+02 -0.16354266824E+03  0.18875999163E+03  0.00000000000E+00 0.  1.
         11    1    1    2    0    0  0.23732609962E+02 -0.43397370309E+02 -0.80381822752E+02  0.94381173728E+02  0.00000000000E+00 0. -1.
<mgrwt>
<rscale>  0 0.15373410E+03</rscale>
<asrwt>0</asrwt>
<pdfrwt beam="2">  1        2 0.12615748E+00 0.15720669E+03</pdfrwt>
<pdfrwt beam="1">  1       -2 0.47247574E-02 0.15720669E+03</pdfrwt>
<totfact> 0.71394418E+03</totfact>
</mgrwt>
</event>
<event>
 7    1  0.6419647E-006  0.1429036E+03  0.7546771E-02  0.1219603E+00
          2   -1    0    0  501    0  0.00000000000E+00  0.00000000000E+00  0.35756325667E+03  0.35756325667E+03  0.00000000000E+00 0. -1.
         -2   -1    0    0    0  501 -0.00000000000E+00 -0.00000000000E+00 -0.46679448553E+02  0.46679448553E+02  0.00000000000E+00 0.  1.
         23    2    1    2    0    0 -0.53175333895E+02 -0.44359210029E+02  0.16447577279E+03  0.21788462677E+03  0.12500430032E+03 0.  0.
          5    1    3    3  502    0 -0.28529412812E+02 -0.65364313174E+02  0.26734848468E+02  0.76310307002E+02  0.47000000000E+01 0. -1.
         -5    1    3    3    0  502 -0.24645921082E+02  0.21005103146E+02  0.13774092432E+03  0.14157431976E+03  0.47000000000E+01 0. -1.
        -11    1    1    2    0    0  0.23519478427E+02  0.30858674139E+02  0.14871416334E+03  0.15369230954E+03  0.00000000000E+00 0. -1.
         11    1    1    2    0    0  0.29655855468E+02  0.13500535890E+02 -0.23061280019E+01  0.32665768921E+02  0.00000000000E+00 0.  1.
<mgrwt>
<rscale>  0 0.13543763E+03</rscale>
<asrwt>0</asrwt>
<pdfrwt beam="1">  1        2 0.55009730E-01 0.14290357E+03</pdfrwt>
<pdfrwt beam="2">  1       -2 0.71814539E-02 0.14290357E+03</pdfrwt>
<totfact> 0.96259594E+03</totfact>
</mgrwt>
</event>
<event>
 7    1  0.6419647E-006  0.1254132E+03  0.7546771E-02  0.1249483E+00
         -2   -1    0    0    0  501 -0.00000000000E+00  0.00000000000E+00  0.13714380099E+03  0.13714380099E+03  0.00000000000E+00 0. -1.
          2   -1    0    0  501    0  0.00000000000E+00 -0.00000000000E+00 -0.11284785679E+03  0.11284785679E+03  0.00000000000E+00 0.  1.
         23    2    1    2    0    0  0.69914341110E+01 -0.74066819066E+01 -0.46274986282E+02  0.13367812586E+03  0.12499891155E+03 0.  0.
          5    1    3    3  502    0  0.48378639992E+01 -0.65203556806E+02 -0.13136777470E+02  0.66854870208E+02  0.47000000000E+01 0. -1.
         -5    1    3    3    0  502  0.21535701118E+01  0.57796874899E+02 -0.33138208811E+02  0.66823255649E+02  0.47000000000E+01 0. -1.
        -11    1    1    2    0    0 -0.60664398674E+01  0.44323460919E+02  0.65088715558E+02  0.78980451845E+02  0.00000000000E+00 0. -1.
         11    1    1    2    0    0 -0.92499424353E+00 -0.36916779013E+02  0.54822149229E+01  0.37333080070E+02  0.00000000000E+00 0.  1.
<mgrwt>
<rscale>  0 0.11621017E+03</rscale>
<asrwt>0</asrwt>
<pdfrwt beam="2">  1        2 0.17361209E-01 0.12541319E+03</pdfrwt>
<pdfrwt beam="1">  1       -2 0.21099046E-01 0.12541319E+03</pdfrwt>
<totfact> 0.59285789E+03</totfact>
</mgrwt>
</event>
<event>
 7    1  0.6419647E-006  0.1254934E+03  0.7546771E-02  0.1249752E+00
         -2   -1    0    0    0  501 -0.00000000000E+00  0.00000000000E+00  0.18308512620E+03  0.18308512620E+03  0.00000000000E+00 0. -1.
          2   -1    0    0  501    0  0.00000000000E+00 -0.00000000000E+00 -0.65647543311E+02  0.65647543311E+02  0.00000000000E+00 0.  1.
         23    2    1    2    0    0 -0.67076628301E+01  0.88396669685E+01  0.84149392283E+02  0.15109504058E+03  0.12500183444E+03 0.  0.
          5    1    3    3  502    0  0.15361837934E+02  0.21765883490E+02 -0.26237763722E+02  0.37686204292E+02  0.47000000000E+01 0.  1.
         -5    1    3    3    0  502 -0.22069500764E+02 -0.12926216521E+02  0.11038715600E+03  0.11340883629E+03  0.47000000000E+01 0.  1.
        -11    1    1    2    0    0 -0.17225232744E+02 -0.30698203692E+02 -0.15984419515E+02  0.38659927835E+02  0.00000000000E+00 0.  1.
         11    1    1    2    0    0  0.23932895574E+02  0.21858536724E+02  0.49272610118E+02  0.58977701092E+02  0.00000000000E+00 0. -1.
<mgrwt>
<rscale>  0 0.11605448E+03</rscale>
<asrwt>0</asrwt>
<pdfrwt beam="2">  1        2 0.10099622E-01 0.12549339E+03</pdfrwt>
<pdfrwt beam="1">  1       -2 0.28166942E-01 0.12549339E+03</pdfrwt>
<totfact> 0.68212110E+03</totfact>
</mgrwt>
</event>
<event>
 7    1  0.6419647E-006  0.1269056E+03  0.7546771E-02  0.1246944E+00
          1   -1    0    0  501    0  0.00000000000E+00  0.00000000000E+00  0.16731982816E+02  0.16731982816E+02  0.00000000000E+00 0. -1.
         -1   -1    0    0    0  501 -0.00000000000E+00 -0.00000000000E+00 -0.72869221387E+03  0.72869221387E+03  0.00000000000E+00 0.  1.
         23    2    1    2    0    0  0.20851522314E+02  0.67938556791E+01 -0.40204750097E+03  0.42160078000E+03  0.12499632875E+03 0.  0.
          5    1    3    3  502    0 -0.25505899348E+02  0.39045415551E+01 -0.12127036343E+02  0.28895524858E+02  0.47000000000E+01 0. -1.
         -5    1    3    3    0  502  0.46357421662E+02  0.28893141240E+01 -0.38992046463E+03  0.39270525514E+03  0.47000000000E+01 0. -1.
        -11    1    1    2    0    0 -0.47180667909E+02  0.30853618748E+01 -0.27479837253E+03  0.27883629682E+03  0.00000000000E+00 0.  1.
         11    1    1    2    0    0  0.26329145596E+02 -0.98792175539E+01 -0.35114357556E+02  0.44987119866E+02  0.00000000000E+00 0. -1.
<mgrwt>
<rscale>  0 0.11769761E+03</rscale>
<asrwt>0</asrwt>
<pdfrwt beam="1">  1        1 0.25741516E-02 0.12690557E+03</pdfrwt>
<pdfrwt beam="2">  1       -1 0.11210648E+00 0.12690557E+03</pdfrwt>
<totfact> 0.31480598E+03</totfact>
</mgrwt>
</event>
<event>
 7    1  0.6419647E-006  0.1270278E+03  0.7546771E-02  0.1246152E+00
          1   -1    0    0  501    0  0.00000000000E+00  0.00000000000E+00  0.51903207146E+02  0.51903207146E+02  0.00000000000E+00 0. -1.
         -1   -1    0    0    0  501 -0.00000000000E+00 -0.00000000000E+00 -0.23882503402E+03  0.23882503402E+03  0.00000000000E+00 0.  1.
         23    2    1    2    0    0  0.13777099938E+02 -0.17911987883E+02 -0.96976276926E+02  0.15981384286E+03  0.12500167316E+03 0.  0.
          5    1    3    3  502    0  0.47256772445E+02 -0.61751229430E+01 -0.11137807376E+03  0.12123737048E+03  0.47000000000E+01 0. -1.
         -5    1    3    3    0  502 -0.33479672508E+02 -0.11736864940E+02  0.14401796834E+02  0.38576472388E+02  0.47000000000E+01 0. -1.
        -11    1    1    2    0    0  0.39506633559E+02  0.10571583701E+02 -0.32680296759E+02  0.52350112449E+02  0.00000000000E+00 0.  1.
         11    1    1    2    0    0 -0.53283733497E+02  0.73404041818E+01 -0.57265253186E+02  0.78564285852E+02  0.00000000000E+00 0. -1.
<mgrwt>
<rscale>  0 0.11816680E+03</rscale>
<asrwt>0</asrwt>
<pdfrwt beam="1">  1        1 0.79851090E-02 0.12702782E+03</pdfrwt>
<pdfrwt beam="2">  1       -1 0.36742312E-01 0.12702782E+03</pdfrwt>
<totfact> 0.59197339E+03</totfact>
</mgrwt>
</event>
<event>
 7    1  0.6419647E-006  0.2370339E+03  0.7546771E-02  0.1124801E+00
          2   -1    0    0  501    0  0.00000000000E+00  0.00000000000E+00  0.16874690019E+04  0.16874690019E+04  0.00000000000E+00 0. -1.
         -2   -1    0    0    0  501 -0.00000000000E+00 -0.00000000000E+00 -0.31215681138E+02  0.31215681138E+02  0.00000000000E+00 0.  1.
         23    2    1    2    0    0 -0.18894649150E+03  0.69712772329E+02  0.94048748837E+03  0.96989782309E+03  0.12499769666E+03 0.  0.
          5    1    3    3  502    0 -0.13178058901E+03  0.29645489898E+02  0.81580814869E+03  0.82692805260E+03  0.47000000000E+01 0.  1.
         -5    1    3    3    0  502 -0.57165902495E+02  0.40067282431E+02  0.12467933968E+03  0.14296977049E+03  0.47000000000E+01 0.  1.
        -11    1    1    2    0    0  0.57056754287E+02  0.17798468336E+02  0.15546199142E+03  0.16655536455E+03  0.00000000000E+00 0.  1.
         11    1    1    2    0    0  0.13188973721E+03 -0.87511240665E+02  0.56030384093E+03  0.58223149536E+03  0.00000000000E+00 0. -1.
<mgrwt>
<rscale>  0 0.23263218E+03</rscale>
<asrwt>0</asrwt>
<pdfrwt beam="1">  1        2 0.25961054E+00 0.23703390E+03</pdfrwt>
<pdfrwt beam="2">  1       -2 0.48024138E-02 0.23703390E+03</pdfrwt>
<totfact> 0.22605590E+03</totfact>
</mgrwt>
</event>
<event>
 7    1  0.6419647E-006  0.1620375E+03  0.7546771E-02  0.1193973E+00
          2   -1    0    0  501    0  0.00000000000E+00  0.00000000000E+00  0.62991311605E+03  0.62991311605E+03  0.00000000000E+00 0. -1.
         -2   -1    0    0    0  501 -0.00000000000E+00 -0.00000000000E+00 -0.37940051133E+02  0.37940051133E+02  0.00000000000E+00 0.  1.
         23    2    1    2    0    0  0.54052706236E+02 -0.87804924139E+02  0.40311063612E+03  0.43445866455E+03  0.12499898599E+03 0.  0.
          5    1    3    3  502    0 -0.21067574107E+02 -0.80784499551E+02  0.25170000682E+03  0.26522624583E+03  0.47000000000E+01 0. -1.
         -5    1    3    3    0  502  0.75120280343E+02 -0.70204245888E+01  0.15141062930E+03  0.16923241872E+03  0.47000000000E+01 0. -1.
        -11    1    1    2    0    0 -0.40497172426E+00  0.83233338333E+02  0.11777584292E+03  0.14421893699E+03  0.00000000000E+00 0.  1.
         11    1    1    2    0    0 -0.53647734511E+02  0.45715858067E+01  0.71086585885E+02  0.89175565644E+02  0.00000000000E+00 0. -1.
<mgrwt>
<rscale>  0 0.15541496E+03</rscale>
<asrwt>0</asrwt>
<pdfrwt beam="1">  1        2 0.96909702E-01 0.16203748E+03</pdfrwt>
<pdfrwt beam="2">  1       -2 0.58369314E-02 0.16203748E+03</pdfrwt>
<totfact> 0.71431281E+03</totfact>
</mgrwt>
</event>
<event>
 6    1  0.6419647E-006  0.1716483E+03  0.7546771E-02  0.1202076E+00
          1   -1    0    0  501    0  0.00000000000E+00  0.00000000000E+00  0.91407347643E+03  0.91407347643E+03  0.00000000000E+00 0. -1.
         -1   -1    0    0    0  501 -0.00000000000E+00 -0.00000000000E+00 -0.20145223582E+02  0.20145223582E+02  0.00000000000E+00 0.  1.
          5    1    1    2  502    0  0.68018951170E+01  0.20843924874E+02 -0.11057399161E+00  0.22424031928E+02  0.47000000000E+01 0. -1.
         -5    1    1    2    0  502  0.15572803526E+02  0.20106490664E+01  0.63640354260E+03  0.63661457253E+03  0.47000000000E+01 0.  1.
        -11    1    1    2    0    0 -0.43133401091E+01  0.32416409151E+02  0.14238381922E+03  0.14609100062E+03  0.00000000000E+00 0. -1.
         11    1    1    2    0    0 -0.18061358534E+02 -0.55270983091E+02  0.11525146502E+03  0.12908909494E+03  0.00000000000E+00 0.  1.
<mgrwt>
<rscale>  0 0.14870320E+03</rscale>
<asrwt>0</asrwt>
<pdfrwt beam="1">  1        1 0.14062666E+00 0.17164830E+03</pdfrwt>
<pdfrwt beam="2">  1       -1 0.30992659E-02 0.17164830E+03</pdfrwt>
<totfact> 0.65613634E+03</totfact>
</mgrwt>
</event>
<event>
 7    1  0.6419647E-006  0.1450894E+03  0.7546771E-02  0.1215748E+00
          1   -1    0    0  501    0  0.00000000000E+00  0.00000000000E+00  0.11433464373E+04  0.11433464373E+04  0.00000000000E+00 0. -1.
         -1   -1    0    0    0  501 -0.00000000000E+00 -0.00000000000E+00 -0.15905649891E+02  0.15905649891E+02  0.00000000000E+00 0.  1.
         23    2    1    2    0    0  0.29081758076E+02  0.67683965888E+02  0.72815763368E+03  0.74247187375E+03  0.12499630372E+03 0.  0.
          5    1    3    3  502    0  0.42275876047E+02  0.87603559760E+02  0.34332010751E+03  0.35686470770E+03  0.47000000000E+01 0. -1.
         -5    1    3    3    0  502 -0.13194117972E+02 -0.19919593872E+02  0.38483752616E+03  0.38560716606E+03  0.47000000000E+01 0. -1.
        -11    1    1    2    0    0 -0.26517534099E+01  0.20223509104E+02  0.30125350936E+02  0.36380748833E+02  0.00000000000E+00 0.  1.
         11    1    1    2    0    0 -0.26430004666E+02 -0.87907474992E+02  0.36915780281E+03  0.38039946462E+03  0.00000000000E+00 0. -1.
<mgrwt>
<rscale>  0 0.13821748E+03</rscale>
<asrwt>0</asrwt>
<pdfrwt beam="1">  1        1 0.17589939E+00 0.14508943E+03</pdfrwt>
<pdfrwt beam="2">  1       -1 0.24470240E-02 0.14508943E+03</pdfrwt>
<totfact> 0.62572441E+03</totfact>
</mgrwt>
</event>
<event>
 6    1  0.6419647E-006  0.1815380E+03  0.7546771E-02  0.1220464E+00
         -2   -1    0    0    0  501 -0.00000000000E+00  0.00000000000E+00  0.26713819590E+02  0.26713819590E+02  0.00000000000E+00 0.  1.
          2   -1    0    0  501    0  0.00000000000E+00 -0.00000000000E+00 -0.69865553007E+03  0.69865553007E+03  0.00000000000E+00 0. -1.
          5    1    1    2  502    0  0.46438777951E+02 -0.29331794835E+02 -0.39352760016E+03  0.39737007484E+03  0.47000000000E+01 0. -1.
         -5    1    1    2    0  502 -0.71512846042E+02  0.75296794986E+02 -0.23752989342E+03  0.25928022438E+03  0.47000000000E+01 0.  1.
        -11    1    1    2    0    0  0.25988909659E+02 -0.31936398249E+02 -0.30313344151E+02  0.51129793584E+02  0.00000000000E+00 0.  1.
         11    1    1    2    0    0 -0.91484156774E+00 -0.14028601902E+02 -0.10570872751E+02  0.17589256867E+02  0.00000000000E+00 0. -1.
<mgrwt>
<rscale>  0 0.13482711E+03</rscale>
<asrwt>0</asrwt>
<pdfrwt beam="2">  1        2 0.10748548E+00 0.18153803E+03</pdfrwt>
<pdfrwt beam="1">  1       -2 0.41098178E-02 0.18153803E+03</pdfrwt>
<totfact> 0.10800703E+04</totfact>
</mgrwt>
</event>
<event>
 7    1  0.6419647E-006  0.1488389E+03  0.7546771E-02  0.1213333E+00
          2   -1    0    0  501    0  0.00000000000E+00  0.00000000000E+00  0.83710796424E+03  0.83710796424E+03  0.00000000000E+00 0. -1.
         -2   -1    0    0    0  501 -0.00000000000E+00 -0.00000000000E+00 -0.21714178059E+02  0.21714178059E+02  0.00000000000E+00 0.  1.
         23    2    1    2    0    0 -0.80766773313E+02  0.21820508763E+01  0.53169925765E+03  0.55213867882E+03  0.12499994817E+03 0.  0.
          5    1    3    3  502    0 -0.88892116499E+02  0.29827610060E+02  0.50120472583E+03  0.50992132912E+03  0.47000000000E+01 0. -1.
         -5    1    3    3    0  502  0.81253431852E+01 -0.27645559184E+02  0.30494531820E+02  0.42217349696E+02  0.47000000000E+01 0. -1.
        -11    1    1    2    0    0  0.51837951704E+02  0.39910416321E+02  0.16037578652E+03  0.17320625702E+03  0.00000000000E+00 0.  1.
         11    1    1    2    0    0  0.28928821609E+02 -0.42092467198E+02  0.12331874201E+03  0.13347720647E+03  0.00000000000E+00 0. -1.
<mgrwt>
<rscale>  0 0.13999692E+03</rscale>
<asrwt>0</asrwt>
<pdfrwt beam="1">  1        2 0.12878582E+00 0.14883891E+03</pdfrwt>
<pdfrwt beam="2">  1       -2 0.33406434E-02 0.14883891E+03</pdfrwt>
<totfact> 0.11624451E+04</totfact>
</mgrwt>
</event>
<event>
 7    1  0.6419647E-006  0.1276501E+03  0.7546771E-02  0.1238259E+00
         -2   -1    0    0    0  501 -0.00000000000E+00  0.00000000000E+00  0.50793278086E+03  0.50793278086E+03  0.00000000000E+00 0. -1.
          2   -1    0    0  501    0  0.00000000000E+00 -0.00000000000E+00 -0.31934274657E+02  0.31934274657E+02  0.00000000000E+00 0.  1.
         23    2    1    2    0    0 -0.17868779174E+02 -0.18719247304E+02  0.15641808400E+03  0.20189397103E+03  0.12499942019E+03 0.  0.
          5    1    3    3  502    0  0.19008180788E+02 -0.31193048196E+02 -0.37275548275E+01  0.37017588490E+02  0.47000000000E+01 0.  1.
         -5    1    3    3    0  502 -0.36876959962E+02  0.12473800892E+02  0.16014563883E+03  0.16487638254E+03  0.47000000000E+01 0.  1.
        -11    1    1    2    0    0  0.28716911394E+02 -0.33570675194E+02  0.22555220942E+03  0.22983787853E+03  0.00000000000E+00 0. -1.
         11    1    1    2    0    0 -0.10848132220E+02  0.52289922498E+02  0.94028212778E+02  0.10813520595E+03  0.00000000000E+00 0.  1.
<mgrwt>
<rscale>  0 0.12298098E+03</rscale>
<asrwt>0</asrwt>
<pdfrwt beam="2">  1        2 0.49129657E-02 0.12765014E+03</pdfrwt>
<pdfrwt beam="1">  1       -2 0.78143499E-01 0.12765014E+03</pdfrwt>
<totfact> 0.23065385E+03</totfact>
</mgrwt>
</event>
<event>
 7    1  0.6419647E-006  0.1643173E+03  0.7546771E-02  0.1191958E+00
          1   -1    0    0  501    0  0.00000000000E+00  0.00000000000E+00  0.46792770211E+03  0.46792770211E+03  0.00000000000E+00 0. -1.
         -1   -1    0    0    0  501 -0.00000000000E+00 -0.00000000000E+00 -0.54095303388E+02  0.54095303388E+02  0.00000000000E+00 0.  1.
         23    2    1    2    0    0 -0.74697568954E+02 -0.76120962471E+02  0.30596794219E+03  0.34729896466E+03  0.12500424581E+03 0.  0.
          5    1    3    3  502    0  0.38770730478E+01  0.30346028874E+02  0.44335487738E+02  0.54070681860E+02  0.47000000000E+01 0. -1.
         -5    1    3    3    0  502 -0.78574642002E+02 -0.10646699134E+03  0.26163245446E+03  0.29322828280E+03  0.47000000000E+01 0. -1.
        -11    1    1    2    0    0  0.70056549133E+02  0.10563980615E+02  0.46040826686E+02  0.84494233441E+02  0.00000000000E+00 0.  1.
         11    1    1    2    0    0  0.46410198213E+01  0.65556981856E+02  0.61823629837E+02  0.90229807388E+02  0.00000000000E+00 0. -1.
<mgrwt>
<rscale>  0 0.15714563E+03</rscale>
<asrwt>0</asrwt>
<pdfrwt beam="1">  1        1 0.71988875E-01 0.16431734E+03</pdfrwt>
<pdfrwt beam="2">  1       -1 0.83223547E-02 0.16431734E+03</pdfrwt>
<totfact> 0.39029940E+03</totfact>
</mgrwt>
</event>
<event>
 7    1  0.6419647E-006  0.1391039E+03  0.7546771E-02  0.1226792E+00
          2   -1    0    0  501    0  0.00000000000E+00  0.00000000000E+00  0.19194814151E+03  0.19194814151E+03  0.00000000000E+00 0. -1.
         -2   -1    0    0    0  501 -0.00000000000E+00 -0.00000000000E+00 -0.92118406436E+02  0.92118406436E+02  0.00000000000E+00 0.  1.
         23    2    1    2    0    0 -0.15666538249E+01  0.61009732924E+02  0.10809745236E+03  0.17616742607E+03  0.12500104354E+03 0.  0.
          5    1    3    3  502    0  0.18335895111E+02  0.96135056958E+02  0.82900246215E+02  0.12834599740E+03  0.47000000000E+01 0. -1.
         -5    1    3    3    0  502 -0.19902548935E+02 -0.35125324035E+02  0.25197206147E+02  0.47821428672E+02  0.47000000000E+01 0. -1.
        -11    1    1    2    0    0 -0.11348228716E+02 -0.70364540769E+02 -0.32943416016E+02  0.78518912062E+02  0.00000000000E+00 0.  1.
         11    1    1    2    0    0  0.12914882541E+02  0.93548078455E+01  0.24675698727E+02  0.29380209811E+02  0.00000000000E+00 0. -1.
<mgrwt>
<rscale>  0 0.13044858E+03</rscale>
<asrwt>0</asrwt>
<pdfrwt beam="1">  1        2 0.29530483E-01 0.13910393E+03</pdfrwt>
<pdfrwt beam="2">  1       -2 0.14172063E-01 0.13910393E+03</pdfrwt>
<totfact> 0.63965925E+03</totfact>
</mgrwt>
</event>
<event>
 7    1  0.6419647E-006  0.1347722E+03  0.7546771E-02  0.1232416E+00
          2   -1    0    0  501    0  0.00000000000E+00  0.00000000000E+00  0.67795697090E+03  0.67795697090E+03  0.00000000000E+00 0.  1.
         -2   -1    0    0    0  501 -0.00000000000E+00 -0.00000000000E+00 -0.22292451145E+02  0.22292451145E+02  0.00000000000E+00 0. -1.
         23    2    1    2    0    0  0.24773213010E+01 -0.50391394328E+02  0.44115646662E+03  0.46128360579E+03  0.12497242569E+03 0.  0.
          5    1    3    3  502    0  0.45167877601E+01 -0.71751265152E+02  0.43118115423E+03  0.43715892211E+03  0.47000000000E+01 0. -1.
         -5    1    3    3    0  502 -0.20394664591E+01  0.21359870824E+02  0.99753123959E+01  0.24124683676E+02  0.47000000000E+01 0. -1.
        -11    1    1    2    0    0  0.44042899236E+02  0.35129247549E+02  0.11690326263E+03  0.12976984943E+03  0.00000000000E+00 0. -1.
         11    1    1    2    0    0 -0.46520220537E+02  0.15262146779E+02  0.97604790501E+02  0.10919596683E+03  0.00000000000E+00 0.  1.
<mgrwt>
<rscale>  0 0.12671303E+03</rscale>
<asrwt>0</asrwt>
<pdfrwt beam="1">  1        2 0.10430106E+00 0.13477217E+03</pdfrwt>
<pdfrwt beam="2">  1       -2 0.34296084E-02 0.13477217E+03</pdfrwt>
<totfact> 0.14366982E+04</totfact>
</mgrwt>
</event>
<event>
 7    1  0.6419647E-006  0.3499437E+03  0.7546771E-02  0.1063732E+00
          2   -1    0    0  501    0  0.00000000000E+00  0.00000000000E+00  0.71960551275E+03  0.71960551275E+03  0.00000000000E+00 0. -1.
         -2   -1    0    0    0  501 -0.00000000000E+00 -0.00000000000E+00 -0.17679719912E+03  0.17679719912E+03  0.00000000000E+00 0.  1.
         23    2    1    2    0    0 -0.18056596335E+03 -0.27245135310E+03  0.39044573432E+03  0.52431716288E+03  0.12500723545E+03 0.  0.
          5    1    3    3  502    0  0.28195789159E+01 -0.92485267669E+02  0.11342143846E+03  0.14645131431E+03  0.47000000000E+01 0. -1.
         -5    1    3    3    0  502 -0.18338554227E+03 -0.17996608543E+03  0.27702429587E+03  0.37786584857E+03  0.47000000000E+01 0. -1.
        -11    1    1    2    0    0  0.11706882498E+03  0.19315581242E+03  0.57438963361E+02  0.23305259528E+03  0.00000000000E+00 0.  1.
         11    1    1    2    0    0  0.63497138372E+02  0.79295540677E+02  0.94923615947E+02  0.13903295371E+03  0.00000000000E+00 0. -1.
<mgrwt>
<rscale>  0 0.34729291E+03</rscale>
<asrwt>0</asrwt>
<pdfrwt beam="1">  1        2 0.11070854E+00 0.34994373E+03</pdfrwt>
<pdfrwt beam="2">  1       -2 0.27199569E-01 0.34994373E+03</pdfrwt>
<totfact> 0.49607991E+02</totfact>
</mgrwt>
</event>
<event>
 7    1  0.6419647E-006  0.1352720E+03  0.7546771E-02  0.1231792E+00
          1   -1    0    0  501    0  0.00000000000E+00  0.00000000000E+00  0.16396245665E+03  0.16396245665E+03  0.00000000000E+00 0. -1.
         -1   -1    0    0    0  501 -0.00000000000E+00 -0.00000000000E+00 -0.92930838073E+02  0.92930838073E+02  0.00000000000E+00 0.  1.
         23    2    1    2    0    0  0.39325814553E+02 -0.33593153019E+02  0.67884831459E+02  0.15135016045E+03  0.12499400429E+03 0.  0.
          5    1    3    3  502    0  0.24975273378E+02 -0.28839226871E+02  0.10456121362E+03  0.11140288452E+03  0.47000000000E+01 0.  1.
         -5    1    3    3    0  502  0.14350541175E+02 -0.47539261486E+01 -0.36676382160E+02  0.39947275930E+02  0.47000000000E+01 0.  1.
        -11    1    1    2    0    0  0.16176763529E+02  0.16764481035E+02 -0.30586762567E+02  0.38448479125E+02  0.00000000000E+00 0.  1.
         11    1    1    2    0    0 -0.55502578082E+02  0.16828671985E+02  0.33733549685E+02  0.67094655144E+02  0.00000000000E+00 0. -1.
<mgrwt>
<rscale>  0 0.12712039E+03</rscale>
<asrwt>0</asrwt>
<pdfrwt beam="1">  1        1 0.25224993E-01 0.13527202E+03</pdfrwt>
<pdfrwt beam="2">  1       -1 0.14297052E-01 0.13527202E+03</pdfrwt>
<totfact> 0.62401674E+03</totfact>
</mgrwt>
</event>
<event>
 7    1  0.6419647E-006  0.1567120E+03  0.7546771E-02  0.1201116E+00
         -1   -1    0    0    0  501 -0.00000000000E+00  0.00000000000E+00  0.88340195402E+02  0.88340195402E+02  0.00000000000E+00 0.  1.
          1   -1    0    0  501    0  0.00000000000E+00 -0.00000000000E+00 -0.37787310941E+03  0.37787310941E+03  0.00000000000E+00 0. -1.
         23    2    1    2    0    0  0.93080771823E+02 -0.16457664212E+02 -0.29749808631E+03  0.33624953220E+03  0.12499500691E+03 0.  0.
          5    1    3    3  502    0  0.15517261885E+02 -0.61003243326E+02 -0.86985265758E+02  0.10747421817E+03  0.47000000000E+01 0. -1.
         -5    1    3    3    0  502  0.77563509938E+02  0.44545579114E+02 -0.21051282055E+03  0.22877531403E+03  0.47000000000E+01 0. -1.
        -11    1    1    2    0    0  0.86388802942E+01  0.75500820112E+01  0.24001983863E+02  0.26603180646E+02  0.00000000000E+00 0.  1.
         11    1    1    2    0    0 -0.10171965212E+03  0.89075822004E+01 -0.16036811568E+02  0.10336059197E+03  0.00000000000E+00 0. -1.
<mgrwt>
<rscale>  0 0.14947821E+03</rscale>
<asrwt>0</asrwt>
<pdfrwt beam="2">  1        1 0.58134325E-01 0.15671195E+03</pdfrwt>
<pdfrwt beam="1">  1       -1 0.13590799E-01 0.15671195E+03</pdfrwt>
<totfact> 0.24063403E+03</totfact>
</mgrwt>
</event>
<event>
 7    1  0.6419647E-006  0.1292478E+03  0.7546771E-02  0.1237345E+00
          2   -1    0    0  501    0  0.00000000000E+00  0.00000000000E+00  0.21569100072E+03  0.21569100072E+03  0.00000000000E+00 0. -1.
         -2   -1    0    0    0  501 -0.00000000000E+00 -0.00000000000E+00 -0.15657330580E+03  0.15657330580E+03  0.00000000000E+00 0.  1.
         23    2    1    2    0    0  0.33060285024E+02 -0.47229134975E+02  0.17261252657E+03  0.21563878444E+03  0.11567811975E+03 0.  0.
          5    1    3    3  502    0  0.35317955686E+02  0.63314867358E+01  0.15476976191E+03  0.15894406224E+03  0.47000000000E+01 0. -1.
         -5    1    3    3    0  502 -0.22576706624E+01 -0.53560621711E+02  0.17842764654E+02  0.56694722200E+02  0.47000000000E+01 0.  1.
        -11    1    1    2    0    0  0.26672109144E+02 -0.60066365096E+01 -0.36310687248E+02  0.45452690754E+02  0.00000000000E+00 0. -1.
         11    1    1    2    0    0 -0.59732394169E+02  0.53235771485E+02 -0.77184144394E+02  0.11117283132E+03  0.00000000000E+00 0.  1.
<mgrwt>
<rscale>  0 0.12355502E+03</rscale>
<asrwt>0</asrwt>
<pdfrwt beam="1">  1        2 0.33183231E-01 0.12924783E+03</pdfrwt>
<pdfrwt beam="2">  1       -2 0.24088201E-01 0.12924783E+03</pdfrwt>
<totfact> 0.23090402E+03</totfact>
</mgrwt>
</event>
<event>
 6    1  0.6419647E-006  0.1975583E+03  0.7546771E-02  0.1169402E+00
         -1   -1    0    0    0  501 -0.00000000000E+00  0.00000000000E+00  0.73587271852E+02  0.73587271852E+02  0.00000000000E+00 0.  1.
          1   -1    0    0  501    0  0.00000000000E+00 -0.00000000000E+00 -0.50689717920E+03  0.50689717920E+03  0.00000000000E+00 0. -1.
          5    1    1    2  502    0  0.13581473826E+03  0.24670450699E+02 -0.24211155671E+03  0.27873709864E+03  0.47000000000E+01 0. -1.
         -5    1    1    2    0  502 -0.52663450078E+02  0.17892823211E+02 -0.15626124024E+03  0.16593148375E+03  0.47000000000E+01 0.  1.
        -11    1    1    2    0    0 -0.76980292273E+02 -0.26404302973E+02  0.15190093678E+02  0.82788233221E+02  0.00000000000E+00 0.  1.
         11    1    1    2    0    0 -0.61709959111E+01 -0.16158970937E+02 -0.50127204075E+02  0.53027635443E+02  0.00000000000E+00 0. -1.
<mgrwt>
<rscale>  0 0.17835791E+03</rscale>
<asrwt>0</asrwt>
<pdfrwt beam="2">  1        1 0.77984178E-01 0.19755825E+03</pdfrwt>
<pdfrwt beam="1">  1       -1 0.11321119E-01 0.19755825E+03</pdfrwt>
<totfact> 0.22051683E+03</totfact>
</mgrwt>
</event>
<event>
 7    1  0.6419647E-006  0.1504932E+03  0.7546771E-02  0.1208993E+00
         -2   -1    0    0    0  501 -0.00000000000E+00  0.00000000000E+00  0.36305439537E+02  0.36305439537E+02  0.00000000000E+00 0.  1.
          2   -1    0    0  501    0  0.00000000000E+00 -0.00000000000E+00 -0.52070248677E+03  0.52070248677E+03  0.00000000000E+00 0. -1.
         23    2    1    2    0    0  0.63420938680E+02  0.50323283168E+02 -0.28784665622E+03  0.32481364858E+03  0.12686039775E+03 0.  0.
          5    1    3    3  502    0  0.33850478404E+02  0.19557406119E+02 -0.27799156144E+03  0.28076635349E+03  0.47000000000E+01 0. -1.
         -5    1    3    3    0  502  0.29570460276E+02  0.30765877049E+02 -0.98550947807E+01  0.44047295089E+02  0.47000000000E+01 0.  1.
        -11    1    1    2    0    0  0.19086089417E+02  0.92524345530E+01 -0.25599848696E+02  0.33245129082E+02  0.00000000000E+00 0. -1.
         11    1    1    2    0    0 -0.82507028098E+02 -0.59575717721E+02 -0.17095054232E+03  0.19894914864E+03  0.00000000000E+00 0.  1.
<mgrwt>
<rscale>  0 0.14327178E+03</rscale>
<asrwt>0</asrwt>
<pdfrwt beam="2">  1        2 0.80108075E-01 0.15049322E+03</pdfrwt>
<pdfrwt beam="1">  1       -2 0.55854523E-02 0.15049322E+03</pdfrwt>
<totfact> 0.94340662E+03</totfact>
</mgrwt>
</event>
<event>
 6    1  0.6419647E-006  0.2665838E+03  0.7546771E-02  0.1141247E+00
         -2   -1    0    0    0  501 -0.00000000000E+00  0.00000000000E+00  0.92346110610E+02  0.92346110610E+02  0.00000000000E+00 0.  1.
          2   -1    0    0  501    0  0.00000000000E+00 -0.00000000000E+00 -0.37088179479E+03  0.37088179479E+03  0.00000000000E+00 0. -1.
          5    1    1    2  502    0 -0.65571212806E+02  0.37775109152E+02 -0.24597094064E+03  0.25739140712E+03  0.47000000000E+01 0. -1.
         -5    1    1    2    0  502  0.32433972539E+02 -0.42190789096E+02  0.50236343770E+02  0.73333522312E+02  0.47000000000E+01 0.  1.
        -11    1    1    2    0    0 -0.11483694974E+02  0.42564205793E+02 -0.28222853650E+02  0.52346120518E+02  0.00000000000E+00 0.  1.
         11    1    1    2    0    0  0.44620935241E+02 -0.38148525849E+02 -0.54578233660E+02  0.80156855450E+02  0.00000000000E+00 0. -1.
<mgrwt>
<rscale>  0 0.21040377E+03</rscale>
<asrwt>0</asrwt>
<pdfrwt beam="2">  1        2 0.57058737E-01 0.26658385E+03</pdfrwt>
<pdfrwt beam="1">  1       -2 0.14207094E-01 0.26658385E+03</pdfrwt>
<totfact> 0.32333049E+03</totfact>
</mgrwt>
</event>
<event>
 7    1  0.6419647E-006  0.1303317E+03  0.7546771E-02  0.1240004E+00
          2   -1    0    0  501    0  0.00000000000E+00  0.00000000000E+00  0.89716080254E+02  0.89716080254E+02  0.00000000000E+00 0. -1.
         -2   -1    0    0    0  501 -0.00000000000E+00 -0.00000000000E+00 -0.17901771495E+03  0.17901771495E+03  0.00000000000E+00 0.  1.
         23    2    1    2    0    0  0.10056383401E+02 -0.35479613529E+02  0.64411301783E+01  0.13049074113E+03  0.12500564603E+03 0.  0.
          5    1    3    3  502    0  0.18479560924E+02 -0.27922069354E+02  0.63602182597E+02  0.72030991664E+02  0.47000000000E+01 0.  1.
         -5    1    3    3    0  502 -0.84231775223E+01 -0.75575441743E+01 -0.57161052419E+02  0.58459749462E+02  0.47000000000E+01 0.  1.
        -11    1    1    2    0    0 -0.29950330522E+02 -0.19396628189E+00 -0.92546599981E+02  0.97272468301E+02  0.00000000000E+00 0.  1.
         11    1    1    2    0    0  0.19893947121E+02  0.35673579810E+02 -0.31961648898E+01  0.40970585773E+02  0.00000000000E+00 0. -1.
<mgrwt>
<rscale>  0 0.12189479E+03</rscale>
<asrwt>0</asrwt>
<pdfrwt beam="1">  1        2 0.13802474E-01 0.13033167E+03</pdfrwt>
<pdfrwt beam="2">  1       -2 0.27541187E-01 0.13033167E+03</pdfrwt>
<totfact> 0.48902940E+03</totfact>
</mgrwt>
</event>
<event>
 7    1  0.6419647E-006  0.2091954E+03  0.7546771E-02  0.1146798E+00
          2   -1    0    0  501    0  0.00000000000E+00  0.00000000000E+00  0.30333617848E+03  0.30333617848E+03  0.00000000000E+00 0. -1.
         -2   -1    0    0    0  501 -0.00000000000E+00 -0.00000000000E+00 -0.14138043348E+03  0.14138043348E+03  0.00000000000E+00 0.  1.
         23    2    1    2    0    0  0.14876232908E+03 -0.77511837087E+02  0.14902713640E+03  0.25684977663E+03  0.12499761971E+03 0.  0.
          5    1    3    3  502    0  0.10255443975E+03 -0.10210762642E+03  0.67272794468E+02  0.15965932282E+03  0.47000000000E+01 0.  1.
         -5    1    3    3    0  502  0.46207889326E+02  0.24595789334E+02  0.81754341928E+02  0.97190453816E+02  0.47000000000E+01 0.  1.
        -11    1    1    2    0    0 -0.80039861505E+02  0.85869865084E+02 -0.28281188285E+00  0.11738864145E+03  0.00000000000E+00 0.  1.
         11    1    1    2    0    0 -0.68722467576E+02 -0.83580279966E+01  0.13211420489E+02  0.70478193883E+02  0.00000000000E+00 0. -1.
<mgrwt>
<rscale>  0 0.20352555E+03</rscale>
<asrwt>0</asrwt>
<pdfrwt beam="1">  1        2 0.46667104E-01 0.20919541E+03</pdfrwt>
<pdfrwt beam="2">  1       -2 0.21750836E-01 0.20919541E+03</pdfrwt>
<totfact> 0.19450999E+03</totfact>
</mgrwt>
</event>
<event>
 6    1  0.6419647E-006  0.3213703E+03  0.7546771E-02  0.1120713E+00
          2   -1    0    0  501    0  0.00000000000E+00  0.00000000000E+00  0.13483411386E+03  0.13483411386E+03  0.00000000000E+00 0. -1.
         -2   -1    0    0    0  501 -0.00000000000E+00 -0.00000000000E+00 -0.36092079478E+03  0.36092079478E+03  0.00000000000E+00 0.  1.
          5    1    1    2  502    0  0.49863385669E+02 -0.78482889829E+02  0.81950340508E+02  0.12403172794E+03  0.47000000000E+01 0. -1.
         -5    1    1    2    0  502 -0.27486219595E+02  0.10552781407E+03 -0.18259195862E+03  0.21272875960E+03  0.47000000000E+01 0.  1.
        -11    1    1    2    0    0  0.35154899819E+02 -0.17278604895E+02 -0.54889334413E+02  0.67433346355E+02  0.00000000000E+00 0.  1.
         11    1    1    2    0    0 -0.57532065894E+02 -0.97663193454E+01 -0.70555728397E+02  0.91561074749E+02  0.00000000000E+00 0. -1.
<mgrwt>
<rscale>  0 0.23862371E+03</rscale>
<asrwt>0</asrwt>
<pdfrwt beam="1">  1        2 0.20743710E-01 0.32137033E+03</pdfrwt>
<pdfrwt beam="2">  1       -2 0.55526275E-01 0.32137033E+03</pdfrwt>
<totfact> 0.82910736E+02</totfact>
</mgrwt>
</event>
<event>
 7    1  0.6419647E-006  0.1588343E+03  0.7546771E-02  0.1199300E+00
          2   -1    0    0  501    0  0.00000000000E+00  0.00000000000E+00  0.39478700515E+03  0.39478700515E+03  0.00000000000E+00 0. -1.
         -2   -1    0    0    0  501 -0.00000000000E+00 -0.00000000000E+00 -0.68994839481E+02  0.68994839481E+02  0.00000000000E+00 0.  1.
         23    2    1    2    0    0  0.91770998902E+02  0.34383560041E+02  0.28781692626E+03  0.32873534868E+03  0.12499680391E+03 0.  0.
          5    1    3    3  502    0 -0.20084285794E+02 -0.24678715046E+02  0.62922650501E+02  0.70666593650E+02  0.47000000000E+01 0. -1.
         -5    1    3    3    0  502  0.11185528470E+03  0.59062275086E+02  0.22489427576E+03  0.25806875503E+03  0.47000000000E+01 0. -1.
        -11    1    1    2    0    0 -0.43129823405E+02  0.27233428985E+02  0.12549853104E+02  0.52529421605E+02  0.00000000000E+00 0. -1.
         11    1    1    2    0    0 -0.48641175497E+02 -0.61616989025E+02  0.25425386305E+02  0.82517074348E+02  0.00000000000E+00 0.  1.
<mgrwt>
<rscale>  0 0.15095837E+03</rscale>
<asrwt>0</asrwt>
<pdfrwt beam="1">  1        2 0.60736461E-01 0.15883434E+03</pdfrwt>
<pdfrwt beam="2">  1       -2 0.10614591E-01 0.15883434E+03</pdfrwt>
<totfact> 0.47395257E+03</totfact>
</mgrwt>
</event>
<event>
 6    1  0.6419647E-006  0.1456999E+03  0.7546771E-02  0.1219810E+00
          1   -1    0    0  501    0  0.00000000000E+00  0.00000000000E+00  0.82402508741E+03  0.82402508741E+03  0.00000000000E+00 0. -1.
         -1   -1    0    0    0  501 -0.00000000000E+00 -0.00000000000E+00 -0.63504316277E+02  0.63504316277E+02  0.00000000000E+00 0.  1.
          5    1    1    2  502    0 -0.25247033231E+02  0.65825170837E+02  0.66863553926E+03  0.67235849081E+03  0.47000000000E+01 0. -1.
         -5    1    1    2    0  502  0.42926824608E+02 -0.13204829057E+02  0.96724630608E+02  0.10674654068E+03  0.47000000000E+01 0.  1.
        -11    1    1    2    0    0  0.25839808850E+02 -0.49754439198E+02  0.18398620690E+02  0.59006009733E+02  0.00000000000E+00 0. -1.
         11    1    1    2    0    0 -0.43519600227E+02 -0.28659025811E+01 -0.23238019425E+02  0.49418362461E+02  0.00000000000E+00 0.  1.
<mgrwt>
<rscale>  0 0.13529069E+03</rscale>
<asrwt>0</asrwt>
<pdfrwt beam="1">  1        1 0.12677308E+00 0.14569990E+03</pdfrwt>
<pdfrwt beam="2">  1       -1 0.97698954E-02 0.14569990E+03</pdfrwt>
<totfact> 0.13861580E+03</totfact>
</mgrwt>
</event>
<event>
 7    1  0.6419647E-006  0.1278986E+03  0.7546771E-02  0.1245326E+00
          1   -1    0    0  501    0  0.00000000000E+00  0.00000000000E+00  0.14717679152E+03  0.14717679152E+03  0.00000000000E+00 0. -1.
         -1   -1    0    0    0  501 -0.00000000000E+00 -0.00000000000E+00 -0.84335429260E+02  0.84335429260E+02  0.00000000000E+00 0.  1.
         23    2    1    2    0    0  0.23222778598E+02  0.13820636069E+02  0.31676070014E+02  0.13176274392E+03  0.12501095891E+03 0.  0.
          5    1    3    3  502    0 -0.20347416019E+02 -0.37532778640E+02 -0.19379155017E+02  0.47120785862E+02  0.47000000000E+01 0. -1.
         -5    1    3    3    0  502  0.43570194617E+02  0.51353414709E+02  0.51055225032E+02  0.84641958060E+02  0.47000000000E+01 0. -1.
        -11    1    1    2    0    0 -0.33401645152E+02  0.32884097843E+02  0.17508515759E+02  0.50035806318E+02  0.00000000000E+00 0.  1.
         11    1    1    2    0    0  0.10178866554E+02 -0.46704733912E+02  0.13656776483E+02  0.49713670535E+02  0.00000000000E+00 0. -1.
<mgrwt>
<rscale>  0 0.11865905E+03</rscale>
<asrwt>0</asrwt>
<pdfrwt beam="1">  1        1 0.22642583E-01 0.12789858E+03</pdfrwt>
<pdfrwt beam="2">  1       -1 0.12974681E-01 0.12789858E+03</pdfrwt>
<totfact> 0.82782324E+03</totfact>
</mgrwt>
</event>
<event>
 7    1  0.6419647E-006  0.1803573E+03  0.7546771E-02  0.1172803E+00
          2   -1    0    0  501    0  0.00000000000E+00  0.00000000000E+00  0.29533764650E+03  0.29533764650E+03  0.00000000000E+00 0. -1.
         -2   -1    0    0    0  501 -0.00000000000E+00 -0.00000000000E+00 -0.10584355924E+03  0.10584355924E+03  0.00000000000E+00 0.  1.
         23    2    1    2    0    0  0.12274669446E+03  0.42891861133E+02  0.15518121330E+03  0.23792851282E+03  0.12498922152E+03 0.  0.
          5    1    3    3  502    0  0.63818612222E+02  0.76352067995E+02  0.13360190395E+03  0.16665536983E+03  0.47000000000E+01 0. -1.
         -5    1    3    3    0  502  0.58928082235E+02 -0.33460206862E+02  0.21579309351E+02  0.71273142987E+02  0.47000000000E+01 0. -1.
        -11    1    1    2    0    0 -0.78949991535E+02  0.16147043520E+02  0.39135154433E+02  0.89584532651E+02  0.00000000000E+00 0. -1.
         11    1    1    2    0    0 -0.43796702922E+02 -0.59038904653E+02 -0.48222804830E+01  0.73668160276E+02  0.00000000000E+00 0.  1.
<mgrwt>
<rscale>  0 0.17492934E+03</rscale>
<asrwt>0</asrwt>
<pdfrwt beam="1">  1        2 0.45436561E-01 0.18035733E+03</pdfrwt>
<pdfrwt beam="2">  1       -2 0.16283625E-01 0.18035733E+03</pdfrwt>
<totfact> 0.32503970E+03</totfact>
</mgrwt>
</event>
<event>
 6    1  0.6419647E-006  0.2534849E+03  0.7546771E-02  0.1116402E+00
         -2   -1    0    0    0  501 -0.00000000000E+00  0.00000000000E+00  0.17593092256E+03  0.17593092256E+03  0.00000000000E+00 0.  1.
          2   -1    0    0  501    0  0.00000000000E+00 -0.00000000000E+00 -0.32127257765E+03  0.32127257765E+03  0.00000000000E+00 0. -1.
          5    1    1    2  502    0 -0.11657532916E+03  0.54099395822E+02 -0.11672176936E+03  0.17367387092E+03  0.47000000000E+01 0. -1.
         -5    1    1    2    0  502 -0.83567356932E+02 -0.27369360382E+02  0.31847851816E+02  0.93642729016E+02  0.47000000000E+01 0.  1.
        -11    1    1    2    0    0  0.18761290032E+03 -0.25151026408E+02 -0.23406318765E+02  0.19073287670E+03  0.00000000000E+00 0.  1.
         11    1    1    2    0    0  0.12529785776E+02 -0.15790090327E+01 -0.37061418773E+02  0.39154023581E+02  0.00000000000E+00 0. -1.
<mgrwt>
<rscale>  0 0.24516047E+03</rscale>
<asrwt>0</asrwt>
<pdfrwt beam="2">  1        2 0.49426550E-01 0.25348488E+03</pdfrwt>
<pdfrwt beam="1">  1       -2 0.27066296E-01 0.25348488E+03</pdfrwt>
<totfact> 0.12499872E+03</totfact>
</mgrwt>
</event>
<event>
 7    1  0.6419647E-006  0.1950064E+03  0.7546771E-02  0.1158500E+00
         -2   -1    0    0    0  501 -0.00000000000E+00  0.00000000000E+00  0.19273430026E+02  0.19273430026E+02  0.00000000000E+00 0.  1.
          2   -1    0    0  501    0  0.00000000000E+00 -0.00000000000E+00 -0.17929004521E+04  0.17929004521E+04  0.00000000000E+00 0. -1.
         23    2    1    2    0    0 -0.72328316996E+02  0.13103150429E+03 -0.10054438092E+04  0.10241800415E+04  0.12500745359E+03 0.  0.
          5    1    3    3  502    0  0.10970799927E+02 -0.18767942565E+02 -0.82604365784E+02  0.85546276166E+02  0.47000000000E+01 0.  1.
         -5    1    3    3    0  502 -0.83299116923E+02  0.14979944685E+03 -0.92283944338E+03  0.93863376533E+03  0.47000000000E+01 0.  1.
        -11    1    1    2    0    0  0.78273732098E+02 -0.10345177241E+03 -0.72428550999E+03  0.73581148831E+03  0.00000000000E+00 0.  1.
         11    1    1    2    0    0 -0.59454151026E+01 -0.27579731879E+02 -0.43897702884E+02  0.52182352282E+02  0.00000000000E+00 0. -1.
<mgrwt>
<rscale>  0 0.18995745E+03</rscale>
<asrwt>0</asrwt>
<pdfrwt beam="2">  1        2 0.27583090E+00 0.19500642E+03</pdfrwt>
<pdfrwt beam="1">  1       -2 0.29651424E-02 0.19500642E+03</pdfrwt>
<totfact> 0.41040820E+03</totfact>
</mgrwt>
</event>
<event>
 7    1  0.6419647E-006  0.1323275E+03  0.7546771E-02  0.1236258E+00
          2   -1    0    0  501    0  0.00000000000E+00  0.00000000000E+00  0.12981151553E+04  0.12981151553E+04  0.00000000000E+00 0. -1.
         -2   -1    0    0    0  501 -0.00000000000E+00 -0.00000000000E+00 -0.12873789952E+02  0.12873789952E+02  0.00000000000E+00 0.  1.
         23    2    1    2    0    0  0.43039608465E+02  0.57234994588E+01  0.97995448334E+03  0.98884849624E+03  0.12500157102E+03 0.  0.
          5    1    3    3  502    0  0.65037943967E+02  0.46880677690E+02  0.47719203692E+03  0.48390294708E+03  0.47000000000E+01 0.  1.
         -5    1    3    3    0  502 -0.21998335501E+02 -0.41157178231E+02  0.50276244642E+03  0.50494554916E+03  0.47000000000E+01 0.  1.
        -11    1    1    2    0    0 -0.14070796917E+02  0.29998717480E+02  0.35893563978E+02  0.48849342998E+02  0.00000000000E+00 0.  1.
         11    1    1    2    0    0 -0.28968811548E+02 -0.35722216939E+02  0.26939331800E+03  0.27329110598E+03  0.00000000000E+00 0. -1.
<mgrwt>
<rscale>  0 0.12424228E+03</rscale>
<asrwt>0</asrwt>
<pdfrwt beam="1">  1        2 0.19970992E+00 0.13232747E+03</pdfrwt>
<pdfrwt beam="2">  1       -2 0.19805841E-02 0.13232747E+03</pdfrwt>
<totfact> 0.13315421E+04</totfact>
</mgrwt>
</event>
<event>
 7    1  0.6419647E-006  0.1667917E+03  0.7546771E-02  0.1187872E+00
         -2   -1    0    0    0  501 -0.00000000000E+00  0.00000000000E+00  0.61661376797E+03  0.61661376797E+03  0.00000000000E+00 0.  1.
          2   -1    0    0  501    0  0.00000000000E+00 -0.00000000000E+00 -0.47184012580E+02  0.47184012580E+02  0.00000000000E+00 0. -1.
         23    2    1    2    0    0  0.39407060313E+01  0.11036232387E+03  0.16527791863E+03  0.23481113744E+03  0.12499643268E+03 0.  0.
          5    1    3    3  502    0 -0.44093376934E+02  0.69564294879E+02  0.34218866098E+02  0.89310905317E+02  0.47000000000E+01 0.  1.
         -5    1    3    3    0  502  0.48034082966E+02  0.40798028995E+02  0.13105905254E+03  0.14550023212E+03  0.47000000000E+01 0.  1.
        -11    1    1    2    0    0 -0.27364825004E+02 -0.10004247931E+03  0.37961588247E+03  0.39352960440E+03  0.00000000000E+00 0.  1.
         11    1    1    2    0    0  0.23424118972E+02 -0.10319844569E+02  0.24535954282E+02  0.35457038710E+02  0.00000000000E+00 0. -1.
<mgrwt>
<rscale>  0 0.16073229E+03</rscale>
<asrwt>0</asrwt>
<pdfrwt beam="2">  1        2 0.72590793E-02 0.16679173E+03</pdfrwt>
<pdfrwt beam="1">  1       -2 0.94863651E-01 0.16679173E+03</pdfrwt>
<totfact> 0.91786088E+02</totfact>
</mgrwt>
</event>
<event>
 7    1  0.6419647E-006  0.1698876E+03  0.7546771E-02  0.1186084E+00
         -2   -1    0    0    0  501 -0.00000000000E+00  0.00000000000E+00  0.24506847648E+02  0.24506847648E+02  0.00000000000E+00 0. -1.
          2   -1    0    0  501    0  0.00000000000E+00 -0.00000000000E+00 -0.99018931123E+03  0.99018931123E+03  0.00000000000E+00 0.  1.
         23    2    1    2    0    0 -0.10801102641E+03  0.39651704746E+02 -0.53340295528E+03  0.55980397809E+03  0.12499256643E+03 0.  0.
          5    1    3    3  502    0 -0.55724884517E+02  0.20853513858E+02 -0.47617871735E+03  0.47990456619E+03  0.47000000000E+01 0. -1.
         -5    1    3    3    0  502 -0.52286141889E+02  0.18798190887E+02 -0.57224237937E+02  0.79899411899E+02  0.47000000000E+01 0. -1.
        -11    1    1    2    0    0  0.33786120114E+02  0.18977406694E+02 -0.65424137043E+02  0.76039210839E+02  0.00000000000E+00 0.  1.
         11    1    1    2    0    0  0.74224906292E+02 -0.58629111440E+02 -0.36685537126E+03  0.37885296996E+03  0.00000000000E+00 0. -1.
<mgrwt>
<rscale>  0 0.16233648E+03</rscale>
<asrwt>0</asrwt>
<pdfrwt beam="2">  1        2 0.15233685E+00 0.16988755E+03</pdfrwt>
<pdfrwt beam="1">  1       -2 0.37702834E-02 0.16988755E+03</pdfrwt>
<totfact> 0.78311823E+03</totfact>
</mgrwt>
</event>
<event>
 7    1  0.6419647E-006  0.1544064E+03  0.7546771E-02  0.1203909E+00
         -1   -1    0    0    0  501 -0.00000000000E+00  0.00000000000E+00  0.15399491727E+02  0.15399491727E+02  0.00000000000E+00 0.  1.
          1   -1    0    0  501    0  0.00000000000E+00 -0.00000000000E+00 -0.14117869408E+04  0.14117869408E+04  0.00000000000E+00 0. -1.
         23    2    1    2    0    0  0.61040400864E+02 -0.66986912688E+02 -0.96602214831E+03  0.97828427431E+03  0.12501261263E+03 0.  0.
          5    1    3    3  502    0  0.69059988663E+02  0.77687080256E+01 -0.29820840875E+03  0.30623517092E+03  0.47000000000E+01 0.  1.
         -5    1    3    3    0  502 -0.80195877995E+01 -0.74755620714E+02 -0.66781373956E+03  0.67204910339E+03  0.47000000000E+01 0.  1.
        -11    1    1    2    0    0 -0.82682964307E+02  0.44533600004E+02 -0.35779484309E+03  0.36991467105E+03  0.00000000000E+00 0.  1.
         11    1    1    2    0    0  0.21642563443E+02  0.22453312685E+02 -0.72570457656E+02  0.78987487157E+02  0.00000000000E+00 0. -1.
<mgrwt>
<rscale>  0 0.14723755E+03</rscale>
<asrwt>0</asrwt>
<pdfrwt beam="2">  1        1 0.21719802E+00 0.15440638E+03</pdfrwt>
<pdfrwt beam="1">  1       -1 0.23691523E-02 0.15440638E+03</pdfrwt>
<totfact> 0.43292997E+03</totfact>
</mgrwt>
</event>
<event>
 7    1  0.6419647E-006  0.1322737E+03  0.7546771E-02  0.1249711E+00
         -1   -1    0    0    0  501 -0.00000000000E+00  0.00000000000E+00  0.16992684373E+02  0.16992684373E+02  0.00000000000E+00 0.  1.
          1   -1    0    0  501    0  0.00000000000E+00 -0.00000000000E+00 -0.66048931349E+03  0.66048931349E+03  0.00000000000E+00 0. -1.
         23    2    1    2    0    0  0.32371577844E+02 -0.31458445706E+02 -0.43728759975E+03  0.45685531049E+03  0.12433333008E+03 0.  0.
          5    1    3    3  502    0  0.50675889804E+02 -0.69915752318E+02 -0.24389000729E+03  0.25876762526E+03  0.47000000000E+01 0.  1.
         -5    1    3    3    0  502 -0.18304311961E+02  0.38457306612E+02 -0.19339759247E+03  0.19808768523E+03  0.47000000000E+01 0.  1.
        -11    1    1    2    0    0 -0.34146967537E+02 -0.10875276381E+02 -0.10312411387E+03  0.10917357688E+03  0.00000000000E+00 0.  1.
         11    1    1    2    0    0  0.17753896933E+01  0.42333722087E+02 -0.10308491549E+03  0.11145311049E+03  0.00000000000E+00 0. -1.
<mgrwt>
<rscale>  0 0.11607790E+03</rscale>
<asrwt>0</asrwt>
<pdfrwt beam="2">  1        1 0.10161376E+00 0.13227369E+03</pdfrwt>
<pdfrwt beam="1">  1       -1 0.26142587E-02 0.13227369E+03</pdfrwt>
<totfact> 0.13478990E+04</totfact>
</mgrwt>
</event>
<event>
 7    1  0.6419647E-006  0.1523379E+03  0.7546771E-02  0.1206043E+00
         -2   -1    0    0    0  501 -0.00000000000E+00  0.00000000000E+00  0.19351644588E+02  0.19351644588E+02  0.00000000000E+00 0.  1.
          2   -1    0    0  501    0  0.00000000000E+00 -0.00000000000E+00 -0.12326926621E+04  0.12326926621E+04  0.00000000000E+00 0. -1.
         23    2    1    2    0    0 -0.13049367331E+01  0.87051697306E+02 -0.91819834763E+03  0.93074971370E+03  0.12500849210E+03 0.  0.
          5    1    3    3  502    0 -0.11535342366E+02  0.92381321351E+02 -0.34371220024E+03  0.35612854316E+03  0.47000000000E+01 0. -1.
         -5    1    3    3    0  502  0.10230405633E+02 -0.53296240451E+01 -0.57448614738E+03  0.57462117054E+03  0.47000000000E+01 0. -1.
        -11    1    1    2    0    0 -0.44619331653E+00 -0.21665418695E+02 -0.29496696675E+01  0.21869842406E+02  0.00000000000E+00 0.  1.
         11    1    1    2    0    0  0.17511300496E+01 -0.65386278611E+02 -0.29219300021E+03  0.29942475058E+03  0.00000000000E+00 0. -1.
<mgrwt>
<rscale>  0 0.14555595E+03</rscale>
<asrwt>0</asrwt>
<pdfrwt beam="2">  1        2 0.18964504E+00 0.15233786E+03</pdfrwt>
<pdfrwt beam="1">  1       -2 0.29771758E-02 0.15233786E+03</pdfrwt>
<totfact> 0.80207241E+03</totfact>
</mgrwt>
</event>
<event>
 7    1  0.6419647E-006  0.1282754E+03  0.7546771E-02  0.1244290E+00
          1   -1    0    0  501    0  0.00000000000E+00  0.00000000000E+00  0.31411438360E+03  0.31411438360E+03  0.00000000000E+00 0. -1.
         -1   -1    0    0    0  501 -0.00000000000E+00 -0.00000000000E+00 -0.40513250125E+02  0.40513250125E+02  0.00000000000E+00 0.  1.
         23    2    1    2    0    0 -0.81195037218E+01  0.27624717584E+02  0.17607846751E+03  0.21784905818E+03  0.12500213625E+03 0.  0.
          5    1    3    3  502    0  0.46731989014E+02  0.49223332501E+02  0.10830407172E+03  0.12790104460E+03  0.47000000000E+01 0.  1.
         -5    1    3    3    0  502 -0.54851492735E+02 -0.21598614916E+02  0.67774395788E+02  0.89948013575E+02  0.47000000000E+01 0.  1.
        -11    1    1    2    0    0  0.49214859364E+02 -0.63564213779E+01  0.49567260788E+02  0.70138575812E+02  0.00000000000E+00 0.  1.
         11    1    1    2    0    0 -0.41095355642E+02 -0.21268296206E+02  0.47955405184E+02  0.66639999739E+02  0.00000000000E+00 0. -1.
<mgrwt>
<rscale>  0 0.11927998E+03</rscale>
<asrwt>0</asrwt>
<pdfrwt beam="1">  1        1 0.48325288E-01 0.12827543E+03</pdfrwt>
<pdfrwt beam="2">  1       -1 0.62328079E-02 0.12827543E+03</pdfrwt>
<totfact> 0.98226551E+03</totfact>
</mgrwt>
</event>
<event>
 7    1  0.6419647E-006  0.2427495E+03  0.7546771E-02  0.1120679E+00
         -2   -1    0    0    0  501 -0.00000000000E+00  0.00000000000E+00  0.73138114607E+02  0.73138114607E+02  0.00000000000E+00 0.  1.
          2   -1    0    0  501    0  0.00000000000E+00 -0.00000000000E+00 -0.86549612223E+03  0.86549612223E+03  0.00000000000E+00 0. -1.
         23    2    1    2    0    0  0.18814024799E+03 -0.88917728058E+02 -0.57636656808E+03  0.62540044809E+03  0.12499673750E+03 0.  0.
          5    1    3    3  502    0  0.51638766962E+02 -0.54899876578E+02 -0.35597187931E+03  0.36389370366E+03  0.47000000000E+01 0.  1.
         -5    1    3    3    0  502  0.13650148103E+03 -0.34017851479E+02 -0.22039468877E+03  0.26150674443E+03  0.47000000000E+01 0.  1.
        -11    1    1    2    0    0 -0.92430568307E+02 -0.19861604151E+01 -0.11175762154E+03  0.14504178971E+03  0.00000000000E+00 0. -1.
         11    1    1    2    0    0 -0.95709679684E+02  0.90903888473E+02 -0.10423381800E+03  0.16819199904E+03  0.00000000000E+00 0.  1.
<mgrwt>
<rscale>  0 0.23867432E+03</rscale>
<asrwt>0</asrwt>
<pdfrwt beam="2">  1        2 0.13315325E+00 0.24274946E+03</pdfrwt>
<pdfrwt beam="1">  1       -2 0.11252018E-01 0.24274946E+03</pdfrwt>
<totfact> 0.17547602E+03</totfact>
</mgrwt>
</event>
<event>
 7    1  0.6419647E-006  0.1280848E+03  0.7546771E-02  0.1243980E+00
         -2   -1    0    0    0  501 -0.00000000000E+00  0.00000000000E+00  0.44752592269E+02  0.44752592269E+02  0.00000000000E+00 0.  1.
          2   -1    0    0  501    0  0.00000000000E+00 -0.00000000000E+00 -0.35900100510E+03  0.35900100510E+03  0.00000000000E+00 0. -1.
         23    2    1    2    0    0  0.20124725388E+02 -0.19346162886E+02 -0.26652848545E+03  0.29570789811E+03  0.12500579529E+03 0.  0.
          5    1    3    3  502    0 -0.28125248513E+01 -0.43861736857E+02 -0.22994354449E+02  0.49825621850E+02  0.47000000000E+01 0.  1.
         -5    1    3    3    0  502  0.22937250240E+02  0.24515573972E+02 -0.24353413100E+03  0.24588227626E+03  0.47000000000E+01 0.  1.
        -11    1    1    2    0    0  0.33411227653E+02  0.60654965323E+01  0.16810041297E+01  0.33998914046E+02  0.00000000000E+00 0.  1.
         11    1    1    2    0    0 -0.53535953041E+02  0.13280666353E+02 -0.49400931515E+02  0.74046785220E+02  0.00000000000E+00 0. -1.
<mgrwt>
<rscale>  0 0.11946622E+03</rscale>
<asrwt>0</asrwt>
<pdfrwt beam="2">  1        2 0.55230924E-01 0.12808484E+03</pdfrwt>
<pdfrwt beam="1">  1       -2 0.68850141E-02 0.12808484E+03</pdfrwt>
<totfact> 0.10143208E+04</totfact>
</mgrwt>
</event>
<event>
 7    1  0.6419647E-006  0.1699557E+03  0.7546771E-02  0.1184395E+00
         -2   -1    0    0    0  501 -0.00000000000E+00  0.00000000000E+00  0.16971385379E+02  0.16971385379E+02  0.00000000000E+00 0.  1.
          2   -1    0    0  501    0  0.00000000000E+00 -0.00000000000E+00 -0.17977142013E+04  0.17977142013E+04  0.00000000000E+00 0. -1.
         23    2    1    2    0    0  0.94848003672E+02  0.65253614317E+02 -0.13249807320E+04  0.13358363975E+04  0.12502304898E+03 0.  0.
          5    1    3    3  502    0  0.30919492543E+02 -0.26667377645E+02 -0.15017032428E+03  0.15569322511E+03  0.47000000000E+01 0. -1.
         -5    1    3    3    0  502  0.63928511129E+02  0.91920991962E+02 -0.11748104077E+04  0.11801431724E+04  0.47000000000E+01 0. -1.
        -11    1    1    2    0    0  0.13829175598E+02 -0.20574773864E+02 -0.13466344914E+03  0.13692630117E+03  0.00000000000E+00 0.  1.
         11    1    1    2    0    0 -0.10867717927E+03 -0.44678840453E+02 -0.32109863483E+03  0.34192288804E+03  0.00000000000E+00 0. -1.
<mgrwt>
<rscale>  0 0.16387091E+03</rscale>
<asrwt>0</asrwt>
<pdfrwt beam="2">  1        2 0.27657145E+00 0.16995570E+03</pdfrwt>
<pdfrwt beam="1">  1       -2 0.26109821E-02 0.16995570E+03</pdfrwt>
<totfact> 0.49166204E+03</totfact>
</mgrwt>
</event>
<event>
 7    1  0.6419647E-006  0.1551477E+03  0.7546771E-02  0.1202368E+00
         -1   -1    0    0    0  501 -0.00000000000E+00  0.00000000000E+00  0.74742999864E+02  0.74742999864E+02  0.00000000000E+00 0.  1.
          1   -1    0    0  501    0  0.00000000000E+00 -0.00000000000E+00 -0.38460992907E+03  0.38460992907E+03  0.00000000000E+00 0. -1.
         23    2    1    2    0    0  0.82741487422E+02  0.39858751327E+02 -0.28840520907E+03  0.32748795438E+03  0.12504367976E+03 0.  0.
          5    1    3    3  502    0  0.50493074977E+02  0.46944535675E+02 -0.46495664430E+02  0.83290316731E+02  0.47000000000E+01 0. -1.
         -5    1    3    3    0  502  0.32248412444E+02 -0.70857843478E+01 -0.24190954464E+03  0.24419763765E+03  0.47000000000E+01 0. -1.
        -11    1    1    2    0    0 -0.22808509083E+02 -0.11103283945E+02 -0.52646416948E+02  0.58439337936E+02  0.00000000000E+00 0. -1.
         11    1    1    2    0    0 -0.59932978339E+02 -0.28755467382E+02  0.31184696815E+02  0.73425636615E+02  0.00000000000E+00 0.  1.
<mgrwt>
<rscale>  0 0.14846835E+03</rscale>
<asrwt>0</asrwt>
<pdfrwt beam="2">  1        1 0.59170758E-01 0.15514766E+03</pdfrwt>
<pdfrwt beam="1">  1       -1 0.11498923E-01 0.15514766E+03</pdfrwt>
<totfact> 0.30493889E+03</totfact>
</mgrwt>
</event>
<event>
 7    1  0.6419647E-006  0.1201358E+03  0.7546771E-02  0.1320124E+00
         -2   -1    0    0    0  501 -0.00000000000E+00  0.00000000000E+00  0.10967538125E+02  0.10967538125E+02  0.00000000000E+00 0. -1.
          2   -1    0    0  501    0  0.00000000000E+00 -0.00000000000E+00 -0.52974697638E+03  0.52974697638E+03  0.00000000000E+00 0.  1.
         23    2    1    2    0    0  0.25001138907E+02 -0.10112787280E+02 -0.46452105161E+03  0.47980455052E+03  0.11706952594E+03 0.  0.
          5    1    3    3  502    0  0.31038858608E+02 -0.26014622308E+02 -0.48289945970E+02  0.63199526892E+02  0.47000000000E+01 0. -1.
         -5    1    3    3    0  502 -0.60377197012E+01  0.15901835027E+02 -0.41623110564E+03  0.41660502363E+03  0.47000000000E+01 0.  1.
        -11    1    1    2    0    0 -0.10137023797E+02  0.24983187563E+01 -0.15299845640E+02  0.18522584179E+02  0.00000000000E+00 0.  1.
         11    1    1    2    0    0 -0.14864115110E+02  0.76144685240E+01 -0.38958541006E+02  0.42387379799E+02  0.00000000000E+00 0. -1.
<mgrwt>
<rscale>  0 0.83231253E+02</rscale>
<asrwt>0</asrwt>
<pdfrwt beam="2">  1        2 0.81499538E-01 0.12013575E+03</pdfrwt>
<pdfrwt beam="1">  1       -2 0.16873135E-02 0.12013575E+03</pdfrwt>
<totfact> 0.52889245E+04</totfact>
</mgrwt>
</event>
<event>
 7    1  0.6419647E-006  0.2291795E+03  0.7546771E-02  0.1130194E+00
          1   -1    0    0  501    0  0.00000000000E+00  0.00000000000E+00  0.36908954289E+03  0.36908954289E+03  0.00000000000E+00 0. -1.
         -1   -1    0    0    0  501 -0.00000000000E+00 -0.00000000000E+00 -0.13510991001E+03  0.13510991001E+03  0.00000000000E+00 0.  1.
         23    2    1    2    0    0 -0.14867341316E+03 -0.12163235097E+03  0.85726274404E+02  0.24468806099E+03  0.12500016194E+03 0.  0.
          5    1    3    3  502    0 -0.16754712600E+03 -0.12137207953E+03  0.66568174941E+02  0.21738590809E+03  0.47000000000E+01 0. -1.
         -5    1    3    3    0  502  0.18873712845E+02 -0.26027143752E+00  0.19158099463E+02  0.27302152897E+02  0.47000000000E+01 0. -1.
        -11    1    1    2    0    0  0.78593739000E+01  0.57873881360E+02  0.42008617420E+02  0.71943587896E+02  0.00000000000E+00 0.  1.
         11    1    1    2    0    0  0.14081403926E+03  0.63758469606E+02  0.10624474106E+03  0.18756780402E+03  0.00000000000E+00 0. -1.
<mgrwt>
<rscale>  0 0.22502175E+03</rscale>
<asrwt>0</asrwt>
<pdfrwt beam="1">  1        1 0.56783006E-01 0.22917952E+03</pdfrwt>
<pdfrwt beam="2">  1       -1 0.20786140E-01 0.22917952E+03</pdfrwt>
<totfact> 0.12699672E+03</totfact>
</mgrwt>
</event>
<event>
 7    1  0.6419647E-006  0.2450301E+03  0.7546771E-02  0.1118959E+00
          1   -1    0    0  501    0  0.00000000000E+00  0.00000000000E+00  0.30004197219E+03  0.30004197219E+03  0.00000000000E+00 0. -1.
         -1   -1    0    0    0  501 -0.00000000000E+00 -0.00000000000E+00 -0.22554251783E+03  0.22554251783E+03  0.00000000000E+00 0.  1.
         23    2    1    2    0    0 -0.45828683951E+02 -0.20569918890E+03  0.14504948374E+03  0.28474393906E+03  0.12500933369E+03 0.  0.
          5    1    3    3  502    0  0.28875901786E+02 -0.13532718973E+03  0.58095942713E+02  0.15014824189E+03  0.47000000000E+01 0. -1.
         -5    1    3    3    0  502 -0.74704585738E+02 -0.70371999172E+02  0.86953541031E+02  0.13459569717E+03  0.47000000000E+01 0. -1.
        -11    1    1    2    0    0  0.59302445816E+02  0.19064549223E+03 -0.39081363422E+02  0.20344492315E+03  0.00000000000E+00 0. -1.
         11    1    1    2    0    0 -0.13473761865E+02  0.15053696669E+02 -0.31468665958E+02  0.37395627811E+02  0.00000000000E+00 0.  1.
<mgrwt>
<rscale>  0 0.24125515E+03</rscale>
<asrwt>0</asrwt>
<pdfrwt beam="1">  1        1 0.46160304E-01 0.24503012E+03</pdfrwt>
<pdfrwt beam="2">  1       -1 0.34698849E-01 0.24503012E+03</pdfrwt>
<totfact> 0.69779660E+02</totfact>
</mgrwt>
</event>
<event>
 7    1  0.6419647E-006  0.2446082E+03  0.7546771E-02  0.1119300E+00
          2   -1    0    0  501    0  0.00000000000E+00  0.00000000000E+00  0.63031323565E+03  0.63031323565E+03  0.00000000000E+00 0.  1.
         -2   -1    0    0    0  501 -0.00000000000E+00 -0.00000000000E+00 -0.91516954189E+02  0.91516954189E+02  0.00000000000E+00 0. -1.
         23    2    1    2    0    0 -0.19257503350E+03  0.84469845076E+02  0.33571965173E+03  0.41538040063E+03  0.12495156828E+03 0.  0.
          5    1    3    3  502    0 -0.50382582770E+02 -0.16910654888E+02  0.15544957871E+03  0.16435034656E+03  0.47000000000E+01 0. -1.
         -5    1    3    3    0  502 -0.14219245073E+03  0.10138049996E+03  0.18027007302E+03  0.25103005407E+03  0.47000000000E+01 0. -1.
        -11    1    1    2    0    0  0.16080131877E+03 -0.10103506771E+03  0.14811227080E+03  0.24083686135E+03  0.00000000000E+00 0.  1.
         11    1    1    2    0    0  0.31773714732E+02  0.16565222635E+02  0.54964358932E+02  0.65612927854E+02  0.00000000000E+00 0. -1.
<mgrwt>
<rscale>  0 0.24074104E+03</rscale>
<asrwt>0</asrwt>
<pdfrwt beam="1">  1        2 0.96971264E-01 0.24460824E+03</pdfrwt>
<pdfrwt beam="2">  1       -2 0.14079532E-01 0.24460824E+03</pdfrwt>
<totfact> 0.18060758E+03</totfact>
</mgrwt>
</event>
<event>
 7    1  0.6419647E-006  0.1626385E+03  0.7546771E-02  0.1192259E+00
         -1   -1    0    0    0  501 -0.00000000000E+00  0.00000000000E+00  0.43466008045E+02  0.43466008045E+02  0.00000000000E+00 0.  1.
          1   -1    0    0  501    0  0.00000000000E+00 -0.00000000000E+00 -0.53710811132E+03  0.53710811132E+03  0.00000000000E+00 0. -1.
         23    2    1    2    0    0  0.26795848785E+02  0.10054586604E+03 -0.23019157191E+03  0.28185002906E+03  0.12499516155E+03 0.  0.
          5    1    3    3  502    0  0.74377753488E+02  0.58873470061E+02 -0.10548431108E+03  0.14194071148E+03  0.47000000000E+01 0.  1.
         -5    1    3    3    0  502 -0.47581904703E+02  0.41672395980E+02 -0.12470726084E+03  0.13990931758E+03  0.47000000000E+01 0.  1.
        -11    1    1    2    0    0  0.20236331054E+02 -0.88037876872E+02 -0.14734641012E+03  0.17283269781E+03  0.00000000000E+00 0.  1.
         11    1    1    2    0    0 -0.47032179839E+02 -0.12507989169E+02 -0.11610412125E+03  0.12589139249E+03  0.00000000000E+00 0. -1.
<mgrwt>
<rscale>  0 0.15688541E+03</rscale>
<asrwt>0</asrwt>
<pdfrwt beam="2">  1        1 0.82632019E-01 0.16263849E+03</pdfrwt>
<pdfrwt beam="1">  1       -1 0.66870780E-02 0.16263849E+03</pdfrwt>
<totfact> 0.45297237E+03</totfact>
</mgrwt>
</event>
<event>
 7    1  0.6419647E-006  0.2996175E+03  0.7546771E-02  0.1087050E+00
         -2   -1    0    0    0  501 -0.00000000000E+00  0.00000000000E+00  0.91643165873E+03  0.91643165873E+03  0.00000000000E+00 0. -1.
          2   -1    0    0  501    0  0.00000000000E+00 -0.00000000000E+00 -0.10588486292E+03  0.10588486292E+03  0.00000000000E+00 0.  1.
         23    2    1    2    0    0  0.14449762977E+03  0.23082714979E+03  0.58515189148E+03  0.65739895585E+03  0.12493963725E+03 0.  0.
          5    1    3    3  502    0  0.49868107529E+01  0.12260722290E+03  0.25163486907E+03  0.27999927986E+03  0.47000000000E+01 0.  1.
         -5    1    3    3    0  502  0.13951081902E+03  0.10821992689E+03  0.33351702241E+03  0.37739967599E+03  0.47000000000E+01 0.  1.
        -11    1    1    2    0    0 -0.12751797665E+02 -0.72014413291E+01  0.48898305397E+02  0.51044229562E+02  0.00000000000E+00 0. -1.
         11    1    1    2    0    0 -0.13174583211E+03 -0.22362570846E+03  0.17649659893E+03  0.31387333623E+03  0.00000000000E+00 0.  1.
<mgrwt>
<rscale>  0 0.29640889E+03</rscale>
<asrwt>0</asrwt>
<pdfrwt beam="2">  1        2 0.16289979E-01 0.29961751E+03</pdfrwt>
<pdfrwt beam="1">  1       -2 0.14098948E+00 0.29961751E+03</pdfrwt>
<totfact> 0.13155661E+02</totfact>
</mgrwt>
</event>
<event>
 6    1  0.6419647E-006  0.1409375E+03  0.7546771E-02  0.1228387E+00
         -1   -1    0    0    0  501 -0.00000000000E+00  0.00000000000E+00  0.45129098948E+02  0.45129098948E+02  0.00000000000E+00 0.  1.
          1   -1    0    0  501    0  0.00000000000E+00 -0.00000000000E+00 -0.35353999170E+03  0.35353999170E+03  0.00000000000E+00 0. -1.
          5    1    1    2  502    0 -0.19111569432E+02  0.71632633931E+02 -0.12587174531E+03  0.14615838189E+03  0.47000000000E+01 0. -1.
         -5    1    1    2    0  502 -0.13342546547E+01 -0.66467621039E+02 -0.11109214193E+03  0.12955029479E+03  0.47000000000E+01 0.  1.
        -11    1    1    2    0    0  0.44015945270E+01 -0.21502929883E+02  0.19386800956E+02  0.29284775554E+02  0.00000000000E+00 0.  1.
         11    1    1    2    0    0  0.16044229560E+02  0.16337916990E+02 -0.90833806475E+02  0.93675638416E+02  0.00000000000E+00 0. -1.
<mgrwt>
<rscale>  0 0.12937464E+03</rscale>
<asrwt>0</asrwt>
<pdfrwt beam="2">  1        1 0.54390770E-01 0.14093754E+03</pdfrwt>
<pdfrwt beam="1">  1       -1 0.69429381E-02 0.14093754E+03</pdfrwt>
<totfact> 0.72642913E+03</totfact>
</mgrwt>
</event>
<event>
 6    1  0.6419647E-006  0.1767342E+03  0.7546771E-02  0.1198149E+00
          1   -1    0    0  501    0  0.00000000000E+00  0.00000000000E+00  0.85099282081E+02  0.85099282081E+02  0.00000000000E+00 0. -1.
         -1   -1    0    0    0  501 -0.00000000000E+00 -0.00000000000E+00 -0.21999567404E+03  0.21999567404E+03  0.00000000000E+00 0.  1.
          5    1    1    2  502    0 -0.26995511370E+01  0.64889564403E+02 -0.98860239646E+02  0.11837812352E+03  0.47000000000E+01 0.  1.
         -5    1    1    2    0  502 -0.28060927358E+02 -0.77453528719E+02  0.32159406424E+01  0.82576613090E+02  0.47000000000E+01 0. -1.
        -11    1    1    2    0    0 -0.20928277591E+02 -0.24060654305E+02 -0.54969402240E+01  0.32359299133E+02  0.00000000000E+00 0. -1.
         11    1    1    2    0    0  0.51688756086E+02  0.36624618621E+02 -0.33755152734E+02  0.71780920382E+02  0.00000000000E+00 0.  1.
<mgrwt>
<rscale>  0 0.15190666E+03</rscale>
<asrwt>0</asrwt>
<pdfrwt beam="1">  1        1 0.13092197E-01 0.17673419E+03</pdfrwt>
<pdfrwt beam="2">  1       -1 0.33845488E-01 0.17673419E+03</pdfrwt>
<totfact> 0.36095543E+03</totfact>
</mgrwt>
</event>
<event>
 7    1  0.6419647E-006  0.1297097E+03  0.7546771E-02  0.1237169E+00
         -2   -1    0    0    0  501 -0.00000000000E+00  0.00000000000E+00  0.11917169359E+02  0.11917169359E+02  0.00000000000E+00 0.  1.
          2   -1    0    0  501    0  0.00000000000E+00 -0.00000000000E+00 -0.14811452401E+04  0.14811452401E+04  0.00000000000E+00 0. -1.
         23    2    1    2    0    0 -0.10686457786E+02 -0.50867595016E+02 -0.11271465045E+04  0.11345853206E+04  0.11883978534E+03 0.  0.
          5    1    3    3  502    0 -0.46968198351E+02 -0.68197030150E+02 -0.90398699823E+03  0.90778380111E+03  0.47000000000E+01 0. -1.
         -5    1    3    3    0  502  0.36281740565E+02  0.17329435134E+02 -0.22315950627E+03  0.22680151953E+03  0.47000000000E+01 0.  1.
        -11    1    1    2    0    0  0.51253813412E+02  0.40272773024E+02 -0.21406620752E+03  0.22377039759E+03  0.00000000000E+00 0.  1.
         11    1    1    2    0    0 -0.40567355626E+02  0.10594821992E+02 -0.12801535870E+03  0.13470669121E+03  0.00000000000E+00 0. -1.
<mgrwt>
<rscale>  0 0.12366607E+03</rscale>
<asrwt>0</asrwt>
<pdfrwt beam="2">  1        2 0.22786846E+00 0.12970970E+03</pdfrwt>
<pdfrwt beam="1">  1       -2 0.18334110E-02 0.12970970E+03</pdfrwt>
<totfact> 0.11902905E+04</totfact>
</mgrwt>
</event>
<event>
 7    1  0.6419647E-006  0.1263488E+03  0.7546771E-02  0.1248727E+00
          2   -1    0    0  501    0  0.00000000000E+00  0.00000000000E+00  0.88135495941E+02  0.88135495941E+02  0.00000000000E+00 0. -1.
         -2   -1    0    0    0  501 -0.00000000000E+00 -0.00000000000E+00 -0.19160724502E+03  0.19160724502E+03  0.00000000000E+00 0.  1.
         23    2    1    2    0    0  0.16385957939E+02  0.84731771023E+01  0.17851947115E+02  0.12760377433E+03  0.12499494734E+03 0.  0.
          5    1    3    3  502    0  0.56710949907E+01 -0.42107250114E+02 -0.33705508963E+02  0.54436505812E+02  0.47000000000E+01 0. -1.
         -5    1    3    3    0  502  0.10714862948E+02  0.50580427216E+02  0.51557456078E+02  0.73167268520E+02  0.47000000000E+01 0. -1.
        -11    1    1    2    0    0 -0.45293659311E+02  0.15805385394E+02 -0.39925602000E+02  0.62412975224E+02  0.00000000000E+00 0. -1.
         11    1    1    2    0    0  0.28907701372E+02 -0.24278562496E+02 -0.81398094193E+02  0.89725991405E+02  0.00000000000E+00 0.  1.
<mgrwt>
<rscale>  0 0.11665046E+03</rscale>
<asrwt>0</asrwt>
<pdfrwt beam="1">  1        2 0.13559307E-01 0.12634885E+03</pdfrwt>
<pdfrwt beam="2">  1       -2 0.29478038E-01 0.12634885E+03</pdfrwt>
<totfact> 0.44153641E+03</totfact>
</mgrwt>
</event>
<event>
 7    1  0.6419647E-006  0.1329369E+03  0.7546771E-02  0.1235900E+00
          1   -1    0    0  501    0  0.00000000000E+00  0.00000000000E+00  0.16459593182E+03  0.16459593182E+03  0.00000000000E+00 0. -1.
         -1   -1    0    0    0  501 -0.00000000000E+00 -0.00000000000E+00 -0.85639947952E+02  0.85639947952E+02  0.00000000000E+00 0.  1.
         23    2    1    2    0    0 -0.50892463068E+01  0.44960265654E+02  0.61940108091E+02  0.14665873830E+03  0.12499953046E+03 0.  0.
          5    1    3    3  502    0  0.13571207196E+02 -0.34767135548E+02 -0.84769288407E+01  0.38560079118E+02  0.47000000000E+01 0.  1.
         -5    1    3    3    0  502 -0.18660453502E+02  0.79727401203E+02  0.70417036931E+02  0.10809865919E+03  0.47000000000E+01 0.  1.
        -11    1    1    2    0    0 -0.13666612937E+02 -0.46043053905E+02 -0.27440029393E+02  0.55314503840E+02  0.00000000000E+00 0.  1.
         11    1    1    2    0    0  0.18755859244E+02  0.10827882502E+01  0.44455905175E+02  0.48262637633E+02  0.00000000000E+00 0. -1.
<mgrwt>
<rscale>  0 0.12447003E+03</rscale>
<asrwt>0</asrwt>
<pdfrwt beam="1">  1        1 0.25322451E-01 0.13293686E+03</pdfrwt>
<pdfrwt beam="2">  1       -1 0.13175377E-01 0.13293686E+03</pdfrwt>
<totfact> 0.70440028E+03</totfact>
</mgrwt>
</event>
<event>
 7    1  0.6419647E-006  0.1269621E+03  0.7546771E-02  0.1249337E+00
          1   -1    0    0  501    0  0.00000000000E+00  0.00000000000E+00  0.89478529068E+02  0.89478529068E+02  0.00000000000E+00 0. -1.
         -1   -1    0    0    0  501 -0.00000000000E+00 -0.00000000000E+00 -0.13822321931E+03  0.13822321931E+03  0.00000000000E+00 0.  1.
         23    2    1    2    0    0  0.14303809196E+01  0.22257881597E+02 -0.23131919552E+01  0.12698314174E+03  0.12498763198E+03 0.  0.
          5    1    3    3  502    0  0.43478274758E+02  0.51333265530E+02 -0.23546517786E+02  0.71428236894E+02  0.47000000000E+01 0. -1.
         -5    1    3    3    0  502 -0.42047893839E+02 -0.29075383933E+02  0.21233325831E+02  0.55554904851E+02  0.47000000000E+01 0. -1.
        -11    1    1    2    0    0  0.30066590524E+02  0.14603647445E+02 -0.39492841667E+02  0.51739259053E+02  0.00000000000E+00 0.  1.
         11    1    1    2    0    0 -0.31496971444E+02 -0.36861529042E+02 -0.69386566188E+01  0.48979347578E+02  0.00000000000E+00 0. -1.
<mgrwt>
<rscale>  0 0.11629543E+03</rscale>
<asrwt>0</asrwt>
<pdfrwt beam="1">  1        1 0.13765928E-01 0.12696207E+03</pdfrwt>
<pdfrwt beam="2">  1       -1 0.21265111E-01 0.12696207E+03</pdfrwt>
<totfact> 0.71689816E+03</totfact>
</mgrwt>
</event>
<event>
 7    1  0.6419647E-006  0.2712233E+03  0.7546771E-02  0.1102148E+00
         -2   -1    0    0    0  501 -0.00000000000E+00  0.00000000000E+00  0.99188938974E+02  0.99188938974E+02  0.00000000000E+00 0.  1.
          2   -1    0    0  501    0  0.00000000000E+00 -0.00000000000E+00 -0.12550626407E+04  0.12550626407E+04  0.00000000000E+00 0. -1.
         23    2    1    2    0    0 -0.23761505107E+03  0.38410387437E+02 -0.10297613316E+04  0.10648804893E+04  0.12500314448E+03 0.  0.
          5    1    3    3  502    0 -0.14342613633E+03  0.59080779415E+02 -0.81170771156E+03  0.82640976162E+03  0.47000000000E+01 0.  1.
         -5    1    3    3    0  502 -0.94188914738E+02 -0.20670391978E+02 -0.21805362003E+03  0.23847072771E+03  0.47000000000E+01 0.  1.
        -11    1    1    2    0    0  0.32402022153E+02  0.17806079705E+02 -0.52523070639E+02  0.64230993012E+02  0.00000000000E+00 0. -1.
         11    1    1    2    0    0  0.20521302892E+03 -0.56216467142E+02 -0.73589299442E+02  0.22514009729E+03  0.00000000000E+00 0.  1.
<mgrwt>
<rscale>  0 0.26848743E+03</rscale>
<asrwt>0</asrwt>
<pdfrwt beam="2">  1        2 0.19308656E+00 0.27122326E+03</pdfrwt>
<pdfrwt beam="1">  1       -2 0.15259837E-01 0.27122326E+03</pdfrwt>
<totfact> 0.62092863E+02</totfact>
</mgrwt>
</event>
<event>
 7    1  0.6419647E-006  0.1889959E+03  0.7546771E-02  0.1164213E+00
          1   -1    0    0  501    0  0.00000000000E+00  0.00000000000E+00  0.49676400125E+02  0.49676400125E+02  0.00000000000E+00 0. -1.
         -1   -1    0    0    0  501 -0.00000000000E+00 -0.00000000000E+00 -0.67876410480E+03  0.67876410480E+03  0.00000000000E+00 0.  1.
         23    2    1    2    0    0 -0.12805530968E+03 -0.60833336549E+02 -0.41285388993E+03  0.45405704486E+03  0.12498243230E+03 0.  0.
          5    1    3    3  502    0 -0.15295824922E+03 -0.47476863224E+02 -0.35592913724E+03  0.39033052569E+03  0.47000000000E+01 0.  1.
         -5    1    3    3    0  502  0.24902939537E+02 -0.13356473325E+02 -0.56924752687E+02  0.63726519172E+02  0.47000000000E+01 0.  1.
        -11    1    1    2    0    0  0.37069101800E+02 -0.16728099428E+02 -0.98598433623E+02  0.10665645190E+03  0.00000000000E+00 0.  1.
         11    1    1    2    0    0  0.90986207883E+02  0.77561435977E+02 -0.11763538112E+03  0.16772700816E+03  0.00000000000E+00 0. -1.
<mgrwt>
<rscale>  0 0.18375984E+03</rscale>
<asrwt>0</asrwt>
<pdfrwt beam="1">  1        1 0.76425233E-02 0.18899594E+03</pdfrwt>
<pdfrwt beam="2">  1       -1 0.10442524E+00 0.18899594E+03</pdfrwt>
<totfact> 0.84122955E+02</totfact>
</mgrwt>
</event>
<event>
 7    1  0.6419647E-006  0.1899522E+03  0.7546771E-02  0.1163091E+00
         -1   -1    0    0    0  501 -0.00000000000E+00  0.00000000000E+00  0.33095500490E+03  0.33095500490E+03  0.00000000000E+00 0.  1.
          1   -1    0    0  501    0  0.00000000000E+00 -0.00000000000E+00 -0.10116700318E+03  0.10116700318E+03  0.00000000000E+00 0. -1.
         23    2    1    2    0    0  0.13181291656E+03 -0.55525219400E+02  0.84370014707E+02  0.20784644942E+03  0.12499660873E+03 0.  0.
          5    1    3    3  502    0 -0.93159641599E+01  0.18275728571E+02  0.35360814060E+02  0.41149320942E+02  0.47000000000E+01 0.  1.
         -5    1    3    3    0  502  0.14112888072E+03 -0.73800947971E+02  0.49009200647E+02  0.16669712848E+03  0.47000000000E+01 0.  1.
        -11    1    1    2    0    0 -0.47408634351E+02  0.69905687140E+02  0.82046948653E+02  0.11775434382E+03  0.00000000000E+00 0. -1.
         11    1    1    2    0    0 -0.84404282207E+02 -0.14380467740E+02  0.63371038367E+02  0.10652121484E+03  0.00000000000E+00 0.  1.
<mgrwt>
<rscale>  0 0.18495622E+03</rscale>
<asrwt>0</asrwt>
<pdfrwt beam="2">  1        1 0.15564155E-01 0.18995222E+03</pdfrwt>
<pdfrwt beam="1">  1       -1 0.50916154E-01 0.18995222E+03</pdfrwt>
<totfact> 0.13958486E+03</totfact>
</mgrwt>
</event>
<event>
 7    1  0.6419647E-006  0.1250544E+03  0.7546771E-02  0.1245871E+00
         -1   -1    0    0    0  501 -0.00000000000E+00  0.00000000000E+00  0.36130963467E+03  0.36130963467E+03  0.00000000000E+00 0.  1.
          1   -1    0    0  501    0  0.00000000000E+00 -0.00000000000E+00 -0.74507441700E+02  0.74507441700E+02  0.00000000000E+00 0. -1.
         23    2    1    2    0    0 -0.19043476194E+02  0.34933472712E+02 -0.71275530909E+01  0.12525732013E+03  0.11855628508E+03 0.  0.
          5    1    3    3  502    0  0.22808876192E+02 -0.35759670864E+02 -0.47221154507E+01  0.42934686068E+02  0.47000000000E+01 0. -1.
         -5    1    3    3    0  502 -0.41852352386E+02  0.70693143576E+02 -0.24054376402E+01  0.82322634063E+02  0.47000000000E+01 0.  1.
        -11    1    1    2    0    0  0.52843732714E+02 -0.17398321260E+01  0.15218173916E+03  0.16110483803E+03  0.00000000000E+00 0.  1.
         11    1    1    2    0    0 -0.33800256520E+02 -0.33193640586E+02  0.14174800690E+03  0.14945491821E+03  0.00000000000E+00 0. -1.
<mgrwt>
<rscale>  0 0.11833393E+03</rscale>
<asrwt>0</asrwt>
<pdfrwt beam="2">  1        1 0.11462684E-01 0.12505437E+03</pdfrwt>
<pdfrwt beam="1">  1       -1 0.55586097E-01 0.12505437E+03</pdfrwt>
<totfact> 0.17458470E+03</totfact>
</mgrwt>
</event>
<event>
 7    1  0.6419647E-006  0.1418105E+03  0.7546771E-02  0.1226028E+00
          1   -1    0    0  501    0  0.00000000000E+00  0.00000000000E+00  0.76357420798E+02  0.76357420798E+02  0.00000000000E+00 0. -1.
         -1   -1    0    0    0  501 -0.00000000000E+00 -0.00000000000E+00 -0.24634377977E+03  0.24634377977E+03  0.00000000000E+00 0.  1.
         23    2    1    2    0    0  0.59529666477E+02 -0.30686858549E+02 -0.23821749751E+02  0.14379744515E+03  0.12499905996E+03 0.  0.
          5    1    3    3  502    0  0.97062769744E+02 -0.88031122740E+01 -0.10642959265E+02  0.98153138707E+02  0.47000000000E+01 0.  1.
         -5    1    3    3    0  502 -0.37533103267E+02 -0.21883746275E+02 -0.13178790487E+02  0.45644306442E+02  0.47000000000E+01 0.  1.
        -11    1    1    2    0    0  0.14854021928E+02 -0.43680930035E+01 -0.64208874015E+01  0.16761563141E+02  0.00000000000E+00 0. -1.
         11    1    1    2    0    0 -0.74383688405E+02  0.35054951553E+02 -0.13974372181E+03  0.16214219227E+03  0.00000000000E+00 0.  1.
<mgrwt>
<rscale>  0 0.13096693E+03</rscale>
<asrwt>0</asrwt>
<pdfrwt beam="1">  1        1 0.11747296E-01 0.14181054E+03</pdfrwt>
<pdfrwt beam="2">  1       -1 0.37899043E-01 0.14181054E+03</pdfrwt>
<totfact> 0.33842296E+03</totfact>
</mgrwt>
</event>
<event>
 7    1  0.6419647E-006  0.1800982E+03  0.7546771E-02  0.1172800E+00
          1   -1    0    0  501    0  0.00000000000E+00  0.00000000000E+00  0.65306267549E+03  0.65306267549E+03  0.00000000000E+00 0. -1.
         -1   -1    0    0    0  501 -0.00000000000E+00 -0.00000000000E+00 -0.79486661171E+02  0.79486661171E+02  0.00000000000E+00 0.  1.
         23    2    1    2    0    0  0.12461038094E+03 -0.35815032492E+02  0.53936072200E+03  0.56863464347E+03  0.12499962291E+03 0.  0.
          5    1    3    3  502    0  0.14584060132E+03 -0.49639709896E+02  0.45221826145E+03  0.47776252237E+03  0.47000000000E+01 0.  1.
         -5    1    3    3    0  502 -0.21230220379E+02  0.13824677403E+02  0.87142460547E+02  0.90872121098E+02  0.47000000000E+01 0.  1.
        -11    1    1    2    0    0 -0.96121796439E+02 -0.17692795957E+02  0.86283610194E+01  0.98116682544E+02  0.00000000000E+00 0.  1.
         11    1    1    2    0    0 -0.28488584500E+02  0.53507828449E+02  0.25586931305E+02  0.65798010652E+02  0.00000000000E+00 0. -1.
<mgrwt>
<rscale>  0 0.17493153E+03</rscale>
<asrwt>0</asrwt>
<pdfrwt beam="1">  1        1 0.10047118E+00 0.18009822E+03</pdfrwt>
<pdfrwt beam="2">  1       -1 0.12228718E-01 0.18009822E+03</pdfrwt>
<totfact> 0.13822783E+03</totfact>
</mgrwt>
</event>
<event>
 7    1  0.6419647E-006  0.1141671E+03  0.7546771E-02  0.1264612E+00
         -1   -1    0    0    0  501 -0.00000000000E+00  0.00000000000E+00  0.87826260211E+02  0.87826260211E+02  0.00000000000E+00 0.  1.
          1   -1    0    0  501    0  0.00000000000E+00 -0.00000000000E+00 -0.14897550413E+03  0.14897550413E+03  0.00000000000E+00 0. -1.
         23    2    1    2    0    0  0.13462322012E+01 -0.18162543769E+02 -0.85567670395E+02  0.14267425343E+03  0.11270503998E+03 0.  0.
          5    1    3    3  502    0  0.82525417975E+01  0.16811497980E+02 -0.10151766650E+03  0.10333759007E+03  0.47000000000E+01 0. -1.
         -5    1    3    3    0  502 -0.69063095963E+01 -0.34974041749E+02  0.15949996102E+02  0.39336663358E+02  0.47000000000E+01 0.  1.
        -11    1    1    2    0    0  0.24151873956E+02 -0.20974287930E+02  0.33743269621E+02  0.46495612852E+02  0.00000000000E+00 0.  1.
         11    1    1    2    0    0 -0.25498106158E+02  0.39136831699E+02 -0.93248431413E+01  0.47631898059E+02  0.00000000000E+00 0. -1.
<mgrwt>
<rscale>  0 0.10784564E+03</rscale>
<asrwt>0</asrwt>
<pdfrwt beam="2">  1        1 0.22919309E-01 0.11416705E+03</pdfrwt>
<pdfrwt beam="1">  1       -1 0.13511732E-01 0.11416705E+03</pdfrwt>
<totfact> 0.75899603E+03</totfact>
</mgrwt>
</event>
<event>
 7    1  0.6419647E-006  0.2308306E+03  0.7546771E-02  0.1129024E+00
          1   -1    0    0  501    0  0.00000000000E+00  0.00000000000E+00  0.21534853888E+04  0.21534853888E+04  0.00000000000E+00 0. -1.
         -1   -1    0    0    0  501 -0.00000000000E+00 -0.00000000000E+00 -0.32090461571E+02  0.32090461571E+02  0.00000000000E+00 0.  1.
         23    2    1    2    0    0  0.71719285303E+02 -0.18032800640E+03  0.16690358050E+04  0.16849223345E+04  0.12498363511E+03 0.  0.
          5    1    3    3  502    0  0.82298317868E+02 -0.52179556391E+02  0.89012586193E+03  0.89545622970E+03  0.47000000000E+01 0. -1.
         -5    1    3    3    0  502 -0.10579032564E+02 -0.12814845001E+03  0.77890994312E+03  0.78946610482E+03  0.47000000000E+01 0. -1.
        -11    1    1    2    0    0 -0.34403020283E+02  0.17164596524E+03  0.34951883189E+03  0.39090832562E+03  0.00000000000E+00 0.  1.
         11    1    1    2    0    0 -0.37316265020E+02  0.86820411651E+01  0.10284029027E+03  0.10974519022E+03  0.00000000000E+00 0. -1.
<mgrwt>
<rscale>  0 0.22664410E+03</rscale>
<asrwt>0</asrwt>
<pdfrwt beam="1">  1        1 0.33130533E+00 0.23083058E+03</pdfrwt>
<pdfrwt beam="2">  1       -1 0.49369958E-02 0.23083058E+03</pdfrwt>
<totfact> 0.48400260E+02</totfact>
</mgrwt>
</event>
<event>
 7    1  0.6419647E-006  0.1730153E+03  0.7546771E-02  0.1188272E+00
          2   -1    0    0  501    0  0.00000000000E+00  0.00000000000E+00  0.48535058019E+03  0.48535058019E+03  0.00000000000E+00 0. -1.
         -2   -1    0    0    0  501 -0.00000000000E+00 -0.00000000000E+00 -0.47242872579E+02  0.47242872579E+02  0.00000000000E+00 0.  1.
         23    2    1    2    0    0 -0.93100281916E+02 -0.75066624730E+02  0.28251947850E+03  0.33128772139E+03  0.12502654908E+03 0.  0.
          5    1    3    3  502    0  0.59901257428E+00 -0.76970636351E+02  0.10238975481E+03  0.12818186130E+03  0.47000000000E+01 0.  1.
         -5    1    3    3    0  502 -0.93699294490E+02  0.19040116215E+01  0.18012972368E+03  0.20310586009E+03  0.47000000000E+01 0.  1.
        -11    1    1    2    0    0  0.50978548567E+02  0.15552992300E+02  0.50667319965E+02  0.73538325354E+02  0.00000000000E+00 0.  1.
         11    1    1    2    0    0  0.42121733349E+02  0.59513632430E+02  0.10492090915E+03  0.12776740603E+03  0.00000000000E+00 0. -1.
<mgrwt>
<rscale>  0 0.16037664E+03</rscale>
<asrwt>0</asrwt>
<pdfrwt beam="1">  1        2 0.74669317E-01 0.17301531E+03</pdfrwt>
<pdfrwt beam="2">  1       -2 0.72681346E-02 0.17301531E+03</pdfrwt>
<totfact> 0.68751311E+03</totfact>
</mgrwt>
</event>
<event>
 7    1  0.6419647E-006  0.1277877E+03  0.7546771E-02  0.1244745E+00
          1   -1    0    0  501    0  0.00000000000E+00  0.00000000000E+00  0.35692046743E+03  0.35692046743E+03  0.00000000000E+00 0. -1.
         -1   -1    0    0    0  501 -0.00000000000E+00 -0.00000000000E+00 -0.35789731371E+02  0.35789731371E+02  0.00000000000E+00 0.  1.
         23    2    1    2    0    0 -0.57572614279E+01 -0.25910874362E+02  0.20951204346E+03  0.24540780346E+03  0.12500069671E+03 0.  0.
          5    1    3    3  502    0  0.35548745413E+02  0.34653945895E+02  0.11767546407E+03  0.12780537590E+03  0.47000000000E+01 0.  1.
         -5    1    3    3    0  502 -0.41306006841E+02 -0.60564820257E+02  0.91836579392E+02  0.11760242756E+03  0.47000000000E+01 0.  1.
        -11    1    1    2    0    0  0.41341387834E+02  0.33512692075E+02  0.38676724730E+02  0.65788296178E+02  0.00000000000E+00 0.  1.
         11    1    1    2    0    0 -0.35584126407E+02 -0.76018177131E+01  0.72941967874E+02  0.81514099161E+02  0.00000000000E+00 0. -1.
<mgrwt>
<rscale>  0 0.11900671E+03</rscale>
<asrwt>0</asrwt>
<pdfrwt beam="1">  1        1 0.54910839E-01 0.12778769E+03</pdfrwt>
<pdfrwt beam="2">  1       -1 0.55061128E-02 0.12778769E+03</pdfrwt>
<totfact> 0.10074047E+04</totfact>
</mgrwt>
</event>
<event>
 7    1  0.6419647E-006  0.1506212E+03  0.7546771E-02  0.1208959E+00
          4   -1    0    0  501    0  0.00000000000E+00  0.00000000000E+00  0.10084170285E+03  0.10084170285E+03  0.00000000000E+00 0. -1.
         -4   -1    0    0    0  501 -0.00000000000E+00 -0.00000000000E+00 -0.19030754058E+03  0.19030754058E+03  0.00000000000E+00 0.  1.
         23    2    1    2    0    0  0.21951739520E+02  0.81117652204E+02 -0.27660159767E+02  0.15313988632E+03  0.12499915191E+03 0.  0.
          5    1    3    3  502    0  0.33095233720E+01  0.56794041003E+02  0.45941230993E+02  0.73274843866E+02  0.47000000000E+01 0. -1.
         -5    1    3    3    0  502  0.18642216148E+02  0.24323611201E+02 -0.73601390760E+02  0.79865042456E+02  0.47000000000E+01 0. -1.
        -11    1    1    2    0    0 -0.11655734759E+02  0.30507322012E+01 -0.51146284483E+02  0.52546222853E+02  0.00000000000E+00 0.  1.
         11    1    1    2    0    0 -0.10296004761E+02 -0.84168384406E+02 -0.10659393484E+02  0.85463134256E+02  0.00000000000E+00 0. -1.
<mgrwt>
<rscale>  0 0.14329797E+03</rscale>
<asrwt>0</asrwt>
<pdfrwt beam="1">  1        4 0.15514108E-01 0.15062118E+03</pdfrwt>
<pdfrwt beam="2">  1       -4 0.29278083E-01 0.15062118E+03</pdfrwt>
<totfact> 0.66842092E+02</totfact>
</mgrwt>
</event>
<event>
 7    1  0.6419647E-006  0.1617130E+03  0.7546771E-02  0.1194130E+00
         -3   -1    0    0    0  501 -0.00000000000E+00  0.00000000000E+00  0.83022034911E+02  0.83022034911E+02  0.00000000000E+00 0.  1.
          3   -1    0    0  501    0  0.00000000000E+00 -0.00000000000E+00 -0.29302355163E+03  0.29302355163E+03  0.00000000000E+00 0. -1.
         23    2    1    2    0    0  0.87664141147E+02 -0.53294889569E+02 -0.16587440750E+03  0.23165798723E+03  0.12500302831E+03 0.  0.
          5    1    3    3  502    0  0.31237044108E+02 -0.32477570050E+02  0.94182856254E+01  0.46274610588E+02  0.47000000000E+01 0.  1.
         -5    1    3    3    0  502  0.56427097039E+02 -0.20817319518E+02 -0.17529269312E+03  0.18538337664E+03  0.47000000000E+01 0.  1.
        -11    1    1    2    0    0 -0.10462641564E+03  0.50586027699E+02 -0.49605411585E+02  0.12635794358E+03  0.00000000000E+00 0. -1.
         11    1    1    2    0    0  0.16962274495E+02  0.27088618699E+01  0.54783023688E+01  0.18029655724E+02  0.00000000000E+00 0.  1.
<mgrwt>
<rscale>  0 0.15528094E+03</rscale>
<asrwt>0</asrwt>
<pdfrwt beam="2">  1        3 0.45080546E-01 0.16171303E+03</pdfrwt>
<pdfrwt beam="1">  1       -3 0.12772621E-01 0.16171303E+03</pdfrwt>
<totfact> 0.57055990E+02</totfact>
</mgrwt>
</event>
<event>
 7    1  0.6419647E-006  0.2067550E+03  0.7546771E-02  0.1148741E+00
         -2   -1    0    0    0  501 -0.00000000000E+00  0.00000000000E+00  0.46813430096E+02  0.46813430096E+02  0.00000000000E+00 0.  1.
          2   -1    0    0  501    0  0.00000000000E+00 -0.00000000000E+00 -0.90358778204E+03  0.90358778204E+03  0.00000000000E+00 0. -1.
         23    2    1    2    0    0 -0.14849320252E+03 -0.71227668265E+02 -0.59296496369E+03  0.62797697919E+03  0.12499610515E+03 0.  0.
          5    1    3    3  502    0  0.22237897362E+02 -0.93728726740E+01 -0.57375765291E+02  0.62421496810E+02  0.47000000000E+01 0.  1.
         -5    1    3    3    0  502 -0.17073109988E+03 -0.61854795591E+02 -0.53558919840E+03  0.56555548238E+03  0.47000000000E+01 0.  1.
        -11    1    1    2    0    0  0.11000991237E+03  0.83940033411E+01 -0.13869607354E+03  0.17722652433E+03  0.00000000000E+00 0.  1.
         11    1    1    2    0    0  0.38483290152E+02  0.62833664924E+02 -0.12511331471E+03  0.14519770861E+03  0.00000000000E+00 0. -1.
<mgrwt>
<rscale>  0 0.20118789E+03</rscale>
<asrwt>0</asrwt>
<pdfrwt beam="2">  1        2 0.13901351E+00 0.20675502E+03</pdfrwt>
<pdfrwt beam="1">  1       -2 0.72020661E-02 0.20675502E+03</pdfrwt>
<totfact> 0.33421356E+03</totfact>
</mgrwt>
</event>
<event>
 7    1  0.6419647E-006  0.1321206E+03  0.7546771E-02  0.1236307E+00
          2   -1    0    0  501    0  0.00000000000E+00  0.00000000000E+00  0.82039079112E+03  0.82039079112E+03  0.00000000000E+00 0. -1.
         -2   -1    0    0    0  501 -0.00000000000E+00 -0.00000000000E+00 -0.16943200410E+02  0.16943200410E+02  0.00000000000E+00 0.  1.
         23    2    1    2    0    0 -0.40012280080E+02 -0.15166511871E+02  0.47690007395E+03  0.49486315775E+03  0.12499943491E+03 0.  0.
          5    1    3    3  502    0 -0.68292710473E+01  0.33553484583E+02  0.37840460018E+03  0.37997974513E+03  0.47000000000E+01 0. -1.
         -5    1    3    3    0  502 -0.33183009033E+02 -0.48719996454E+02  0.98495473763E+02  0.11488341262E+03  0.47000000000E+01 0. -1.
        -11    1    1    2    0    0  0.29149832241E+02 -0.33272468787E+02  0.22656251502E+03  0.23084051445E+03  0.00000000000E+00 0. -1.
         11    1    1    2    0    0  0.10862447839E+02  0.48438980658E+02  0.99985001742E+02  0.11163031933E+03  0.00000000000E+00 0.  1.
<mgrwt>
<rscale>  0 0.12421154E+03</rscale>
<asrwt>0</asrwt>
<pdfrwt beam="1">  1        2 0.12621394E+00 0.13212064E+03</pdfrwt>
<pdfrwt beam="2">  1       -2 0.26066468E-02 0.13212064E+03</pdfrwt>
<totfact> 0.17035929E+04</totfact>
</mgrwt>
</event>
<event>
 7    1  0.6419647E-006  0.1381171E+03  0.7546771E-02  0.1227253E+00
         -1   -1    0    0    0  501 -0.00000000000E+00  0.00000000000E+00  0.31630466281E+02  0.31630466281E+02  0.00000000000E+00 0.  1.
          1   -1    0    0  501    0  0.00000000000E+00 -0.00000000000E+00 -0.62863781194E+03  0.62863781194E+03  0.00000000000E+00 0. -1.
         23    2    1    2    0    0 -0.45611369379E+02 -0.37023454196E+02 -0.48415332574E+03  0.50346873029E+03  0.12500074550E+03 0.  0.
          5    1    3    3  502    0 -0.65692841514E+02 -0.71859688973E+02 -0.33088358061E+03  0.34494260138E+03  0.47000000000E+01 0. -1.
         -5    1    3    3    0  502  0.20081472135E+02  0.34836234777E+02 -0.15326974512E+03  0.15852612891E+03  0.47000000000E+01 0. -1.
        -11    1    1    2    0    0  0.55382505872E+02  0.60784418043E+02 -0.94245816150E+02  0.12507694150E+03  0.00000000000E+00 0.  1.
         11    1    1    2    0    0 -0.97711364931E+01 -0.23760963847E+02 -0.18608203773E+02  0.31722606434E+02  0.00000000000E+00 0. -1.
<mgrwt>
<rscale>  0 0.13013694E+03</rscale>
<asrwt>0</asrwt>
<pdfrwt beam="2">  1        1 0.96713512E-01 0.13811705E+03</pdfrwt>
<pdfrwt beam="1">  1       -1 0.48662254E-02 0.13811705E+03</pdfrwt>
<totfact> 0.58313602E+03</totfact>
</mgrwt>
</event>
<event>
 7    1  0.6419647E-006  0.1411794E+03  0.7546771E-02  0.1220327E+00
          2   -1    0    0  501    0  0.00000000000E+00  0.00000000000E+00  0.12709772653E+03  0.12709772653E+03  0.00000000000E+00 0. -1.
         -2   -1    0    0    0  501 -0.00000000000E+00 -0.00000000000E+00 -0.13952777777E+03  0.13952777777E+03  0.00000000000E+00 0.  1.
         23    2    1    2    0    0 -0.13441117599E+02  0.64237875101E+02  0.24309031311E+02  0.14325698011E+03  0.12499786041E+03 0.  0.
          5    1    3    3  502    0 -0.25076840434E+02 -0.26802923058E+02  0.34751276662E+02  0.50764021119E+02  0.47000000000E+01 0.  1.
         -5    1    3    3    0  502  0.11635722835E+02  0.91040798159E+02 -0.10442245351E+02  0.92492958993E+02  0.47000000000E+01 0.  1.
        -11    1    1    2    0    0  0.55333981968E+02 -0.33484098654E+02 -0.11875014930E+02  0.65757512139E+02  0.00000000000E+00 0. -1.
         11    1    1    2    0    0 -0.41892864369E+02 -0.30753776447E+02 -0.24864067627E+02  0.57611012053E+02  0.00000000000E+00 0.  1.
<mgrwt>
<rscale>  0 0.13492371E+03</rscale>
<asrwt>0</asrwt>
<pdfrwt beam="1">  1        2 0.19553496E-01 0.14117944E+03</pdfrwt>
<pdfrwt beam="2">  1       -2 0.21465812E-01 0.14117944E+03</pdfrwt>
<totfact> 0.50665485E+03</totfact>
</mgrwt>
</event>
<event>
 7    1  0.6419647E-006  0.1275717E+03  0.7546771E-02  0.1260348E+00
         -1   -1    0    0    0  501 -0.00000000000E+00  0.00000000000E+00  0.12123873152E+03  0.12123873152E+03  0.00000000000E+00 0.  1.
          1   -1    0    0  501    0  0.00000000000E+00 -0.00000000000E+00 -0.81293903257E+02  0.81293903257E+02  0.00000000000E+00 0. -1.
         23    2    1    2    0    0  0.92998936788E+01  0.23739308848E+02  0.21840668929E+02  0.12942778822E+03  0.12499797893E+03 0.  0.
          5    1    3    3  502    0  0.16843880901E+02 -0.26496187493E+02  0.58532459525E+02  0.66587559600E+02  0.47000000000E+01 0. -1.
         -5    1    3    3    0  502 -0.75439872218E+01  0.50235496341E+02 -0.36691790596E+02  0.62840228620E+02  0.47000000000E+01 0. -1.
        -11    1    1    2    0    0 -0.30666300003E+01 -0.10092447240E+02  0.42870256419E+02  0.44148845923E+02  0.00000000000E+00 0.  1.
         11    1    1    2    0    0 -0.62332636785E+01 -0.13646861609E+02 -0.24766097086E+02  0.28956000634E+02  0.00000000000E+00 0. -1.
<mgrwt>
<rscale>  0 0.11012007E+03</rscale>
<asrwt>0</asrwt>
<pdfrwt beam="2">  1        1 0.12506754E-01 0.12757170E+03</pdfrwt>
<pdfrwt beam="1">  1       -1 0.18652113E-01 0.12757170E+03</pdfrwt>
<totfact> 0.10026127E+04</totfact>
</mgrwt>
</event>
<event>
 7    1  0.1016505E-005  0.1569795E+03  0.7546771E-02  0.1200109E+00
          3   -1    0    0  501    0  0.00000000000E+00  0.00000000000E+00  0.35930146644E+03  0.35930146644E+03  0.00000000000E+00 0. -1.
         -3   -1    0    0    0  501 -0.00000000000E+00 -0.00000000000E+00 -0.58894453066E+02  0.58894453066E+02  0.00000000000E+00 0.  1.
         23    2    1    2    0    0 -0.18881494699E+02 -0.93068966072E+02  0.18773383057E+03  0.24471729360E+03  0.12499687740E+03 0.  0.
          5    1    3    3  502    0 -0.13753534422E+02  0.27718456402E+02  0.66213559714E+02  0.73237954808E+02  0.47000000000E+01 0.  1.
         -5    1    3    3    0  502 -0.51279602770E+01 -0.12078742247E+03  0.12152027085E+03  0.17147933879E+03  0.47000000000E+01 0.  1.
        -11    1    1    2    0    0  0.37559077580E+02  0.52205308643E+02  0.15104955516E+02  0.66062381431E+02  0.00000000000E+00 0.  1.
         11    1    1    2    0    0 -0.18677582881E+02  0.40863657429E+02  0.97568227295E+02  0.10741624448E+03  0.00000000000E+00 0. -1.
<mgrwt>
<rscale>  0 0.15029674E+03</rscale>
<asrwt>0</asrwt>
<pdfrwt beam="1">  1        3 0.55277148E-01 0.15697950E+03</pdfrwt>
<pdfrwt beam="2">  1       -3 0.90606853E-02 0.15697950E+03</pdfrwt>
<totfact> 0.66994891E+02</totfact>
</mgrwt>
</event>
<event>
 7    1  0.1537536E-005  0.2266452E+03  0.7546771E-02  0.1132252E+00
         -1   -1    0    0    0  501 -0.00000000000E+00  0.00000000000E+00  0.25641454560E+02  0.25641454560E+02  0.00000000000E+00 0.  1.
          1   -1    0    0  501    0  0.00000000000E+00 -0.00000000000E+00 -0.19785220896E+04  0.19785220896E+04  0.00000000000E+00 0. -1.
         23    2    1    2    0    0 -0.17433599872E+03 -0.73146332739E+02 -0.12641791417E+04  0.12843352150E+04  0.12499846295E+03 0.  0.
          5    1    3    3  502    0 -0.10815653919E+03  0.22155960334E+02 -0.60777224948E+03  0.61773612553E+03  0.47000000000E+01 0.  1.
         -5    1    3    3    0  502 -0.66179459537E+02 -0.95302293073E+02 -0.65640689226E+03  0.66659908951E+03  0.47000000000E+01 0.  1.
        -11    1    1    2    0    0  0.10763110479E+03  0.19486303473E+02 -0.51106288371E+03  0.52263700773E+03  0.00000000000E+00 0. -1.
         11    1    1    2    0    0  0.66704893936E+02  0.53660029266E+02 -0.17763860962E+03  0.19719132142E+03  0.00000000000E+00 0.  1.
<mgrwt>
<rscale>  0 0.22220177E+03</rscale>
<asrwt>0</asrwt>
<pdfrwt beam="2">  1        1 0.30438814E+00 0.22664519E+03</pdfrwt>
<pdfrwt beam="1">  1       -1 0.39448376E-02 0.22664519E+03</pdfrwt>
<totfact> 0.87856802E+02</totfact>
</mgrwt>
</event>
<event>
 7    1  0.6419647E-006  0.1199615E+03  0.7546771E-02  0.1252763E+00
         -2   -1    0    0    0  501 -0.00000000000E+00  0.00000000000E+00  0.71962880883E+02  0.71962880883E+02  0.00000000000E+00 0.  1.
          2   -1    0    0  501    0  0.00000000000E+00 -0.00000000000E+00 -0.17301258791E+03  0.17301258791E+03  0.00000000000E+00 0. -1.
         23    2    1    2    0    0  0.36350475137E+02 -0.17598001018E+02 -0.78858571682E+02  0.14355988713E+03  0.11295893139E+03 0.  0.
          5    1    3    3  502    0 -0.40347531394E+02 -0.11413854893E+02 -0.20734398327E+02  0.47012813648E+02  0.47000000000E+01 0. -1.
         -5    1    3    3    0  502  0.76698006532E+02 -0.61841461254E+01 -0.58124173355E+02  0.96547073479E+02  0.47000000000E+01 0.  1.
        -11    1    1    2    0    0  0.83678057862E+01  0.89223160514E+01  0.29847178272E+02  0.32256502417E+02  0.00000000000E+00 0.  1.
         11    1    1    2    0    0 -0.44718280923E+02  0.86756849669E+01 -0.52038313617E+02  0.69159079248E+02  0.00000000000E+00 0. -1.
<mgrwt>
<rscale>  0 0.11432577E+03</rscale>
<asrwt>0</asrwt>
<pdfrwt beam="2">  1        2 0.26617321E-01 0.11996152E+03</pdfrwt>
<pdfrwt beam="1">  1       -2 0.11071213E-01 0.11996152E+03</pdfrwt>
<totfact> 0.10519159E+04</totfact>
</mgrwt>
</event>
<event>
 7    1  0.6419647E-006  0.1333949E+03  0.7546771E-02  0.1234933E+00
          1   -1    0    0  501    0  0.00000000000E+00  0.00000000000E+00  0.21075278134E+03  0.21075278134E+03  0.00000000000E+00 0. -1.
         -1   -1    0    0    0  501 -0.00000000000E+00 -0.00000000000E+00 -0.14468251842E+03  0.14468251842E+03  0.00000000000E+00 0.  1.
         23    2    1    2    0    0  0.40496786352E+02 -0.22998492565E+02  0.16523158387E+03  0.21235743795E+03  0.12500113911E+03 0.  0.
          5    1    3    3  502    0  0.53544297942E+02  0.24493154789E+02  0.25888968819E+02  0.64492132699E+02  0.47000000000E+01 0. -1.
         -5    1    3    3    0  502 -0.13047511590E+02 -0.47491647354E+02  0.13934261505E+03  0.14786530525E+03  0.47000000000E+01 0. -1.
        -11    1    1    2    0    0 -0.38876820688E+02 -0.24694308536E+01 -0.10898128280E+03  0.11573428738E+03  0.00000000000E+00 0.  1.
         11    1    1    2    0    0 -0.16199656636E+01  0.25467923419E+02  0.98199618479E+01  0.27343574432E+02  0.00000000000E+00 0. -1.
<mgrwt>
<rscale>  0 0.12508739E+03</rscale>
<asrwt>0</asrwt>
<pdfrwt beam="1">  1        1 0.32423505E-01 0.13339492E+03</pdfrwt>
<pdfrwt beam="2">  1       -1 0.22258849E-01 0.13339492E+03</pdfrwt>
<totfact> 0.22562116E+03</totfact>
</mgrwt>
</event>
<event>
 7    1  0.6419647E-006  0.2307265E+03  0.7546771E-02  0.1129313E+00
          2   -1    0    0  501    0  0.00000000000E+00  0.00000000000E+00  0.15529691346E+04  0.15529691346E+04  0.00000000000E+00 0. -1.
         -2   -1    0    0    0  501 -0.00000000000E+00 -0.00000000000E+00 -0.32074826447E+02  0.32074826447E+02  0.00000000000E+00 0.  1.
         23    2    1    2    0    0 -0.13783923221E+03  0.13641746126E+03  0.87086434753E+03  0.90091032105E+03  0.12500126841E+03 0.  0.
          5    1    3    3  502    0 -0.12746008519E+03  0.13483145063E+03  0.86977283251E+03  0.88935508295E+03  0.47000000000E+01 0. -1.
         -5    1    3    3    0  502 -0.10379147021E+02  0.15860106253E+01  0.10915150226E+01  0.11555238103E+02  0.47000000000E+01 0. -1.
        -11    1    1    2    0    0  0.67361461471E+02 -0.51066626719E+02  0.42535093291E+03  0.43366897858E+03  0.00000000000E+00 0.  1.
         11    1    1    2    0    0  0.70477770743E+02 -0.85350834538E+02  0.22467902775E+03  0.25046466145E+03  0.00000000000E+00 0. -1.
<mgrwt>
<rscale>  0 0.22624257E+03</rscale>
<asrwt>0</asrwt>
<pdfrwt beam="1">  1        2 0.23891827E+00 0.23072645E+03</pdfrwt>
<pdfrwt beam="2">  1       -2 0.49345899E-02 0.23072645E+03</pdfrwt>
<totfact> 0.25540665E+03</totfact>
</mgrwt>
</event>
<event>
 7    1  0.6419647E-006  0.1385818E+03  0.7546771E-02  0.1227069E+00
         -2   -1    0    0    0  501 -0.00000000000E+00  0.00000000000E+00  0.15523770674E+02  0.15523770674E+02  0.00000000000E+00 0. -1.
          2   -1    0    0  501    0  0.00000000000E+00 -0.00000000000E+00 -0.98833079525E+03  0.98833079525E+03  0.00000000000E+00 0.  1.
         23    2    1    2    0    0  0.52274305839E+02 -0.29161294824E+02 -0.50179496695E+03  0.52057958387E+03  0.12498771989E+03 0.  0.
          5    1    3    3  502    0  0.81918106573E+02 -0.54986495807E+02 -0.34482392573E+03  0.35869167911E+03  0.47000000000E+01 0. -1.
         -5    1    3    3    0  502 -0.29643800734E+02  0.25825200984E+02 -0.15697104122E+03  0.16188790477E+03  0.47000000000E+01 0. -1.
        -11    1    1    2    0    0 -0.43163914446E+01  0.53745611552E+02 -0.25544341002E+03  0.26107193973E+03  0.00000000000E+00 0.  1.
         11    1    1    2    0    0 -0.47957914395E+02 -0.24584316729E+02 -0.21556864761E+03  0.22220304232E+03  0.00000000000E+00 0. -1.
<mgrwt>
<rscale>  0 0.13026081E+03</rscale>
<asrwt>0</asrwt>
<pdfrwt beam="2">  1        2 0.15205093E+00 0.13858180E+03</pdfrwt>
<pdfrwt beam="1">  1       -2 0.23882718E-02 0.13858180E+03</pdfrwt>
<totfact> 0.15222782E+04</totfact>
</mgrwt>
</event>
<event>
 7    1  0.6419647E-006  0.1299690E+03  0.7546771E-02  0.1239954E+00
          2   -1    0    0  501    0  0.00000000000E+00  0.00000000000E+00  0.35187298462E+03  0.35187298462E+03  0.00000000000E+00 0. -1.
         -2   -1    0    0    0  501 -0.00000000000E+00 -0.00000000000E+00 -0.40160908972E+02  0.40160908972E+02  0.00000000000E+00 0.  1.
         23    2    1    2    0    0 -0.71744865895E+01  0.43975213677E+02  0.22175356469E+03  0.25703422159E+03  0.12209281282E+03 0.  0.
          5    1    3    3  502    0  0.43179081969E+02  0.72236535663E+00  0.16157723974E+03  0.16731482102E+03  0.47000000000E+01 0. -1.
         -5    1    3    3    0  502 -0.50353568559E+02  0.43252848320E+02  0.60176324952E+02  0.89719400573E+02  0.47000000000E+01 0.  1.
        -11    1    1    2    0    0 -0.24370389178E+02 -0.23482969895E+01  0.77541398504E+02  0.81314813223E+02  0.00000000000E+00 0. -1.
         11    1    1    2    0    0  0.31544875768E+02 -0.41626916687E+02  0.12417112454E+02  0.53684858776E+02  0.00000000000E+00 0.  1.
<mgrwt>
<rscale>  0 0.12192530E+03</rscale>
<asrwt>0</asrwt>
<pdfrwt beam="1">  1        2 0.54134303E-01 0.12996903E+03</pdfrwt>
<pdfrwt beam="2">  1       -2 0.61786016E-02 0.12996903E+03</pdfrwt>
<totfact> 0.12231206E+04</totfact>
</mgrwt>
</event>
<event>
 7    1  0.6419647E-006  0.1379295E+03  0.7546771E-02  0.1231353E+00
          1   -1    0    0  501    0  0.00000000000E+00  0.00000000000E+00  0.78894430182E+03  0.78894430182E+03  0.00000000000E+00 0. -1.
         -1   -1    0    0    0  501 -0.00000000000E+00 -0.00000000000E+00 -0.19338899579E+02  0.19338899579E+02  0.00000000000E+00 0.  1.
         23    2    1    2    0    0 -0.26341712309E+02  0.52012942374E+02  0.54620451630E+03  0.56335062880E+03  0.12500130145E+03 0.  0.
          5    1    3    3  502    0 -0.65882509112E+02  0.27076925495E+02  0.45688648270E+03  0.46242946811E+03  0.47000000000E+01 0.  1.
         -5    1    3    3    0  502  0.39540796803E+02  0.24936016878E+02  0.89318033601E+02  0.10092116069E+03  0.47000000000E+01 0.  1.
        -11    1    1    2    0    0  0.45325776945E+02 -0.16592486064E+02  0.61831049135E+02  0.78439883265E+02  0.00000000000E+00 0.  1.
         11    1    1    2    0    0 -0.18984064637E+02 -0.35420456310E+02  0.16156983680E+03  0.16649268933E+03  0.00000000000E+00 0. -1.
<mgrwt>
<rscale>  0 0.12740812E+03</rscale>
<asrwt>0</asrwt>
<pdfrwt beam="1">  1        1 0.12137602E+00 0.13792954E+03</pdfrwt>
<pdfrwt beam="2">  1       -1 0.29752159E-02 0.13792954E+03</pdfrwt>
<totfact> 0.86615588E+03</totfact>
</mgrwt>
</event>
<event>
 7    1  0.6419647E-006  0.1288017E+03  0.7546771E-02  0.1243046E+00
          2   -1    0    0  501    0  0.00000000000E+00  0.00000000000E+00  0.33848387364E+02  0.33848387364E+02  0.00000000000E+00 0.  1.
         -2   -1    0    0    0  501 -0.00000000000E+00 -0.00000000000E+00 -0.39010915878E+03  0.39010915878E+03  0.00000000000E+00 0. -1.
         23    2    1    2    0    0  0.20769943722E+02  0.23069532027E+02 -0.16384564695E+03  0.20841133190E+03  0.12500517336E+03 0.  0.
          5    1    3    3  502    0  0.15581783660E+02 -0.20021341736E+02  0.11109396888E+02  0.28091899297E+02  0.47000000000E+01 0.  1.
         -5    1    3    3    0  502  0.51881600619E+01  0.43090873763E+02 -0.17495504384E+03  0.18031943260E+03  0.47000000000E+01 0.  1.
        -11    1    1    2    0    0 -0.42168940469E+02 -0.41059807838E+02 -0.77708880808E+02  0.97482293348E+02  0.00000000000E+00 0.  1.
         11    1    1    2    0    0  0.21398996747E+02  0.17990275811E+02 -0.11470624365E+03  0.11806392090E+03  0.00000000000E+00 0. -1.
<mgrwt>
<rscale>  0 0.12003093E+03</rscale>
<asrwt>0</asrwt>
<pdfrwt beam="1">  1        2 0.52074445E-02 0.12880174E+03</pdfrwt>
<pdfrwt beam="2">  1       -2 0.60016790E-01 0.12880174E+03</pdfrwt>
<totfact> 0.37359082E+03</totfact>
</mgrwt>
</event>
<event>
 7    1  0.6419647E-006  0.1341703E+03  0.7546771E-02  0.1235064E+00
         -3   -1    0    0    0  501 -0.00000000000E+00  0.00000000000E+00  0.10415919577E+02  0.10415919577E+02  0.00000000000E+00 0.  1.
          3   -1    0    0  501    0  0.00000000000E+00 -0.00000000000E+00 -0.18381796310E+04  0.18381796310E+04  0.00000000000E+00 0. -1.
         23    2    1    2    0    0 -0.37411734984E+02  0.37136288513E+02 -0.14899803572E+04  0.14960090697E+04  0.12338123804E+03 0.  0.
          5    1    3    3  502    0 -0.73044159753E+02  0.71654414110E+01 -0.12022953631E+04  0.12045426614E+04  0.47000000000E+01 0. -1.
         -5    1    3    3    0  502  0.35632424769E+02  0.29970847102E+02 -0.28768499406E+03  0.29146640832E+03  0.47000000000E+01 0.  1.
        -11    1    1    2    0    0  0.63294094669E+02 -0.11314867741E+02 -0.22666628221E+03  0.23560936344E+03  0.00000000000E+00 0.  1.
         11    1    1    2    0    0 -0.25882359685E+02 -0.25821420772E+02 -0.11111707201E+03  0.11697711745E+03  0.00000000000E+00 0. -1.
<mgrwt>
<rscale>  0 0.12500337E+03</rscale>
<asrwt>0</asrwt>
<pdfrwt beam="2">  1        3 0.28279693E+00 0.13417031E+03</pdfrwt>
<pdfrwt beam="1">  1       -3 0.16024488E-02 0.13417031E+03</pdfrwt>
<totfact> 0.17610082E+02</totfact>
</mgrwt>
</event>
<event>
 7    1  0.6419647E-006  0.1175293E+03  0.7546771E-02  0.1256284E+00
          2   -1    0    0  501    0  0.00000000000E+00  0.00000000000E+00  0.83176514712E+02  0.83176514712E+02  0.00000000000E+00 0. -1.
         -2   -1    0    0    0  501 -0.00000000000E+00 -0.00000000000E+00 -0.15910339205E+03  0.15910339205E+03  0.00000000000E+00 0.  1.
         23    2    1    2    0    0  0.25380046141E+02 -0.52753971698E+01  0.10904861685E+01  0.11753437265E+03  0.11463491195E+03 0.  0.
          5    1    3    3  502    0  0.26341958933E+02 -0.57508277808E+02  0.10359261670E+02  0.64269005898E+02  0.47000000000E+01 0. -1.
         -5    1    3    3    0  502 -0.96191279143E+00  0.52232880638E+02 -0.92687755015E+01  0.53265366752E+02  0.47000000000E+01 0.  1.
        -11    1    1    2    0    0 -0.41719923913E+02  0.19073698007E+02 -0.89075544549E+02  0.10019386530E+03  0.00000000000E+00 0.  1.
         11    1    1    2    0    0  0.16339877772E+02 -0.13798300837E+02  0.12058181040E+02  0.24551668815E+02  0.00000000000E+00 0. -1.
<mgrwt>
<rscale>  0 0.11234705E+03</rscale>
<asrwt>0</asrwt>
<pdfrwt beam="1">  1        2 0.12796387E-01 0.11752931E+03</pdfrwt>
<pdfrwt beam="2">  1       -2 0.24477445E-01 0.11752931E+03</pdfrwt>
<totfact> 0.65275173E+03</totfact>
</mgrwt>
</event>
<event>
 7    1  0.6419647E-006  0.1456502E+03  0.7546771E-02  0.1216445E+00
         -1   -1    0    0    0  501 -0.00000000000E+00  0.00000000000E+00  0.25425356634E+02  0.25425356634E+02  0.00000000000E+00 0.  1.
          1   -1    0    0  501    0  0.00000000000E+00 -0.00000000000E+00 -0.70445740670E+03  0.70445740670E+03  0.00000000000E+00 0. -1.
         23    2    1    2    0    0 -0.59641555278E+02  0.45050433658E+02 -0.44981720466E+03  0.47281020962E+03  0.12500927977E+03 0.  0.
          5    1    3    3  502    0 -0.60769720846E+02  0.82020075207E+02 -0.38186440550E+03  0.39530085492E+03  0.47000000000E+01 0.  1.
         -5    1    3    3    0  502  0.11281655683E+01 -0.36969641549E+02 -0.67952799157E+02  0.77509354707E+02  0.47000000000E+01 0.  1.
        -11    1    1    2    0    0  0.80252999781E+02 -0.35439911161E+02 -0.14177241990E+03  0.16672117539E+03  0.00000000000E+00 0.  1.
         11    1    1    2    0    0 -0.20611444503E+02 -0.96105224972E+01 -0.87442425503E+02  0.90351378324E+02  0.00000000000E+00 0. -1.
<mgrwt>
<rscale>  0 0.13770924E+03</rscale>
<asrwt>0</asrwt>
<pdfrwt beam="2">  1        1 0.10837807E+00 0.14565019E+03</pdfrwt>
<pdfrwt beam="1">  1       -1 0.39115932E-02 0.14565019E+03</pdfrwt>
<totfact> 0.68733793E+03</totfact>
</mgrwt>
</event>
<event>
 7    1  0.6419647E-006  0.1778047E+03  0.7546771E-02  0.1177167E+00
         -3   -1    0    0    0  501 -0.00000000000E+00  0.00000000000E+00  0.10020464674E+03  0.10020464674E+03  0.00000000000E+00 0.  1.
          3   -1    0    0  501    0  0.00000000000E+00 -0.00000000000E+00 -0.33550581477E+03  0.33550581477E+03  0.00000000000E+00 0. -1.
         23    2    1    2    0    0  0.26619514058E+02  0.12361416308E+03 -0.22173263336E+03  0.28421801519E+03  0.12500183847E+03 0.  0.
          5    1    3    3  502    0  0.65608265143E+02  0.11802798111E+03 -0.19137465607E+03  0.23426779071E+03  0.47000000000E+01 0.  1.
         -5    1    3    3    0  502 -0.38988751084E+02  0.55861819646E+01 -0.30357977290E+02  0.49950224476E+02  0.47000000000E+01 0.  1.
        -11    1    1    2    0    0 -0.22457177697E+02 -0.91711763096E+02 -0.46675523001E+02  0.10532794865E+03  0.00000000000E+00 0. -1.
         11    1    1    2    0    0 -0.41623363611E+01 -0.31902399983E+02  0.33106988333E+02  0.46164497670E+02  0.00000000000E+00 0.  1.
<mgrwt>
<rscale>  0 0.17065459E+03</rscale>
<asrwt>0</asrwt>
<pdfrwt beam="2">  1        3 0.51616278E-01 0.17780472E+03</pdfrwt>
<pdfrwt beam="1">  1       -3 0.15416100E-01 0.17780472E+03</pdfrwt>
<totfact> 0.31972364E+02</totfact>
</mgrwt>
</event>
<event>
 6    1  0.6419647E-006  0.1662461E+03  0.7546771E-02  0.1205679E+00
          2   -1    0    0  501    0  0.00000000000E+00  0.00000000000E+00  0.82443724153E+03  0.82443724153E+03  0.00000000000E+00 0. -1.
         -2   -1    0    0    0  501 -0.00000000000E+00 -0.00000000000E+00 -0.65205679518E+02  0.65205679518E+02  0.00000000000E+00 0.  1.
          5    1    1    2  502    0 -0.29792859730E+02 -0.74949703240E+02  0.63550711982E+03  0.64062193363E+03  0.47000000000E+01 0. -1.
         -5    1    1    2    0  502 -0.74889260546E+01  0.59379826256E+02  0.13708828022E+03  0.14965738990E+03  0.47000000000E+01 0.  1.
        -11    1    1    2    0    0  0.61674155507E+02 -0.87836687186E+01  0.26861117053E+00  0.62297082159E+02  0.00000000000E+00 0.  1.
         11    1    1    2    0    0 -0.24392369722E+02  0.24353545703E+02 -0.13632449201E+02  0.37066515350E+02  0.00000000000E+00 0. -1.
<mgrwt>
<rscale>  0 0.14584092E+03</rscale>
<asrwt>0</asrwt>
<pdfrwt beam="1">  1        2 0.12683649E+00 0.16624607E+03</pdfrwt>
<pdfrwt beam="2">  1       -2 0.10031644E-01 0.16624607E+03</pdfrwt>
<totfact> 0.22327093E+03</totfact>
</mgrwt>
</event>
<event>
 6    1  0.6419647E-006  0.1356331E+03  0.7546771E-02  0.1238431E+00
         -3   -1    0    0    0  501 -0.00000000000E+00  0.00000000000E+00  0.38155421512E+02  0.38155421512E+02  0.00000000000E+00 0.  1.
          3   -1    0    0  501    0  0.00000000000E+00 -0.00000000000E+00 -0.37144196173E+03  0.37144196173E+03  0.00000000000E+00 0. -1.
          5    1    1    2  502    0  0.31403561269E+02 -0.50026226433E+02 -0.23166284143E+03  0.23912040710E+03  0.47000000000E+01 0. -1.
         -5    1    1    2    0  502 -0.11566849854E+02  0.43001015305E+02 -0.25270945610E+02  0.51415853828E+02  0.47000000000E+01 0.  1.
        -11    1    1    2    0    0 -0.47655761830E+02 -0.19831572275E+02 -0.52518593937E+02  0.73638071699E+02  0.00000000000E+00 0.  1.
         11    1    1    2    0    0  0.27819050415E+02  0.26856783403E+02 -0.23834159247E+02  0.45423050621E+02  0.00000000000E+00 0. -1.
<mgrwt>
<rscale>  0 0.12287341E+03</rscale>
<asrwt>0</asrwt>
<pdfrwt beam="2">  1        3 0.57144918E-01 0.13563314E+03</pdfrwt>
<pdfrwt beam="1">  1       -3 0.58700648E-02 0.13563314E+03</pdfrwt>
<totfact> 0.12368932E+03</totfact>
</mgrwt>
</event>
<event>
 7    1  0.6419647E-006  0.1417343E+03  0.7546771E-02  0.1221726E+00
         -2   -1    0    0    0  501 -0.00000000000E+00  0.00000000000E+00  0.32253789231E+02  0.32253789231E+02  0.00000000000E+00 0.  1.
          2   -1    0    0  501    0  0.00000000000E+00 -0.00000000000E+00 -0.50778682350E+03  0.50778682350E+03  0.00000000000E+00 0. -1.
         23    2    1    2    0    0  0.57891138455E+02  0.33360398687E+02 -0.29012802626E+03  0.32289765746E+03  0.12499730180E+03 0.  0.
          5    1    3    3  502    0  0.46323576844E+02 -0.41628726790E+02 -0.16574672626E+03  0.17712394512E+03  0.47000000000E+01 0.  1.
         -5    1    3    3    0  502  0.11567561611E+02  0.74989125477E+02 -0.12438130000E+03  0.14577371235E+03  0.47000000000E+01 0.  1.
        -11    1    1    2    0    0  0.24376736023E+00 -0.32157027214E+02 -0.13921923123E+03  0.14288501729E+03  0.00000000000E+00 0. -1.
         11    1    1    2    0    0 -0.58134905815E+02 -0.12033714728E+01 -0.46185776780E+02  0.74257937985E+02  0.00000000000E+00 0.  1.
<mgrwt>
<rscale>  0 0.13393864E+03</rscale>
<asrwt>0</asrwt>
<pdfrwt beam="2">  1        2 0.78121047E-01 0.14173435E+03</pdfrwt>
<pdfrwt beam="1">  1       -2 0.49621216E-02 0.14173435E+03</pdfrwt>
<totfact> 0.11548110E+04</totfact>
</mgrwt>
</event>
<event>
 7    1  0.6419647E-006  0.1317415E+03  0.7546771E-02  0.1240565E+00
         -1   -1    0    0    0  501 -0.00000000000E+00  0.00000000000E+00  0.33995771018E+02  0.33995771018E+02  0.00000000000E+00 0.  1.
          1   -1    0    0  501    0  0.00000000000E+00 -0.00000000000E+00 -0.39881249418E+03  0.39881249418E+03  0.00000000000E+00 0. -1.
         23    2    1    2    0    0 -0.13981779963E+02  0.39183737440E+02 -0.25703430267E+03  0.28882944452E+03  0.12499983929E+03 0.  0.
          5    1    3    3  502    0  0.34546435150E+02 -0.26181956011E+02 -0.50147332984E+02  0.66451456023E+02  0.47000000000E+01 0. -1.
         -5    1    3    3    0  502 -0.48528215113E+02  0.65365693451E+02 -0.20688696969E+03  0.22237798850E+03  0.47000000000E+01 0. -1.
        -11    1    1    2    0    0 -0.21514490566E+01  0.22120276736E+02 -0.61776139205E+02  0.65652317179E+02  0.00000000000E+00 0. -1.
         11    1    1    2    0    0  0.16133229020E+02 -0.61304014176E+02 -0.46006281289E+02  0.78326503501E+02  0.00000000000E+00 0.  1.
<mgrwt>
<rscale>  0 0.12154824E+03</rscale>
<asrwt>0</asrwt>
<pdfrwt beam="2">  1        1 0.61355767E-01 0.13174147E+03</pdfrwt>
<pdfrwt beam="1">  1       -1 0.52301187E-02 0.13174147E+03</pdfrwt>
<totfact> 0.94826527E+03</totfact>
</mgrwt>
</event>
<event>
 7    1  0.6473185E-006  0.2374585E+03  0.7546771E-02  0.1124739E+00
          1   -1    0    0  501    0  0.00000000000E+00  0.00000000000E+00  0.92198248880E+03  0.92198248880E+03  0.00000000000E+00 0.  1.
         -1   -1    0    0    0  501 -0.00000000000E+00 -0.00000000000E+00 -0.59859276955E+02  0.59859276955E+02  0.00000000000E+00 0. -1.
         23    2    1    2    0    0  0.16683736534E+03  0.11369571875E+03  0.56342866111E+03  0.61142325830E+03  0.12500048678E+03 0.  0.
          5    1    3    3  502    0  0.32488957495E+02  0.19995562332E+02  0.29087101740E+03  0.29339971649E+03  0.47000000000E+01 0. -1.
         -5    1    3    3    0  502  0.13434840785E+03  0.93700156413E+02  0.27255764371E+03  0.31802354182E+03  0.47000000000E+01 0. -1.
        -11    1    1    2    0    0 -0.39921012530E+02 -0.15411503659E+01  0.20962631351E+02  0.45116452642E+02  0.00000000000E+00 0.  1.
         11    1    1    2    0    0 -0.12691635281E+03 -0.11215456838E+03  0.27773191938E+03  0.32530205481E+03  0.00000000000E+00 0. -1.
<mgrwt>
<rscale>  0 0.23272137E+03</rscale>
<asrwt>0</asrwt>
<pdfrwt beam="1">  1        1 0.14184345E+00 0.23745851E+03</pdfrwt>
<pdfrwt beam="2">  1       -1 0.92091202E-02 0.23745851E+03</pdfrwt>
<totfact> 0.12726189E+03</totfact>
</mgrwt>
</event>
<event>
 7    1  0.6419647E-006  0.1272359E+03  0.7546771E-02  0.1250009E+00
         -1   -1    0    0    0  501 -0.00000000000E+00  0.00000000000E+00  0.30471358206E+02  0.30471358206E+02  0.00000000000E+00 0.  1.
          1   -1    0    0  501    0  0.00000000000E+00 -0.00000000000E+00 -0.39108703498E+03  0.39108703498E+03  0.00000000000E+00 0. -1.
         23    2    1    2    0    0  0.14390015131E+02 -0.18898646035E+02 -0.24935768682E+03  0.27994325365E+03  0.12499895172E+03 0.  0.
          5    1    3    3  502    0  0.14670571865E+02 -0.72101677789E+02 -0.13920981791E+03  0.15752885775E+03  0.47000000000E+01 0.  1.
         -5    1    3    3    0  502 -0.28055673407E+00  0.53203031754E+02 -0.11014786891E+03  0.12241439591E+03  0.47000000000E+01 0.  1.
        -11    1    1    2    0    0 -0.23526911607E+02 -0.13729221795E+02 -0.21014628860E+01  0.27320747558E+02  0.00000000000E+00 0.  1.
         11    1    1    2    0    0  0.91368964764E+01  0.32627867830E+02 -0.10915652706E+03  0.11429439197E+03  0.00000000000E+00 0. -1.
<mgrwt>
<rscale>  0 0.11590513E+03</rscale>
<asrwt>0</asrwt>
<pdfrwt beam="2">  1        1 0.60167231E-01 0.12723588E+03</pdfrwt>
<pdfrwt beam="1">  1       -1 0.46879016E-02 0.12723588E+03</pdfrwt>
<totfact> 0.11393614E+04</totfact>
</mgrwt>
</event>
<event>
 7    1  0.6419647E-006  0.1321702E+03  0.7546771E-02  0.1237178E+00
          2   -1    0    0  501    0  0.00000000000E+00  0.00000000000E+00  0.60326889848E+02  0.60326889848E+02  0.00000000000E+00 0.  1.
         -2   -1    0    0    0  501 -0.00000000000E+00 -0.00000000000E+00 -0.28944369191E+03  0.28944369191E+03  0.00000000000E+00 0. -1.
         23    2    1    2    0    0  0.31357288177E+02 -0.29342710359E+02 -0.44972838728E+02  0.13961205076E+03  0.12499877727E+03 0.  0.
          5    1    3    3  502    0  0.75228561717E+02 -0.22676752306E+00 -0.42854752151E+02  0.86706445571E+02  0.47000000000E+01 0.  1.
         -5    1    3    3    0  502 -0.43871273541E+02 -0.29115942836E+02 -0.21180865772E+01  0.52905605186E+02  0.47000000000E+01 0.  1.
        -11    1    1    2    0    0 -0.47715458350E+01 -0.11118176852E+02  0.63114286150E+01  0.13646085055E+02  0.00000000000E+00 0.  1.
         11    1    1    2    0    0 -0.26585742342E+02  0.40460887211E+02 -0.19045539195E+03  0.19651244595E+03  0.00000000000E+00 0. -1.
<mgrwt>
<rscale>  0 0.12366050E+03</rscale>
<asrwt>0</asrwt>
<pdfrwt beam="1">  1        2 0.92810600E-02 0.13217023E+03</pdfrwt>
<pdfrwt beam="2">  1       -2 0.44529799E-01 0.13217023E+03</pdfrwt>
<totfact> 0.32552948E+03</totfact>
</mgrwt>
</event>
<event>
 7    1  0.6419647E-006  0.1393378E+03  0.7546771E-02  0.1221567E+00
         -1   -1    0    0    0  501 -0.00000000000E+00  0.00000000000E+00  0.18379451399E+02  0.18379451399E+02  0.00000000000E+00 0.  1.
          1   -1    0    0  501    0  0.00000000000E+00 -0.00000000000E+00 -0.91048208627E+03  0.91048208627E+03  0.00000000000E+00 0. -1.
         23    2    1    2    0    0  0.59226016602E+02  0.16666878282E+02 -0.47425387024E+03  0.49429926873E+03  0.12501810970E+03 0.  0.
          5    1    3    3  502    0  0.67942851986E+01 -0.51273669980E+02 -0.21438874860E+03  0.22058961234E+03  0.47000000000E+01 0. -1.
         -5    1    3    3    0  502  0.52431731404E+02  0.67940548263E+02 -0.25986512164E+03  0.27370965639E+03  0.47000000000E+01 0. -1.
        -11    1    1    2    0    0 -0.72618596734E+02  0.23651835591E+02 -0.24890833892E+03  0.26036173126E+03  0.00000000000E+00 0.  1.
         11    1    1    2    0    0  0.13392580131E+02 -0.40318713873E+02 -0.16894042571E+03  0.17420053768E+03  0.00000000000E+00 0. -1.
<mgrwt>
<rscale>  0 0.13404986E+03</rscale>
<asrwt>0</asrwt>
<pdfrwt beam="2">  1        1 0.14007419E+00 0.13933784E+03</pdfrwt>
<pdfrwt beam="1">  1       -1 0.28276075E-02 0.13933784E+03</pdfrwt>
<totfact> 0.74753341E+03</totfact>
</mgrwt>
</event>
<event>
 7    1  0.6419647E-006  0.1496129E+03  0.7546771E-02  0.1210331E+00
          1   -1    0    0  501    0  0.00000000000E+00  0.00000000000E+00  0.24245833681E+03  0.24245833681E+03  0.00000000000E+00 0. -1.
         -1   -1    0    0    0  501 -0.00000000000E+00 -0.00000000000E+00 -0.76223902559E+02  0.76223902559E+02  0.00000000000E+00 0.  1.
         23    2    1    2    0    0 -0.43279778446E+01  0.82098198980E+02  0.90258269050E+02  0.17473004480E+03  0.12500075102E+03 0.  0.
          5    1    3    3  502    0  0.34207048981E+02  0.31558753029E+02 -0.17163509474E+02  0.49827233017E+02  0.47000000000E+01 0.  1.
         -5    1    3    3    0  502 -0.38535026826E+02  0.50539445951E+02  0.10742177852E+03  0.12490281178E+03  0.47000000000E+01 0.  1.
        -11    1    1    2    0    0 -0.91500875331E+01 -0.30508322596E+02 -0.17496606471E+02  0.36340240609E+02  0.00000000000E+00 0.  1.
         11    1    1    2    0    0  0.13478065378E+02 -0.51589876383E+02  0.93472771674E+02  0.10761195396E+03  0.00000000000E+00 0. -1.
<mgrwt>
<rscale>  0 0.14225139E+03</rscale>
<asrwt>0</asrwt>
<pdfrwt beam="1">  1        1 0.37301282E-01 0.14961295E+03</pdfrwt>
<pdfrwt beam="2">  1       -1 0.11726754E-01 0.14961295E+03</pdfrwt>
<totfact> 0.52471549E+03</totfact>
</mgrwt>
</event>
<event>
 7    1  0.6419647E-006  0.1247130E+03  0.7546771E-02  0.1246121E+00
          1   -1    0    0  501    0  0.00000000000E+00  0.00000000000E+00  0.15078677499E+04  0.15078677499E+04  0.00000000000E+00 0. -1.
         -1   -1    0    0    0  501 -0.00000000000E+00 -0.00000000000E+00 -0.26156620222E+02  0.26156620222E+02  0.00000000000E+00 0.  1.
         23    2    1    2    0    0  0.44937121222E+02  0.21548431429E+02  0.13969081153E+04  0.14024641207E+04  0.11432255994E+03 0.  0.
          5    1    3    3  502    0  0.22159522025E+02  0.50621905211E+02  0.12384372546E+04  0.12396784039E+04  0.47000000000E+01 0. -1.
         -5    1    3    3    0  502  0.22777599197E+02 -0.29073473782E+02  0.15847086068E+03  0.16278571678E+03  0.47000000000E+01 0.  1.
        -11    1    1    2    0    0  0.34061697542E+01 -0.39766597576E+02  0.10870526894E+02  0.41366080672E+02  0.00000000000E+00 0.  1.
         11    1    1    2    0    0 -0.48343290976E+02  0.18218166147E+02  0.73932487578E+02  0.90194168767E+02  0.00000000000E+00 0. -1.
<mgrwt>
<rscale>  0 0.11818512E+03</rscale>
<asrwt>0</asrwt>
<pdfrwt beam="1">  1        1 0.23197959E+00 0.12471298E+03</pdfrwt>
<pdfrwt beam="2">  1       -1 0.40240966E-02 0.12471298E+03</pdfrwt>
<totfact> 0.17254618E+03</totfact>
</mgrwt>
</event>
<event>
 7    1  0.6419647E-006  0.1432827E+03  0.7546771E-02  0.1219121E+00
         -2   -1    0    0    0  501 -0.00000000000E+00  0.00000000000E+00  0.14909165338E+02  0.14909165338E+02  0.00000000000E+00 0.  1.
          2   -1    0    0  501    0  0.00000000000E+00 -0.00000000000E+00 -0.11937641177E+04  0.11937641177E+04  0.00000000000E+00 0. -1.
         23    2    1    2    0    0 -0.50565527784E+01 -0.69826371920E+02 -0.79477799123E+03  0.80759024190E+03  0.12501460926E+03 0.  0.
          5    1    3    3  502    0 -0.34468309039E+02 -0.24353524164E+02 -0.78475518658E+02  0.89228109336E+02  0.47000000000E+01 0. -1.
         -5    1    3    3    0  502  0.29411756260E+02 -0.45472847756E+02 -0.71630247257E+03  0.71836213256E+03  0.47000000000E+01 0. -1.
        -11    1    1    2    0    0 -0.25062831416E+02  0.70967231691E+02 -0.33610070095E+03  0.34442441068E+03  0.00000000000E+00 0. -1.
         11    1    1    2    0    0  0.30119384194E+02 -0.11408597712E+01 -0.47976260228E+02  0.56658630505E+02  0.00000000000E+00 0.  1.
<mgrwt>
<rscale>  0 0.13578153E+03</rscale>
<asrwt>0</asrwt>
<pdfrwt beam="2">  1        2 0.18365608E+00 0.14328274E+03</pdfrwt>
<pdfrwt beam="1">  1       -2 0.22937170E-02 0.14328274E+03</pdfrwt>
<totfact> 0.12318597E+04</totfact>
</mgrwt>
</event>
<event>
 7    1  0.6419647E-006  0.1557753E+03  0.7546771E-02  0.1201852E+00
         -3   -1    0    0    0  501 -0.00000000000E+00  0.00000000000E+00  0.34951832132E+02  0.34951832132E+02  0.00000000000E+00 0.  1.
          3   -1    0    0  501    0  0.00000000000E+00 -0.00000000000E+00 -0.67938164196E+03  0.67938164196E+03  0.00000000000E+00 0. -1.
         23    2    1    2    0    0 -0.90910551911E+02 -0.19399008874E+02 -0.48052831283E+03  0.50514692167E+03  0.12499961220E+03 0.  0.
          5    1    3    3  502    0 -0.83320066813E+02  0.42123271543E+02 -0.27850812427E+03  0.29377792433E+03  0.47000000000E+01 0.  1.
         -5    1    3    3    0  502 -0.75904850983E+01 -0.61522280418E+02 -0.20202018857E+03  0.21136899735E+03  0.47000000000E+01 0.  1.
        -11    1    1    2    0    0  0.55074602529E+02  0.33657363845E+02 -0.15733953366E+03  0.17006398454E+03  0.00000000000E+00 0. -1.
         11    1    1    2    0    0  0.35835949383E+02 -0.14258354970E+02 -0.65619633345E+01  0.39122567879E+02  0.00000000000E+00 0.  1.
<mgrwt>
<rscale>  0 0.14888289E+03</rscale>
<asrwt>0</asrwt>
<pdfrwt beam="2">  1        3 0.10452024E+00 0.15577533E+03</pdfrwt>
<pdfrwt beam="1">  1       -3 0.53772054E-02 0.15577533E+03</pdfrwt>
<totfact> 0.39382629E+02</totfact>
</mgrwt>
</event>
<event>
 7    1  0.6419647E-006  0.1297671E+03  0.7546771E-02  0.1269327E+00
          2   -1    0    0  501    0  0.00000000000E+00  0.00000000000E+00  0.62989379564E+03  0.62989379564E+03  0.00000000000E+00 0. -1.
         -2   -1    0    0    0  501 -0.00000000000E+00 -0.00000000000E+00 -0.14603723904E+02  0.14603723904E+02  0.00000000000E+00 0.  1.
         23    2    1    2    0    0  0.38906929147E+02 -0.11108922277E+02  0.49300601687E+03  0.50979841765E+03  0.12329775619E+03 0.  0.
          5    1    3    3  502    0 -0.31467246356E+01  0.12743670729E+02  0.43007470161E+03  0.43030064140E+03  0.47000000000E+01 0. -1.
         -5    1    3    3    0  502  0.42053653783E+02 -0.23852593005E+02  0.62931315255E+02  0.79497776254E+02  0.47000000000E+01 0.  1.
        -11    1    1    2    0    0 -0.15093127261E+02 -0.38022955570E+01  0.89930490927E+01  0.17975952659E+02  0.00000000000E+00 0. -1.
         11    1    1    2    0    0 -0.23813801886E+02  0.14911217834E+02  0.11329100578E+03  0.11672314923E+03  0.00000000000E+00 0.  1.
<mgrwt>
<rscale>  0 0.10540350E+03</rscale>
<asrwt>0</asrwt>
<pdfrwt beam="1">  1        2 0.96906717E-01 0.12976708E+03</pdfrwt>
<pdfrwt beam="2">  1       -2 0.22467272E-02 0.12976708E+03</pdfrwt>
<totfact> 0.28989921E+04</totfact>
</mgrwt>
</event>
<event>
 7    1  0.6419647E-006  0.1375972E+03  0.7546771E-02  0.1227568E+00
          1   -1    0    0  501    0  0.00000000000E+00  0.00000000000E+00  0.39126210654E+02  0.39126210654E+02  0.00000000000E+00 0. -1.
         -1   -1    0    0    0  501 -0.00000000000E+00 -0.00000000000E+00 -0.40451601650E+03  0.40451601650E+03  0.00000000000E+00 0.  1.
         23    2    1    2    0    0 -0.55780505273E+02  0.13993053059E+02 -0.16068626199E+03  0.21154917826E+03  0.12500283888E+03 0.  0.
          5    1    3    3  502    0 -0.17899359631E+02  0.28577701935E+02 -0.16679301584E+03  0.17023240660E+03  0.47000000000E+01 0. -1.
         -5    1    3    3    0  502 -0.37881145642E+02 -0.14584648876E+02  0.61067538506E+01  0.41316771662E+02  0.47000000000E+01 0. -1.
        -11    1    1    2    0    0  0.18210087756E+02  0.22506365211E+01  0.45249903575E+01  0.18898364971E+02  0.00000000000E+00 0. -1.
         11    1    1    2    0    0  0.37570417518E+02 -0.16243689580E+02 -0.20922853421E+03  0.21319468392E+03  0.00000000000E+00 0.  1.
<mgrwt>
<rscale>  0 0.12992420E+03</rscale>
<asrwt>0</asrwt>
<pdfrwt beam="1">  1        1 0.60194173E-02 0.13759717E+03</pdfrwt>
<pdfrwt beam="2">  1       -1 0.62233231E-01 0.13759717E+03</pdfrwt>
<totfact> 0.33516680E+03</totfact>
</mgrwt>
</event>
<event>
 7    1  0.6419647E-006  0.1367364E+03  0.7546771E-02  0.1229633E+00
         -2   -1    0    0    0  501 -0.00000000000E+00  0.00000000000E+00  0.28552482699E+02  0.28552482699E+02  0.00000000000E+00 0.  1.
          2   -1    0    0  501    0  0.00000000000E+00 -0.00000000000E+00 -0.51983644662E+03  0.51983644662E+03  0.00000000000E+00 0. -1.
         23    2    1    2    0    0 -0.21475553812E+02 -0.51088246330E+02 -0.28466493981E+03  0.31580208985E+03  0.12500249468E+03 0.  0.
          5    1    3    3  502    0  0.21066044896E+02 -0.54158803235E+02 -0.48694504709E+02  0.75961825967E+02  0.47000000000E+01 0. -1.
         -5    1    3    3    0  502 -0.42541598708E+02  0.30705569049E+01 -0.23597043510E+03  0.23984026389E+03  0.47000000000E+01 0. -1.
        -11    1    1    2    0    0  0.22430091428E+02 -0.14728215531E+02 -0.16751018720E+02  0.31632672388E+02  0.00000000000E+00 0.  1.
         11    1    1    2    0    0 -0.95453761694E+00  0.65816461860E+02 -0.18986800539E+03  0.20095416707E+03  0.00000000000E+00 0. -1.
<mgrwt>
<rscale>  0 0.12854375E+03</rscale>
<asrwt>0</asrwt>
<pdfrwt beam="2">  1        2 0.79974838E-01 0.13673636E+03</pdfrwt>
<pdfrwt beam="1">  1       -2 0.43926897E-02 0.13673636E+03</pdfrwt>
<totfact> 0.13471180E+04</totfact>
</mgrwt>
</event>
<event>
 7    1  0.6419647E-006  0.1461036E+03  0.7546771E-02  0.1215290E+00
          2   -1    0    0  501    0  0.00000000000E+00  0.00000000000E+00  0.95353133969E+03  0.95353133969E+03  0.00000000000E+00 0. -1.
         -2   -1    0    0    0  501 -0.00000000000E+00 -0.00000000000E+00 -0.24148122507E+02  0.24148122507E+02  0.00000000000E+00 0.  1.
         23    2    1    2    0    0 -0.71127325807E+02  0.25728039615E+02  0.74129242330E+03  0.75555324645E+03  0.12500089153E+03 0.  0.
          5    1    3    3  502    0 -0.36616583597E+01 -0.37799704525E+02  0.91648640552E+02  0.99316608476E+02  0.47000000000E+01 0. -1.
         -5    1    3    3    0  502 -0.67465667447E+02  0.63527744140E+02  0.64964378274E+03  0.65623663797E+03  0.47000000000E+01 0. -1.
        -11    1    1    2    0    0  0.23317128091E+02 -0.27494463765E+02  0.16520264467E+03  0.16909035397E+03  0.00000000000E+00 0. -1.
         11    1    1    2    0    0  0.47810197715E+02  0.17664241504E+01  0.22888149217E+02  0.53035861777E+02  0.00000000000E+00 0.  1.
<mgrwt>
<rscale>  0 0.13855229E+03</rscale>
<asrwt>0</asrwt>
<pdfrwt beam="1">  1        2 0.14669710E+00 0.14610356E+03</pdfrwt>
<pdfrwt beam="2">  1       -2 0.37150965E-02 0.14610356E+03</pdfrwt>
<totfact> 0.83677677E+03</totfact>
</mgrwt>
</event>
<event>
 7    1  0.6419647E-006  0.3240169E+03  0.7546771E-02  0.1075349E+00
          2   -1    0    0  501    0  0.00000000000E+00  0.00000000000E+00  0.15840016351E+04  0.15840016351E+04  0.00000000000E+00 0. -1.
         -2   -1    0    0    0  501 -0.00000000000E+00 -0.00000000000E+00 -0.64981277504E+02  0.64981277504E+02  0.00000000000E+00 0.  1.
         23    2    1    2    0    0 -0.29717739056E+03  0.32252781729E+02  0.89534529408E+03  0.95217128615E+03  0.12502927313E+03 0.  0.
          5    1    3    3  502    0 -0.10226348368E+03 -0.43663509027E+02  0.38028379056E+03  0.39623499780E+03  0.47000000000E+01 0.  1.
         -5    1    3    3    0  502 -0.19491390688E+03  0.75916290756E+02  0.51506150352E+03  0.55593628835E+03  0.47000000000E+01 0.  1.
        -11    1    1    2    0    0  0.72643971443E+02 -0.53377065576E+01  0.81170523378E+02  0.10906095343E+03  0.00000000000E+00 0.  1.
         11    1    1    2    0    0  0.22453341912E+03 -0.26915075172E+02  0.54250454014E+03  0.58775067303E+03  0.00000000000E+00 0. -1.
<mgrwt>
<rscale>  0 0.32065228E+03</rscale>
<asrwt>0</asrwt>
<pdfrwt beam="1">  1        2 0.24369253E+00 0.32401692E+03</pdfrwt>
<pdfrwt beam="2">  1       -2 0.99971208E-02 0.32401692E+03</pdfrwt>
<totfact> 0.81437220E+02</totfact>
</mgrwt>
</event>
<event>
 7    1  0.6419647E-006  0.1259557E+03  0.7546771E-02  0.1247557E+00
         -1   -1    0    0    0  501 -0.00000000000E+00  0.00000000000E+00  0.75808812949E+02  0.75808812949E+02  0.00000000000E+00 0.  1.
          1   -1    0    0  501    0  0.00000000000E+00 -0.00000000000E+00 -0.17557108722E+03  0.17557108722E+03  0.00000000000E+00 0. -1.
         23    2    1    2    0    0 -0.17441991991E+01 -0.15311168578E+02 -0.92442605206E+02  0.15623850530E+03  0.12500944431E+03 0.  0.
          5    1    3    3  502    0 -0.12568611676E+02 -0.43504159917E+02 -0.11135155100E+03  0.12029896026E+03  0.47000000000E+01 0. -1.
         -5    1    3    3    0  502  0.10824412477E+02  0.28192991339E+02  0.18908945796E+02  0.35939545034E+02  0.47000000000E+01 0. -1.
        -11    1    1    2    0    0  0.11653857515E+02  0.81330336093E+01 -0.49355553954E+02  0.51360776248E+02  0.00000000000E+00 0. -1.
         11    1    1    2    0    0 -0.99096583160E+01  0.71781349685E+01  0.42035884884E+02  0.43780618629E+02  0.00000000000E+00 0.  1.
<mgrwt>
<rscale>  0 0.11733658E+03</rscale>
<asrwt>0</asrwt>
<pdfrwt beam="2">  1        1 0.27010937E-01 0.12595569E+03</pdfrwt>
<pdfrwt beam="1">  1       -1 0.11662894E-01 0.12595569E+03</pdfrwt>
<totfact> 0.78128403E+03</totfact>
</mgrwt>
</event>
<event>
 7    1  0.6419647E-006  0.1297154E+03  0.7546771E-02  0.1242742E+00
          2   -1    0    0  501    0  0.00000000000E+00  0.00000000000E+00  0.89440990743E+03  0.89440990743E+03  0.00000000000E+00 0. -1.
         -2   -1    0    0    0  501 -0.00000000000E+00 -0.00000000000E+00 -0.14410846550E+02  0.14410846550E+02  0.00000000000E+00 0.  1.
         23    2    1    2    0    0 -0.32709334730E+02  0.11315057941E+02  0.45128701849E+03  0.46955943322E+03  0.12501262798E+03 0.  0.
          5    1    3    3  502    0 -0.16526482076E+01  0.65347512446E+02  0.26850634601E+03  0.27638881395E+03  0.47000000000E+01 0. -1.
         -5    1    3    3    0  502 -0.31056686522E+02 -0.54032454505E+02  0.18278067248E+03  0.19317061927E+03  0.47000000000E+01 0. -1.
        -11    1    1    2    0    0  0.50784260267E+02  0.20150042617E+02  0.32059661253E+03  0.32521877756E+03  0.00000000000E+00 0. -1.
         11    1    1    2    0    0 -0.18074925537E+02 -0.31465100558E+02  0.10811542985E+03  0.11404254320E+03  0.00000000000E+00 0.  1.
<mgrwt>
<rscale>  0 0.12021532E+03</rscale>
<asrwt>0</asrwt>
<pdfrwt beam="1">  1        2 0.13760148E+00 0.12971541E+03</pdfrwt>
<pdfrwt beam="2">  1       -2 0.22170540E-02 0.12971541E+03</pdfrwt>
<totfact> 0.19291262E+04</totfact>
</mgrwt>
</event>
<event>
 7    1  0.6419647E-006  0.1645716E+03  0.7546771E-02  0.1189299E+00
         -1   -1    0    0    0  501 -0.00000000000E+00  0.00000000000E+00  0.18597723646E+03  0.18597723646E+03  0.00000000000E+00 0.  1.
          1   -1    0    0  501    0  0.00000000000E+00 -0.00000000000E+00 -0.44660997953E+03  0.44660997953E+03  0.00000000000E+00 0. -1.
         23    2    1    2    0    0 -0.10693481097E+03 -0.49310915820E+01 -0.39930492908E+03  0.43188914154E+03  0.12499773890E+03 0.  0.
          5    1    3    3  502    0 -0.17957865359E+02  0.51171114521E+02 -0.90301165758E+02  0.10543888479E+03  0.47000000000E+01 0. -1.
         -5    1    3    3    0  502 -0.88976945606E+02 -0.56102206103E+02 -0.30900376332E+03  0.32645025674E+03  0.47000000000E+01 0. -1.
        -11    1    1    2    0    0  0.89309721601E+02  0.31783637066E+02  0.13938937227E+03  0.16856993522E+03  0.00000000000E+00 0. -1.
         11    1    1    2    0    0  0.17625089364E+02 -0.26852545484E+02 -0.71718625557E+00  0.32128139227E+02  0.00000000000E+00 0.  1.
<mgrwt>
<rscale>  0 0.15946742E+03</rscale>
<asrwt>0</asrwt>
<pdfrwt beam="2">  1        1 0.68709227E-01 0.16457158E+03</pdfrwt>
<pdfrwt beam="1">  1       -1 0.28611883E-01 0.16457158E+03</pdfrwt>
<totfact> 0.58581659E+02</totfact>
</mgrwt>
</event>
<event>
 7    1  0.6419647E-006  0.1254399E+03  0.7546771E-02  0.1249524E+00
         -1   -1    0    0    0  501 -0.00000000000E+00  0.00000000000E+00  0.10514533262E+02  0.10514533262E+02  0.00000000000E+00 0.  1.
          1   -1    0    0  501    0  0.00000000000E+00 -0.00000000000E+00 -0.11637272025E+04  0.11637272025E+04  0.00000000000E+00 0. -1.
         23    2    1    2    0    0 -0.35085806147E+01  0.98894736051E+01 -0.76395805377E+03  0.77418801613E+03  0.12500025827E+03 0.  0.
          5    1    3    3  502    0  0.15946421472E+02  0.39479455790E+02 -0.94252650056E+02  0.10353051642E+03  0.47000000000E+01 0.  1.
         -5    1    3    3    0  502 -0.19455002087E+02 -0.29589982185E+02 -0.66970540371E+03  0.67065749971E+03  0.47000000000E+01 0.  1.
        -11    1    1    2    0    0  0.46737999410E+02 -0.75745376617E+01 -0.24103135809E+03  0.24563780204E+03  0.00000000000E+00 0. -1.
         11    1    1    2    0    0 -0.43229418795E+02 -0.23149359434E+01 -0.14822325734E+03  0.15441591756E+03  0.00000000000E+00 0.  1.
<mgrwt>
<rscale>  0 0.11618663E+03</rscale>
<asrwt>0</asrwt>
<pdfrwt beam="2">  1        1 0.17903488E+00 0.12543993E+03</pdfrwt>
<pdfrwt beam="1">  1       -1 0.16176211E-02 0.12543993E+03</pdfrwt>
<totfact> 0.10924086E+04</totfact>
</mgrwt>
</event>
<event>
 7    1  0.6419647E-006  0.1195161E+03  0.7546771E-02  0.1250846E+00
          3   -1    0    0  501    0  0.00000000000E+00  0.00000000000E+00  0.13324942626E+03  0.13324942626E+03  0.00000000000E+00 0. -1.
         -3   -1    0    0    0  501 -0.00000000000E+00 -0.00000000000E+00 -0.10772439895E+03  0.10772439895E+03  0.00000000000E+00 0.  1.
         23    2    1    2    0    0 -0.45000080115E+02 -0.61365274665E+01  0.56915395671E+02  0.13237621716E+03  0.11055060572E+03 0.  0.
          5    1    3    3  502    0 -0.58126496903E+02 -0.46995052275E+02  0.26013441729E+02  0.79284385166E+02  0.47000000000E+01 0. -1.
         -5    1    3    3    0  502  0.13126416788E+02  0.40858524808E+02  0.30901953942E+02  0.53091831995E+02  0.47000000000E+01 0.  1.
        -11    1    1    2    0    0  0.70877301980E+02 -0.53767451493E+01 -0.36361981119E+02  0.79841687077E+02  0.00000000000E+00 0.  1.
         11    1    1    2    0    0 -0.25877221865E+02  0.11513272616E+02  0.49716127580E+01  0.28755920976E+02  0.00000000000E+00 0. -1.
<mgrwt>
<rscale>  0 0.11542196E+03</rscale>
<asrwt>0</asrwt>
<pdfrwt beam="1">  1        3 0.20499912E-01 0.11951611E+03</pdfrwt>
<pdfrwt beam="2">  1       -3 0.16572984E-01 0.11951611E+03</pdfrwt>
<totfact> 0.15076089E+03</totfact>
</mgrwt>
</event>
<event>
 7    1  0.6419647E-006  0.1463840E+03  0.7546771E-02  0.1215171E+00
          1   -1    0    0  501    0  0.00000000000E+00  0.00000000000E+00  0.16120459739E+03  0.16120459739E+03  0.00000000000E+00 0. -1.
         -1   -1    0    0    0  501 -0.00000000000E+00 -0.00000000000E+00 -0.13891008125E+03  0.13891008125E+03  0.00000000000E+00 0.  1.
         23    2    1    2    0    0 -0.29346616516E+01 -0.76140771927E+02  0.82297731828E+02  0.16793212290E+03  0.12498900691E+03 0.  0.
          5    1    3    3  502    0 -0.55390714980E+02 -0.23644135925E+02  0.70165295486E+02  0.92587446019E+02  0.47000000000E+01 0. -1.
         -5    1    3    3    0  502  0.52456053328E+02 -0.52496636003E+02  0.12132436341E+02  0.75344676878E+02  0.47000000000E+01 0. -1.
        -11    1    1    2    0    0  0.37451580962E+02  0.13902768097E+02 -0.13709877320E+01  0.39972333990E+02  0.00000000000E+00 0. -1.
         11    1    1    2    0    0 -0.34516919310E+02  0.62238003830E+02 -0.58632227961E+02  0.92210221749E+02  0.00000000000E+00 0.  1.
<mgrwt>
<rscale>  0 0.13863951E+03</rscale>
<asrwt>0</asrwt>
<pdfrwt beam="1">  1        1 0.24800707E-01 0.14638402E+03</pdfrwt>
<pdfrwt beam="2">  1       -1 0.21370782E-01 0.14638402E+03</pdfrwt>
<totfact> 0.33815620E+03</totfact>
</mgrwt>
</event>
<event>
 7    1  0.6419647E-006  0.1541267E+03  0.7546771E-02  0.1200568E+00
         -1   -1    0    0    0  501 -0.00000000000E+00  0.00000000000E+00  0.50805601311E+03  0.50805601311E+03  0.00000000000E+00 0.  1.
          1   -1    0    0  501    0  0.00000000000E+00 -0.00000000000E+00 -0.52588285262E+02  0.52588285262E+02  0.00000000000E+00 0. -1.
         23    2    1    2    0    0 -0.98160199321E+02 -0.20981617076E+02  0.11208271183E+03  0.19057170811E+03  0.11695891867E+03 0.  0.
          5    1    3    3  502    0 -0.31353322975E+02 -0.30056810035E+02 -0.15367606418E+02  0.46310862851E+02  0.47000000000E+01 0. -1.
         -5    1    3    3    0  502 -0.66806876346E+02  0.90751929589E+01  0.12745031825E+03  0.14426084526E+03  0.47000000000E+01 0.  1.
        -11    1    1    2    0    0  0.68603949519E+01  0.41721887580E+02  0.79067922401E+02  0.89663355252E+02  0.00000000000E+00 0.  1.
         11    1    1    2    0    0  0.91299804369E+02 -0.20740270504E+02  0.26431709361E+03  0.28040923500E+03  0.00000000000E+00 0. -1.
<mgrwt>
<rscale>  0 0.14992294E+03</rscale>
<asrwt>0</asrwt>
<pdfrwt beam="2">  1        1 0.80905058E-02 0.15412671E+03</pdfrwt>
<pdfrwt beam="1">  1       -1 0.78162460E-01 0.15412671E+03</pdfrwt>
<totfact> 0.14399366E+03</totfact>
</mgrwt>
</event>
<event>
 7    1  0.6419647E-006  0.1357653E+03  0.7546771E-02  0.1227238E+00
         -2   -1    0    0    0  501 -0.00000000000E+00  0.00000000000E+00  0.97507024277E+02  0.97507024277E+02  0.00000000000E+00 0.  1.
          2   -1    0    0  501    0  0.00000000000E+00 -0.00000000000E+00 -0.16549739872E+03  0.16549739872E+03  0.00000000000E+00 0. -1.
         23    2    1    2    0    0 -0.67093545805E+02  0.25215861146E+02 -0.58911778501E+02  0.14799599369E+03  0.11530322181E+03 0.  0.
          5    1    3    3  502    0 -0.43729030189E+02  0.60958473302E+02 -0.70968206002E+02  0.10337668892E+03  0.47000000000E+01 0. -1.
         -5    1    3    3    0  502 -0.23364515616E+02 -0.35742612157E+02  0.12056427501E+02  0.44619304766E+02  0.47000000000E+01 0.  1.
        -11    1    1    2    0    0  0.84551696072E+02 -0.25410590384E+02 -0.24596453925E+02  0.91649729722E+02  0.00000000000E+00 0.  1.
         11    1    1    2    0    0 -0.17458150267E+02  0.19472923790E+00  0.15517857981E+02  0.23358699591E+02  0.00000000000E+00 0. -1.
<mgrwt>
<rscale>  0 0.13014715E+03</rscale>
<asrwt>0</asrwt>
<pdfrwt beam="2">  1        2 0.25461138E-01 0.13576530E+03</pdfrwt>
<pdfrwt beam="1">  1       -2 0.15001081E-01 0.13576530E+03</pdfrwt>
<totfact> 0.68452060E+03</totfact>
</mgrwt>
</event>
<event>
 7    1  0.6419647E-006  0.1405143E+03  0.7546771E-02  0.1223285E+00
         -1   -1    0    0    0  501 -0.00000000000E+00  0.00000000000E+00  0.69588871204E+02  0.69588871204E+02  0.00000000000E+00 0.  1.
          1   -1    0    0  501    0  0.00000000000E+00 -0.00000000000E+00 -0.43184654827E+03  0.43184654827E+03  0.00000000000E+00 0. -1.
         23    2    1    2    0    0  0.55348106050E+02  0.32483390937E+02 -0.36289931850E+03  0.38915316407E+03  0.12500274480E+03 0.  0.
          5    1    3    3  502    0  0.39880709026E+02 -0.45356602795E+02 -0.14193708839E+03  0.15432407275E+03  0.47000000000E+01 0. -1.
         -5    1    3    3    0  502  0.15467397024E+02  0.77839993731E+02 -0.22096223011E+03  0.23482909132E+03  0.47000000000E+01 0. -1.
        -11    1    1    2    0    0 -0.42830563186E+01 -0.20292174951E+02  0.41076921168E+02  0.46015545073E+02  0.00000000000E+00 0.  1.
         11    1    1    2    0    0 -0.51065049731E+02 -0.12191215986E+02 -0.40435279738E+02  0.66266710336E+02  0.00000000000E+00 0. -1.
<mgrwt>
<rscale>  0 0.13285148E+03</rscale>
<asrwt>0</asrwt>
<pdfrwt beam="2">  1        1 0.66437932E-01 0.14051430E+03</pdfrwt>
<pdfrwt beam="1">  1       -1 0.10705980E-01 0.14051430E+03</pdfrwt>
<totfact> 0.29274776E+03</totfact>
</mgrwt>
</event>
<event>
 7    1  0.6419647E-006  0.1387453E+03  0.7546771E-02  0.1226235E+00
         -1   -1    0    0    0  501 -0.00000000000E+00  0.00000000000E+00  0.72341859207E+03  0.72341859207E+03  0.00000000000E+00 0.  1.
          1   -1    0    0  501    0  0.00000000000E+00 -0.00000000000E+00 -0.59166251594E+02  0.59166251594E+02  0.00000000000E+00 0. -1.
         23    2    1    2    0    0  0.96220066447E+01 -0.59316892318E+02  0.33986838769E+02  0.14284732869E+03  0.12505669665E+03 0.  0.
          5    1    3    3  502    0  0.40431982938E+02 -0.72802043607E+01 -0.32688187719E+02  0.52710096150E+02  0.47000000000E+01 0.  1.
         -5    1    3    3    0  502 -0.30809976293E+02 -0.52036687957E+02  0.66675026487E+02  0.90137232539E+02  0.47000000000E+01 0.  1.
        -11    1    1    2    0    0 -0.24280960220E+02 -0.18466412813E+02  0.16975518288E+03  0.17247433301E+03  0.00000000000E+00 0. -1.
         11    1    1    2    0    0  0.14658953575E+02  0.77783305131E+02  0.46051031883E+03  0.46726318197E+03  0.00000000000E+00 0.  1.
<mgrwt>
<rscale>  0 0.13082615E+03</rscale>
<asrwt>0</asrwt>
<pdfrwt beam="2">  1        1 0.91025008E-02 0.13874528E+03</pdfrwt>
<pdfrwt beam="1">  1       -1 0.11129516E+00 0.13874528E+03</pdfrwt>
<totfact> 0.57284220E+02</totfact>
</mgrwt>
</event>
<event>
 7    1  0.6419647E-006  0.1370169E+03  0.7546771E-02  0.1229342E+00
          1   -1    0    0  501    0  0.00000000000E+00  0.00000000000E+00  0.10132771174E+03  0.10132771174E+03  0.00000000000E+00 0. -1.
         -1   -1    0    0    0  501 -0.00000000000E+00 -0.00000000000E+00 -0.14700203557E+03  0.14700203557E+03  0.00000000000E+00 0.  1.
         23    2    1    2    0    0 -0.41493819021E+02 -0.37766660346E+02 -0.19595055460E+02  0.13841101793E+03  0.12500234412E+03 0.  0.
          5    1    3    3  502    0 -0.80812875164E+02  0.18926842842E+01 -0.11285376913E+02  0.81754221776E+02  0.47000000000E+01 0. -1.
         -5    1    3    3    0  502  0.39319056143E+02 -0.39659344631E+02 -0.83096785465E+01  0.56656796151E+02  0.47000000000E+01 0. -1.
        -11    1    1    2    0    0  0.29019958280E+02 -0.21450799025E+02 -0.33134686140E+02  0.48991858334E+02  0.00000000000E+00 0.  1.
         11    1    1    2    0    0  0.12473860741E+02  0.59217459371E+02  0.70554177692E+01  0.60926871051E+02  0.00000000000E+00 0. -1.
<mgrwt>
<rscale>  0 0.12873699E+03</rscale>
<asrwt>0</asrwt>
<pdfrwt beam="1">  1        1 0.15588879E-01 0.13701695E+03</pdfrwt>
<pdfrwt beam="2">  1       -1 0.22615698E-01 0.13701695E+03</pdfrwt>
<totfact> 0.55534451E+03</totfact>
</mgrwt>
</event>
<event>
 7    1  0.6419647E-006  0.1843093E+03  0.7546771E-02  0.1168204E+00
         -2   -1    0    0    0  501 -0.00000000000E+00  0.00000000000E+00  0.36694736435E+02  0.36694736435E+02  0.00000000000E+00 0.  1.
          2   -1    0    0  501    0  0.00000000000E+00 -0.00000000000E+00 -0.83674960064E+03  0.83674960064E+03  0.00000000000E+00 0. -1.
         23    2    1    2    0    0 -0.13397049231E+03 -0.19899302784E+02 -0.42461200472E+03  0.46288795729E+03  0.12500332551E+03 0.  0.
          5    1    3    3  502    0  0.15741540177E+02 -0.25442979594E+02 -0.40534579418E+02  0.50599243337E+02  0.47000000000E+01 0.  1.
         -5    1    3    3    0  502 -0.14971203248E+03  0.55436768098E+01 -0.38407742531E+03  0.41228871395E+03  0.47000000000E+01 0.  1.
        -11    1    1    2    0    0  0.11153466877E+03  0.40746988493E+02 -0.20107865309E+03  0.23352285570E+03  0.00000000000E+00 0.  1.
         11    1    1    2    0    0  0.22435823533E+02 -0.20847685709E+02 -0.17436420640E+03  0.17703352408E+03  0.00000000000E+00 0. -1.
<mgrwt>
<rscale>  0 0.17958599E+03</rscale>
<asrwt>0</asrwt>
<pdfrwt beam="2">  1        2 0.12873071E+00 0.18430927E+03</pdfrwt>
<pdfrwt beam="1">  1       -2 0.56453441E-02 0.18430927E+03</pdfrwt>
<totfact> 0.53520978E+03</totfact>
</mgrwt>
</event>
<event>
 7    1  0.6419647E-006  0.1694530E+03  0.7546771E-02  0.1185029E+00
          2   -1    0    0  501    0  0.00000000000E+00  0.00000000000E+00  0.75910163845E+03  0.75910163845E+03  0.00000000000E+00 0. -1.
         -2   -1    0    0    0  501 -0.00000000000E+00 -0.00000000000E+00 -0.36406554816E+02  0.36406554816E+02  0.00000000000E+00 0.  1.
         23    2    1    2    0    0 -0.82974084781E+02  0.78775558898E+02  0.51033058404E+03  0.53772819321E+03  0.12499606930E+03 0.  0.
          5    1    3    3  502    0 -0.31174081429E+02  0.91849336652E+02  0.43211204833E+03  0.44288941770E+03  0.47000000000E+01 0. -1.
         -5    1    3    3    0  502 -0.51800003352E+02 -0.13073777754E+02  0.78218535709E+02  0.94838775511E+02  0.47000000000E+01 0. -1.
        -11    1    1    2    0    0  0.13626783023E+02 -0.71957234019E+02  0.13554700405E+03  0.15406661887E+03  0.00000000000E+00 0. -1.
         11    1    1    2    0    0  0.69347301758E+02 -0.68183248784E+01  0.76817495546E+02  0.10371338119E+03  0.00000000000E+00 0.  1.
<mgrwt>
<rscale>  0 0.16329252E+03</rscale>
<asrwt>0</asrwt>
<pdfrwt beam="1">  1        2 0.11678486E+00 0.16945296E+03</pdfrwt>
<pdfrwt beam="2">  1       -2 0.56010090E-02 0.16945296E+03</pdfrwt>
<totfact> 0.61003685E+03</totfact>
</mgrwt>
</event>
<event>
 7    1  0.6419647E-006  0.1458326E+03  0.7546771E-02  0.1216459E+00
         -2   -1    0    0    0  501 -0.00000000000E+00  0.00000000000E+00  0.19734018559E+03  0.19734018559E+03  0.00000000000E+00 0. -1.
          2   -1    0    0  501    0  0.00000000000E+00 -0.00000000000E+00 -0.91062334279E+02  0.91062334279E+02  0.00000000000E+00 0.  1.
         23    2    1    2    0    0  0.18533379166E+01 -0.75089925349E+02  0.27918155727E+02  0.14848087000E+03  0.12500085435E+03 0.  0.
          5    1    3    3  502    0 -0.27261160147E+02 -0.91004341939E+01 -0.39879382123E+02  0.49380602199E+02  0.47000000000E+01 0.  1.
         -5    1    3    3    0  502  0.29114498064E+02 -0.65989491155E+02  0.67797537850E+02  0.99100267804E+02  0.47000000000E+01 0.  1.
        -11    1    1    2    0    0 -0.16584043659E+02  0.58932139938E+02  0.28252554009E+01  0.61286292839E+02  0.00000000000E+00 0.  1.
         11    1    1    2    0    0  0.14730705743E+02  0.16157785410E+02  0.75534440187E+02  0.78635357031E+02  0.00000000000E+00 0. -1.
<mgrwt>
<rscale>  0 0.13769941E+03</rscale>
<asrwt>0</asrwt>
<pdfrwt beam="2">  1        2 0.14009590E-01 0.14583259E+03</pdfrwt>
<pdfrwt beam="1">  1       -2 0.30360029E-01 0.14583259E+03</pdfrwt>
<totfact> 0.40657247E+03</totfact>
</mgrwt>
</event>
<event>
 7    1  0.6419647E-006  0.2315135E+03  0.7546771E-02  0.1128703E+00
         -2   -1    0    0    0  501 -0.00000000000E+00  0.00000000000E+00  0.32546752128E+02  0.32546752128E+02  0.00000000000E+00 0.  1.
          2   -1    0    0  501    0  0.00000000000E+00 -0.00000000000E+00 -0.16502520445E+04  0.16502520445E+04  0.00000000000E+00 0. -1.
         23    2    1    2    0    0 -0.19402241447E+03  0.18132569952E+02 -0.10676147825E+04  0.10924284008E+04  0.12499999832E+03 0.  0.
          5    1    3    3  502    0 -0.12904520274E+03  0.61684860046E+01 -0.37509285899E+03  0.39674608685E+03  0.47000000000E+01 0.  1.
         -5    1    3    3    0  502 -0.64977211734E+02  0.11964083948E+02 -0.69252192352E+03  0.69568231392E+03  0.47000000000E+01 0.  1.
        -11    1    1    2    0    0  0.19226476184E+03 -0.25836778094E+01 -0.53550165258E+03  0.56897665501E+03  0.00000000000E+00 0. -1.
         11    1    1    2    0    0  0.17576526330E+01 -0.15548892143E+02 -0.14588857242E+02  0.21393740796E+02  0.00000000000E+00 0.  1.
<mgrwt>
<rscale>  0 0.22709275E+03</rscale>
<asrwt>0</asrwt>
<pdfrwt beam="2">  1        2 0.25388497E+00 0.23151347E+03</pdfrwt>
<pdfrwt beam="1">  1       -2 0.50071918E-02 0.23151347E+03</pdfrwt>
<totfact> 0.22195590E+03</totfact>
</mgrwt>
</event>
<event>
 6    1  0.6419647E-006  0.1477591E+03  0.7546771E-02  0.1223484E+00
         -2   -1    0    0    0  501 -0.00000000000E+00  0.00000000000E+00  0.18333955708E+03  0.18333955708E+03  0.00000000000E+00 0.  1.
          2   -1    0    0  501    0  0.00000000000E+00 -0.00000000000E+00 -0.95320858317E+02  0.95320858317E+02  0.00000000000E+00 0. -1.
          5    1    1    2  502    0 -0.50852840869E+01  0.15654704499E+02 -0.70968862379E+02  0.73004104779E+02  0.47000000000E+01 0. -1.
         -5    1    1    2    0  502 -0.25119417231E+02 -0.33086248946E+01  0.70175532868E+02  0.74757123634E+02  0.47000000000E+01 0.  1.
        -11    1    1    2    0    0 -0.25117316975E+02 -0.14043864508E+02  0.32004131893E+01  0.28954315515E+02  0.00000000000E+00 0. -1.
         11    1    1    2    0    0  0.55322018294E+02  0.16977849035E+01  0.85611615089E+02  0.10194487147E+03  0.00000000000E+00 0.  1.
<mgrwt>
<rscale>  0 0.13271374E+03</rscale>
<asrwt>0</asrwt>
<pdfrwt beam="2">  1        2 0.14664747E-01 0.14775910E+03</pdfrwt>
<pdfrwt beam="1">  1       -2 0.28206086E-01 0.14775910E+03</pdfrwt>
<totfact> 0.43995165E+03</totfact>
</mgrwt>
</event>
<event>
 6    1  0.6419647E-006  0.1704870E+03  0.7546771E-02  0.1203203E+00
          2   -1    0    0  501    0  0.00000000000E+00  0.00000000000E+00  0.61825957324E+03  0.61825957324E+03  0.00000000000E+00 0. -1.
         -2   -1    0    0    0  501 -0.00000000000E+00 -0.00000000000E+00 -0.29882825882E+02  0.29882825882E+02  0.00000000000E+00 0.  1.
          5    1    1    2  502    0 -0.74365177391E+01  0.27345372700E+02  0.44178506041E+03  0.44271796982E+03  0.47000000000E+01 0. -1.
         -5    1    1    2    0  502 -0.19264603103E+02 -0.58382567998E+01 -0.89179538233E+01  0.22512886878E+02  0.47000000000E+01 0.  1.
        -11    1    1    2    0    0  0.31290306219E+02  0.22809622592E+02  0.11952554194E+03  0.12564122461E+03  0.00000000000E+00 0. -1.
         11    1    1    2    0    0 -0.45891853763E+01 -0.44316738492E+02  0.35984098829E+02  0.57270317805E+02  0.00000000000E+00 0.  1.
<mgrwt>
<rscale>  0 0.14779959E+03</rscale>
<asrwt>0</asrwt>
<pdfrwt beam="1">  1        2 0.95116848E-01 0.17048700E+03</pdfrwt>
<pdfrwt beam="2">  1       -2 0.45973583E-02 0.17048700E+03</pdfrwt>
<totfact> 0.10501898E+04</totfact>
</mgrwt>
</event>
<event>
 7    1  0.6419647E-006  0.1426484E+03  0.7546771E-02  0.1219713E+00
         -2   -1    0    0    0  501 -0.00000000000E+00  0.00000000000E+00  0.12605970366E+03  0.12605970366E+03  0.00000000000E+00 0.  1.
          2   -1    0    0  501    0  0.00000000000E+00 -0.00000000000E+00 -0.16466399751E+03  0.16466399751E+03  0.00000000000E+00 0. -1.
         23    2    1    2    0    0 -0.63202085385E+02  0.27010216025E+02 -0.85068091818E+02  0.16608775125E+03  0.12499802200E+03 0.  0.
          5    1    3    3  502    0 -0.18992960333E+02 -0.49528948203E+02 -0.41012077042E+02  0.67215546681E+02  0.47000000000E+01 0. -1.
         -5    1    3    3    0  502 -0.44209125052E+02  0.76539164228E+02 -0.44056014776E+02  0.98872204570E+02  0.47000000000E+01 0. -1.
        -11    1    1    2    0    0 -0.63601648732E+01 -0.41932740075E+02  0.61292974982E+01  0.42852942433E+02  0.00000000000E+00 0.  1.
         11    1    1    2    0    0  0.69562250258E+02  0.14922524050E+02  0.40334500474E+02  0.81783007486E+02  0.00000000000E+00 0. -1.
<mgrwt>
<rscale>  0 0.13535921E+03</rscale>
<asrwt>0</asrwt>
<pdfrwt beam="2">  1        2 0.25332922E-01 0.14264838E+03</pdfrwt>
<pdfrwt beam="1">  1       -2 0.19393801E-01 0.14264838E+03</pdfrwt>
<totfact> 0.45088758E+03</totfact>
</mgrwt>
</event>
<event>
 7    1  0.6419647E-006  0.1268504E+03  0.7546771E-02  0.1249290E+00
          2   -1    0    0  501    0  0.00000000000E+00  0.00000000000E+00  0.64686391637E+03  0.64686391637E+03  0.00000000000E+00 0. -1.
         -2   -1    0    0    0  501 -0.00000000000E+00 -0.00000000000E+00 -0.18228674145E+02  0.18228674145E+02  0.00000000000E+00 0.  1.
         23    2    1    2    0    0 -0.40444743081E+01 -0.21119580262E+02  0.39285612527E+03  0.41282799476E+03  0.12501449376E+03 0.  0.
          5    1    3    3  502    0  0.26253148232E+01 -0.73507495720E+02  0.21933452653E+03  0.23138705395E+03  0.47000000000E+01 0.  1.
         -5    1    3    3    0  502 -0.66697891313E+01  0.52387915459E+02  0.17352159874E+03  0.18144094081E+03  0.47000000000E+01 0.  1.
        -11    1    1    2    0    0 -0.10887011108E+02  0.39228374078E+02  0.22057283368E+03  0.22429838899E+03  0.00000000000E+00 0. -1.
         11    1    1    2    0    0  0.14931485416E+02 -0.18108793817E+02  0.15206283271E+02  0.27966206771E+02  0.00000000000E+00 0.  1.
<mgrwt>
<rscale>  0 0.11632253E+03</rscale>
<asrwt>0</asrwt>
<pdfrwt beam="1">  1        2 0.99517508E-01 0.12685038E+03</pdfrwt>
<pdfrwt beam="2">  1       -2 0.28044119E-02 0.12685038E+03</pdfrwt>
<totfact> 0.20302112E+04</totfact>
</mgrwt>
</event>
<event>
 7    1  0.6419647E-006  0.1168503E+03  0.7546771E-02  0.1289665E+00
          2   -1    0    0  501    0  0.00000000000E+00  0.00000000000E+00  0.12155955324E+03  0.12155955324E+03  0.00000000000E+00 0. -1.
         -2   -1    0    0    0  501 -0.00000000000E+00 -0.00000000000E+00 -0.10214477488E+03  0.10214477488E+03  0.00000000000E+00 0.  1.
         23    2    1    2    0    0 -0.12269105668E+02 -0.36833640099E+02  0.81441695142E+02  0.14243153693E+03  0.11021227249E+03 0.  0.
          5    1    3    3  502    0 -0.48376862567E+02 -0.30235070454E+02  0.49453929507E+01  0.57454566647E+02  0.47000000000E+01 0. -1.
         -5    1    3    3    0  502  0.36107756899E+02 -0.65985696443E+01  0.76496302192E+02  0.84976970284E+02  0.47000000000E+01 0.  1.
        -11    1    1    2    0    0  0.18979673180E+02  0.50118767759E+01 -0.18822541501E+02  0.27196230830E+02  0.00000000000E+00 0. -1.
         11    1    1    2    0    0 -0.67105675123E+01  0.31821763323E+02 -0.43204375275E+02  0.54076560358E+02  0.00000000000E+00 0.  1.
<mgrwt>
<rscale>  0 0.95674290E+02</rscale>
<asrwt>0</asrwt>
<pdfrwt beam="1">  1        2 0.18701470E-01 0.11685030E+03</pdfrwt>
<pdfrwt beam="2">  1       -2 0.15714581E-01 0.11685030E+03</pdfrwt>
<totfact> 0.88536277E+03</totfact>
</mgrwt>
</event>
<event>
 7    1  0.6419647E-006  0.1284361E+03  0.7546771E-02  0.1239380E+00
         -2   -1    0    0    0  501 -0.00000000000E+00  0.00000000000E+00  0.26114859740E+02  0.26114859740E+02  0.00000000000E+00 0.  1.
          2   -1    0    0  501    0  0.00000000000E+00 -0.00000000000E+00 -0.58618631590E+03  0.58618631590E+03  0.00000000000E+00 0. -1.
         23    2    1    2    0    0  0.68102702531E+01  0.28723743231E+02 -0.40379718976E+03  0.42373104265E+03  0.12499757133E+03 0.  0.
          5    1    3    3  502    0  0.45702937397E+02  0.28122388604E+01 -0.54708575690E+02  0.71496751173E+02  0.47000000000E+01 0.  1.
         -5    1    3    3    0  502 -0.38892667144E+02  0.25911504370E+02 -0.34908861407E+03  0.35223429148E+03  0.47000000000E+01 0.  1.
        -11    1    1    2    0    0 -0.77284298497E+01 -0.62983157304E+02 -0.63949671672E+02  0.90089773220E+02  0.00000000000E+00 0.  1.
         11    1    1    2    0    0  0.91815959656E+00  0.34259414073E+02 -0.92324594729E+02  0.98480359776E+02  0.00000000000E+00 0. -1.
<mgrwt>
<rscale>  0 0.12228172E+03</rscale>
<asrwt>0</asrwt>
<pdfrwt beam="2">  1        2 0.90182496E-01 0.12843608E+03</pdfrwt>
<pdfrwt beam="1">  1       -2 0.40176714E-02 0.12843608E+03</pdfrwt>
<totfact> 0.13390040E+04</totfact>
</mgrwt>
</event>
<event>
 7    1  0.6419647E-006  0.1347520E+03  0.7546771E-02  0.1232302E+00
          1   -1    0    0  501    0  0.00000000000E+00  0.00000000000E+00  0.29291235117E+03  0.29291235117E+03  0.00000000000E+00 0. -1.
         -1   -1    0    0    0  501 -0.00000000000E+00 -0.00000000000E+00 -0.49309530430E+02  0.49309530430E+02  0.00000000000E+00 0.  1.
         23    2    1    2    0    0 -0.12742657916E+02 -0.48701037229E+02  0.13671035621E+03  0.19195785217E+03  0.12499571655E+03 0.  0.
          5    1    3    3  502    0 -0.61447391111E+02 -0.16153490819E+02  0.30635699795E+02  0.70691960235E+02  0.47000000000E+01 0.  1.
         -5    1    3    3    0  502  0.48704733195E+02 -0.32547546410E+02  0.10607465641E+03  0.12126589193E+03  0.47000000000E+01 0.  1.
        -11    1    1    2    0    0 -0.30704204681E+02  0.23030114945E+02  0.79510462593E+01  0.39196345699E+02  0.00000000000E+00 0.  1.
         11    1    1    2    0    0  0.43446862597E+02  0.25670922284E+02  0.98941418270E+02  0.11106768373E+03  0.00000000000E+00 0. -1.
<mgrwt>
<rscale>  0 0.12678757E+03</rscale>
<asrwt>0</asrwt>
<pdfrwt beam="1">  1        1 0.45063438E-01 0.13475198E+03</pdfrwt>
<pdfrwt beam="2">  1       -1 0.75860818E-02 0.13475198E+03</pdfrwt>
<totfact> 0.80094233E+03</totfact>
</mgrwt>
</event>
<event>
 7    1  0.7766363E-006  0.1660314E+03  0.7546771E-02  0.1188850E+00
          1   -1    0    0  501    0  0.00000000000E+00  0.00000000000E+00  0.27672212617E+04  0.27672212617E+04  0.00000000000E+00 0. -1.
         -1   -1    0    0    0  501 -0.00000000000E+00 -0.00000000000E+00 -0.10495903671E+02  0.10495903671E+02  0.00000000000E+00 0.  1.
         23    2    1    2    0    0  0.71395088299E+02 -0.82728203848E+02  0.20509286745E+04  0.20576381725E+04  0.12500082722E+03 0.  0.
          5    1    3    3  502    0  0.43095367763E+02  0.27668266510E+02  0.71669132953E+03  0.71853412968E+03  0.47000000000E+01 0.  1.
         -5    1    3    3    0  502  0.28299720536E+02 -0.11039647036E+03  0.13342373450E+04  0.13391040429E+04  0.47000000000E+01 0.  1.
        -11    1    1    2    0    0  0.16135821859E+02 -0.67806188206E+01  0.89235655605E+02  0.90935932226E+02  0.00000000000E+00 0. -1.
         11    1    1    2    0    0 -0.87530910158E+02  0.89508822668E+02  0.61656102793E+03  0.62914306062E+03  0.00000000000E+00 0.  1.
<mgrwt>
<rscale>  0 0.15986473E+03</rscale>
<asrwt>0</asrwt>
<pdfrwt beam="1">  1        1 0.42572576E+00 0.16603139E+03</pdfrwt>
<pdfrwt beam="2">  1       -1 0.16147566E-02 0.16603139E+03</pdfrwt>
<totfact> 0.99642783E+02</totfact>
</mgrwt>
</event>
<event>
 7    1  0.6419647E-006  0.1992041E+03  0.7546771E-02  0.1154902E+00
          2   -1    0    0  501    0  0.00000000000E+00  0.00000000000E+00  0.19931481567E+03  0.19931481567E+03  0.00000000000E+00 0.  1.
         -2   -1    0    0    0  501 -0.00000000000E+00 -0.00000000000E+00 -0.26924166972E+03  0.26924166972E+03  0.00000000000E+00 0. -1.
         23    2    1    2    0    0 -0.10263232661E+03 -0.11629568001E+03  0.98862446901E+02  0.22238719750E+03  0.12499681016E+03 0.  0.
          5    1    3    3  502    0 -0.29344383879E+02 -0.11510181331E+03  0.88520790686E+02  0.14821450900E+03  0.47000000000E+01 0.  1.
         -5    1    3    3    0  502 -0.73287942729E+02 -0.11938666989E+01  0.10341656215E+02  0.74172688507E+02  0.47000000000E+01 0.  1.
        -11    1    1    2    0    0  0.10186248290E+03  0.51240535969E+02 -0.11153572040E+03  0.15950478010E+03  0.00000000000E+00 0.  1.
         11    1    1    2    0    0  0.76984370684E+00  0.65055144042E+02 -0.57253580544E+02  0.86664507792E+02  0.00000000000E+00 0. -1.
<mgrwt>
<rscale>  0 0.19400053E+03</rscale>
<asrwt>0</asrwt>
<pdfrwt beam="1">  1        2 0.30663818E-01 0.19920412E+03</pdfrwt>
<pdfrwt beam="2">  1       -2 0.41421796E-01 0.19920412E+03</pdfrwt>
<totfact> 0.94921592E+02</totfact>
</mgrwt>
</event>
<event>
 7    1  0.6419647E-006  0.1528184E+03  0.7546771E-02  0.1200257E+00
         -2   -1    0    0    0  501 -0.00000000000E+00  0.00000000000E+00  0.33145327119E+02  0.33145327119E+02  0.00000000000E+00 0.  1.
          2   -1    0    0  501    0  0.00000000000E+00 -0.00000000000E+00 -0.11045742687E+04  0.11045742687E+04  0.00000000000E+00 0. -1.
         23    2    1    2    0    0 -0.16750736846E+02 -0.62467384427E+02 -0.88620514665E+03  0.89759186099E+03  0.12699931366E+03 0.  0.
          5    1    3    3  502    0  0.32132777591E+02 -0.71247583917E+01 -0.64521620963E+02  0.72583793987E+02  0.47000000000E+01 0. -1.
         -5    1    3    3    0  502 -0.48883514437E+02 -0.55342626035E+02 -0.82168352568E+03  0.82500806700E+03  0.47000000000E+01 0.  1.
        -11    1    1    2    0    0  0.31474824135E+02  0.82120803724E+02 -0.46956398125E+02  0.99696510889E+02  0.00000000000E+00 0.  1.
         11    1    1    2    0    0 -0.14724087290E+02 -0.19653419297E+02 -0.13826739684E+03  0.14043122397E+03  0.00000000000E+00 0. -1.
<mgrwt>
<rscale>  0 0.15017575E+03</rscale>
<asrwt>0</asrwt>
<pdfrwt beam="2">  1        2 0.16993452E+00 0.15281844E+03</pdfrwt>
<pdfrwt beam="1">  1       -2 0.50992807E-02 0.15281844E+03</pdfrwt>
<totfact> 0.42481577E+03</totfact>
</mgrwt>
</event>
<event>
 7    1  0.6419647E-006  0.1346677E+03  0.7546771E-02  0.1233337E+00
         -3   -1    0    0    0  501 -0.00000000000E+00  0.00000000000E+00  0.26502337168E+03  0.26502337168E+03  0.00000000000E+00 0.  1.
          3   -1    0    0  501    0  0.00000000000E+00 -0.00000000000E+00 -0.66940697697E+02  0.66940697697E+02  0.00000000000E+00 0. -1.
         23    2    1    2    0    0 -0.46982550409E+02 -0.17061924877E+02  0.35634072987E+02  0.13930245020E+03  0.12504765552E+03 0.  0.
          5    1    3    3  502    0 -0.16276293665E+02  0.52410942646E+02 -0.44241254215E+00  0.55082759311E+02  0.47000000000E+01 0. -1.
         -5    1    3    3    0  502 -0.30706256744E+02 -0.69472867523E+02  0.36076485530E+02  0.84219690888E+02  0.47000000000E+01 0. -1.
        -11    1    1    2    0    0 -0.72648301550E+01  0.16474271602E+02 -0.32607653548E+01  0.18297867982E+02  0.00000000000E+00 0. -1.
         11    1    1    2    0    0  0.54247380564E+02  0.58765327523E+00  0.16570936635E+03  0.17436375119E+03  0.00000000000E+00 0.  1.
<mgrwt>
<rscale>  0 0.12611513E+03</rscale>
<asrwt>0</asrwt>
<pdfrwt beam="2">  1        3 0.10298569E-01 0.13466769E+03</pdfrwt>
<pdfrwt beam="1">  1       -3 0.40772826E-01 0.13466769E+03</pdfrwt>
<totfact> 0.96834494E+02</totfact>
</mgrwt>
</event>
<event>
 7    1  0.6419647E-006  0.1442371E+03  0.7546771E-02  0.1223506E+00
          2   -1    0    0  501    0  0.00000000000E+00  0.00000000000E+00  0.82912063125E+03  0.82912063125E+03  0.00000000000E+00 0. -1.
         -2   -1    0    0    0  501 -0.00000000000E+00 -0.00000000000E+00 -0.22255258732E+02  0.22255258732E+02  0.00000000000E+00 0.  1.
         23    2    1    2    0    0 -0.14119013153E+02 -0.70569810916E+02  0.63210285171E+03  0.64835048752E+03  0.12499957908E+03 0.  0.
          5    1    3    3  502    0 -0.20504108431E+01 -0.34462377394E+02  0.59138017102E+03  0.59240565183E+03  0.47000000000E+01 0. -1.
         -5    1    3    3    0  502 -0.12068602309E+02 -0.36107433522E+02  0.40722680691E+02  0.55944835685E+02  0.47000000000E+01 0. -1.
        -11    1    1    2    0    0 -0.19025812372E+02 -0.59162121805E+01  0.31317748994E+02  0.37118519704E+02  0.00000000000E+00 0.  1.
         11    1    1    2    0    0  0.33144825525E+02  0.76486023096E+02  0.14344477181E+03  0.16590688276E+03  0.00000000000E+00 0. -1.
<mgrwt>
<rscale>  0 0.13269843E+03</rscale>
<asrwt>0</asrwt>
<pdfrwt beam="1">  1        2 0.12755700E+00 0.14423709E+03</pdfrwt>
<pdfrwt beam="2">  1       -2 0.34238866E-02 0.14423709E+03</pdfrwt>
<totfact> 0.11324192E+04</totfact>
</mgrwt>
</event>
<event>
 7    1  0.6419647E-006  0.1463093E+03  0.7546771E-02  0.1214582E+00
          2   -1    0    0  501    0  0.00000000000E+00  0.00000000000E+00  0.65833114929E+03  0.65833114929E+03  0.00000000000E+00 0. -1.
         -2   -1    0    0    0  501 -0.00000000000E+00 -0.00000000000E+00 -0.57383752285E+02  0.57383752285E+02  0.00000000000E+00 0.  1.
         23    2    1    2    0    0  0.43242462155E+02  0.62537744722E+02  0.57521887935E+03  0.59353447634E+03  0.12500214153E+03 0.  0.
          5    1    3    3  502    0 -0.31160089425E+02  0.43968867682E+01  0.31627468914E+03  0.31787112605E+03  0.47000000000E+01 0. -1.
         -5    1    3    3    0  502  0.74402551580E+02  0.58140857954E+02  0.25894419022E+03  0.27566335029E+03  0.47000000000E+01 0. -1.
        -11    1    1    2    0    0  0.52923955648E+01 -0.59125909755E+02 -0.12059877782E+02  0.60574939598E+02  0.00000000000E+00 0.  1.
         11    1    1    2    0    0 -0.48534857720E+02 -0.34118349665E+01  0.37788395433E+02  0.61605485641E+02  0.00000000000E+00 0. -1.
<mgrwt>
<rscale>  0 0.13907278E+03</rscale>
<asrwt>0</asrwt>
<pdfrwt beam="1">  1        2 0.10128171E+00 0.14630931E+03</pdfrwt>
<pdfrwt beam="2">  1       -2 0.88282701E-02 0.14630931E+03</pdfrwt>
<totfact> 0.35738432E+03</totfact>
</mgrwt>
</event>
<event>
 7    1  0.6419647E-006  0.1373849E+03  0.7546771E-02  0.1228510E+00
          1   -1    0    0  501    0  0.00000000000E+00  0.00000000000E+00  0.27572257352E+03  0.27572257352E+03  0.00000000000E+00 0. -1.
         -1   -1    0    0    0  501 -0.00000000000E+00 -0.00000000000E+00 -0.71014502201E+02  0.71014502201E+02  0.00000000000E+00 0.  1.
         23    2    1    2    0    0 -0.54834812447E+02  0.15630252042E+02  0.19500270351E+03  0.23853862077E+03  0.12499383102E+03 0.  0.
          5    1    3    3  502    0  0.33663123939E+02  0.27191564804E+02  0.94515330612E+02  0.10405683462E+03  0.47000000000E+01 0.  1.
         -5    1    3    3    0  502 -0.88497936386E+02 -0.11561312762E+02  0.10048737289E+03  0.13448178616E+03  0.47000000000E+01 0.  1.
        -11    1    1    2    0    0  0.23689898270E+02 -0.53546470000E+02  0.25167540602E+01  0.58606908982E+02  0.00000000000E+00 0.  1.
         11    1    1    2    0    0  0.31144914177E+02  0.37916217958E+02  0.71886137516E+01  0.49591545963E+02  0.00000000000E+00 0. -1.
<mgrwt>
<rscale>  0 0.12929181E+03</rscale>
<asrwt>0</asrwt>
<pdfrwt beam="1">  1        1 0.42418857E-01 0.13738493E+03</pdfrwt>
<pdfrwt beam="2">  1       -1 0.10925308E-01 0.13738493E+03</pdfrwt>
<totfact> 0.49658424E+03</totfact>
</mgrwt>
</event>
<event>
 7    1  0.6419647E-006  0.1410121E+03  0.7546771E-02  0.1222974E+00
         -2   -1    0    0    0  501 -0.00000000000E+00  0.00000000000E+00  0.42497375698E+02  0.42497375698E+02  0.00000000000E+00 0.  1.
          2   -1    0    0  501    0  0.00000000000E+00 -0.00000000000E+00 -0.39148878420E+03  0.39148878420E+03  0.00000000000E+00 0. -1.
         23    2    1    2    0    0  0.59841290687E+02 -0.26063864122E+02 -0.23666605329E+03  0.27549091611E+03  0.12499647591E+03 0.  0.
          5    1    3    3  502    0  0.20536310226E+02  0.30287372973E+02 -0.18694820423E+03  0.19055389281E+03  0.47000000000E+01 0.  1.
         -5    1    3    3    0  502  0.39304980462E+02 -0.56351237095E+02 -0.49717849067E+02  0.84937023300E+02  0.47000000000E+01 0.  1.
        -11    1    1    2    0    0  0.18904558127E+02  0.24910772550E+02 -0.19896126400E+02  0.37064602422E+02  0.00000000000E+00 0.  1.
         11    1    1    2    0    0 -0.78745848815E+02  0.11530915728E+01 -0.92429228807E+02  0.12143064137E+03  0.00000000000E+00 0. -1.
<mgrwt>
<rscale>  0 0.13306764E+03</rscale>
<asrwt>0</asrwt>
<pdfrwt beam="2">  1        2 0.60229042E-01 0.14101214E+03</pdfrwt>
<pdfrwt beam="1">  1       -2 0.65380580E-02 0.14101214E+03</pdfrwt>
<totfact> 0.10079297E+04</totfact>
</mgrwt>
</event>
<event>
 7    1  0.1252567E-005  0.3193706E+03  0.7546771E-02  0.1077297E+00
         -1   -1    0    0    0  501 -0.00000000000E+00  0.00000000000E+00  0.86503633812E+03  0.86503633812E+03  0.00000000000E+00 0.  1.
          1   -1    0    0  501    0  0.00000000000E+00 -0.00000000000E+00 -0.11381551906E+03  0.11381551906E+03  0.00000000000E+00 0. -1.
         23    2    1    2    0    0 -0.20229067580E+03 -0.21319197927E+03  0.36610986839E+03  0.48583332085E+03  0.12500096950E+03 0.  0.
          5    1    3    3  502    0 -0.15961703900E+03 -0.11610787829E+03  0.30506221151E+03  0.36337815211E+03  0.47000000000E+01 0. -1.
         -5    1    3    3    0  502 -0.42673636798E+02 -0.97084100980E+02  0.61047656883E+02  0.12245516874E+03  0.47000000000E+01 0. -1.
        -11    1    1    2    0    0  0.32669715118E+02  0.17293187104E+02  0.10554136939E+03  0.11182730104E+03  0.00000000000E+00 0.  1.
         11    1    1    2    0    0  0.16962096068E+03  0.19589879217E+03  0.27956958128E+03  0.38119123528E+03  0.00000000000E+00 0. -1.
<mgrwt>
<rscale>  0 0.31644447E+03</rscale>
<asrwt>0</asrwt>
<pdfrwt beam="2">  1        1 0.17510080E-01 0.31937060E+03</pdfrwt>
<pdfrwt beam="1">  1       -1 0.13308251E+00 0.31937060E+03</pdfrwt>
<totfact> 0.15600869E+02</totfact>
</mgrwt>
</event>
<event>
 7    1  0.6419647E-006  0.1397362E+03  0.7546771E-02  0.1225056E+00
          1   -1    0    0  501    0  0.00000000000E+00  0.00000000000E+00  0.67134274180E+03  0.67134274180E+03  0.00000000000E+00 0. -1.
         -1   -1    0    0    0  501 -0.00000000000E+00 -0.00000000000E+00 -0.29836501208E+02  0.29836501208E+02  0.00000000000E+00 0.  1.
         23    2    1    2    0    0 -0.62464839781E+02  0.10884505199E+01  0.51451745987E+03  0.53315515296E+03  0.12499263848E+03 0.  0.
          5    1    3    3  502    0 -0.12014580076E+02 -0.10655634011E+02  0.44987441864E+03  0.45018548979E+03  0.47000000000E+01 0.  1.
         -5    1    3    3    0  502 -0.50450259705E+02  0.11744084531E+02  0.64643041233E+02  0.82969663165E+02  0.47000000000E+01 0.  1.
        -11    1    1    2    0    0  0.43773596168E+02  0.39691214739E+02  0.98559212806E+02  0.11491491930E+03  0.00000000000E+00 0. -1.
         11    1    1    2    0    0  0.18691243613E+02 -0.40779665259E+02  0.28429567912E+02  0.53109170753E+02  0.00000000000E+00 0.  1.
<mgrwt>
<rscale>  0 0.13163049E+03</rscale>
<asrwt>0</asrwt>
<pdfrwt beam="1">  1        1 0.10328349E+00 0.13973618E+03</pdfrwt>
<pdfrwt beam="2">  1       -1 0.45902314E-02 0.13973618E+03</pdfrwt>
<totfact> 0.58031289E+03</totfact>
</mgrwt>
</event>
<event>
 7    1  0.6419647E-006  0.1653733E+03  0.7546771E-02  0.1189478E+00
         -2   -1    0    0    0  501 -0.00000000000E+00  0.00000000000E+00  0.32113044036E+02  0.32113044036E+02  0.00000000000E+00 0.  1.
          2   -1    0    0  501    0  0.00000000000E+00 -0.00000000000E+00 -0.80557877034E+03  0.80557877034E+03  0.00000000000E+00 0. -1.
         23    2    1    2    0    0 -0.35935583169E+02  0.10213977527E+03 -0.53455290642E+03  0.55954905772E+03  0.12499775360E+03 0.  0.
          5    1    3    3  502    0 -0.62000477003E+02  0.17735223310E+02 -0.12707122653E+03  0.14257553755E+03  0.47000000000E+01 0. -1.
         -5    1    3    3    0  502  0.26064893834E+02  0.84404551960E+02 -0.40748167989E+03  0.41697352017E+03  0.47000000000E+01 0. -1.
        -11    1    1    2    0    0  0.64533379807E+02 -0.50077602882E+02 -0.11918609356E+03  0.14449099736E+03  0.00000000000E+00 0.  1.
         11    1    1    2    0    0 -0.28597796638E+02 -0.52062172388E+02 -0.11972672633E+03  0.13365175930E+03  0.00000000000E+00 0. -1.
<mgrwt>
<rscale>  0 0.15931015E+03</rscale>
<asrwt>0</asrwt>
<pdfrwt beam="2">  1        2 0.12393520E+00 0.16537333E+03</pdfrwt>
<pdfrwt beam="1">  1       -2 0.49404680E-02 0.16537333E+03</pdfrwt>
<totfact> 0.68429227E+03</totfact>
</mgrwt>
</event>
<event>
 6    1  0.6419647E-006  0.1935055E+03  0.7546771E-02  0.1184864E+00
         -1   -1    0    0    0  501 -0.00000000000E+00  0.00000000000E+00  0.74455399435E+02  0.74455399435E+02  0.00000000000E+00 0.  1.
          1   -1    0    0  501    0  0.00000000000E+00 -0.00000000000E+00 -0.34506435477E+03  0.34506435477E+03  0.00000000000E+00 0. -1.
          5    1    1    2  502    0 -0.41883595828E+02 -0.54034856556E+02 -0.34089473782E+02  0.76538771516E+02  0.47000000000E+01 0. -1.
         -5    1    1    2    0  502  0.49229224047E+02  0.90026728839E+02 -0.22043151787E+03  0.24318814214E+03  0.47000000000E+01 0.  1.
        -11    1    1    2    0    0  0.76311982868E+01  0.29920064847E+02 -0.59190414705E+01  0.31440110046E+02  0.00000000000E+00 0.  1.
         11    1    1    2    0    0 -0.14976826507E+02 -0.65911937131E+02 -0.10168922212E+02  0.68352730505E+02  0.00000000000E+00 0. -1.
<mgrwt>
<rscale>  0 0.16344258E+03</rscale>
<asrwt>0</asrwt>
<pdfrwt beam="2">  1        1 0.53086823E-01 0.19350546E+03</pdfrwt>
<pdfrwt beam="1">  1       -1 0.11454677E-01 0.19350546E+03</pdfrwt>
<totfact> 0.35487938E+03</totfact>
</mgrwt>
</event>
<event>
 7    1  0.6419647E-006  0.1387172E+03  0.7546771E-02  0.1227130E+00
          3   -1    0    0  501    0  0.00000000000E+00  0.00000000000E+00  0.17626875840E+03  0.17626875840E+03  0.00000000000E+00 0. -1.
         -3   -1    0    0    0  501 -0.00000000000E+00 -0.00000000000E+00 -0.86396273042E+02  0.86396273042E+02  0.00000000000E+00 0.  1.
         23    2    1    2    0    0  0.14610277269E+02  0.58343400913E+02  0.57701788351E+02  0.15023971283E+03  0.12500024920E+03 0.  0.
          5    1    3    3  502    0  0.48123392798E+02 -0.19173867036E+02  0.34897735342E+02  0.62637369385E+02  0.47000000000E+01 0.  1.
         -5    1    3    3    0  502 -0.33513115529E+02  0.77517267949E+02  0.22804053009E+02  0.87602343441E+02  0.47000000000E+01 0.  1.
        -11    1    1    2    0    0 -0.35256520458E+02  0.13670092875E+01 -0.97477349957E+01  0.36604771366E+02  0.00000000000E+00 0.  1.
         11    1    1    2    0    0  0.20646243189E+02 -0.59710410200E+02  0.41918432005E+02  0.75820547254E+02  0.00000000000E+00 0. -1.
<mgrwt>
<rscale>  0 0.13021954E+03</rscale>
<asrwt>0</asrwt>
<pdfrwt beam="1">  1        3 0.27118270E-01 0.13871725E+03</pdfrwt>
<pdfrwt beam="2">  1       -3 0.13291734E-01 0.13871725E+03</pdfrwt>
<totfact> 0.13647436E+03</totfact>
</mgrwt>
</event>
<event>
 6    1  0.6419647E-006  0.2089595E+03  0.7546771E-02  0.1160994E+00
         -1   -1    0    0    0  501 -0.00000000000E+00  0.00000000000E+00  0.19021617520E+03  0.19021617520E+03  0.00000000000E+00 0.  1.
          1   -1    0    0  501    0  0.00000000000E+00 -0.00000000000E+00 -0.16363533300E+03  0.16363533300E+03  0.00000000000E+00 0. -1.
          5    1    1    2  502    0  0.12758504531E+02  0.47795888458E+02 -0.36529181504E+02  0.61674123364E+02  0.47000000000E+01 0. -1.
         -5    1    1    2    0  502 -0.35951629273E+02 -0.14348128420E+03  0.13223097867E+02  0.14858108520E+03  0.47000000000E+01 0.  1.
        -11    1    1    2    0    0 -0.24922237556E+02  0.44727966108E+02  0.52671102165E+02  0.73457156767E+02  0.00000000000E+00 0. -1.
         11    1    1    2    0    0  0.48115362298E+02  0.50957429631E+02 -0.27841763316E+01  0.70139142863E+02  0.00000000000E+00 0.  1.
<mgrwt>
<rscale>  0 0.18721899E+03</rscale>
<asrwt>0</asrwt>
<pdfrwt beam="2">  1        1 0.25174667E-01 0.20895952E+03</pdfrwt>
<pdfrwt beam="1">  1       -1 0.29264027E-01 0.20895952E+03</pdfrwt>
<totfact> 0.20011528E+03</totfact>
</mgrwt>
</event>
<event>
 6    1  0.6419647E-006  0.1803840E+03  0.7546771E-02  0.1180525E+00
          1   -1    0    0  501    0  0.00000000000E+00  0.00000000000E+00  0.82668438735E+03  0.82668438735E+03  0.00000000000E+00 0. -1.
         -1   -1    0    0    0  501 -0.00000000000E+00 -0.00000000000E+00 -0.40197742697E+02  0.40197742697E+02  0.00000000000E+00 0.  1.
          5    1    1    2  502    0 -0.13377525360E+03 -0.33674656036E+02  0.53386367538E+03  0.55141845709E+03  0.47000000000E+01 0. -1.
         -5    1    1    2    0  502  0.37459688450E+02  0.16498132160E+02  0.12029464735E+03  0.12715466490E+03  0.47000000000E+01 0.  1.
        -11    1    1    2    0    0  0.85218902632E+02 -0.24750601184E+02  0.10298725622E+03  0.13594568242E+03  0.00000000000E+00 0.  1.
         11    1    1    2    0    0  0.11096662522E+02  0.41927125060E+02  0.29341065699E+02  0.52363325632E+02  0.00000000000E+00 0. -1.
<mgrwt>
<rscale>  0 0.16745764E+03</rscale>
<asrwt>0</asrwt>
<pdfrwt beam="1">  1        1 0.12718220E+00 0.18038395E+03</pdfrwt>
<pdfrwt beam="2">  1       -1 0.61842687E-02 0.18038395E+03</pdfrwt>
<totfact> 0.27658561E+03</totfact>
</mgrwt>
</event>
<event>
 7    1  0.6419647E-006  0.1436757E+03  0.7546771E-02  0.1218904E+00
          2   -1    0    0  501    0  0.00000000000E+00  0.00000000000E+00  0.29705701740E+03  0.29705701740E+03  0.00000000000E+00 0.  1.
         -2   -1    0    0    0  501 -0.00000000000E+00 -0.00000000000E+00 -0.58815564415E+02  0.58815564415E+02  0.00000000000E+00 0. -1.
         23    2    1    2    0    0 -0.57466320447E+02  0.41432173008E+02  0.16778584716E+03  0.22089544565E+03  0.12499481772E+03 0.  0.
          5    1    3    3  502    0 -0.36449026151E+00  0.52324842863E+02  0.11085064585E+02  0.53693488344E+02  0.47000000000E+01 0. -1.
         -5    1    3    3    0  502 -0.57101830186E+02 -0.10892669855E+02  0.15670078258E+03  0.16720195731E+03  0.47000000000E+01 0. -1.
        -11    1    1    2    0    0 -0.21698154571E+02  0.50524542191E+01  0.21388944121E+02  0.30884043389E+02  0.00000000000E+00 0.  1.
         11    1    1    2    0    0  0.79164475018E+02 -0.46484627227E+02  0.49066661706E+02  0.10409309278E+03  0.00000000000E+00 0. -1.
<mgrwt>
<rscale>  0 0.13593594E+03</rscale>
<asrwt>0</asrwt>
<pdfrwt beam="1">  1        2 0.45701079E-01 0.14367570E+03</pdfrwt>
<pdfrwt beam="2">  1       -2 0.90485485E-02 0.14367570E+03</pdfrwt>
<totfact> 0.82006399E+03</totfact>
</mgrwt>
</event>
<event>
 7    1  0.6419647E-006  0.1919926E+03  0.7546771E-02  0.1161250E+00
          1   -1    0    0  501    0  0.00000000000E+00  0.00000000000E+00  0.49883406510E+02  0.49883406510E+02  0.00000000000E+00 0. -1.
         -1   -1    0    0    0  501 -0.00000000000E+00 -0.00000000000E+00 -0.70919875691E+03  0.70919875691E+03  0.00000000000E+00 0.  1.
         23    2    1    2    0    0  0.11300554456E+03  0.92001208388E+02 -0.25269292639E+03  0.31735604981E+03  0.12500668725E+03 0.  0.
          5    1    3    3  502    0  0.68529402985E+01  0.78581386554E+02 -0.69906106566E+02  0.10550332146E+03  0.47000000000E+01 0. -1.
         -5    1    3    3    0  502  0.10615260426E+03  0.13419821834E+02 -0.18278681982E+03  0.21185272835E+03  0.47000000000E+01 0. -1.
        -11    1    1    2    0    0 -0.34078459101E+02 -0.65998850253E+02 -0.28432521870E+03  0.29386735035E+03  0.00000000000E+00 0.  1.
         11    1    1    2    0    0 -0.78927085457E+02 -0.26002358136E+02 -0.12229720531E+03  0.14785876327E+03  0.00000000000E+00 0. -1.
<mgrwt>
<rscale>  0 0.18694085E+03</rscale>
<asrwt>0</asrwt>
<pdfrwt beam="1">  1        1 0.76743698E-02 0.19199257E+03</pdfrwt>
<pdfrwt beam="2">  1       -1 0.10910751E+00 0.19199257E+03</pdfrwt>
<totfact> 0.75746488E+02</totfact>
</mgrwt>
</event>
<event>
 7    1  0.6419647E-006  0.1354897E+03  0.7546771E-02  0.1231658E+00
         -1   -1    0    0    0  501 -0.00000000000E+00  0.00000000000E+00  0.25880022808E+03  0.25880022808E+03  0.00000000000E+00 0. -1.
          1   -1    0    0  501    0  0.00000000000E+00 -0.00000000000E+00 -0.62512258156E+02  0.62512258156E+02  0.00000000000E+00 0.  1.
         23    2    1    2    0    0  0.32367771058E+02 -0.41036324161E+02  0.57682779045E+02  0.14725743932E+03  0.12500319169E+03 0.  0.
          5    1    3    3  502    0  0.61951829421E+02 -0.62202715281E+02  0.65650108517E+02  0.10972344191E+03  0.47000000000E+01 0. -1.
         -5    1    3    3    0  502 -0.29584058363E+02  0.21166391120E+02 -0.79673294720E+01  0.37533997405E+02  0.47000000000E+01 0. -1.
        -11    1    1    2    0    0 -0.20298524066E+02  0.12142815214E+02 -0.73576768097E+01  0.24771222187E+02  0.00000000000E+00 0.  1.
         11    1    1    2    0    0 -0.12069246992E+02  0.28893508947E+02  0.14596286769E+03  0.14928382473E+03  0.00000000000E+00 0. -1.
<mgrwt>
<rscale>  0 0.12720832E+03</rscale>
<asrwt>0</asrwt>
<pdfrwt beam="2">  1        1 0.96172706E-02 0.13548967E+03</pdfrwt>
<pdfrwt beam="1">  1       -1 0.39815419E-01 0.13548967E+03</pdfrwt>
<totfact> 0.40348990E+03</totfact>
</mgrwt>
</event>
<event>
 7    1  0.6419647E-006  0.1360303E+03  0.7546771E-02  0.1231241E+00
         -1   -1    0    0    0  501 -0.00000000000E+00  0.00000000000E+00  0.37629349977E+03  0.37629349977E+03  0.00000000000E+00 0.  1.
          1   -1    0    0  501    0  0.00000000000E+00 -0.00000000000E+00 -0.46308378035E+02  0.46308378035E+02  0.00000000000E+00 0. -1.
         23    2    1    2    0    0  0.44863204421E+02  0.29306173231E+02  0.96977255584E+02  0.16705936713E+03  0.12503073680E+03 0.  0.
          5    1    3    3  502    0  0.32867780397E+02  0.23363410923E+02  0.12728088016E+03  0.13359884885E+03  0.47000000000E+01 0.  1.
         -5    1    3    3    0  502  0.11995424024E+02  0.59427623077E+01 -0.30303624578E+02  0.33460518285E+02  0.47000000000E+01 0.  1.
        -11    1    1    2    0    0 -0.33010186368E+02 -0.60783223648E+02  0.17921694299E+03  0.19210149748E+03  0.00000000000E+00 0.  1.
         11    1    1    2    0    0 -0.11853018053E+02  0.31477050418E+02  0.53790923161E+02  0.63441013190E+02  0.00000000000E+00 0. -1.
<mgrwt>
<rscale>  0 0.12748138E+03</rscale>
<asrwt>0</asrwt>
<pdfrwt beam="2">  1        1 0.71243661E-02 0.13603031E+03</pdfrwt>
<pdfrwt beam="1">  1       -1 0.57891306E-01 0.13603031E+03</pdfrwt>
<totfact> 0.30592981E+03</totfact>
</mgrwt>
</event>
<event>
 7    1  0.6419647E-006  0.1406666E+03  0.7546771E-02  0.1223165E+00
         -1   -1    0    0    0  501 -0.00000000000E+00  0.00000000000E+00  0.68977633100E+02  0.68977633100E+02  0.00000000000E+00 0.  1.
          1   -1    0    0  501    0  0.00000000000E+00 -0.00000000000E+00 -0.24151112167E+03  0.24151112167E+03  0.00000000000E+00 0. -1.
         23    2    1    2    0    0  0.37181731464E+02 -0.52703941204E+02 -0.12661995055E+03  0.18926096402E+03  0.12500765598E+03 0.  0.
          5    1    3    3  502    0 -0.43941364034E+02 -0.25715330086E+02 -0.26727583550E+02  0.57693807267E+02  0.47000000000E+01 0.  1.
         -5    1    3    3    0  502  0.81123095498E+02 -0.26988611119E+02 -0.99892366995E+02  0.13156715676E+03  0.47000000000E+01 0.  1.
        -11    1    1    2    0    0 -0.22368094498E+02 -0.19232525600E+02  0.74701659083E+01  0.30430660051E+02  0.00000000000E+00 0.  1.
         11    1    1    2    0    0 -0.14813636966E+02  0.71936466805E+02 -0.53383703928E+02  0.90797130690E+02  0.00000000000E+00 0. -1.
<mgrwt>
<rscale>  0 0.13293472E+03</rscale>
<asrwt>0</asrwt>
<pdfrwt beam="2">  1        1 0.37155557E-01 0.14066663E+03</pdfrwt>
<pdfrwt beam="1">  1       -1 0.10611944E-01 0.14066663E+03</pdfrwt>
<totfact> 0.61256814E+03</totfact>
</mgrwt>
</event>
<event>
 7    1  0.6419647E-006  0.1365466E+03  0.7546771E-02  0.1230874E+00
         -4   -1    0    0    0  501 -0.00000000000E+00  0.00000000000E+00  0.56868428964E+03  0.56868428964E+03  0.00000000000E+00 0.  1.
          4   -1    0    0  501    0  0.00000000000E+00 -0.00000000000E+00 -0.25964764247E+02  0.25964764247E+02  0.00000000000E+00 0. -1.
         23    2    1    2    0    0  0.53818016781E+02  0.11472527191E+02  0.26951988434E+03  0.30213564631E+03  0.12496792749E+03 0.  0.
          5    1    3    3  502    0  0.35709755871E+01 -0.20805095065E+02  0.22852460188E+03  0.22954561096E+03  0.47000000000E+01 0. -1.
         -5    1    3    3    0  502  0.50247041194E+02  0.32277622257E+02  0.40995282466E+02  0.72590035348E+02  0.47000000000E+01 0. -1.
        -11    1    1    2    0    0 -0.56938697811E+00  0.26345918004E+02  0.26724414223E+02  0.37531665465E+02  0.00000000000E+00 0.  1.
         11    1    1    2    0    0 -0.53248629803E+02 -0.37818445195E+02  0.24647522682E+03  0.25498174211E+03  0.00000000000E+00 0. -1.
<mgrwt>
<rscale>  0 0.12772286E+03</rscale>
<asrwt>0</asrwt>
<pdfrwt beam="2">  1        4 0.39945795E-02 0.13654662E+03</pdfrwt>
<pdfrwt beam="1">  1       -4 0.87489881E-01 0.13654662E+03</pdfrwt>
<totfact> 0.66143680E+02</totfact>
</mgrwt>
</event>
<event>
 7    1  0.6419647E-006  0.1293467E+03  0.7546771E-02  0.1243834E+00
          1   -1    0    0  501    0  0.00000000000E+00  0.00000000000E+00  0.38999928102E+03  0.38999928102E+03  0.00000000000E+00 0. -1.
         -1   -1    0    0    0  501 -0.00000000000E+00 -0.00000000000E+00 -0.36016466536E+02  0.36016466536E+02  0.00000000000E+00 0.  1.
         23    2    1    2    0    0 -0.17103270365E+02  0.28497125248E+02  0.27115339067E+03  0.30042423691E+03  0.12500381133E+03 0.  0.
          5    1    3    3  502    0 -0.46136541135E+02 -0.19970021987E+02  0.46207429443E+02  0.68444128614E+02  0.47000000000E+01 0.  1.
         -5    1    3    3    0  502  0.29033270769E+02  0.48467147236E+02  0.22494596123E+03  0.23198010830E+03  0.47000000000E+01 0.  1.
        -11    1    1    2    0    0  0.38641019137E+02  0.17187688289E+02  0.49367745313E+02  0.65005532579E+02  0.00000000000E+00 0. -1.
         11    1    1    2    0    0 -0.21537748771E+02 -0.45684813537E+02  0.33461678501E+02  0.60585978066E+02  0.00000000000E+00 0.  1.
<mgrwt>
<rscale>  0 0.11955465E+03</rscale>
<asrwt>0</asrwt>
<pdfrwt beam="1">  1        1 0.59999886E-01 0.12934667E+03</pdfrwt>
<pdfrwt beam="2">  1       -1 0.55409951E-02 0.12934667E+03</pdfrwt>
<totfact> 0.89410932E+03</totfact>
</mgrwt>
</event>
<event>
 7    1  0.6419647E-006  0.1932868E+03  0.7546771E-02  0.1160281E+00
          2   -1    0    0  501    0  0.00000000000E+00  0.00000000000E+00  0.51311250655E+02  0.51311250655E+02  0.00000000000E+00 0. -1.
         -2   -1    0    0    0  501 -0.00000000000E+00 -0.00000000000E+00 -0.75696814550E+03  0.75696814550E+03  0.00000000000E+00 0.  1.
         23    2    1    2    0    0  0.97451575729E+02  0.11062025125E+03 -0.22058254720E+03  0.29328560993E+03  0.12500455697E+03 0.  0.
          5    1    3    3  502    0 -0.53694567153E+01  0.81995512793E+02 -0.12656329713E+03  0.15097169723E+03  0.47000000000E+01 0. -1.
         -5    1    3    3    0  502  0.10282103244E+03  0.28624738455E+02 -0.94019250070E+02  0.14231391270E+03  0.47000000000E+01 0. -1.
        -11    1    1    2    0    0 -0.66368687239E+02 -0.34827654875E+02 -0.12525973938E+03  0.14597181406E+03  0.00000000000E+00 0. -1.
         11    1    1    2    0    0 -0.31082888490E+02 -0.75792596374E+02 -0.35981460826E+03  0.36902197217E+03  0.00000000000E+00 0.  1.
<mgrwt>
<rscale>  0 0.18799640E+03</rscale>
<asrwt>0</asrwt>
<pdfrwt beam="1">  1        2 0.78940392E-02 0.19328680E+03</pdfrwt>
<pdfrwt beam="2">  1       -2 0.11645663E+00 0.19328680E+03</pdfrwt>
<totfact> 0.51284345E+02</totfact>
</mgrwt>
</event>
<event>
 7    1  0.6419647E-006  0.1594698E+03  0.7546771E-02  0.1196624E+00
          2   -1    0    0  501    0  0.00000000000E+00  0.00000000000E+00  0.14763930554E+03  0.14763930554E+03  0.00000000000E+00 0. -1.
         -2   -1    0    0    0  501 -0.00000000000E+00 -0.00000000000E+00 -0.17746451670E+03  0.17746451670E+03  0.00000000000E+00 0.  1.
         23    2    1    2    0    0 -0.45337473060E+02  0.88033776972E+02  0.50621287291E+02  0.16731150210E+03  0.12500076662E+03 0.  0.
          5    1    3    3  502    0 -0.16567747984E+02  0.48749476412E+02  0.90480213601E+02  0.10421017598E+03  0.47000000000E+01 0.  1.
         -5    1    3    3    0  502 -0.28769725076E+02  0.39284300560E+02 -0.39858926309E+02  0.63101326119E+02  0.47000000000E+01 0.  1.
        -11    1    1    2    0    0  0.19457592878E+02 -0.75136445130E+02 -0.59053980925E+01  0.77839302631E+02  0.00000000000E+00 0. -1.
         11    1    1    2    0    0  0.25879880182E+02 -0.12897331842E+02 -0.74541100363E+02  0.79953017518E+02  0.00000000000E+00 0.  1.
<mgrwt>
<rscale>  0 0.15317576E+03</rscale>
<asrwt>0</asrwt>
<pdfrwt beam="1">  1        2 0.22713739E-01 0.15946982E+03</pdfrwt>
<pdfrwt beam="2">  1       -2 0.27302233E-01 0.15946982E+03</pdfrwt>
<totfact> 0.28337945E+03</totfact>
</mgrwt>
</event>
<event>
 7    1  0.6419647E-006  0.1291544E+03  0.7546771E-02  0.1243206E+00
          2   -1    0    0  501    0  0.00000000000E+00  0.00000000000E+00  0.16817041369E+04  0.16817041369E+04  0.00000000000E+00 0. -1.
         -2   -1    0    0    0  501 -0.00000000000E+00 -0.00000000000E+00 -0.97066671965E+01  0.97066671965E+01  0.00000000000E+00 0.  1.
         23    2    1    2    0    0 -0.12396110595E+02  0.30047025205E+02  0.13277898861E+04  0.13340565346E+04  0.12499747405E+03 0.  0.
          5    1    3    3  502    0 -0.56285399783E+02 -0.21732379346E+02  0.56149992020E+03  0.56475179763E+03  0.47000000000E+01 0. -1.
         -5    1    3    3    0  502  0.43889289188E+02  0.51779404551E+02  0.76628996593E+03  0.76930473697E+03  0.47000000000E+01 0. -1.
        -11    1    1    2    0    0  0.11369656415E+02  0.24181859079E+02  0.38451232468E+02  0.46824445259E+02  0.00000000000E+00 0.  1.
         11    1    1    2    0    0  0.10264541800E+01 -0.54228884285E+02  0.30575635106E+03  0.31052982419E+03  0.00000000000E+00 0. -1.
<mgrwt>
<rscale>  0 0.11993395E+03</rscale>
<asrwt>0</asrwt>
<pdfrwt beam="1">  1        2 0.25872348E+00 0.12915439E+03</pdfrwt>
<pdfrwt beam="2">  1       -2 0.14933347E-02 0.12915439E+03</pdfrwt>
<totfact> 0.12611446E+04</totfact>
</mgrwt>
</event>
<event>
 6    1  0.6419647E-006  0.2831484E+03  0.7546771E-02  0.1093982E+00
         -2   -1    0    0    0  501 -0.00000000000E+00  0.00000000000E+00  0.12429825849E+02  0.12429825849E+02  0.00000000000E+00 0.  1.
          2   -1    0    0  501    0  0.00000000000E+00 -0.00000000000E+00 -0.16125123023E+04  0.16125123023E+04  0.00000000000E+00 0. -1.
          5    1    1    2  502    0  0.23658441218E+01 -0.10943946289E+01 -0.91331226600E+03  0.91332807914E+03  0.47000000000E+01 0. -1.
         -5    1    1    2    0  502 -0.65990907968E+01 -0.68187331643E+02 -0.24628498865E+03  0.25567840313E+03  0.47000000000E+01 0.  1.
        -11    1    1    2    0    0  0.43558082497E+02  0.10077404678E+02 -0.13190404180E+03  0.13927504041E+03  0.00000000000E+00 0. -1.
         11    1    1    2    0    0 -0.39324835822E+02  0.59204321594E+02 -0.30858118005E+03  0.31666060552E+03  0.00000000000E+00 0.  1.
<mgrwt>
<rscale>  0 0.28314835E+03</rscale>
<asrwt>0</asrwt>
<pdfrwt beam="2">  1        2 0.24807868E+00 0.28314835E+03</pdfrwt>
<pdfrwt beam="1">  1       -2 0.19122819E-02 0.28314835E+03</pdfrwt>
<totfact> 0.98210530E+03</totfact>
</mgrwt>
</event>
<event>
 7    1  0.6419647E-006  0.1269075E+03  0.7546771E-02  0.1246359E+00
          2   -1    0    0  501    0  0.00000000000E+00  0.00000000000E+00  0.42678040067E+03  0.42678040067E+03  0.00000000000E+00 0. -1.
         -2   -1    0    0    0  501 -0.00000000000E+00 -0.00000000000E+00 -0.29187627615E+02  0.29187627615E+02  0.00000000000E+00 0.  1.
         23    2    1    2    0    0 -0.14981537176E+02  0.16009226653E+02  0.20260108001E+03  0.23906634578E+03  0.12499911307E+03 0.  0.
          5    1    3    3  502    0 -0.43902312772E+02  0.32492509964E+02  0.28570937137E+02  0.61818805548E+02  0.47000000000E+01 0. -1.
         -5    1    3    3    0  502  0.28920775596E+02 -0.16483283311E+02  0.17403014287E+03  0.17724754023E+03  0.47000000000E+01 0. -1.
        -11    1    1    2    0    0  0.21567314883E+02 -0.46431247918E+02  0.16824541996E+03  0.17586225062E+03  0.00000000000E+00 0. -1.
         11    1    1    2    0    0 -0.65857777070E+01  0.30422021265E+02  0.26746273087E+02  0.41039431891E+02  0.00000000000E+00 0.  1.
<mgrwt>
<rscale>  0 0.11804400E+03</rscale>
<asrwt>0</asrwt>
<pdfrwt beam="1">  1        2 0.65658518E-01 0.12690753E+03</pdfrwt>
<pdfrwt beam="2">  1       -2 0.44904046E-02 0.12690753E+03</pdfrwt>
<totfact> 0.16059100E+04</totfact>
</mgrwt>
</event>
<event>
 7    1  0.6419647E-006  0.1267812E+03  0.7546771E-02  0.1248551E+00
          4   -1    0    0  501    0  0.00000000000E+00  0.00000000000E+00  0.15508548517E+04  0.15508548517E+04  0.00000000000E+00 0. -1.
         -4   -1    0    0    0  501 -0.00000000000E+00 -0.00000000000E+00 -0.12060882514E+02  0.12060882514E+02  0.00000000000E+00 0.  1.
         23    2    1    2    0    0 -0.87712801944E+01  0.19011538481E+02  0.13173022553E+04  0.13233890980E+04  0.12504038932E+03 0.  0.
          5    1    3    3  502    0  0.21495467753E+02  0.16668157511E+02  0.12385503729E+04  0.12388579414E+04  0.47000000000E+01 0. -1.
         -5    1    3    3    0  502 -0.30266747948E+02  0.23433809704E+01  0.78751882330E+02  0.84531156600E+02  0.47000000000E+01 0. -1.
        -11    1    1    2    0    0  0.33515519940E+02 -0.28011773233E+02  0.20225476975E+03  0.20691771651E+03  0.00000000000E+00 0. -1.
         11    1    1    2    0    0 -0.24744239746E+02  0.90002347515E+01  0.19236944206E+02  0.32608919770E+02  0.00000000000E+00 0.  1.
<mgrwt>
<rscale>  0 0.11675358E+03</rscale>
<asrwt>0</asrwt>
<pdfrwt beam="1">  1        4 0.23859290E+00 0.12678120E+03</pdfrwt>
<pdfrwt beam="2">  1       -4 0.18555216E-02 0.12678120E+03</pdfrwt>
<totfact> 0.16227474E+02</totfact>
</mgrwt>
</event>
<event>
 7    1  0.6419647E-006  0.1273992E+03  0.7546771E-02  0.1259620E+00
         -1   -1    0    0    0  501 -0.00000000000E+00  0.00000000000E+00  0.66832697708E+02  0.66832697708E+02  0.00000000000E+00 0.  1.
          1   -1    0    0  501    0  0.00000000000E+00 -0.00000000000E+00 -0.15271751158E+03  0.15271751158E+03  0.00000000000E+00 0. -1.
         23    2    1    2    0    0  0.18278840510E+02 -0.16553237190E+02 -0.71148537666E+02  0.14592006316E+03  0.12498969857E+03 0.  0.
          5    1    3    3  502    0 -0.24222616085E+02 -0.40882003992E+02  0.12064679521E+02  0.49251597663E+02  0.47000000000E+01 0.  1.
         -5    1    3    3    0  502  0.42501456595E+02  0.24328766802E+02 -0.83213217187E+02  0.96668465497E+02  0.47000000000E+01 0.  1.
        -11    1    1    2    0    0  0.14696001070E+01  0.10261021706E+02  0.25963744214E+02  0.27956471604E+02  0.00000000000E+00 0.  1.
         11    1    1    2    0    0 -0.19748440617E+02  0.62922154837E+01 -0.40700020424E+02  0.45673674529E+02  0.00000000000E+00 0. -1.
<mgrwt>
<rscale>  0 0.11051460E+03</rscale>
<asrwt>0</asrwt>
<pdfrwt beam="2">  1        1 0.23495002E-01 0.12739918E+03</pdfrwt>
<pdfrwt beam="1">  1       -1 0.10281954E-01 0.12739918E+03</pdfrwt>
<totfact> 0.11294336E+04</totfact>
</mgrwt>
</event>
<event>
 7    1  0.6419647E-006  0.1290439E+03  0.7546771E-02  0.1242849E+00
          2   -1    0    0  501    0  0.00000000000E+00  0.00000000000E+00  0.22399990867E+03  0.22399990867E+03  0.00000000000E+00 0. -1.
         -2   -1    0    0    0  501 -0.00000000000E+00 -0.00000000000E+00 -0.65628131998E+02  0.65628131998E+02  0.00000000000E+00 0.  1.
         23    2    1    2    0    0 -0.12428246774E+02 -0.29544536506E+02  0.14093933511E+03  0.19109220340E+03  0.12499997226E+03 0.  0.
          5    1    3    3  502    0  0.50413361221E+02  0.84427360893E+01  0.82332740166E+02  0.97023486257E+02  0.47000000000E+01 0.  1.
         -5    1    3    3    0  502 -0.62841607995E+02 -0.37987272595E+02  0.58606594943E+02  0.94068717145E+02  0.47000000000E+01 0.  1.
        -11    1    1    2    0    0  0.22670275740E+02  0.40267691090E+02  0.46717132125E+02  0.65710872631E+02  0.00000000000E+00 0. -1.
         11    1    1    2    0    0 -0.10242028966E+02 -0.10723154584E+02 -0.29284690566E+02  0.32824964632E+02  0.00000000000E+00 0.  1.
<mgrwt>
<rscale>  0 0.12015046E+03</rscale>
<asrwt>0</asrwt>
<pdfrwt beam="1">  1        2 0.34461524E-01 0.12904392E+03</pdfrwt>
<pdfrwt beam="2">  1       -2 0.10096636E-01 0.12904392E+03</pdfrwt>
<totfact> 0.92565511E+03</totfact>
</mgrwt>
</event>
<event>
 7    1  0.6419647E-006  0.1610661E+03  0.7546771E-02  0.1194926E+00
         -2   -1    0    0    0  501 -0.00000000000E+00  0.00000000000E+00  0.11413893675E+02  0.11413893675E+02  0.00000000000E+00 0.  1.
          2   -1    0    0  501    0  0.00000000000E+00 -0.00000000000E+00 -0.20473821268E+04  0.20473821268E+04  0.00000000000E+00 0. -1.
         23    2    1    2    0    0  0.92243887930E+02 -0.42511799751E+02 -0.13291283269E+04  0.13388518984E+04  0.12500443379E+03 0.  0.
          5    1    3    3  502    0 -0.33361016362E+01 -0.86698623286E+01 -0.63704791662E+01  0.12205289498E+02  0.47000000000E+01 0.  1.
         -5    1    3    3    0  502  0.95579989566E+02 -0.33841937423E+02 -0.13227578478E+04  0.13266466089E+04  0.47000000000E+01 0.  1.
        -11    1    1    2    0    0 -0.55319502025E+01  0.49390741624E+02 -0.26669458125E+03  0.27128591467E+03  0.00000000000E+00 0. -1.
         11    1    1    2    0    0 -0.86711937728E+02 -0.68789418730E+01 -0.44014532500E+03  0.44865820744E+03  0.00000000000E+00 0.  1.
<mgrwt>
<rscale>  0 0.15460528E+03</rscale>
<asrwt>0</asrwt>
<pdfrwt beam="2">  1        2 0.31498189E+00 0.16106612E+03</pdfrwt>
<pdfrwt beam="1">  1       -2 0.17559835E-02 0.16106612E+03</pdfrwt>
<totfact> 0.65230374E+03</totfact>
</mgrwt>
</event>
<event>
 7    1  0.6419647E-006  0.1518659E+03  0.7546771E-02  0.1207312E+00
         -2   -1    0    0    0  501 -0.00000000000E+00  0.00000000000E+00  0.19311316439E+02  0.19311316439E+02  0.00000000000E+00 0. -1.
          2   -1    0    0  501    0  0.00000000000E+00 -0.00000000000E+00 -0.10920622719E+04  0.10920622719E+04  0.00000000000E+00 0.  1.
         23    2    1    2    0    0  0.28891656758E+02  0.81263682209E+02 -0.75304535293E+03  0.76820607044E+03  0.12499899687E+03 0.  0.
          5    1    3    3  502    0  0.78208493595E+02  0.48017826488E+02 -0.48027683752E+03  0.48898896797E+03  0.47000000000E+01 0.  1.
         -5    1    3    3    0  502 -0.49316836837E+02  0.33245855721E+02 -0.27276851540E+03  0.27921710247E+03  0.47000000000E+01 0.  1.
        -11    1    1    2    0    0  0.31679523735E+02 -0.19202977408E+02 -0.77339322159E+02  0.85753818092E+02  0.00000000000E+00 0.  1.
         11    1    1    2    0    0 -0.60571180493E+02 -0.62060704801E+02 -0.24236628041E+03  0.25741369984E+03  0.00000000000E+00 0. -1.
<mgrwt>
<rscale>  0 0.14456712E+03</rscale>
<asrwt>0</asrwt>
<pdfrwt beam="2">  1        2 0.16800962E+00 0.15186594E+03</pdfrwt>
<pdfrwt beam="1">  1       -2 0.29709711E-02 0.15186594E+03</pdfrwt>
<totfact> 0.96536706E+03</totfact>
</mgrwt>
</event>
<event>
 6    1  0.6419647E-006  0.4025262E+03  0.7546771E-02  0.1078882E+00
          1   -1    0    0  501    0  0.00000000000E+00  0.00000000000E+00  0.88388769524E+03  0.88388769524E+03  0.00000000000E+00 0. -1.
         -1   -1    0    0    0  501 -0.00000000000E+00 -0.00000000000E+00 -0.17640956004E+03  0.17640956004E+03  0.00000000000E+00 0.  1.
          5    1    1    2  502    0 -0.28068446925E+02 -0.62381265705E+00  0.78406619397E+03  0.78458276388E+03  0.47000000000E+01 0. -1.
         -5    1    1    2    0  502 -0.20540321406E+02  0.10258616320E+03  0.94044733586E+01  0.10514922636E+03  0.47000000000E+01 0.  1.
        -11    1    1    2    0    0  0.20966458207E+02 -0.59535290378E+02 -0.99794603009E+02  0.11808050627E+03  0.00000000000E+00 0.  1.
         11    1    1    2    0    0  0.27642310124E+02 -0.42427060170E+02  0.13802070876E+02  0.52484758779E+02  0.00000000000E+00 0. -1.
<mgrwt>
<rscale>  0 0.31307438E+03</rscale>
<asrwt>0</asrwt>
<pdfrwt beam="1">  1        1 0.13598272E+00 0.40252617E+03</pdfrwt>
<pdfrwt beam="2">  1       -1 0.27139933E-01 0.40252617E+03</pdfrwt>
<totfact> 0.23685111E+02</totfact>
</mgrwt>
</event>
<event>
 6    1  0.6419647E-006  0.3400163E+03  0.7546771E-02  0.1066789E+00
          1   -1    0    0  501    0  0.00000000000E+00  0.00000000000E+00  0.97484759457E+03  0.97484759457E+03  0.00000000000E+00 0. -1.
         -1   -1    0    0    0  501 -0.00000000000E+00 -0.00000000000E+00 -0.29648508164E+02  0.29648508164E+02  0.00000000000E+00 0.  1.
          5    1    1    2  502    0  0.16263595668E+02  0.12126316173E+03  0.68121847785E+03  0.69213435365E+03  0.47000000000E+01 0. -1.
         -5    1    1    2    0  502 -0.24406602801E+01 -0.13147631731E+02  0.23116165694E+01  0.14361427990E+02  0.47000000000E+01 0.  1.
        -11    1    1    2    0    0 -0.43934303252E+02 -0.10198364137E+03  0.21729950849E+03  0.24402861000E+03  0.00000000000E+00 0. -1.
         11    1    1    2    0    0  0.30111367865E+02 -0.61318886288E+01  0.44369483489E+02  0.53971711089E+02  0.00000000000E+00 0.  1.
<mgrwt>
<rscale>  0 0.34001633E+03</rscale>
<asrwt>0</asrwt>
<pdfrwt beam="1">  1        1 0.14997653E+00 0.34001633E+03</pdfrwt>
<pdfrwt beam="2">  1       -1 0.45613097E-02 0.34001633E+03</pdfrwt>
<totfact> 0.33847718E+03</totfact>
</mgrwt>
</event>
<event>
 7    1  0.6419647E-006  0.1290691E+03  0.7546771E-02  0.1243840E+00
          1   -1    0    0  501    0  0.00000000000E+00  0.00000000000E+00  0.53738082531E+02  0.53738082531E+02  0.00000000000E+00 0. -1.
         -1   -1    0    0    0  501 -0.00000000000E+00 -0.00000000000E+00 -0.23977003290E+03  0.23977003290E+03  0.00000000000E+00 0.  1.
         23    2    1    2    0    0  0.23492324275E+02  0.21968827622E+02 -0.83483484344E+02  0.15371505522E+03  0.12499722940E+03 0.  0.
          5    1    3    3  502    0 -0.25497483036E+02  0.43597484777E+02  0.41640626154E+01  0.50894908759E+02  0.47000000000E+01 0. -1.
         -5    1    3    3    0  502  0.48989807312E+02 -0.21628657156E+02 -0.87647546959E+02  0.10282014646E+03  0.47000000000E+01 0. -1.
        -11    1    1    2    0    0 -0.33885564963E+02 -0.52627913083E+02 -0.65688248015E+02  0.90735189842E+02  0.00000000000E+00 0. -1.
         11    1    1    2    0    0  0.10393240687E+02  0.30659085461E+02 -0.36860218015E+02  0.49057870371E+02  0.00000000000E+00 0.  1.
<mgrwt>
<rscale>  0 0.11955095E+03</rscale>
<asrwt>0</asrwt>
<pdfrwt beam="1">  1        1 0.82673972E-02 0.12906907E+03</pdfrwt>
<pdfrwt beam="2">  1       -1 0.36887698E-01 0.12906907E+03</pdfrwt>
<totfact> 0.56190662E+03</totfact>
</mgrwt>
</event>
<event>
 7    1  0.6419647E-006  0.1429787E+03  0.7546771E-02  0.1219413E+00
         -2   -1    0    0    0  501 -0.00000000000E+00  0.00000000000E+00  0.10795586405E+03  0.10795586405E+03  0.00000000000E+00 0.  1.
          2   -1    0    0  501    0  0.00000000000E+00 -0.00000000000E+00 -0.16294414145E+03  0.16294414145E+03  0.00000000000E+00 0. -1.
         23    2    1    2    0    0 -0.42235180802E+02  0.55170566026E+02 -0.60358188039E+02  0.15519671384E+03  0.12496122307E+03 0.  0.
          5    1    3    3  502    0 -0.49190249045E+02  0.47044615795E+02  0.22252123153E+02  0.71764360662E+02  0.47000000000E+01 0.  1.
         -5    1    3    3    0  502  0.69550682432E+01  0.81259502310E+01 -0.82610311193E+02  0.83432353178E+02  0.47000000000E+01 0.  1.
        -11    1    1    2    0    0  0.41705686188E+02 -0.50914479514E+01  0.37404088087E+02  0.56252581348E+02  0.00000000000E+00 0.  1.
         11    1    1    2    0    0  0.52949461377E+00 -0.50079118074E+02 -0.32034177454E+02  0.59450710314E+02  0.00000000000E+00 0. -1.
<mgrwt>
<rscale>  0 0.13557290E+03</rscale>
<asrwt>0</asrwt>
<pdfrwt beam="2">  1        2 0.25068329E-01 0.14297870E+03</pdfrwt>
<pdfrwt beam="1">  1       -2 0.16608595E-01 0.14297870E+03</pdfrwt>
<totfact> 0.59106983E+03</totfact>
</mgrwt>
</event>
<event>
 7    1  0.6419647E-006  0.1370474E+03  0.7546771E-02  0.1227932E+00
         -1   -1    0    0    0  501 -0.00000000000E+00  0.00000000000E+00  0.82779260671E+02  0.82779260671E+02  0.00000000000E+00 0.  1.
          1   -1    0    0  501    0  0.00000000000E+00 -0.00000000000E+00 -0.18484422714E+03  0.18484422714E+03  0.00000000000E+00 0. -1.
         23    2    1    2    0    0  0.23585316111E+01  0.56152871134E+02 -0.48350515088E+02  0.14532640454E+03  0.12499313557E+03 0.  0.
          5    1    3    3  502    0  0.10165456258E+02  0.95416779181E+02 -0.27417873398E+02  0.99907597468E+02  0.47000000000E+01 0. -1.
         -5    1    3    3    0  502 -0.78069246472E+01 -0.39263908046E+02 -0.20932641690E+02  0.45418807070E+02  0.47000000000E+01 0. -1.
        -11    1    1    2    0    0  0.32270036584E+02 -0.53402570689E+02 -0.51772085820E+01  0.62609849912E+02  0.00000000000E+00 0.  1.
         11    1    1    2    0    0 -0.34628568195E+02 -0.27503004450E+01 -0.48537242801E+02  0.59687233363E+02  0.00000000000E+00 0. -1.
<mgrwt>
<rscale>  0 0.12967986E+03</rscale>
<asrwt>0</asrwt>
<pdfrwt beam="2">  1        1 0.28437573E-01 0.13704741E+03</pdfrwt>
<pdfrwt beam="1">  1       -1 0.12735271E-01 0.13704741E+03</pdfrwt>
<totfact> 0.64356374E+03</totfact>
</mgrwt>
</event>
<event>
 7    1  0.6419647E-006  0.1530636E+03  0.7546771E-02  0.1205451E+00
          4   -1    0    0  501    0  0.00000000000E+00  0.00000000000E+00  0.34635181920E+03  0.34635181920E+03  0.00000000000E+00 0. -1.
         -4   -1    0    0    0  501 -0.00000000000E+00 -0.00000000000E+00 -0.73965144776E+02  0.73965144776E+02  0.00000000000E+00 0.  1.
         23    2    1    2    0    0  0.18184790150E+02  0.86442324996E+02  0.24767760083E+03  0.29115743556E+03  0.12500198473E+03 0.  0.
          5    1    3    3  502    0 -0.27701654452E+02  0.19043576726E+02  0.40246915683E+01  0.34180807716E+02  0.47000000000E+01 0.  1.
         -5    1    3    3    0  502  0.45886444602E+02  0.67398748271E+02  0.24365290926E+03  0.25697662784E+03  0.47000000000E+01 0.  1.
        -11    1    1    2    0    0  0.11692777682E+02  0.14292163073E+02 -0.64580634624E+01  0.19562555020E+02  0.00000000000E+00 0.  1.
         11    1    1    2    0    0 -0.29877567832E+02 -0.10073448807E+03  0.31167137062E+02  0.10959697340E+03  0.00000000000E+00 0. -1.
<mgrwt>
<rscale>  0 0.14601969E+03</rscale>
<asrwt>0</asrwt>
<pdfrwt beam="1">  1        4 0.53284894E-01 0.15306358E+03</pdfrwt>
<pdfrwt beam="2">  1       -4 0.11379253E-01 0.15306358E+03</pdfrwt>
<totfact> 0.35216230E+02</totfact>
</mgrwt>
</event>
<event>
 7    1  0.6419647E-006  0.1669244E+03  0.7546771E-02  0.1187938E+00
          1   -1    0    0  501    0  0.00000000000E+00  0.00000000000E+00  0.32228023072E+02  0.32228023072E+02  0.00000000000E+00 0. -1.
         -1   -1    0    0    0  501 -0.00000000000E+00 -0.00000000000E+00 -0.74689583118E+03  0.74689583118E+03  0.00000000000E+00 0.  1.
         23    2    1    2    0    0  0.69287520448E+02  0.86238095747E+02 -0.39344863243E+03  0.42739395567E+03  0.12500398927E+03 0.  0.
          5    1    3    3  502    0  0.74151663452E+02  0.24198661573E+01 -0.11863315329E+03  0.14000085716E+03  0.47000000000E+01 0.  1.
         -5    1    3    3    0  502 -0.48641430036E+01  0.83818229589E+02 -0.27481547914E+03  0.28739309851E+03  0.47000000000E+01 0.  1.
        -11    1    1    2    0    0 -0.22466482491E+02 -0.86858348652E+02 -0.25731097833E+03  0.27250331215E+03  0.00000000000E+00 0.  1.
         11    1    1    2    0    0 -0.46821037957E+02  0.62025290484E+00 -0.63908197359E+02  0.79226586438E+02  0.00000000000E+00 0. -1.
<mgrwt>
<rscale>  0 0.16067351E+03</rscale>
<asrwt>0</asrwt>
<pdfrwt beam="1">  1        1 0.49581576E-02 0.16692443E+03</pdfrwt>
<pdfrwt beam="2">  1       -1 0.11490705E+00 0.16692443E+03</pdfrwt>
<totfact> 0.12174761E+03</totfact>
</mgrwt>
</event>
<event>
 7    1  0.6419647E-006  0.1335358E+03  0.7546771E-02  0.1234572E+00
          2   -1    0    0  501    0  0.00000000000E+00  0.00000000000E+00  0.66303442022E+02  0.66303442022E+02  0.00000000000E+00 0. -1.
         -2   -1    0    0    0  501 -0.00000000000E+00 -0.00000000000E+00 -0.21552136508E+03  0.21552136508E+03  0.00000000000E+00 0.  1.
         23    2    1    2    0    0 -0.37428294197E+02  0.28388052687E+02 -0.65989219795E+02  0.14895098803E+03  0.12500024386E+03 0.  0.
          5    1    3    3  502    0  0.17781168768E+02 -0.35299948003E+02 -0.48497240411E+02  0.62740167511E+02  0.47000000000E+01 0. -1.
         -5    1    3    3    0  502 -0.55209462965E+02  0.63688000689E+02 -0.17491979384E+02  0.86210820524E+02  0.47000000000E+01 0. -1.
        -11    1    1    2    0    0 -0.22815607688E+02 -0.35815919715E+02 -0.40147751070E+02  0.58439489861E+02  0.00000000000E+00 0.  1.
         11    1    1    2    0    0  0.60243901884E+02  0.74278670283E+01 -0.43080952195E+02  0.74434329209E+02  0.00000000000E+00 0. -1.
<mgrwt>
<rscale>  0 0.12531857E+03</rscale>
<asrwt>0</asrwt>
<pdfrwt beam="1">  1        2 0.10200529E-01 0.13353584E+03</pdfrwt>
<pdfrwt beam="2">  1       -2 0.33157133E-01 0.13353584E+03</pdfrwt>
<totfact> 0.50462934E+03</totfact>
</mgrwt>
</event>
<event>
 7    1  0.6419647E-006  0.1337829E+03  0.7546771E-02  0.1234823E+00
         -2   -1    0    0    0  501 -0.00000000000E+00  0.00000000000E+00  0.51869539154E+02  0.51869539154E+02  0.00000000000E+00 0.  1.
          2   -1    0    0  501    0  0.00000000000E+00 -0.00000000000E+00 -0.27557987762E+03  0.27557987762E+03  0.00000000000E+00 0. -1.
         23    2    1    2    0    0  0.13084494109E+02 -0.45870107647E+02 -0.15133681739E+03  0.20199184971E+03  0.12499041679E+03 0.  0.
          5    1    3    3  502    0  0.58555805497E+02  0.61862071007E+01 -0.41716882617E+02  0.72314865767E+02  0.47000000000E+01 0. -1.
         -5    1    3    3    0  502 -0.45471311388E+02 -0.52056314747E+02 -0.10961993478E+03  0.12967698395E+03  0.47000000000E+01 0. -1.
        -11    1    1    2    0    0  0.37854248157E+02  0.72365201565E+01 -0.27871326577E+02  0.47561772177E+02  0.00000000000E+00 0. -1.
         11    1    1    2    0    0 -0.50938742265E+02  0.38633587490E+02 -0.44502194498E+02  0.77895794887E+02  0.00000000000E+00 0.  1.
<mgrwt>
<rscale>  0 0.12515779E+03</rscale>
<asrwt>0</asrwt>
<pdfrwt beam="2">  1        2 0.42396904E-01 0.13378294E+03</pdfrwt>
<pdfrwt beam="1">  1       -2 0.79799291E-02 0.13378294E+03</pdfrwt>
<totfact> 0.10737068E+04</totfact>
</mgrwt>
</event>
<event>
 7    1  0.6419647E-006  0.2342162E+03  0.7546771E-02  0.1126742E+00
         -1   -1    0    0    0  501 -0.00000000000E+00  0.00000000000E+00  0.15770395569E+03  0.15770395569E+03  0.00000000000E+00 0.  1.
          1   -1    0    0  501    0  0.00000000000E+00 -0.00000000000E+00 -0.39469479663E+03  0.39469479663E+03  0.00000000000E+00 0. -1.
         23    2    1    2    0    0 -0.15901007980E+03 -0.11810277944E+03 -0.23970063261E+03  0.33513225751E+03  0.12499905903E+03 0.  0.
          5    1    3    3  502    0 -0.21378180993E+02 -0.64379312832E+02 -0.14341440814E+03  0.15871831969E+03  0.47000000000E+01 0. -1.
         -5    1    3    3    0  502 -0.13763189881E+03 -0.53723466606E+02 -0.96286224475E+02  0.17641393782E+03  0.47000000000E+01 0. -1.
        -11    1    1    2    0    0  0.29278486330E+02 -0.68488067605E+01  0.20315026107E+02  0.36288237786E+02  0.00000000000E+00 0.  1.
         11    1    1    2    0    0  0.12973159347E+03  0.12495158620E+03 -0.17605234435E+02  0.18097825703E+03  0.00000000000E+00 0. -1.
<mgrwt>
<rscale>  0 0.22985421E+03</rscale>
<asrwt>0</asrwt>
<pdfrwt beam="2">  1        1 0.60722276E-01 0.23421622E+03</pdfrwt>
<pdfrwt beam="1">  1       -1 0.24262147E-01 0.23421622E+03</pdfrwt>
<totfact> 0.90405204E+02</totfact>
</mgrwt>
</event>
<event>
 7    1  0.6419647E-006  0.1306708E+03  0.7546771E-02  0.1233709E+00
         -2   -1    0    0    0  501 -0.00000000000E+00  0.00000000000E+00  0.58400614550E+03  0.58400614550E+03  0.00000000000E+00 0.  1.
          2   -1    0    0  501    0  0.00000000000E+00 -0.00000000000E+00 -0.26417628338E+02  0.26417628338E+02  0.00000000000E+00 0. -1.
         23    2    1    2    0    0  0.67239596429E+02  0.14625097519E+01  0.23659332324E+03  0.27027998217E+03  0.11203377125E+03 0.  0.
          5    1    3    3  502    0  0.43215396436E+02  0.49109916133E+02  0.72976775963E+02  0.98117552873E+02  0.47000000000E+01 0. -1.
         -5    1    3    3    0  502  0.24024199992E+02 -0.47647406381E+02  0.16361654727E+03  0.17216242930E+03  0.47000000000E+01 0.  1.
        -11    1    1    2    0    0 -0.86007479002E+02 -0.16821531009E+02  0.23558747070E+03  0.25135971575E+03  0.00000000000E+00 0.  1.
         11    1    1    2    0    0  0.18767882573E+02  0.15359021257E+02  0.85407723225E+02  0.88784075919E+02  0.00000000000E+00 0. -1.
<mgrwt>
<rscale>  0 0.12587449E+03</rscale>
<asrwt>0</asrwt>
<pdfrwt beam="2">  1        2 0.40642510E-02 0.13067084E+03</pdfrwt>
<pdfrwt beam="1">  1       -2 0.89847089E-01 0.13067084E+03</pdfrwt>
<totfact> 0.21777944E+03</totfact>
</mgrwt>
</event>
<event>
 7    1  0.7835471E-006  0.1693940E+03  0.7546771E-02  0.1185323E+00
         -1   -1    0    0    0  501 -0.00000000000E+00  0.00000000000E+00  0.42558105896E+03  0.42558105896E+03  0.00000000000E+00 0.  1.
          1   -1    0    0  501    0  0.00000000000E+00 -0.00000000000E+00 -0.60027371414E+02  0.60027371414E+02  0.00000000000E+00 0. -1.
         23    2    1    2    0    0  0.64306404976E+02 -0.94517235460E+02  0.15388258821E+03  0.22885402523E+03  0.12500196953E+03 0.  0.
          5    1    3    3  502    0  0.63318446107E+02  0.48972891281E+01  0.91190053117E+02  0.11122465934E+03  0.47000000000E+01 0. -1.
         -5    1    3    3    0  502  0.98795886908E+00 -0.99414524588E+02  0.62692535098E+02  0.11762936589E+03  0.47000000000E+01 0. -1.
        -11    1    1    2    0    0 -0.80592297803E+02  0.44634864249E+02  0.12229020269E+03  0.15310873014E+03  0.00000000000E+00 0.  1.
         11    1    1    2    0    0  0.16285892827E+02  0.49882371210E+02  0.89380896643E+02  0.10364567501E+03  0.00000000000E+00 0. -1.
<mgrwt>
<rscale>  0 0.16302548E+03</rscale>
<asrwt>0</asrwt>
<pdfrwt beam="2">  1        1 0.92349805E-02 0.16939396E+03</pdfrwt>
<pdfrwt beam="1">  1       -1 0.65474007E-01 0.16939396E+03</pdfrwt>
<totfact> 0.17216412E+03</totfact>
</mgrwt>
</event>
<event>
 7    1  0.6419647E-006  0.1345065E+03  0.7546771E-02  0.1234036E+00
          1   -1    0    0  501    0  0.00000000000E+00  0.00000000000E+00  0.10050303602E+03  0.10050303602E+03  0.00000000000E+00 0.  1.
         -1   -1    0    0    0  501 -0.00000000000E+00 -0.00000000000E+00 -0.23361915000E+03  0.23361915000E+03  0.00000000000E+00 0. -1.
         23    2    1    2    0    0 -0.11906142413E+02 -0.48193610097E+02  0.33409480152E+02  0.13859362344E+03  0.12501047482E+03 0.  0.
          5    1    3    3  502    0 -0.21787712857E+01 -0.56547269137E+01 -0.46659079553E+02  0.47285121185E+02  0.47000000000E+01 0.  1.
         -5    1    3    3    0  502 -0.97273711275E+01 -0.42538883183E+02  0.80068559704E+02  0.91308502258E+02  0.47000000000E+01 0.  1.
        -11    1    1    2    0    0 -0.12602890631E+02  0.13525706977E+02  0.47348784352E+01  0.19083937625E+02  0.00000000000E+00 0.  1.
         11    1    1    2    0    0  0.24509033044E+02  0.34667903120E+02 -0.17126047257E+03  0.17644462494E+03  0.00000000000E+00 0. -1.
<mgrwt>
<rscale>  0 0.12566359E+03</rscale>
<asrwt>0</asrwt>
<pdfrwt beam="1">  1        1 0.15462005E-01 0.13450650E+03</pdfrwt>
<pdfrwt beam="2">  1       -1 0.35941408E-01 0.13450650E+03</pdfrwt>
<totfact> 0.25859993E+03</totfact>
</mgrwt>
</event>
<event>
 7    1  0.6419647E-006  0.1435787E+03  0.7546771E-02  0.1219787E+00
          2   -1    0    0  501    0  0.00000000000E+00  0.00000000000E+00  0.55000858329E+03  0.55000858329E+03  0.00000000000E+00 0. -1.
         -2   -1    0    0    0  501 -0.00000000000E+00 -0.00000000000E+00 -0.35128482204E+02  0.35128482204E+02  0.00000000000E+00 0.  1.
         23    2    1    2    0    0  0.57762803459E+02 -0.40670297706E+02  0.39472721200E+03  0.42002905850E+03  0.12499689400E+03 0.  0.
          5    1    3    3  502    0 -0.36081093921E+02  0.50329296904E+01  0.72330088738E+02  0.81122792461E+02  0.47000000000E+01 0. -1.
         -5    1    3    3    0  502  0.93843897380E+02 -0.45703227396E+02  0.32239712327E+03  0.33890626604E+03  0.47000000000E+01 0. -1.
        -11    1    1    2    0    0 -0.46349099226E+02  0.41948561659E+01  0.87796924317E+01  0.47359463854E+02  0.00000000000E+00 0.  1.
         11    1    1    2    0    0 -0.11413704233E+02  0.36475441540E+02  0.11137319665E+03  0.11774854314E+03  0.00000000000E+00 0. -1.
<mgrwt>
<rscale>  0 0.13530696E+03</rscale>
<asrwt>0</asrwt>
<pdfrwt beam="1">  1        2 0.84616699E-01 0.14357868E+03</pdfrwt>
<pdfrwt beam="2">  1       -2 0.54043823E-02 0.14357868E+03</pdfrwt>
<totfact> 0.93008535E+03</totfact>
</mgrwt>
</event>
<event>
 7    1  0.6419647E-006  0.1305978E+03  0.7546771E-02  0.1239566E+00
          2   -1    0    0  501    0  0.00000000000E+00  0.00000000000E+00  0.16088544018E+03  0.16088544018E+03  0.00000000000E+00 0. -1.
         -2   -1    0    0    0  501 -0.00000000000E+00 -0.00000000000E+00 -0.84995620860E+02  0.84995620860E+02  0.00000000000E+00 0.  1.
         23    2    1    2    0    0  0.14593894582E+02  0.34820005193E+02  0.63179557011E+02  0.14507737823E+03  0.12502149707E+03 0.  0.
          5    1    3    3  502    0  0.65014351326E+02  0.14912039010E+02  0.76018058020E+01  0.67298679313E+02  0.47000000000E+01 0. -1.
         -5    1    3    3    0  502 -0.50420456744E+02  0.19907966183E+02  0.55577751209E+02  0.77778698917E+02  0.47000000000E+01 0. -1.
        -11    1    1    2    0    0 -0.23620139789E+02 -0.26502348002E+01  0.47160952005E+02  0.52811837141E+02  0.00000000000E+00 0. -1.
         11    1    1    2    0    0  0.90262452073E+01 -0.32169770393E+02 -0.34450689699E+02  0.47991845666E+02  0.00000000000E+00 0.  1.
<mgrwt>
<rscale>  0 0.12216619E+03</rscale>
<asrwt>0</asrwt>
<pdfrwt beam="1">  1        2 0.24751606E-01 0.13059781E+03</pdfrwt>
<pdfrwt beam="2">  1       -2 0.13076249E-01 0.13059781E+03</pdfrwt>
<totfact> 0.87978450E+03</totfact>
</mgrwt>
</event>
<event>
 7    1  0.6419647E-006  0.1885154E+03  0.7546771E-02  0.1164851E+00
          2   -1    0    0  501    0  0.00000000000E+00  0.00000000000E+00  0.61350949414E+03  0.61350949414E+03  0.00000000000E+00 0. -1.
         -2   -1    0    0    0  501 -0.00000000000E+00 -0.00000000000E+00 -0.64376782952E+02  0.64376782952E+02  0.00000000000E+00 0.  1.
         23    2    1    2    0    0 -0.14013512348E+03  0.16564384895E+02  0.43758718292E+03  0.47646677626E+03  0.12500325814E+03 0.  0.
          5    1    3    3  502    0 -0.92363361969E+02 -0.31438871903E+02  0.13667915150E+03  0.16799605280E+03  0.47000000000E+01 0. -1.
         -5    1    3    3    0  502 -0.47771761506E+02  0.48003256798E+02  0.30090803142E+03  0.30847072346E+03  0.47000000000E+01 0. -1.
        -11    1    1    2    0    0  0.60788764029E+02 -0.43373464236E+02  0.85914078192E+02  0.11383215742E+03  0.00000000000E+00 0. -1.
         11    1    1    2    0    0  0.79346359447E+02  0.26809079341E+02  0.25631450077E+02  0.87587343410E+02  0.00000000000E+00 0.  1.
<mgrwt>
<rscale>  0 0.18308438E+03</rscale>
<asrwt>0</asrwt>
<pdfrwt beam="1">  1        2 0.94386072E-01 0.18851537E+03</pdfrwt>
<pdfrwt beam="2">  1       -2 0.99041208E-02 0.18851537E+03</pdfrwt>
<totfact> 0.32670324E+03</totfact>
</mgrwt>
</event>
<event>
 7    1  0.6419647E-006  0.1328787E+03  0.7546771E-02  0.1235483E+00
         -2   -1    0    0    0  501 -0.00000000000E+00  0.00000000000E+00  0.44142810639E+02  0.44142810639E+02  0.00000000000E+00 0.  1.
          2   -1    0    0  501    0  0.00000000000E+00 -0.00000000000E+00 -0.34255482945E+03  0.34255482945E+03  0.00000000000E+00 0. -1.
         23    2    1    2    0    0  0.19531647620E+02  0.40621089399E+02 -0.22035199573E+03  0.25731645111E+03  0.12500078331E+03 0.  0.
          5    1    3    3  502    0  0.14206243386E+02  0.14940392951E+02 -0.22848237907E+03  0.22945875498E+03  0.47000000000E+01 0.  1.
         -5    1    3    3    0  502  0.53254042341E+01  0.25680696447E+02  0.81303833430E+01  0.27857696129E+02  0.47000000000E+01 0.  1.
        -11    1    1    2    0    0  0.17325361889E+02 -0.31509362334E+02  0.66352651833E+01  0.36565486778E+02  0.00000000000E+00 0.  1.
         11    1    1    2    0    0 -0.36857009509E+02 -0.91117270651E+01 -0.84695288264E+02  0.92815702196E+02  0.00000000000E+00 0. -1.
<mgrwt>
<rscale>  0 0.12473563E+03</rscale>
<asrwt>0</asrwt>
<pdfrwt beam="2">  1        2 0.52700743E-01 0.13287872E+03</pdfrwt>
<pdfrwt beam="1">  1       -2 0.67912017E-02 0.13287872E+03</pdfrwt>
<totfact> 0.10917072E+04</totfact>
</mgrwt>
</event>
<event>
 7    1  0.6419647E-006  0.1496959E+03  0.7546771E-02  0.1209583E+00
         -2   -1    0    0    0  501 -0.00000000000E+00  0.00000000000E+00  0.11301288172E+03  0.11301288172E+03  0.00000000000E+00 0.  1.
          2   -1    0    0  501    0  0.00000000000E+00 -0.00000000000E+00 -0.23522628491E+03  0.23522628491E+03  0.00000000000E+00 0. -1.
         23    2    1    2    0    0  0.81590407563E+02  0.11269866458E+02 -0.15947882406E+03  0.21872898668E+03  0.12499947918E+03 0.  0.
          5    1    3    3  502    0  0.91879094712E+02 -0.28651035254E+02 -0.66979878955E+02  0.11735009182E+03  0.47000000000E+01 0.  1.
         -5    1    3    3    0  502 -0.10288687149E+02  0.39920901712E+02 -0.92498945104E+02  0.10137889486E+03  0.47000000000E+01 0.  1.
        -11    1    1    2    0    0 -0.46848483496E+02 -0.26203296124E+02  0.63752421846E+02  0.83341252839E+02  0.00000000000E+00 0.  1.
         11    1    1    2    0    0 -0.34741924067E+02  0.14933429665E+02 -0.26487000986E+02  0.46168927112E+02  0.00000000000E+00 0. -1.
<mgrwt>
<rscale>  0 0.14282091E+03</rscale>
<asrwt>0</asrwt>
<pdfrwt beam="2">  1        2 0.36188659E-01 0.14969594E+03</pdfrwt>
<pdfrwt beam="1">  1       -2 0.17386597E-01 0.14969594E+03</pdfrwt>
<totfact> 0.36861728E+03</totfact>
</mgrwt>
</event>
<event>
 7    1  0.6419647E-006  0.2803066E+03  0.7546771E-02  0.1097113E+00
         -2   -1    0    0    0  501 -0.00000000000E+00  0.00000000000E+00  0.37526044306E+03  0.37526044306E+03  0.00000000000E+00 0.  1.
          2   -1    0    0  501    0  0.00000000000E+00 -0.00000000000E+00 -0.39279026608E+03  0.39279026608E+03  0.00000000000E+00 0. -1.
         23    2    1    2    0    0 -0.17073867148E+03  0.18383409861E+03 -0.27721576703E+03  0.39423387096E+03  0.12500037507E+03 0.  0.
          5    1    3    3  502    0 -0.77600013011E+02  0.14169172505E+03 -0.23105051417E+03  0.28196584380E+03  0.47000000000E+01 0. -1.
         -5    1    3    3    0  502 -0.93138658473E+02  0.42142373563E+02 -0.46165252851E+02  0.11226802716E+03  0.47000000000E+01 0. -1.
        -11    1    1    2    0    0  0.48267280055E+02 -0.12561902173E+01  0.36435841718E+02  0.60488667530E+02  0.00000000000E+00 0.  1.
         11    1    1    2    0    0  0.12247139143E+03 -0.18257790840E+03  0.22325010229E+03  0.31332817066E+03  0.00000000000E+00 0. -1.
<mgrwt>
<rscale>  0 0.27740795E+03</rscale>
<asrwt>0</asrwt>
<pdfrwt beam="2">  1        2 0.60429272E-01 0.28030655E+03</pdfrwt>
<pdfrwt beam="1">  1       -2 0.57732376E-01 0.28030655E+03</pdfrwt>
<totfact> 0.23501645E+02</totfact>
</mgrwt>
</event>
<event>
 7    1  0.6419647E-006  0.1313425E+03  0.7546771E-02  0.1240342E+00
         -4   -1    0    0    0  501 -0.00000000000E+00  0.00000000000E+00  0.97200049289E+02  0.97200049289E+02  0.00000000000E+00 0.  1.
          4   -1    0    0  501    0  0.00000000000E+00 -0.00000000000E+00 -0.14332526872E+03  0.14332526872E+03  0.00000000000E+00 0. -1.
         23    2    1    2    0    0 -0.37467586317E+02 -0.12150841127E+02 -0.56937191237E+02  0.14315267993E+03  0.12529717898E+03 0.  0.
          5    1    3    3  502    0 -0.50539322159E+02  0.57795722004E+01 -0.89745957435E+02  0.10326690377E+03  0.47000000000E+01 0. -1.
         -5    1    3    3    0  502  0.13071735841E+02 -0.17930413327E+02  0.32808766199E+02  0.39885776155E+02  0.47000000000E+01 0. -1.
        -11    1    1    2    0    0 -0.79415013129E+01  0.10595716551E+02 -0.32194342203E+02  0.34811094815E+02  0.00000000000E+00 0. -1.
         11    1    1    2    0    0  0.45409087630E+02  0.15551245764E+01  0.43006314005E+02  0.62561543268E+02  0.00000000000E+00 0.  1.
<mgrwt>
<rscale>  0 0.12168573E+03</rscale>
<asrwt>0</asrwt>
<pdfrwt beam="2">  1        4 0.22050041E-01 0.13134248E+03</pdfrwt>
<pdfrwt beam="1">  1       -4 0.14953854E-01 0.13134248E+03</pdfrwt>
<totfact> 0.11720757E+03</totfact>
</mgrwt>
</event>
<event>
 7    1  0.6419647E-006  0.1370031E+03  0.7546771E-02  0.1227736E+00
         -2   -1    0    0    0  501 -0.00000000000E+00  0.00000000000E+00  0.18503743249E+03  0.18503743249E+03  0.00000000000E+00 0.  1.
          2   -1    0    0  501    0  0.00000000000E+00 -0.00000000000E+00 -0.83108573334E+02  0.83108573334E+02  0.00000000000E+00 0. -1.
         23    2    1    2    0    0  0.55919457696E+02 -0.36847216674E+01  0.47218416862E+02  0.14491175491E+03  0.12501709842E+03 0.  0.
          5    1    3    3  502    0  0.31210283960E-01 -0.40264162389E+02  0.64112723794E+02  0.75853378957E+02  0.47000000000E+01 0. -1.
         -5    1    3    3    0  502  0.55888247412E+02  0.36579440722E+02 -0.16894306931E+02  0.69058375951E+02  0.47000000000E+01 0. -1.
        -11    1    1    2    0    0 -0.21631039833E+02  0.48986640711E+02  0.24535327181E+02  0.58903099514E+02  0.00000000000E+00 0.  1.
         11    1    1    2    0    0 -0.34288417863E+02 -0.45301919044E+02  0.30175115108E+02  0.64331151399E+02  0.00000000000E+00 0. -1.
<mgrwt>
<rscale>  0 0.12981160E+03</rscale>
<asrwt>0</asrwt>
<pdfrwt beam="2">  1        2 0.12785934E-01 0.13700306E+03</pdfrwt>
<pdfrwt beam="1">  1       -2 0.28467297E-01 0.13700306E+03</pdfrwt>
<totfact> 0.50664968E+03</totfact>
</mgrwt>
</event>
<event>
 7    1  0.6419647E-006  0.1552171E+03  0.7546771E-02  0.1202212E+00
          1   -1    0    0  501    0  0.00000000000E+00  0.00000000000E+00  0.12130409522E+03  0.12130409522E+03  0.00000000000E+00 0. -1.
         -1   -1    0    0    0  501 -0.00000000000E+00 -0.00000000000E+00 -0.27507050183E+03  0.27507050183E+03  0.00000000000E+00 0.  1.
         23    2    1    2    0    0 -0.91062617106E+02 -0.13315150550E+02  0.42338865901E+02  0.16088796095E+03  0.12499065142E+03 0.  0.
          5    1    3    3  502    0 -0.11492104559E+03 -0.30655207148E+02  0.14239316257E+02  0.11988092664E+03  0.47000000000E+01 0.  1.
         -5    1    3    3    0  502  0.23858428483E+02  0.17340056598E+02  0.28099549645E+02  0.41007034308E+02  0.47000000000E+01 0.  1.
        -11    1    1    2    0    0  0.75302172263E+02  0.27408432403E+02 -0.19863770231E+03  0.21419284791E+03  0.00000000000E+00 0.  1.
         11    1    1    2    0    0  0.15760444842E+02 -0.14093281853E+02  0.25324297997E+01  0.21293788195E+02  0.00000000000E+00 0. -1.
<mgrwt>
<rscale>  0 0.14859364E+03</rscale>
<asrwt>0</asrwt>
<pdfrwt beam="1">  1        1 0.18662169E-01 0.15521713E+03</pdfrwt>
<pdfrwt beam="2">  1       -1 0.42318538E-01 0.15521713E+03</pdfrwt>
<totfact> 0.15342062E+03</totfact>
</mgrwt>
</event>
<event>
 7    1  0.6419647E-006  0.3017887E+03  0.7546771E-02  0.1086084E+00
         -1   -1    0    0    0  501 -0.00000000000E+00  0.00000000000E+00  0.17101484533E+03  0.17101484533E+03  0.00000000000E+00 0.  1.
          1   -1    0    0  501    0  0.00000000000E+00 -0.00000000000E+00 -0.70135718288E+03  0.70135718288E+03  0.00000000000E+00 0. -1.
         23    2    1    2    0    0  0.15043571164E+02  0.27427330713E+03 -0.49814866336E+03  0.58243329250E+03  0.12499717342E+03 0.  0.
          5    1    3    3  502    0  0.64057524333E+02  0.19514385421E+03 -0.37968938481E+03  0.43170662399E+03  0.47000000000E+01 0. -1.
         -5    1    3    3    0  502 -0.49013953169E+02  0.79129452917E+02 -0.11845927856E+03  0.15072666851E+03  0.47000000000E+01 0. -1.
        -11    1    1    2    0    0 -0.66195442290E+01 -0.19619966928E+03  0.17370438731E+02  0.19707831117E+03  0.00000000000E+00 0.  1.
         11    1    1    2    0    0 -0.84240269355E+01 -0.78073637845E+02 -0.49564112914E+02  0.92860424537E+02  0.00000000000E+00 0. -1.
<mgrwt>
<rscale>  0 0.29831863E+03</rscale>
<asrwt>0</asrwt>
<pdfrwt beam="2">  1        1 0.10790110E+00 0.30178875E+03</pdfrwt>
<pdfrwt beam="1">  1       -1 0.26309977E-01 0.30178875E+03</pdfrwt>
<totfact> 0.36072632E+02</totfact>
</mgrwt>
</event>
<event>
 7    1  0.6419647E-006  0.1303215E+03  0.7546771E-02  0.1242299E+00
          1   -1    0    0  501    0  0.00000000000E+00  0.00000000000E+00  0.23573416649E+03  0.23573416649E+03  0.00000000000E+00 0. -1.
         -1   -1    0    0    0  501 -0.00000000000E+00 -0.00000000000E+00 -0.61303726018E+02  0.61303726018E+02  0.00000000000E+00 0.  1.
         23    2    1    2    0    0 -0.36068518206E+02 -0.76359808779E+01  0.15007692322E+03  0.19876314241E+03  0.12499783073E+03 0.  0.
          5    1    3    3  502    0 -0.46052356590E+02 -0.46207094172E+02  0.29619429034E+02  0.71800526987E+02  0.47000000000E+01 0.  1.
         -5    1    3    3    0  502  0.99838383840E+01  0.38571113294E+02  0.12045749419E+03  0.12696261543E+03  0.47000000000E+01 0.  1.
        -11    1    1    2    0    0  0.43184955938E+02 -0.12812839139E+02 -0.19717688956E+02  0.49172111241E+02  0.00000000000E+00 0.  1.
         11    1    1    2    0    0 -0.71164377320E+01  0.20448820017E+02  0.44071206205E+02  0.49102638854E+02  0.00000000000E+00 0. -1.
<mgrwt>
<rscale>  0 0.12048476E+03</rscale>
<asrwt>0</asrwt>
<pdfrwt beam="1">  1        1 0.36266794E-01 0.13032154E+03</pdfrwt>
<pdfrwt beam="2">  1       -1 0.94313426E-02 0.13032154E+03</pdfrwt>
<totfact> 0.75185276E+03</totfact>
</mgrwt>
</event>
<event>
 7    1  0.6419647E-006  0.1639423E+03  0.7546771E-02  0.1191229E+00
         -2   -1    0    0    0  501 -0.00000000000E+00  0.00000000000E+00  0.98756891291E+02  0.98756891291E+02  0.00000000000E+00 0.  1.
          2   -1    0    0  501    0  0.00000000000E+00 -0.00000000000E+00 -0.32190357261E+03  0.32190357261E+03  0.00000000000E+00 0. -1.
         23    2    1    2    0    0  0.10595331255E+03 -0.51176950566E+01 -0.22695013287E+03  0.27997042247E+03  0.12499911761E+03 0.  0.
          5    1    3    3  502    0  0.38477791936E+02 -0.25481536825E+02 -0.45379873636E+01  0.46610433602E+02  0.47000000000E+01 0. -1.
         -5    1    3    3    0  502  0.67475520616E+02  0.20363841768E+02 -0.22241214551E+03  0.23335998887E+03  0.47000000000E+01 0. -1.
        -11    1    1    2    0    0 -0.79741754349E+02  0.36725080894E+02  0.29066788790E+02  0.92478955249E+02  0.00000000000E+00 0.  1.
         11    1    1    2    0    0 -0.26211558202E+02 -0.31607385837E+02 -0.25263337241E+02  0.48211086188E+02  0.00000000000E+00 0. -1.
<mgrwt>
<rscale>  0 0.15777726E+03</rscale>
<asrwt>0</asrwt>
<pdfrwt beam="2">  1        2 0.49523626E-01 0.16394229E+03</pdfrwt>
<pdfrwt beam="1">  1       -2 0.15193368E-01 0.16394229E+03</pdfrwt>
<totfact> 0.33109573E+03</totfact>
</mgrwt>
</event>
<event>
 7    1  0.6419647E-006  0.1270830E+03  0.7546771E-02  0.1242770E+00
         -1   -1    0    0    0  501 -0.00000000000E+00  0.00000000000E+00  0.42267892863E+03  0.42267892863E+03  0.00000000000E+00 0.  1.
          1   -1    0    0  501    0  0.00000000000E+00 -0.00000000000E+00 -0.33086660568E+02  0.33086660568E+02  0.00000000000E+00 0. -1.
         23    2    1    2    0    0 -0.42958433527E+02 -0.16134750678E+02  0.15756489982E+03  0.20242722262E+03  0.11850875754E+03 0.  0.
          5    1    3    3  502    0 -0.61145927236E+02 -0.22134973034E+02  0.27308953169E+02  0.70686988703E+02  0.47000000000E+01 0. -1.
         -5    1    3    3    0  502  0.18187493709E+02  0.60002223563E+01  0.13025594665E+03  0.13174023392E+03  0.47000000000E+01 0.  1.
        -11    1    1    2    0    0 -0.15410867439E+02  0.33290956395E+02  0.12450879046E+03  0.12980069920E+03  0.00000000000E+00 0. -1.
         11    1    1    2    0    0  0.58369300966E+02 -0.17156205716E+02  0.10751857779E+03  0.12353766737E+03  0.00000000000E+00 0.  1.
<mgrwt>
<rscale>  0 0.12019867E+03</rscale>
<asrwt>0</asrwt>
<pdfrwt beam="2">  1        1 0.50902558E-02 0.12708298E+03</pdfrwt>
<pdfrwt beam="1">  1       -1 0.65027524E-01 0.12708298E+03</pdfrwt>
<totfact> 0.38505686E+03</totfact>
</mgrwt>
</event>
<event>
 7    1  0.6419647E-006  0.1366581E+03  0.7546771E-02  0.1230431E+00
         -2   -1    0    0    0  501 -0.00000000000E+00  0.00000000000E+00  0.72590978202E+02  0.72590978202E+02  0.00000000000E+00 0.  1.
          2   -1    0    0  501    0  0.00000000000E+00 -0.00000000000E+00 -0.20919299157E+03  0.20919299157E+03  0.00000000000E+00 0. -1.
         23    2    1    2    0    0 -0.29734715527E+02  0.46556852314E+02 -0.10363565170E+03  0.17151030150E+03  0.12499496555E+03 0.  0.
          5    1    3    3  502    0 -0.74689020701E+02  0.50624330851E+02 -0.59348907809E+02  0.10810021066E+03  0.47000000000E+01 0. -1.
         -5    1    3    3    0  502  0.44954305173E+02 -0.40674785367E+01 -0.44286743895E+02  0.63410090838E+02  0.47000000000E+01 0. -1.
        -11    1    1    2    0    0  0.56646415257E+02 -0.66471210201E+01 -0.16019522752E+02  0.59242093890E+02  0.00000000000E+00 0.  1.
         11    1    1    2    0    0 -0.26911699730E+02 -0.39909731294E+02 -0.16946838909E+02  0.51031574376E+02  0.00000000000E+00 0. -1.
<mgrwt>
<rscale>  0 0.12801538E+03</rscale>
<asrwt>0</asrwt>
<pdfrwt beam="2">  1        2 0.32183538E-01 0.13665810E+03</pdfrwt>
<pdfrwt beam="1">  1       -2 0.11167843E-01 0.13665810E+03</pdfrwt>
<totfact> 0.85325971E+03</totfact>
</mgrwt>
</event>
<event>
 7    1  0.6419647E-006  0.1586407E+03  0.7546771E-02  0.1197440E+00
         -2   -1    0    0    0  501 -0.00000000000E+00  0.00000000000E+00  0.43303220845E+02  0.43303220845E+02  0.00000000000E+00 0.  1.
          2   -1    0    0  501    0  0.00000000000E+00 -0.00000000000E+00 -0.50086039135E+03  0.50086039135E+03  0.00000000000E+00 0. -1.
         23    2    1    2    0    0  0.97656345876E+02 -0.24445896052E+01 -0.23173143402E+03  0.28083151495E+03  0.12499657744E+03 0.  0.
          5    1    3    3  502    0  0.60587084731E+02  0.46101263741E+02 -0.55712987665E+02  0.94457124396E+02  0.47000000000E+01 0. -1.
         -5    1    3    3    0  502  0.37069261145E+02 -0.48545853346E+02 -0.17601844635E+03  0.18637439056E+03  0.47000000000E+01 0. -1.
        -11    1    1    2    0    0  0.35083608025E+01  0.30234549620E+02 -0.46656323445E+02  0.55706813799E+02  0.00000000000E+00 0.  1.
         11    1    1    2    0    0 -0.10116470668E+03 -0.27789960014E+02 -0.17916941304E+03  0.20762528344E+03  0.00000000000E+00 0. -1.
<mgrwt>
<rscale>  0 0.15249488E+03</rscale>
<asrwt>0</asrwt>
<pdfrwt beam="2">  1        2 0.77055440E-01 0.15864073E+03</pdfrwt>
<pdfrwt beam="1">  1       -2 0.66620344E-02 0.15864073E+03</pdfrwt>
<totfact> 0.75552463E+03</totfact>
</mgrwt>
</event>
<event>
 7    1  0.6419647E-006  0.1262192E+03  0.7546771E-02  0.1265969E+00
          1   -1    0    0  501    0  0.00000000000E+00  0.00000000000E+00  0.15895390544E+04  0.15895390544E+04  0.00000000000E+00 0. -1.
         -1   -1    0    0    0  501 -0.00000000000E+00 -0.00000000000E+00 -0.84652398356E+01  0.84652398356E+01  0.00000000000E+00 0.  1.
         23    2    1    2    0    0 -0.14902389046E+02 -0.90481697496E+01  0.13956570273E+04  0.14013528547E+04  0.12500934018E+03 0.  0.
          5    1    3    3  502    0  0.20573384390E+02 -0.49203868217E+02  0.32791082626E+03  0.33225274231E+03  0.47000000000E+01 0.  1.
         -5    1    3    3    0  502 -0.35475773436E+02  0.40155698468E+02  0.10677462010E+04  0.10691001124E+04  0.47000000000E+01 0.  1.
        -11    1    1    2    0    0  0.10439089138E+02 -0.25629592265E+02  0.11149267384E+03  0.11487587607E+03  0.00000000000E+00 0.  1.
         11    1    1    2    0    0  0.44632999079E+01  0.34677762015E+02  0.73924113407E+02  0.81775563389E+02  0.00000000000E+00 0. -1.
<mgrwt>
<rscale>  0 0.10713506E+03</rscale>
<asrwt>0</asrwt>
<pdfrwt beam="1">  1        1 0.24454423E+00 0.12621920E+03</pdfrwt>
<pdfrwt beam="2">  1       -1 0.13023459E-02 0.12621920E+03</pdfrwt>
<totfact> 0.78044558E+03</totfact>
</mgrwt>
</event>
<event>
 7    1  0.6419647E-006  0.1254098E+03  0.7546771E-02  0.1252292E+00
         -2   -1    0    0    0  501 -0.00000000000E+00  0.00000000000E+00  0.10847231031E+03  0.10847231031E+03  0.00000000000E+00 0.  1.
          2   -1    0    0  501    0  0.00000000000E+00 -0.00000000000E+00 -0.16671254336E+03  0.16671254336E+03  0.00000000000E+00 0. -1.
         23    2    1    2    0    0  0.98959625360E+01 -0.21101192460E+01 -0.11564834727E+03  0.17059353984E+03  0.12500093172E+03 0.  0.
          5    1    3    3  502    0 -0.22768983575E+02 -0.56889381159E+02 -0.56305364741E+02  0.83349939413E+02  0.47000000000E+01 0.  1.
         -5    1    3    3    0  502  0.32664946111E+02  0.54779261913E+02 -0.59342982532E+02  0.87243600429E+02  0.47000000000E+01 0.  1.
        -11    1    1    2    0    0 -0.36160516094E+02  0.16277031826E+02 -0.26400435716E+00  0.39655950216E+02  0.00000000000E+00 0.  1.
         11    1    1    2    0    0  0.26264553558E+02 -0.14166912580E+02  0.57672118577E+02  0.64935363608E+02  0.00000000000E+00 0. -1.
<mgrwt>
<rscale>  0 0.11459382E+03</rscale>
<asrwt>0</asrwt>
<pdfrwt beam="2">  1        2 0.25648083E-01 0.12540979E+03</pdfrwt>
<pdfrwt beam="1">  1       -2 0.16688048E-01 0.12540979E+03</pdfrwt>
<totfact> 0.56690695E+03</totfact>
</mgrwt>
</event>
<event>
 7    1  0.6419647E-006  0.1522750E+03  0.7546771E-02  0.1206092E+00
          2   -1    0    0  501    0  0.00000000000E+00  0.00000000000E+00  0.21402904620E+03  0.21402904620E+03  0.00000000000E+00 0. -1.
         -2   -1    0    0    0  501 -0.00000000000E+00 -0.00000000000E+00 -0.18992592098E+03  0.18992592098E+03  0.00000000000E+00 0.  1.
         23    2    1    2    0    0  0.49918078466E+02 -0.71243664227E+02  0.15798557144E+03  0.21942450649E+03  0.12498079459E+03 0.  0.
          5    1    3    3  502    0  0.48507964466E+02 -0.65664213423E+02  0.17918408954E+03  0.19696151777E+03  0.47000000000E+01 0.  1.
         -5    1    3    3    0  502  0.14101140000E+01 -0.55794508045E+01 -0.21198518094E+02  0.22462988719E+02  0.47000000000E+01 0.  1.
        -11    1    1    2    0    0 -0.10173101512E+02  0.29881166914E+02  0.70744217229E+01  0.32348470957E+02  0.00000000000E+00 0. -1.
         11    1    1    2    0    0 -0.39744976954E+02  0.41362497313E+02 -0.14095686794E+03  0.15218198973E+03  0.00000000000E+00 0.  1.
<mgrwt>
<rscale>  0 0.14551762E+03</rscale>
<asrwt>0</asrwt>
<pdfrwt beam="1">  1        2 0.32927546E-01 0.15227499E+03</pdfrwt>
<pdfrwt beam="2">  1       -2 0.29219372E-01 0.15227499E+03</pdfrwt>
<totfact> 0.16666224E+03</totfact>
</mgrwt>
</event>
<event>
 7    1  0.6419647E-006  0.1378029E+03  0.7546771E-02  0.1227392E+00
          4   -1    0    0  501    0  0.00000000000E+00  0.00000000000E+00  0.97946812630E+02  0.97946812630E+02  0.00000000000E+00 0. -1.
         -4   -1    0    0    0  501 -0.00000000000E+00 -0.00000000000E+00 -0.15871693327E+03  0.15871693327E+03  0.00000000000E+00 0.  1.
         23    2    1    2    0    0  0.51960013740E+02 -0.25769742950E+02 -0.16644932540E+02  0.13880451754E+03  0.12500287049E+03 0.  0.
          5    1    3    3  502    0 -0.17523261819E+02 -0.53133066831E+02 -0.28633902988E+02  0.63025216350E+02  0.47000000000E+01 0. -1.
         -5    1    3    3    0  502  0.69483275558E+02  0.27363323880E+02  0.11988970448E+02  0.75779301188E+02  0.47000000000E+01 0. -1.
        -11    1    1    2    0    0  0.10330290589E+02  0.43307459948E+02 -0.19791831587E+02  0.48723378253E+02  0.00000000000E+00 0.  1.
         11    1    1    2    0    0 -0.62290304329E+02 -0.17537716998E+02 -0.24333356508E+02  0.69135850106E+02  0.00000000000E+00 0. -1.
<mgrwt>
<rscale>  0 0.13004284E+03</rscale>
<asrwt>0</asrwt>
<pdfrwt beam="1">  1        4 0.15068740E-01 0.13780290E+03</pdfrwt>
<pdfrwt beam="2">  1       -4 0.24417990E-01 0.13780290E+03</pdfrwt>
<totfact> 0.96932044E+02</totfact>
</mgrwt>
</event>
<event>
 7    1  0.6419647E-006  0.1664485E+03  0.7546771E-02  0.1188318E+00
          1   -1    0    0  501    0  0.00000000000E+00  0.00000000000E+00  0.39290764692E+03  0.39290764692E+03  0.00000000000E+00 0. -1.
         -1   -1    0    0    0  501 -0.00000000000E+00 -0.00000000000E+00 -0.61053928921E+02  0.61053928921E+02  0.00000000000E+00 0.  1.
         23    2    1    2    0    0 -0.86552599622E+02 -0.67686315566E+02  0.17711650055E+03  0.24305421399E+03  0.12502922201E+03 0.  0.
          5    1    3    3  502    0 -0.87392283195E+02 -0.28898810214E+02  0.39990918740E+02  0.10046848250E+03  0.47000000000E+01 0.  1.
         -5    1    3    3    0  502  0.83968357210E+00 -0.38787505352E+02  0.13712558181E+03  0.14258573150E+03  0.47000000000E+01 0.  1.
        -11    1    1    2    0    0 -0.75825959033E+00  0.50729411779E+02  0.34520298104E+02  0.61365292782E+02  0.00000000000E+00 0.  1.
         11    1    1    2    0    0  0.87310859213E+02  0.16956903787E+02  0.12021691934E+03  0.14954206906E+03  0.00000000000E+00 0. -1.
<mgrwt>
<rscale>  0 0.16033578E+03</rscale>
<asrwt>0</asrwt>
<pdfrwt beam="1">  1        1 0.60447329E-01 0.16644848E+03</pdfrwt>
<pdfrwt beam="2">  1       -1 0.93929124E-02 0.16644848E+03</pdfrwt>
<totfact> 0.40621533E+03</totfact>
</mgrwt>
</event>
<event>
 7    1  0.6419647E-006  0.1618570E+03  0.7546771E-02  0.1194526E+00
         -2   -1    0    0    0  501 -0.00000000000E+00  0.00000000000E+00  0.21424724214E+03  0.21424724214E+03  0.00000000000E+00 0.  1.
          2   -1    0    0  501    0  0.00000000000E+00 -0.00000000000E+00 -0.12311807309E+03  0.12311807309E+03  0.00000000000E+00 0. -1.
         23    2    1    2    0    0 -0.64566131304E+01 -0.10262181927E+03 -0.18266887333E+02  0.16288448894E+03  0.12499900768E+03 0.  0.
          5    1    3    3  502    0 -0.74860703097E+01 -0.44110834684E+02  0.53670476958E+02  0.70031543479E+02  0.47000000000E+01 0. -1.
         -5    1    3    3    0  502  0.10294571792E+01 -0.58510984584E+02 -0.71937364291E+02  0.92852945458E+02  0.47000000000E+01 0. -1.
        -11    1    1    2    0    0 -0.16619940851E+01  0.36180799792E+02  0.10066018284E+03  0.10697796459E+03  0.00000000000E+00 0.  1.
         11    1    1    2    0    0  0.81186072155E+01  0.66441019476E+02  0.87358735374E+01  0.67502861706E+02  0.00000000000E+00 0. -1.
<mgrwt>
<rscale>  0 0.15494399E+03</rscale>
<asrwt>0</asrwt>
<pdfrwt beam="2">  1        2 0.18941242E-01 0.16185697E+03</pdfrwt>
<pdfrwt beam="1">  1       -2 0.32961114E-01 0.16185697E+03</pdfrwt>
<totfact> 0.24789303E+03</totfact>
</mgrwt>
</event>
<event>
 7    1  0.6419647E-006  0.1454027E+03  0.7546771E-02  0.1216230E+00
          2   -1    0    0  501    0  0.00000000000E+00  0.00000000000E+00  0.46838554211E+03  0.46838554211E+03  0.00000000000E+00 0. -1.
         -2   -1    0    0    0  501 -0.00000000000E+00 -0.00000000000E+00 -0.41579464271E+02  0.41579464271E+02  0.00000000000E+00 0.  1.
         23    2    1    2    0    0 -0.61625038652E+02  0.41485416301E+02  0.31862684757E+03  0.35023564404E+03  0.12499301263E+03 0.  0.
          5    1    3    3  502    0 -0.51496045279E+02  0.81917836734E+02  0.26500706442E+03  0.28215812738E+03  0.47000000000E+01 0.  1.
         -5    1    3    3    0  502 -0.10128993373E+02 -0.40432420434E+02  0.53619783153E+02  0.68077516657E+02  0.47000000000E+01 0.  1.
        -11    1    1    2    0    0  0.35928440425E+02 -0.40129052804E+02  0.58096054827E+01  0.54175134759E+02  0.00000000000E+00 0.  1.
         11    1    1    2    0    0  0.25696598227E+02 -0.13563634967E+01  0.10236962479E+03  0.10555422759E+03  0.00000000000E+00 0. -1.
<mgrwt>
<rscale>  0 0.13786574E+03</rscale>
<asrwt>0</asrwt>
<pdfrwt beam="1">  1        2 0.72059311E-01 0.14540268E+03</pdfrwt>
<pdfrwt beam="2">  1       -2 0.63968410E-02 0.14540268E+03</pdfrwt>
<totfact> 0.86062695E+03</totfact>
</mgrwt>
</event>
<event>
 7    1  0.6419647E-006  0.1750795E+03  0.7546771E-02  0.1179004E+00
         -1   -1    0    0    0  501 -0.00000000000E+00  0.00000000000E+00  0.12793291991E+03  0.12793291991E+03  0.00000000000E+00 0.  1.
          1   -1    0    0  501    0  0.00000000000E+00 -0.00000000000E+00 -0.21171797179E+03  0.21171797179E+03  0.00000000000E+00 0. -1.
         23    2    1    2    0    0 -0.86743180225E+02 -0.86622456438E+02 -0.65485036861E+02  0.18692548599E+03  0.12500007194E+03 0.  0.
          5    1    3    3  502    0  0.16481059245E+02 -0.49369693910E+01  0.22359553192E+02  0.28601374085E+02  0.47000000000E+01 0.  1.
         -5    1    3    3    0  502 -0.10322423947E+03 -0.81685487047E+02 -0.87844590054E+02  0.15832411190E+03  0.47000000000E+01 0.  1.
        -11    1    1    2    0    0 -0.12034284451E+02  0.55570252048E+01  0.15649745983E+02  0.20508999993E+02  0.00000000000E+00 0.  1.
         11    1    1    2    0    0  0.98777464676E+02  0.81065431234E+02 -0.33949761007E+02  0.13221640572E+03  0.00000000000E+00 0. -1.
<mgrwt>
<rscale>  0 0.16889598E+03</rscale>
<asrwt>0</asrwt>
<pdfrwt beam="2">  1        1 0.32571995E-01 0.17507955E+03</pdfrwt>
<pdfrwt beam="1">  1       -1 0.19681988E-01 0.17507955E+03</pdfrwt>
<totfact> 0.27670156E+03</totfact>
</mgrwt>
</event>
<event>
 7    1  0.6419647E-006  0.1476148E+03  0.7546771E-02  0.1213531E+00
          2   -1    0    0  501    0  0.00000000000E+00  0.00000000000E+00  0.33789969065E+02  0.33789969065E+02  0.00000000000E+00 0. -1.
         -2   -1    0    0    0  501 -0.00000000000E+00 -0.00000000000E+00 -0.53188702009E+03  0.53188702009E+03  0.00000000000E+00 0.  1.
         23    2    1    2    0    0  0.63159109383E+02 -0.46718375598E+02 -0.24499288189E+03  0.28602735226E+03  0.12497381466E+03 0.  0.
          5    1    3    3  502    0  0.99407515337E+01 -0.76206912935E+02 -0.84467126077E+02  0.11429390845E+03  0.47000000000E+01 0.  1.
         -5    1    3    3    0  502  0.53218357849E+02  0.29488537337E+02 -0.16052575581E+03  0.17173344382E+03  0.47000000000E+01 0.  1.
        -11    1    1    2    0    0 -0.61914476151E+02  0.71018178621E+02 -0.20962661836E+03  0.22982668073E+03  0.00000000000E+00 0.  1.
         11    1    1    2    0    0 -0.12446332325E+01 -0.24299803023E+02 -0.43477550774E+02  0.49822956157E+02  0.00000000000E+00 0. -1.
<mgrwt>
<rscale>  0 0.13984987E+03</rscale>
<asrwt>0</asrwt>
<pdfrwt beam="1">  1        2 0.51984568E-02 0.14761482E+03</pdfrwt>
<pdfrwt beam="2">  1       -2 0.81828771E-01 0.14761482E+03</pdfrwt>
<totfact> 0.19546849E+03</totfact>
</mgrwt>
</event>
<event>
 7    1  0.6419647E-006  0.1233396E+03  0.7546771E-02  0.1245111E+00
          3   -1    0    0  501    0  0.00000000000E+00  0.00000000000E+00  0.34518802687E+02  0.34518802687E+02  0.00000000000E+00 0. -1.
         -3   -1    0    0    0  501 -0.00000000000E+00 -0.00000000000E+00 -0.39148799274E+03  0.39148799274E+03  0.00000000000E+00 0.  1.
         23    2    1    2    0    0 -0.16318398029E+02 -0.51711590318E+02 -0.22579461427E+03  0.25728558576E+03  0.11078035078E+03 0.  0.
          5    1    3    3  502    0 -0.23803327513E+02 -0.75054678004E+02 -0.92012195104E+02  0.12119462504E+03  0.47000000000E+01 0. -1.
         -5    1    3    3    0  502  0.74849294837E+01  0.23343087685E+02 -0.13378241917E+03  0.13609096072E+03  0.47000000000E+01 0.  1.
        -11    1    1    2    0    0  0.23926042364E+02  0.43173390418E+02 -0.14359273901E+03  0.15183962539E+03  0.00000000000E+00 0. -1.
         11    1    1    2    0    0 -0.76076443342E+01  0.85381999002E+01  0.12418163222E+02  0.16881584276E+02  0.00000000000E+00 0.  1.
<mgrwt>
<rscale>  0 0.11878720E+03</rscale>
<asrwt>0</asrwt>
<pdfrwt beam="1">  1        3 0.53105851E-02 0.12333963E+03</pdfrwt>
<pdfrwt beam="2">  1       -3 0.60228922E-01 0.12333963E+03</pdfrwt>
<totfact> 0.12807904E+03</totfact>
</mgrwt>
</event>
<event>
 7    1  0.6419647E-006  0.1331666E+03  0.7546771E-02  0.1235477E+00
         -1   -1    0    0    0  501 -0.00000000000E+00  0.00000000000E+00  0.51320603905E+02  0.51320603905E+02  0.00000000000E+00 0.  1.
          1   -1    0    0  501    0  0.00000000000E+00 -0.00000000000E+00 -0.51117428688E+03  0.51117428688E+03  0.00000000000E+00 0. -1.
         23    2    1    2    0    0 -0.90003904693E+01 -0.45031996874E+02 -0.43782555168E+03  0.45762928359E+03  0.12499783887E+03 0.  0.
          5    1    3    3  502    0  0.41994460016E+02  0.27545740675E+01 -0.60438727045E+02  0.73797371750E+02  0.47000000000E+01 0.  1.
         -5    1    3    3    0  502 -0.50994850485E+02 -0.47786570941E+02 -0.37738682463E+03  0.38383191184E+03  0.47000000000E+01 0.  1.
        -11    1    1    2    0    0  0.52563646037E+01  0.71323127372E+02 -0.29370904554E+02  0.77312792611E+02  0.00000000000E+00 0.  1.
         11    1    1    2    0    0  0.37440258655E+01 -0.26291130499E+02  0.73427732562E+01  0.27552814587E+02  0.00000000000E+00 0. -1.
<mgrwt>
<rscale>  0 0.12473976E+03</rscale>
<asrwt>0</asrwt>
<pdfrwt beam="2">  1        1 0.78642199E-01 0.13316662E+03</pdfrwt>
<pdfrwt beam="1">  1       -1 0.78954774E-02 0.13316662E+03</pdfrwt>
<totfact> 0.37326183E+03</totfact>
</mgrwt>
</event>
<event>
 7    1  0.6419647E-006  0.2480934E+03  0.7546771E-02  0.1117142E+00
          1   -1    0    0  501    0  0.00000000000E+00  0.00000000000E+00  0.57083767925E+03  0.57083767925E+03  0.00000000000E+00 0. -1.
         -1   -1    0    0    0  501 -0.00000000000E+00 -0.00000000000E+00 -0.11244726746E+03  0.11244726746E+03  0.00000000000E+00 0.  1.
         23    2    1    2    0    0 -0.11306979231E+03  0.18204836142E+03  0.34481501439E+03  0.42479140046E+03  0.12499582364E+03 0.  0.
          5    1    3    3  502    0 -0.90517054155E+02  0.19938198613E+03  0.31051562055E+03  0.37998493930E+03  0.47000000000E+01 0. -1.
         -5    1    3    3    0  502 -0.22552738151E+02 -0.17333624716E+02  0.34299393844E+02  0.44806461163E+02  0.47000000000E+01 0. -1.
        -11    1    1    2    0    0  0.39291268299E+02 -0.13560702154E+03  0.92551251452E+02  0.16881588255E+03  0.00000000000E+00 0. -1.
         11    1    1    2    0    0  0.73778524006E+02 -0.46441339880E+02  0.21024145940E+02  0.89677663701E+02  0.00000000000E+00 0.  1.
<mgrwt>
<rscale>  0 0.24402240E+03</rscale>
<asrwt>0</asrwt>
<pdfrwt beam="1">  1        1 0.87821180E-01 0.24809341E+03</pdfrwt>
<pdfrwt beam="2">  1       -1 0.17299580E-01 0.24809341E+03</pdfrwt>
<totfact> 0.96486291E+02</totfact>
</mgrwt>
</event>
<event>
 7    1  0.6419647E-006  0.1256536E+03  0.7546771E-02  0.1247752E+00
         -2   -1    0    0    0  501 -0.00000000000E+00  0.00000000000E+00  0.10012867479E+03  0.10012867479E+03  0.00000000000E+00 0.  1.
          2   -1    0    0  501    0  0.00000000000E+00 -0.00000000000E+00 -0.16025152442E+03  0.16025152442E+03  0.00000000000E+00 0. -1.
         23    2    1    2    0    0 -0.12554832721E+02  0.26296432007E+01 -0.96562906511E+02  0.15847151695E+03  0.12499715166E+03 0.  0.
          5    1    3    3  502    0 -0.67640166006E+02 -0.70871306290E+01 -0.41335807078E+02  0.79725519282E+02  0.47000000000E+01 0.  1.
         -5    1    3    3    0  502  0.55085333285E+02  0.97167738297E+01 -0.55227099433E+02  0.78745997667E+02  0.47000000000E+01 0.  1.
        -11    1    1    2    0    0  0.25655538658E+02 -0.13848798172E+01  0.65309378490E+02  0.70181475296E+02  0.00000000000E+00 0.  1.
         11    1    1    2    0    0 -0.13100705937E+02 -0.12447633835E+01 -0.28869321606E+02  0.31727206967E+02  0.00000000000E+00 0. -1.
<mgrwt>
<rscale>  0 0.11722149E+03</rscale>
<asrwt>0</asrwt>
<pdfrwt beam="2">  1        2 0.24654080E-01 0.12565360E+03</pdfrwt>
<pdfrwt beam="1">  1       -2 0.15404412E-01 0.12565360E+03</pdfrwt>
<totfact> 0.67540656E+03</totfact>
</mgrwt>
</event>
<event>
 6    1  0.6419647E-006  0.1697338E+03  0.7546771E-02  0.1199311E+00
         -2   -1    0    0    0  501 -0.00000000000E+00  0.00000000000E+00  0.20702237616E+02  0.20702237616E+02  0.00000000000E+00 0.  1.
          2   -1    0    0  501    0  0.00000000000E+00 -0.00000000000E+00 -0.21314227162E+04  0.21314227162E+04  0.00000000000E+00 0. -1.
          5    1    1    2  502    0  0.21990306124E+02  0.42930626824E+02 -0.18180953224E+04  0.18187411316E+04  0.47000000000E+01 0. -1.
         -5    1    1    2    0  502 -0.43610814668E+02  0.69440812803E+01 -0.14425632482E+03  0.15093740647E+03  0.47000000000E+01 0.  1.
        -11    1    1    2    0    0 -0.35099361063E+02 -0.29681936577E+02 -0.63689797927E+02  0.78545355471E+02  0.00000000000E+00 0.  1.
         11    1    1    2    0    0  0.56719869607E+02 -0.20192771528E+02 -0.84679033399E+02  0.10390106028E+03  0.00000000000E+00 0. -1.
<mgrwt>
<rscale>  0 0.15094996E+03</rscale>
<asrwt>0</asrwt>
<pdfrwt beam="2">  1        2 0.32791140E+00 0.16973378E+03</pdfrwt>
<pdfrwt beam="1">  1       -2 0.31849576E-02 0.16973378E+03</pdfrwt>
<totfact> 0.24650541E+03</totfact>
</mgrwt>
</event>
<event>
 7    1  0.6419647E-006  0.1284746E+03  0.7546771E-02  0.1245285E+00
         -2   -1    0    0    0  501 -0.00000000000E+00  0.00000000000E+00  0.44765498878E+02  0.44765498878E+02  0.00000000000E+00 0.  1.
          2   -1    0    0  501    0  0.00000000000E+00 -0.00000000000E+00 -0.52693254375E+03  0.52693254375E+03  0.00000000000E+00 0. -1.
         23    2    1    2    0    0  0.68597238299E+01 -0.28898346313E+02 -0.45713331373E+03  0.47484375698E+03  0.12499422700E+03 0.  0.
          5    1    3    3  502    0  0.14634825744E+02 -0.32734778655E+02 -0.46229857429E+03  0.46371090741E+03  0.47000000000E+01 0.  1.
         -5    1    3    3    0  502 -0.77751019139E+01  0.38364323421E+01  0.51652605573E+01  0.11132849568E+02  0.47000000000E+01 0.  1.
        -11    1    1    2    0    0 -0.28951275278E+02  0.44813483788E+02  0.81058962484E+01  0.53964156839E+02  0.00000000000E+00 0.  1.
         11    1    1    2    0    0  0.22091551448E+02 -0.15915137475E+02 -0.33139627392E+02  0.42890128816E+02  0.00000000000E+00 0. -1.
<mgrwt>
<rscale>  0 0.11868319E+03</rscale>
<asrwt>0</asrwt>
<pdfrwt beam="2">  1        2 0.81066542E-01 0.12847462E+03</pdfrwt>
<pdfrwt beam="1">  1       -2 0.68870001E-02 0.12847462E+03</pdfrwt>
<totfact> 0.67057247E+03</totfact>
</mgrwt>
</event>
<event>
 7    1  0.6419647E-006  0.1302074E+03  0.7546771E-02  0.1240623E+00
         -2   -1    0    0    0  501 -0.00000000000E+00  0.00000000000E+00  0.27016755642E+02  0.27016755642E+02  0.00000000000E+00 0. -1.
          2   -1    0    0  501    0  0.00000000000E+00 -0.00000000000E+00 -0.82145139574E+03  0.82145139574E+03  0.00000000000E+00 0.  1.
         23    2    1    2    0    0 -0.18515636548E+02  0.31399038754E+02 -0.69937955872E+03  0.71139702403E+03  0.12500092084E+03 0.  0.
          5    1    3    3  502    0  0.41425553429E+02 -0.23814765455E+02 -0.29171362307E+03  0.29563854183E+03  0.47000000000E+01 0. -1.
         -5    1    3    3    0  502 -0.59941189977E+02  0.55213804209E+02 -0.40766593564E+03  0.41575848219E+03  0.47000000000E+01 0. -1.
        -11    1    1    2    0    0  0.45574300651E+02  0.83315648978E+01 -0.26595185808E+02  0.53420368415E+02  0.00000000000E+00 0. -1.
         11    1    1    2    0    0 -0.27058664103E+02 -0.39730603651E+02 -0.68459895574E+02  0.83650758942E+02  0.00000000000E+00 0.  1.
<mgrwt>
<rscale>  0 0.12151198E+03</rscale>
<asrwt>0</asrwt>
<pdfrwt beam="2">  1        2 0.12637715E+00 0.13020737E+03</pdfrwt>
<pdfrwt beam="1">  1       -2 0.41564234E-02 0.13020737E+03</pdfrwt>
<totfact> 0.85432713E+03</totfact>
</mgrwt>
</event>
<event>
 7    1  0.6419647E-006  0.1583062E+03  0.7546771E-02  0.1198414E+00
         -1   -1    0    0    0  501 -0.00000000000E+00  0.00000000000E+00  0.85580151715E+02  0.85580151715E+02  0.00000000000E+00 0.  1.
          1   -1    0    0  501    0  0.00000000000E+00 -0.00000000000E+00 -0.25249059738E+03  0.25249059738E+03  0.00000000000E+00 0. -1.
         23    2    1    2    0    0  0.51660758735E+02 -0.82121145308E+02 -0.11121646927E+03  0.19346825519E+03  0.12509255066E+03 0.  0.
          5    1    3    3  502    0 -0.36744012494E+02 -0.14827932930E+02 -0.59455904746E+01  0.40341419102E+02  0.47000000000E+01 0. -1.
         -5    1    3    3    0  502  0.88404771228E+02 -0.67293212378E+02 -0.10527087880E+03  0.15312683609E+03  0.47000000000E+01 0. -1.
        -11    1    1    2    0    0 -0.35802993363E+01  0.49826945629E+02  0.15982262339E+02  0.52449745124E+02  0.00000000000E+00 0.  1.
         11    1    1    2    0    0 -0.48080459398E+02  0.32294199679E+02 -0.71676238736E+02  0.92152748783E+02  0.00000000000E+00 0. -1.
<mgrwt>
<rscale>  0 0.15168778E+03</rscale>
<asrwt>0</asrwt>
<pdfrwt beam="2">  1        1 0.38844706E-01 0.15830623E+03</pdfrwt>
<pdfrwt beam="1">  1       -1 0.13166178E-01 0.15830623E+03</pdfrwt>
<totfact> 0.41822982E+03</totfact>
</mgrwt>
</event>
<event>
 7    1  0.6419647E-006  0.1560589E+03  0.7546771E-02  0.1201619E+00
         -1   -1    0    0    0  501 -0.00000000000E+00  0.00000000000E+00  0.11378934340E+03  0.11378934340E+03  0.00000000000E+00 0.  1.
          1   -1    0    0  501    0  0.00000000000E+00 -0.00000000000E+00 -0.18321887723E+03  0.18321887723E+03  0.00000000000E+00 0. -1.
         23    2    1    2    0    0  0.76473974365E+02 -0.53673518958E+02 -0.58337716842E+02  0.16660628495E+03  0.12500099834E+03 0.  0.
          5    1    3    3  502    0  0.88758126121E+01 -0.72463371989E+02 -0.62423877199E+02  0.96169385847E+02  0.47000000000E+01 0.  1.
         -5    1    3    3    0  502  0.67598161753E+02  0.18789853031E+02  0.40861603575E+01  0.70436899107E+02  0.47000000000E+01 0.  1.
        -11    1    1    2    0    0 -0.25723769160E+02  0.36626746625E+02 -0.47804486228E+02  0.65486638116E+02  0.00000000000E+00 0. -1.
         11    1    1    2    0    0 -0.50750205205E+02  0.17046772332E+02  0.36712669232E+02  0.64915297561E+02  0.00000000000E+00 0.  1.
<mgrwt>
<rscale>  0 0.14907099E+03</rscale>
<asrwt>0</asrwt>
<pdfrwt beam="2">  1        1 0.28187519E-01 0.15605885E+03</pdfrwt>
<pdfrwt beam="1">  1       -1 0.17506053E-01 0.15605885E+03</pdfrwt>
<totfact> 0.39793411E+03</totfact>
</mgrwt>
</event>
<event>
 7    1  0.6419647E-006  0.1593731E+03  0.7546771E-02  0.1197399E+00
          2   -1    0    0  501    0  0.00000000000E+00  0.00000000000E+00  0.34117903110E+02  0.34117903110E+02  0.00000000000E+00 0. -1.
         -2   -1    0    0    0  501 -0.00000000000E+00 -0.00000000000E+00 -0.73728555650E+03  0.73728555650E+03  0.00000000000E+00 0.  1.
         23    2    1    2    0    0 -0.34076186606E+01 -0.98811161250E+02 -0.23082088134E+03  0.28049610946E+03  0.12499812283E+03 0.  0.
          5    1    3    3  502    0 -0.29791813197E+02 -0.11499972579E+03 -0.21436285197E+03  0.24512448137E+03  0.47000000000E+01 0.  1.
         -5    1    3    3    0  502  0.26384194537E+02  0.16188564536E+02 -0.16458029372E+02  0.35371628092E+02  0.47000000000E+01 0.  1.
        -11    1    1    2    0    0  0.25876522648E+02  0.65736274658E+02 -0.41516215536E+03  0.42112998880E+03  0.00000000000E+00 0.  1.
         11    1    1    2    0    0 -0.22468903988E+02  0.33074886592E+02 -0.57184616696E+02  0.69777361344E+02  0.00000000000E+00 0. -1.
<mgrwt>
<rscale>  0 0.15252914E+03</rscale>
<asrwt>0</asrwt>
<pdfrwt beam="1">  1        2 0.52489085E-02 0.15937311E+03</pdfrwt>
<pdfrwt beam="2">  1       -2 0.11342854E+00 0.15937311E+03</pdfrwt>
<totfact> 0.91814734E+02</totfact>
</mgrwt>
</event>
<event>
 7    1  0.6419647E-006  0.1772656E+03  0.7546771E-02  0.1176455E+00
          1   -1    0    0  501    0  0.00000000000E+00  0.00000000000E+00  0.45965010331E+03  0.45965010331E+03  0.00000000000E+00 0. -1.
         -1   -1    0    0    0  501 -0.00000000000E+00 -0.00000000000E+00 -0.11218174847E+03  0.11218174847E+03  0.00000000000E+00 0.  1.
         23    2    1    2    0    0 -0.12556151094E+03 -0.56768176197E+01  0.37488888270E+03  0.41468633513E+03  0.12500065152E+03 0.  0.
          5    1    3    3  502    0 -0.20364879839E+02  0.47323593020E+02  0.64626371405E+02  0.82782296828E+02  0.47000000000E+01 0.  1.
         -5    1    3    3    0  502 -0.10519663110E+03 -0.53000410640E+02  0.31026251130E+03  0.33190403830E+03  0.47000000000E+01 0.  1.
        -11    1    1    2    0    0  0.76875086389E+02 -0.34806443725E+02  0.77013189968E+01  0.84738289730E+02  0.00000000000E+00 0. -1.
         11    1    1    2    0    0  0.48686424546E+02  0.40483261345E+02 -0.35121846863E+02  0.72407226927E+02  0.00000000000E+00 0.  1.
<mgrwt>
<rscale>  0 0.17134255E+03</rscale>
<asrwt>0</asrwt>
<pdfrwt beam="1">  1        1 0.70715400E-01 0.17726557E+03</pdfrwt>
<pdfrwt beam="2">  1       -1 0.17258731E-01 0.17726557E+03</pdfrwt>
<totfact> 0.12891615E+03</totfact>
</mgrwt>
</event>
<event>
 7    1  0.6419647E-006  0.1371902E+03  0.7546771E-02  0.1228337E+00
          2   -1    0    0  501    0  0.00000000000E+00  0.00000000000E+00  0.17723350724E+03  0.17723350724E+03  0.00000000000E+00 0. -1.
         -2   -1    0    0    0  501 -0.00000000000E+00 -0.00000000000E+00 -0.93794897962E+02  0.93794897962E+02  0.00000000000E+00 0.  1.
         23    2    1    2    0    0  0.41002999771E+02 -0.38900718730E+02  0.86839484003E+02  0.16236453735E+03  0.12500654023E+03 0.  0.
          5    1    3    3  502    0  0.28849999077E+02  0.96508159607E+01 -0.25059241220E+02  0.39692773473E+02  0.47000000000E+01 0.  1.
         -5    1    3    3    0  502  0.12153000694E+02 -0.48551534691E+02  0.11189872522E+03  0.12267176388E+03  0.47000000000E+01 0.  1.
        -11    1    1    2    0    0 -0.30158847306E+02  0.33750713744E+02  0.41973183179E+02  0.61728557858E+02  0.00000000000E+00 0. -1.
         11    1    1    2    0    0 -0.10844152465E+02  0.51500049864E+01 -0.45374057900E+02  0.46935309996E+02  0.00000000000E+00 0.  1.
<mgrwt>
<rscale>  0 0.12940778E+03</rscale>
<asrwt>0</asrwt>
<pdfrwt beam="1">  1        2 0.27266693E-01 0.13719019E+03</pdfrwt>
<pdfrwt beam="2">  1       -2 0.14429984E-01 0.13719019E+03</pdfrwt>
<totfact> 0.67690545E+03</totfact>
</mgrwt>
</event>
<event>
 7    1  0.6419647E-006  0.1260143E+03  0.7546771E-02  0.1248326E+00
          1   -1    0    0  501    0  0.00000000000E+00  0.00000000000E+00  0.19526643034E+02  0.19526643034E+02  0.00000000000E+00 0. -1.
         -1   -1    0    0    0  501 -0.00000000000E+00 -0.00000000000E+00 -0.61607556585E+03  0.61607556585E+03  0.00000000000E+00 0.  1.
         23    2    1    2    0    0 -0.44775721546E+01  0.16880279344E+02 -0.35071790087E+03  0.37266962824E+03  0.12479829060E+03 0.  0.
          5    1    3    3  502    0 -0.59269013265E+02  0.10439536454E+02 -0.25540456320E+03  0.26244119485E+03  0.47000000000E+01 0. -1.
         -5    1    3    3    0  502  0.54791441110E+02  0.64407428900E+01 -0.95313337677E+02  0.11022843339E+03  0.47000000000E+01 0. -1.
        -11    1    1    2    0    0  0.45095797858E+02  0.35885406426E+01 -0.15315788872E+03  0.15969924072E+03  0.00000000000E+00 0.  1.
         11    1    1    2    0    0 -0.40618225703E+02 -0.20468819987E+02 -0.92673133218E+02  0.10323333992E+03  0.00000000000E+00 0. -1.
<mgrwt>
<rscale>  0 0.11688502E+03</rscale>
<asrwt>0</asrwt>
<pdfrwt beam="1">  1        1 0.30040989E-02 0.12601431E+03</pdfrwt>
<pdfrwt beam="2">  1       -1 0.94780858E-01 0.12601431E+03</pdfrwt>
<totfact> 0.36879423E+03</totfact>
</mgrwt>
</event>
<event>
 7    1  0.6419647E-006  0.1392655E+03  0.7546771E-02  0.1225780E+00
         -1   -1    0    0    0  501 -0.00000000000E+00  0.00000000000E+00  0.18465419833E+03  0.18465419833E+03  0.00000000000E+00 0.  1.
          1   -1    0    0  501    0  0.00000000000E+00 -0.00000000000E+00 -0.91499934732E+02  0.91499934732E+02  0.00000000000E+00 0. -1.
         23    2    1    2    0    0 -0.20558058551E+02 -0.57865012852E+02  0.11823437597E+02  0.13976652054E+03  0.12499557233E+03 0.  0.
          5    1    3    3  502    0  0.12326380095E+02 -0.81016013179E+02  0.39126224265E+02  0.90931212809E+02  0.47000000000E+01 0.  1.
         -5    1    3    3    0  502 -0.32884438646E+02  0.23151000327E+02 -0.27302786668E+02  0.48835307730E+02  0.47000000000E+01 0.  1.
        -11    1    1    2    0    0  0.17456402081E+02  0.73109003571E+01  0.83572743049E+02  0.85688847689E+02  0.00000000000E+00 0.  1.
         11    1    1    2    0    0  0.31016564698E+01  0.50554112495E+02 -0.22419170522E+01  0.50698764828E+02  0.00000000000E+00 0. -1.
<mgrwt>
<rscale>  0 0.13113571E+03</rscale>
<asrwt>0</asrwt>
<pdfrwt beam="2">  1        1 0.14076913E-01 0.13926553E+03</pdfrwt>
<pdfrwt beam="1">  1       -1 0.28408338E-01 0.13926553E+03</pdfrwt>
<totfact> 0.43588011E+03</totfact>
</mgrwt>
</event>
<event>
 7    1  0.6419647E-006  0.1841941E+03  0.7546771E-02  0.1169772E+00
         -3   -1    0    0    0  501 -0.00000000000E+00  0.00000000000E+00  0.35018051646E+02  0.35018051646E+02  0.00000000000E+00 0.  1.
          3   -1    0    0  501    0  0.00000000000E+00 -0.00000000000E+00 -0.86979609493E+03  0.86979609493E+03  0.00000000000E+00 0. -1.
         23    2    1    2    0    0 -0.13217926278E+03  0.14645540342E+02 -0.51580522498E+03  0.54770657934E+03  0.12744260503E+03 0.  0.
          5    1    3    3  502    0 -0.15044905654E+03  0.17090876689E+02 -0.50156826564E+03  0.52394640162E+03  0.47000000000E+01 0. -1.
         -5    1    3    3    0  502  0.18269793761E+02 -0.24453363478E+01 -0.14236959344E+02  0.23760177720E+02  0.47000000000E+01 0.  1.
        -11    1    1    2    0    0  0.59420396574E+02  0.29050496669E+02 -0.20225040471E+03  0.21279083883E+03  0.00000000000E+00 0. -1.
         11    1    1    2    0    0  0.72758866202E+02 -0.43696037011E+02 -0.11672241359E+03  0.14431672840E+03  0.00000000000E+00 0.  1.
<mgrwt>
<rscale>  0 0.17798020E+03</rscale>
<asrwt>0</asrwt>
<pdfrwt beam="2">  1        3 0.13381478E+00 0.18419410E+03</pdfrwt>
<pdfrwt beam="1">  1       -3 0.53873926E-02 0.18419410E+03</pdfrwt>
<totfact> 0.22357293E+02</totfact>
</mgrwt>
</event>
<event>
 7    1  0.6419647E-006  0.1700922E+03  0.7546771E-02  0.1183994E+00
         -2   -1    0    0    0  501 -0.00000000000E+00  0.00000000000E+00  0.83676944299E+02  0.83676944299E+02  0.00000000000E+00 0.  1.
          2   -1    0    0  501    0  0.00000000000E+00 -0.00000000000E+00 -0.30202909457E+03  0.30202909457E+03  0.00000000000E+00 0. -1.
         23    2    1    2    0    0  0.98231659957E+02 -0.60592471669E+02 -0.11667677409E+03  0.20626396296E+03  0.12494177108E+03 0.  0.
          5    1    3    3  502    0  0.51460830859E+01 -0.15904154150E+02 -0.10008129644E+03  0.10157647458E+03  0.47000000000E+01 0. -1.
         -5    1    3    3    0  502  0.93085576871E+02 -0.44688317520E+02 -0.16595477648E+02  0.10468748838E+03  0.47000000000E+01 0. -1.
        -11    1    1    2    0    0 -0.38785808470E+02 -0.11706749704E+02  0.97337388702E+00  0.40525724966E+02  0.00000000000E+00 0.  1.
         11    1    1    2    0    0 -0.59445851487E+02  0.72299221373E+02 -0.10264875006E+03  0.13891635095E+03  0.00000000000E+00 0. -1.
<mgrwt>
<rscale>  0 0.16423793E+03</rscale>
<asrwt>0</asrwt>
<pdfrwt beam="2">  1        2 0.46466013E-01 0.17009219E+03</pdfrwt>
<pdfrwt beam="1">  1       -2 0.12873376E-01 0.17009219E+03</pdfrwt>
<totfact> 0.46504614E+03</totfact>
</mgrwt>
</event>
<event>
 7    1  0.6419647E-006  0.1324405E+03  0.7546771E-02  0.1238253E+00
         -2   -1    0    0    0  501 -0.00000000000E+00  0.00000000000E+00  0.59212344592E+02  0.59212344592E+02  0.00000000000E+00 0.  1.
          2   -1    0    0  501    0  0.00000000000E+00 -0.00000000000E+00 -0.23345056255E+03  0.23345056255E+03  0.00000000000E+00 0. -1.
         23    2    1    2    0    0  0.11251829481E+02 -0.42256490492E+02 -0.12680089393E+03  0.18335473345E+03  0.12501310700E+03 0.  0.
          5    1    3    3  502    0  0.18992228942E+02 -0.73273535245E+02 -0.13039196842E+03  0.15084386350E+03  0.47000000000E+01 0. -1.
         -5    1    3    3    0  502 -0.77403994612E+01  0.31017044753E+02  0.35910744858E+01  0.32510869951E+02  0.47000000000E+01 0. -1.
        -11    1    1    2    0    0 -0.10377490521E+02  0.25503964714E+02  0.23632395591E+02  0.36285460546E+02  0.00000000000E+00 0.  1.
         11    1    1    2    0    0 -0.87433896051E+00  0.16752525778E+02 -0.71069719616E+02  0.73022713143E+02  0.00000000000E+00 0. -1.
<mgrwt>
<rscale>  0 0.12298462E+03</rscale>
<asrwt>0</asrwt>
<pdfrwt beam="2">  1        2 0.35915471E-01 0.13244052E+03</pdfrwt>
<pdfrwt beam="1">  1       -2 0.91095915E-02 0.13244052E+03</pdfrwt>
<totfact> 0.10424230E+04</totfact>
</mgrwt>
</event>
<event>
 7    1  0.6966443E-006  0.1601275E+03  0.7546771E-02  0.1196501E+00
          2   -1    0    0  501    0  0.00000000000E+00  0.00000000000E+00  0.42293449957E+03  0.42293449957E+03  0.00000000000E+00 0. -1.
         -2   -1    0    0    0  501 -0.00000000000E+00 -0.00000000000E+00 -0.56589617337E+02  0.56589617337E+02  0.00000000000E+00 0.  1.
         23    2    1    2    0    0 -0.60798533565E+02  0.79497826901E+02  0.27076456419E+03  0.31456996779E+03  0.12499779698E+03 0.  0.
          5    1    3    3  502    0 -0.91789066678E+01  0.91346150242E+01 -0.12209413939E+02  0.18407968600E+02  0.47000000000E+01 0.  1.
         -5    1    3    3    0  502 -0.51619626897E+02  0.70363211877E+02  0.28297397813E+03  0.29616199919E+03  0.47000000000E+01 0.  1.
        -11    1    1    2    0    0  0.18011902931E+02 -0.58924658735E+02  0.99802911020E+02  0.11729094212E+03  0.00000000000E+00 0. -1.
         11    1    1    2    0    0  0.42786630634E+02 -0.20573168166E+02 -0.42225929831E+01  0.47663206993E+02  0.00000000000E+00 0.  1.
<mgrwt>
<rscale>  0 0.15327878E+03</rscale>
<asrwt>0</asrwt>
<pdfrwt beam="1">  1        2 0.65066844E-01 0.16012750E+03</pdfrwt>
<pdfrwt beam="2">  1       -2 0.87060952E-02 0.16012750E+03</pdfrwt>
<totfact> 0.60126633E+03</totfact>
</mgrwt>
</event>
<event>
 6    1  0.6419647E-006  0.2278959E+03  0.7546771E-02  0.1131995E+00
         -1   -1    0    0    0  501 -0.00000000000E+00  0.00000000000E+00  0.67225326705E+02  0.67225326705E+02  0.00000000000E+00 0.  1.
          1   -1    0    0  501    0  0.00000000000E+00 -0.00000000000E+00 -0.28778453488E+04  0.28778453488E+04  0.00000000000E+00 0. -1.
          5    1    1    2  502    0  0.17344877859E+03 -0.10784159913E+03 -0.22740332768E+04  0.22831915652E+04  0.47000000000E+01 0. -1.
         -5    1    1    2    0  502 -0.17930265116E+02  0.56059701510E+01 -0.42698385535E+03  0.42742276967E+03  0.47000000000E+01 0.  1.
        -11    1    1    2    0    0 -0.16521814771E+03  0.99287547953E+02 -0.11338989626E+03  0.22363434908E+03  0.00000000000E+00 0.  1.
         11    1    1    2    0    0  0.96996342421E+01  0.29480810306E+01  0.37870062707E+01  0.10821991623E+02  0.00000000000E+00 0. -1.
<mgrwt>
<rscale>  0 0.22255203E+03</rscale>
<asrwt>0</asrwt>
<pdfrwt beam="2">  1        1 0.44274547E+00 0.22789586E+03</pdfrwt>
<pdfrwt beam="1">  1       -1 0.10342357E-01 0.22789586E+03</pdfrwt>
<totfact> 0.51905512E+01</totfact>
</mgrwt>
</event>
<event>
 7    1  0.6419647E-006  0.3131356E+03  0.7546771E-02  0.1080278E+00
          2   -1    0    0  501    0  0.00000000000E+00  0.00000000000E+00  0.11268137820E+04  0.11268137820E+04  0.00000000000E+00 0. -1.
         -2   -1    0    0    0  501 -0.00000000000E+00 -0.00000000000E+00 -0.99198212355E+02  0.99198212355E+02  0.00000000000E+00 0.  1.
         23    2    1    2    0    0 -0.11558536222E+03  0.26280531654E+03  0.76386870088E+03  0.82555997681E+03  0.12500909071E+03 0.  0.
          5    1    3    3  502    0 -0.36867458641E+02  0.19585341867E+03  0.39489754872E+03  0.44236176948E+03  0.47000000000E+01 0. -1.
         -5    1    3    3    0  502 -0.78717903575E+02  0.66951897866E+02  0.36897115216E+03  0.38319820733E+03  0.47000000000E+01 0. -1.
        -11    1    1    2    0    0  0.45285537599E+02 -0.12483915924E+03  0.18216169681E+03  0.22542954416E+03  0.00000000000E+00 0. -1.
         11    1    1    2    0    0  0.70299824617E+02 -0.13796615730E+03  0.81585171918E+02  0.17502247335E+03  0.00000000000E+00 0.  1.
<mgrwt>
<rscale>  0 0.31014135E+03</rscale>
<asrwt>0</asrwt>
<pdfrwt beam="1">  1        2 0.17335596E+00 0.31313557E+03</pdfrwt>
<pdfrwt beam="2">  1       -2 0.15261264E-01 0.31313557E+03</pdfrwt>
<totfact> 0.73294330E+02</totfact>
</mgrwt>
</event>
<event>
 7    1  0.6419647E-006  0.1781492E+03  0.7546771E-02  0.1176097E+00
         -2   -1    0    0    0  501 -0.00000000000E+00  0.00000000000E+00  0.75628034624E+03  0.75628034624E+03  0.00000000000E+00 0.  1.
          2   -1    0    0  501    0  0.00000000000E+00 -0.00000000000E+00 -0.36475165341E+02  0.36475165341E+02  0.00000000000E+00 0. -1.
         23    2    1    2    0    0  0.11378561571E+03 -0.56139728029E+02  0.36842024547E+03  0.40923171639E+03  0.12505312881E+03 0.  0.
          5    1    3    3  502    0  0.16538156467E+02  0.25961005972E+02  0.17432297488E+03  0.17708211096E+03  0.47000000000E+01 0. -1.
         -5    1    3    3    0  502  0.97247459246E+02 -0.82100734001E+02  0.19409727059E+03  0.23214960543E+03  0.47000000000E+01 0. -1.
        -11    1    1    2    0    0 -0.16784504522E+01  0.32755922608E+02  0.39880254517E+02  0.51635282144E+02  0.00000000000E+00 0. -1.
         11    1    1    2    0    0 -0.11210716526E+03  0.23383805421E+02  0.31150468091E+03  0.33188851304E+03  0.00000000000E+00 0.  1.
<mgrwt>
<rscale>  0 0.17169032E+03</rscale>
<asrwt>0</asrwt>
<pdfrwt beam="2">  1        2 0.56115645E-02 0.17814915E+03</pdfrwt>
<pdfrwt beam="1">  1       -2 0.11635081E+00 0.17814915E+03</pdfrwt>
<totfact> 0.79552226E+02</totfact>
</mgrwt>
</event>
<event>
 7    1  0.6419647E-006  0.2583097E+03  0.7546771E-02  0.1110445E+00
          1   -1    0    0  501    0  0.00000000000E+00  0.00000000000E+00  0.52355364302E+03  0.52355364302E+03  0.00000000000E+00 0. -1.
         -1   -1    0    0    0  501 -0.00000000000E+00 -0.00000000000E+00 -0.13245540287E+03  0.13245540287E+03  0.00000000000E+00 0.  1.
         23    2    1    2    0    0  0.16651642294E+03  0.15286722859E+03  0.29988160844E+03  0.39579399666E+03  0.12501119959E+03 0.  0.
          5    1    3    3  502    0  0.75687932401E+02  0.71405530124E+02  0.45574984876E+02  0.11369512782E+03  0.47000000000E+01 0.  1.
         -5    1    3    3    0  502  0.90828490542E+02  0.81461698465E+02  0.25430662357E+03  0.28209886884E+03  0.47000000000E+01 0.  1.
        -11    1    1    2    0    0 -0.14304034897E+03 -0.93388334733E+02  0.96243930300E+02  0.19607349799E+03  0.00000000000E+00 0.  1.
         11    1    1    2    0    0 -0.23476073978E+02 -0.59478893856E+02 -0.50272985911E+01  0.64141551235E+02  0.00000000000E+00 0. -1.
<mgrwt>
<rscale>  0 0.25457808E+03</rscale>
<asrwt>0</asrwt>
<pdfrwt beam="1">  1        1 0.80546713E-01 0.25830971E+03</pdfrwt>
<pdfrwt beam="2">  1       -1 0.20377755E-01 0.25830971E+03</pdfrwt>
<totfact> 0.83218300E+02</totfact>
</mgrwt>
</event>
<event>
 7    1  0.6419647E-006  0.1340608E+03  0.7546771E-02  0.1243484E+00
          2   -1    0    0  501    0  0.00000000000E+00  0.00000000000E+00  0.15653306625E+03  0.15653306625E+03  0.00000000000E+00 0. -1.
         -2   -1    0    0    0  501 -0.00000000000E+00 -0.00000000000E+00 -0.97402140771E+02  0.97402140771E+02  0.00000000000E+00 0.  1.
         23    2    1    2    0    0  0.34852852303E+02 -0.33657567268E+02  0.91829421138E+02  0.16249595232E+03  0.12499895514E+03 0.  0.
          5    1    3    3  502    0  0.83994871812E+01 -0.79313321759E+02  0.44467519027E+02  0.91436342018E+02  0.47000000000E+01 0. -1.
         -5    1    3    3    0  502  0.26453365121E+02  0.45655754491E+02  0.47361902111E+02  0.71059610299E+02  0.47000000000E+01 0. -1.
        -11    1    1    2    0    0 -0.32942062331E+02  0.77676513604E+01  0.15088187089E+02  0.37056298627E+02  0.00000000000E+00 0. -1.
         11    1    1    2    0    0 -0.19107899714E+01  0.25889915907E+02 -0.47786682746E+02  0.54382956079E+02  0.00000000000E+00 0.  1.
<mgrwt>
<rscale>  0 0.11976550E+03</rscale>
<asrwt>0</asrwt>
<pdfrwt beam="1">  1        2 0.24082010E-01 0.13406078E+03</pdfrwt>
<pdfrwt beam="2">  1       -2 0.14984945E-01 0.13406078E+03</pdfrwt>
<totfact> 0.72856997E+03</totfact>
</mgrwt>
</event>
<event>
 6    1  0.6419647E-006  0.2629095E+03  0.7546771E-02  0.1146372E+00
         -2   -1    0    0    0  501 -0.00000000000E+00  0.00000000000E+00  0.20882610981E+02  0.20882610981E+02  0.00000000000E+00 0.  1.
          2   -1    0    0  501    0  0.00000000000E+00 -0.00000000000E+00 -0.20395060937E+04  0.20395060937E+04  0.00000000000E+00 0. -1.
          5    1    1    2  502    0 -0.78684104746E+02 -0.11681623515E+03 -0.11180478206E+04  0.11268940679E+04  0.47000000000E+01 0. -1.
         -5    1    1    2    0  502  0.81585171664E+02  0.87123781533E+02 -0.71429451666E+03  0.72421367018E+03  0.47000000000E+01 0.  1.
        -11    1    1    2    0    0 -0.33311319154E+02  0.47972331148E+02 -0.97244293059E+02  0.11343474367E+03  0.00000000000E+00 0.  1.
         11    1    1    2    0    0  0.30410252236E+02 -0.18279877533E+02 -0.89036852415E+02  0.95846222939E+02  0.00000000000E+00 0. -1.
<mgrwt>
<rscale>  0 0.20404320E+03</rscale>
<asrwt>0</asrwt>
<pdfrwt beam="2">  1        2 0.31377021E+00 0.26290952E+03</pdfrwt>
<pdfrwt beam="1">  1       -2 0.32127089E-02 0.26290952E+03</pdfrwt>
<totfact> 0.27060026E+03</totfact>
</mgrwt>
</event>
<event>
 7    1  0.6419647E-006  0.1350091E+03  0.7546771E-02  0.1232612E+00
         -2   -1    0    0    0  501 -0.00000000000E+00  0.00000000000E+00  0.20182353083E+03  0.20182353083E+03  0.00000000000E+00 0.  1.
          2   -1    0    0  501    0  0.00000000000E+00 -0.00000000000E+00 -0.13292790383E+03  0.13292790383E+03  0.00000000000E+00 0. -1.
         23    2    1    2    0    0 -0.50910069204E+02  0.32275987797E+01 -0.76970735848E+02  0.15540899032E+03  0.12500083022E+03 0.  0.
          5    1    3    3  502    0  0.27553861324E+02 -0.27581651905E+02  0.26523687970E+01  0.39358453423E+02  0.47000000000E+01 0.  1.
         -5    1    3    3    0  502 -0.78463930528E+02  0.30809250684E+02 -0.79623104645E+02  0.11605053690E+03  0.47000000000E+01 0.  1.
        -11    1    1    2    0    0 -0.20148116697E+02  0.27969692843E+01  0.79026158752E+02  0.81602104205E+02  0.00000000000E+00 0.  1.
         11    1    1    2    0    0  0.71058185901E+02 -0.60245680640E+01  0.66840204098E+02  0.97740340126E+02  0.00000000000E+00 0. -1.
<mgrwt>
<rscale>  0 0.12658563E+03</rscale>
<asrwt>0</asrwt>
<pdfrwt beam="2">  1        2 0.20450447E-01 0.13500911E+03</pdfrwt>
<pdfrwt beam="1">  1       -2 0.31049774E-01 0.13500911E+03</pdfrwt>
<totfact> 0.25117012E+03</totfact>
</mgrwt>
</event>
<event>
 7    1  0.6419647E-006  0.1536871E+03  0.7546771E-02  0.1205184E+00
         -2   -1    0    0    0  501 -0.00000000000E+00  0.00000000000E+00  0.10598135692E+03  0.10598135692E+03  0.00000000000E+00 0.  1.
          2   -1    0    0  501    0  0.00000000000E+00 -0.00000000000E+00 -0.18500335417E+03  0.18500335417E+03  0.00000000000E+00 0. -1.
         23    2    1    2    0    0  0.85989285429E+02 -0.24517970236E+02 -0.51176559652E+02  0.16198384907E+03  0.12499775610E+03 0.  0.
          5    1    3    3  502    0  0.11318610101E+03  0.33355126676E+00 -0.23576110352E+02  0.11571139830E+03  0.47000000000E+01 0.  1.
         -5    1    3    3    0  502 -0.27196815580E+02 -0.24851521503E+02 -0.27600449300E+02  0.46272450770E+02  0.47000000000E+01 0.  1.
        -11    1    1    2    0    0 -0.47917180304E+02 -0.70232305068E+00  0.29053625517E+02  0.56041614731E+02  0.00000000000E+00 0.  1.
         11    1    1    2    0    0 -0.38072105125E+02  0.25220293287E+02 -0.56899063113E+02  0.72959247291E+02  0.00000000000E+00 0. -1.
<mgrwt>
<rscale>  0 0.14622984E+03</rscale>
<asrwt>0</asrwt>
<pdfrwt beam="2">  1        2 0.28462054E-01 0.15368711E+03</pdfrwt>
<pdfrwt beam="1">  1       -2 0.16304824E-01 0.15368711E+03</pdfrwt>
<totfact> 0.53249548E+03</totfact>
</mgrwt>
</event>
<event>
 7    1  0.6419647E-006  0.1196993E+03  0.7546771E-02  0.1255699E+00
          2   -1    0    0  501    0  0.00000000000E+00  0.00000000000E+00  0.20648063122E+03  0.20648063122E+03  0.00000000000E+00 0. -1.
         -2   -1    0    0    0  501 -0.00000000000E+00 -0.00000000000E+00 -0.84162157082E+02  0.84162157082E+02  0.00000000000E+00 0.  1.
         23    2    1    2    0    0  0.21164653642E+02 -0.50498308899E+01  0.15072332265E+03  0.19247195140E+03  0.11770509219E+03 0.  0.
          5    1    3    3  502    0  0.53828505824E+02  0.98851915196E+01  0.14593964418E+03  0.15593490563E+03  0.47000000000E+01 0. -1.
         -5    1    3    3    0  502 -0.32663852182E+02 -0.14935022409E+02  0.47836784711E+01  0.36537045768E+02  0.47000000000E+01 0.  1.
        -11    1    1    2    0    0 -0.23728058839E+02 -0.32133970913E+02  0.13428580126E+02  0.42141898713E+02  0.00000000000E+00 0.  1.
         11    1    1    2    0    0  0.25634051971E+01  0.37183801802E+02 -0.41833428642E+02  0.56028938189E+02  0.00000000000E+00 0. -1.
<mgrwt>
<rscale>  0 0.11267254E+03</rscale>
<asrwt>0</asrwt>
<pdfrwt beam="1">  1        2 0.31766251E-01 0.11969934E+03</pdfrwt>
<pdfrwt beam="2">  1       -2 0.12948024E-01 0.11969934E+03</pdfrwt>
<totfact> 0.67696027E+03</totfact>
</mgrwt>
</event>
<event>
 7    1  0.6419647E-006  0.1704466E+03  0.7546771E-02  0.1183367E+00
          1   -1    0    0  501    0  0.00000000000E+00  0.00000000000E+00  0.22611811356E+03  0.22611811356E+03  0.00000000000E+00 0. -1.
         -1   -1    0    0    0  501 -0.00000000000E+00 -0.00000000000E+00 -0.11298310096E+03  0.11298310096E+03  0.00000000000E+00 0.  1.
         23    2    1    2    0    0  0.14113271332E+02 -0.11501446829E+03  0.54129886301E+02  0.17883536445E+03  0.12499812255E+03 0.  0.
          5    1    3    3  502    0 -0.12561695082E+02  0.23823197387E+02 -0.10561857954E+00  0.27339386832E+02  0.47000000000E+01 0. -1.
         -5    1    3    3    0  502  0.26674966415E+02 -0.13883766567E+03  0.54235504881E+02  0.15149597761E+03  0.47000000000E+01 0. -1.
        -11    1    1    2    0    0  0.80436248517E+01 -0.12497436153E+02  0.20339497515E+02  0.25190890622E+02  0.00000000000E+00 0.  1.
         11    1    1    2    0    0 -0.22156896184E+02  0.12751190444E+03  0.38665628783E+02  0.13507495946E+03  0.00000000000E+00 0. -1.
<mgrwt>
<rscale>  0 0.16481397E+03</rscale>
<asrwt>0</asrwt>
<pdfrwt beam="1">  1        1 0.34787402E-01 0.17044660E+03</pdfrwt>
<pdfrwt beam="2">  1       -1 0.17382016E-01 0.17044660E+03</pdfrwt>
<totfact> 0.31074943E+03</totfact>
</mgrwt>
</event>
<event>
 7    1  0.6419647E-006  0.1886529E+03  0.7546771E-02  0.1164406E+00
         -1   -1    0    0    0  501 -0.00000000000E+00  0.00000000000E+00  0.90283055576E+02  0.90283055576E+02  0.00000000000E+00 0.  1.
          1   -1    0    0  501    0  0.00000000000E+00 -0.00000000000E+00 -0.36374494956E+03  0.36374494956E+03  0.00000000000E+00 0. -1.
         23    2    1    2    0    0 -0.62202288118E+02 -0.12697079493E+03 -0.18044334362E+03  0.26105504150E+03  0.12489686555E+03 0.  0.
          5    1    3    3  502    0 -0.96565011643E+02 -0.95353165812E+02 -0.16002563253E+03  0.20987453579E+03  0.47000000000E+01 0. -1.
         -5    1    3    3    0  502  0.34362723526E+02 -0.31617629116E+02 -0.20417711084E+02  0.51180505712E+02  0.47000000000E+01 0. -1.
        -11    1    1    2    0    0 -0.17098980993E+02  0.48704592738E+02 -0.67473000579E+01  0.52058030724E+02  0.00000000000E+00 0.  1.
         11    1    1    2    0    0  0.79301269111E+02  0.78266202190E+02 -0.86271250303E+02  0.14091493291E+03  0.00000000000E+00 0. -1.
<mgrwt>
<rscale>  0 0.18355537E+03</rscale>
<asrwt>0</asrwt>
<pdfrwt beam="2">  1        1 0.55960763E-01 0.18865295E+03</pdfrwt>
<pdfrwt beam="1">  1       -1 0.13889701E-01 0.18865295E+03</pdfrwt>
<totfact> 0.24551531E+03</totfact>
</mgrwt>
</event>
<event>
 7    1  0.6419647E-006  0.1252636E+03  0.7546771E-02  0.1249575E+00
         -1   -1    0    0    0  501 -0.00000000000E+00  0.00000000000E+00  0.25229109991E+02  0.25229109991E+02  0.00000000000E+00 0.  1.
          1   -1    0    0  501    0  0.00000000000E+00 -0.00000000000E+00 -0.47491220236E+03  0.47491220236E+03  0.00000000000E+00 0. -1.
         23    2    1    2    0    0 -0.20514910194E+00 -0.82638489349E+01 -0.28224727018E+03  0.30879521373E+03  0.12499051648E+03 0.  0.
          5    1    3    3  502    0 -0.18664680675E+02 -0.59617051665E+02 -0.20311254656E+03  0.21255436887E+03  0.47000000000E+01 0.  1.
         -5    1    3    3    0  502  0.18459531573E+02  0.51353202730E+02 -0.79134723624E+02  0.96240844861E+02  0.47000000000E+01 0.  1.
        -11    1    1    2    0    0  0.28304622903E+02 -0.32302785615E+02 -0.85923947896E+02  0.96060118979E+02  0.00000000000E+00 0.  1.
         11    1    1    2    0    0 -0.28099473801E+02  0.40566634550E+02 -0.81511874291E+02  0.95285979646E+02  0.00000000000E+00 0. -1.
<mgrwt>
<rscale>  0 0.11615703E+03</rscale>
<asrwt>0</asrwt>
<pdfrwt beam="2">  1        1 0.73063402E-01 0.12526357E+03</pdfrwt>
<pdfrwt beam="1">  1       -1 0.38814023E-02 0.12526357E+03</pdfrwt>
<totfact> 0.11733649E+04</totfact>
</mgrwt>
</event>
<event>
 6    1  0.6419647E-006  0.3683163E+03  0.7546771E-02  0.1055339E+00
          1   -1    0    0  501    0  0.00000000000E+00  0.00000000000E+00  0.19201657524E+04  0.19201657524E+04  0.00000000000E+00 0. -1.
         -1   -1    0    0    0  501 -0.00000000000E+00 -0.00000000000E+00 -0.17662132453E+02  0.17662132453E+02  0.00000000000E+00 0.  1.
          5    1    1    2  502    0  0.64779414086E+02 -0.18915686426E+02  0.16778693941E+04  0.16792325536E+04  0.47000000000E+01 0. -1.
         -5    1    1    2    0  502  0.65020917780E+01  0.96774007397E+01  0.13323658733E+02  0.18317728150E+02  0.47000000000E+01 0.  1.
        -11    1    1    2    0    0 -0.50666288322E+02 -0.30222573862E+02  0.67080369814E+02  0.89332260452E+02  0.00000000000E+00 0.  1.
         11    1    1    2    0    0 -0.20615217543E+02  0.39460859548E+02  0.14423019730E+03  0.15094534257E+03  0.00000000000E+00 0. -1.
<mgrwt>
<rscale>  0 0.36831629E+03</rscale>
<asrwt>0</asrwt>
<pdfrwt beam="1">  1        1 0.29540995E+00 0.36831629E+03</pdfrwt>
<pdfrwt beam="2">  1       -1 0.27172527E-02 0.36831629E+03</pdfrwt>
<totfact> 0.16519109E+03</totfact>
</mgrwt>
</event>
<event>
 7    1  0.6419647E-006  0.1378415E+03  0.7546771E-02  0.1226504E+00
         -2   -1    0    0    0  501 -0.00000000000E+00  0.00000000000E+00  0.26059697182E+02  0.26059697182E+02  0.00000000000E+00 0.  1.
          2   -1    0    0  501    0  0.00000000000E+00 -0.00000000000E+00 -0.76858310167E+03  0.76858310167E+03  0.00000000000E+00 0. -1.
         23    2    1    2    0    0 -0.58074004599E+02  0.16513000149E+01 -0.58989127249E+03  0.60578212350E+03  0.12499980396E+03 0.  0.
          5    1    3    3  502    0 -0.56010942105E+02 -0.53793872963E+02 -0.41535687812E+03  0.42258068177E+03  0.47000000000E+01 0.  1.
         -5    1    3    3    0  502 -0.20630624942E+01  0.55445172978E+02 -0.17453439436E+03  0.18320144172E+03  0.47000000000E+01 0.  1.
        -11    1    1    2    0    0  0.44528791364E+02  0.30276877651E+02 -0.30469083870E+02  0.61869763638E+02  0.00000000000E+00 0. -1.
         11    1    1    2    0    0  0.13545213235E+02 -0.31928177666E+02 -0.12216304813E+03  0.12699091172E+03  0.00000000000E+00 0.  1.
<mgrwt>
<rscale>  0 0.13064384E+03</rscale>
<asrwt>0</asrwt>
<pdfrwt beam="2">  1        2 0.11824356E+00 0.13784146E+03</pdfrwt>
<pdfrwt beam="1">  1       -2 0.40091839E-02 0.13784146E+03</pdfrwt>
<totfact> 0.98215712E+03</totfact>
</mgrwt>
</event>
<event>
 7    1  0.6419647E-006  0.1714644E+03  0.7546771E-02  0.1183011E+00
         -2   -1    0    0    0  501 -0.00000000000E+00  0.00000000000E+00  0.10052338343E+03  0.10052338343E+03  0.00000000000E+00 0.  1.
          2   -1    0    0  501    0  0.00000000000E+00 -0.00000000000E+00 -0.34469948195E+03  0.34469948195E+03  0.00000000000E+00 0. -1.
         23    2    1    2    0    0 -0.49357596594E+02  0.10648500836E+03 -0.24334189521E+03  0.29768325683E+03  0.12499925635E+03 0.  0.
          5    1    3    3  502    0 -0.18998489500E+02 -0.27484764841E+02 -0.54929924015E+02  0.64465040556E+02  0.47000000000E+01 0.  1.
         -5    1    3    3    0  502 -0.30359107094E+02  0.13396977320E+03 -0.18841197119E+03  0.23321821628E+03  0.47000000000E+01 0.  1.
        -11    1    1    2    0    0  0.17161011316E+02 -0.11305782401E+03  0.34247932146E+01  0.11440411307E+03  0.00000000000E+00 0. -1.
         11    1    1    2    0    0  0.32196585277E+02  0.65728156497E+01 -0.42589965277E+01  0.33135495477E+02  0.00000000000E+00 0.  1.
<mgrwt>
<rscale>  0 0.16514138E+03</rscale>
<asrwt>0</asrwt>
<pdfrwt beam="2">  1        2 0.53030691E-01 0.17146441E+03</pdfrwt>
<pdfrwt beam="1">  1       -2 0.15465135E-01 0.17146441E+03</pdfrwt>
<totfact> 0.29945204E+03</totfact>
</mgrwt>
</event>
<event>
 7    1  0.6419647E-006  0.1307805E+03  0.7546771E-02  0.1238302E+00
          2   -1    0    0  501    0  0.00000000000E+00  0.00000000000E+00  0.95652414903E+02  0.95652414903E+02  0.00000000000E+00 0. -1.
         -2   -1    0    0    0  501 -0.00000000000E+00 -0.00000000000E+00 -0.16420563005E+03  0.16420563005E+03  0.00000000000E+00 0.  1.
         23    2    1    2    0    0 -0.35328663302E+02  0.15145582880E+02  0.97294357496E+01  0.13114186933E+03  0.12500409930E+03 0.  0.
          5    1    3    3  502    0  0.33560171530E+02  0.39604785965E+02  0.22519396095E+02  0.56780607473E+02  0.47000000000E+01 0. -1.
         -5    1    3    3    0  502 -0.68888834832E+02 -0.24459203085E+02 -0.12789960346E+02  0.74361261862E+02  0.47000000000E+01 0. -1.
        -11    1    1    2    0    0  0.28363377588E+02  0.78786873446E+01 -0.94978042555E+02  0.99435323050E+02  0.00000000000E+00 0.  1.
         11    1    1    2    0    0  0.69652857137E+01 -0.23024270225E+02  0.16695391659E+02  0.29280852568E+02  0.00000000000E+00 0. -1.
<mgrwt>
<rscale>  0 0.12295411E+03</rscale>
<asrwt>0</asrwt>
<pdfrwt beam="1">  1        2 0.14715756E-01 0.13078046E+03</pdfrwt>
<pdfrwt beam="2">  1       -2 0.25262404E-01 0.13078046E+03</pdfrwt>
<totfact> 0.52806623E+03</totfact>
</mgrwt>
</event>
<event>
 7    1  0.6419647E-006  0.1332364E+03  0.7546771E-02  0.1236162E+00
          2   -1    0    0  501    0  0.00000000000E+00  0.00000000000E+00  0.53240171700E+02  0.53240171700E+02  0.00000000000E+00 0. -1.
         -2   -1    0    0    0  501 -0.00000000000E+00 -0.00000000000E+00 -0.29591755541E+03  0.29591755541E+03  0.00000000000E+00 0.  1.
         23    2    1    2    0    0 -0.21321390936E+02  0.40089357412E+02 -0.73525865203E+02  0.15217753965E+03  0.12526049829E+03 0.  0.
          5    1    3    3  502    0 -0.33486201574E+02  0.62317586534E+02  0.34676576390E+01  0.70985364244E+02  0.47000000000E+01 0.  1.
         -5    1    3    3    0  502  0.12164810638E+02 -0.22228229122E+02 -0.76993522842E+02  0.81192175407E+02  0.47000000000E+01 0.  1.
        -11    1    1    2    0    0  0.55907821547E+02 -0.17651223215E+02 -0.11318500981E+03  0.12746802202E+03  0.00000000000E+00 0.  1.
         11    1    1    2    0    0 -0.34586430611E+02 -0.22438134197E+02 -0.55966508692E+02  0.69512165438E+02  0.00000000000E+00 0. -1.
<mgrwt>
<rscale>  0 0.12430354E+03</rscale>
<asrwt>0</asrwt>
<pdfrwt beam="1">  1        2 0.81907956E-02 0.13323645E+03</pdfrwt>
<pdfrwt beam="2">  1       -2 0.45525778E-01 0.13323645E+03</pdfrwt>
<totfact> 0.36451900E+03</totfact>
</mgrwt>
</event>
<event>
 7    1  0.6419647E-006  0.1299112E+03  0.7546771E-02  0.1238094E+00
         -3   -1    0    0    0  501 -0.00000000000E+00  0.00000000000E+00  0.20591848357E+02  0.20591848357E+02  0.00000000000E+00 0.  1.
          3   -1    0    0  501    0  0.00000000000E+00 -0.00000000000E+00 -0.80650765918E+03  0.80650765918E+03  0.00000000000E+00 0. -1.
         23    2    1    2    0    0 -0.23988886170E+02  0.26105936962E+02 -0.59843299216E+03  0.61237158447E+03  0.12497969740E+03 0.  0.
          5    1    3    3  502    0  0.34940939827E+00 -0.43072883566E+02 -0.10645125523E+03  0.11493195868E+03  0.47000000000E+01 0.  1.
         -5    1    3    3    0  502 -0.24338295568E+02  0.69178820527E+02 -0.49198173693E+03  0.49743962579E+03  0.47000000000E+01 0.  1.
        -11    1    1    2    0    0  0.61057610467E+02 -0.16077588515E+02 -0.89862871814E+02  0.10982648305E+03  0.00000000000E+00 0.  1.
         11    1    1    2    0    0 -0.37068724297E+02 -0.10028348447E+02 -0.97619946855E+02  0.10490144002E+03  0.00000000000E+00 0. -1.
<mgrwt>
<rscale>  0 0.12308429E+03</rscale>
<asrwt>0</asrwt>
<pdfrwt beam="2">  1        3 0.12407808E+00 0.12991117E+03</pdfrwt>
<pdfrwt beam="1">  1       -3 0.31679771E-02 0.12991117E+03</pdfrwt>
<totfact> 0.59059245E+02</totfact>
</mgrwt>
</event>
<event>
 7    1  0.6419647E-006  0.1664470E+03  0.7546771E-02  0.1188556E+00
          2   -1    0    0  501    0  0.00000000000E+00  0.00000000000E+00  0.30046085116E+04  0.30046085116E+04  0.00000000000E+00 0. -1.
         -2   -1    0    0    0  501 -0.00000000000E+00 -0.00000000000E+00 -0.14006980662E+02  0.14006980662E+02  0.00000000000E+00 0.  1.
         23    2    1    2    0    0  0.10470280325E+03  0.33425640510E+02  0.25520931801E+04  0.25575152409E+04  0.12499862668E+03 0.  0.
          5    1    3    3  502    0  0.82779706043E+00  0.22258862090E+02  0.15132854393E+04  0.15134566571E+04  0.47000000000E+01 0. -1.
         -5    1    3    3    0  502  0.10387500619E+03  0.11166778420E+02  0.10388077408E+04  0.10440585837E+04  0.47000000000E+01 0. -1.
        -11    1    1    2    0    0 -0.62925556688E+02 -0.58640461798E+02  0.34576655291E+03  0.35630441838E+03  0.00000000000E+00 0. -1.
         11    1    1    2    0    0 -0.41777246563E+02  0.25214821288E+02  0.92741797877E+02  0.10479583301E+03  0.00000000000E+00 0.  1.
<mgrwt>
<rscale>  0 0.16012450E+03</rscale>
<asrwt>0</asrwt>
<pdfrwt beam="1">  1        2 0.46224695E+00 0.16644701E+03</pdfrwt>
<pdfrwt beam="2">  1       -2 0.21549225E-02 0.16644701E+03</pdfrwt>
<totfact> 0.14617042E+03</totfact>
</mgrwt>
</event>
<event>
 6    1  0.6419647E-006  0.3160253E+03  0.7546771E-02  0.1123802E+00
          1   -1    0    0  501    0  0.00000000000E+00  0.00000000000E+00  0.26210726806E+03  0.26210726806E+03  0.00000000000E+00 0. -1.
         -1   -1    0    0    0  501 -0.00000000000E+00 -0.00000000000E+00 -0.51168295156E+03  0.51168295156E+03  0.00000000000E+00 0.  1.
          5    1    1    2  502    0  0.12808447757E+03  0.38411851015E+02  0.17526074847E+03  0.22049835294E+03  0.47000000000E+01 0. -1.
         -5    1    1    2    0  502 -0.11357795832E+03 -0.68045347533E+02 -0.15896773348E+02  0.13343507538E+03  0.47000000000E+01 0.  1.
        -11    1    1    2    0    0  0.88972747850E+00 -0.31781031975E+02 -0.13998590672E+03  0.14355096547E+03  0.00000000000E+00 0. -1.
         11    1    1    2    0    0 -0.15396246720E+02  0.61414528493E+02 -0.26895375191E+03  0.27630582583E+03  0.00000000000E+00 0.  1.
<mgrwt>
<rscale>  0 0.23407819E+03</rscale>
<asrwt>0</asrwt>
<pdfrwt beam="1">  1        1 0.40324195E-01 0.31602531E+03</pdfrwt>
<pdfrwt beam="2">  1       -1 0.78720454E-01 0.31602531E+03</pdfrwt>
<totfact> 0.17603475E+02</totfact>
</mgrwt>
</event>
<event>
 7    1  0.6419647E-006  0.1335926E+03  0.7546771E-02  0.1236103E+00
          2   -1    0    0  501    0  0.00000000000E+00  0.00000000000E+00  0.34518022907E+03  0.34518022907E+03  0.00000000000E+00 0. -1.
         -2   -1    0    0    0  501 -0.00000000000E+00 -0.00000000000E+00 -0.49644925772E+02  0.49644925772E+02  0.00000000000E+00 0.  1.
         23    2    1    2    0    0 -0.38144003009E+02 -0.27693182975E+02  0.25262294990E+03  0.28577148671E+03  0.12500044181E+03 0.  0.
          5    1    3    3  502    0  0.35824930887E+02  0.16898669012E+02  0.41234015926E+02  0.57370068475E+02  0.47000000000E+01 0.  1.
         -5    1    3    3    0  502 -0.73968933897E+02 -0.44591851987E+02  0.21138893397E+03  0.22840141824E+03  0.47000000000E+01 0.  1.
        -11    1    1    2    0    0  0.10801446915E+02 -0.23983144800E+02 -0.11939695818E+02  0.28886308629E+02  0.00000000000E+00 0.  1.
         11    1    1    2    0    0  0.27342556094E+02  0.51676327776E+02  0.54852049213E+02  0.80167359499E+02  0.00000000000E+00 0. -1.
<mgrwt>
<rscale>  0 0.12434097E+03</rscale>
<asrwt>0</asrwt>
<pdfrwt beam="1">  1        2 0.53104649E-01 0.13359262E+03</pdfrwt>
<pdfrwt beam="2">  1       -2 0.76376811E-02 0.13359262E+03</pdfrwt>
<totfact> 0.90482610E+03</totfact>
</mgrwt>
</event>
<event>
 7    1  0.6419647E-006  0.1386293E+03  0.7546771E-02  0.1224174E+00
          3   -1    0    0  501    0  0.00000000000E+00  0.00000000000E+00  0.13075475958E+03  0.13075475958E+03  0.00000000000E+00 0. -1.
         -3   -1    0    0    0  501 -0.00000000000E+00 -0.00000000000E+00 -0.17978440153E+03  0.17978440153E+03  0.00000000000E+00 0.  1.
         23    2    1    2    0    0 -0.59286195157E+02 -0.89086670405E+01  0.61079599041E+02  0.15148857030E+03  0.12499540883E+03 0.  0.
          5    1    3    3  502    0  0.29273211493E+02 -0.82181499532E+01  0.54467081661E+02  0.62555670282E+02  0.47000000000E+01 0.  1.
         -5    1    3    3    0  502 -0.88559406650E+02 -0.69051708728E+00  0.66125173799E+01  0.88932900021E+02  0.47000000000E+01 0.  1.
        -11    1    1    2    0    0  0.83285849098E+02  0.12019646782E+00 -0.59507505792E+02  0.10236058984E+03  0.00000000000E+00 0. -1.
         11    1    1    2    0    0 -0.23999653940E+02  0.87884705727E+01 -0.50601735199E+02  0.56690000965E+02  0.00000000000E+00 0.  1.
<mgrwt>
<rscale>  0 0.13223668E+03</rscale>
<asrwt>0</asrwt>
<pdfrwt beam="1">  1        3 0.20116117E-01 0.13862925E+03</pdfrwt>
<pdfrwt beam="2">  1       -3 0.27659139E-01 0.13862925E+03</pdfrwt>
<totfact> 0.64370037E+02</totfact>
</mgrwt>
</event>
<event>
 7    1  0.6419647E-006  0.1556502E+03  0.7546771E-02  0.1201718E+00
         -1   -1    0    0    0  501 -0.00000000000E+00  0.00000000000E+00  0.48973567696E+02  0.48973567696E+02  0.00000000000E+00 0.  1.
          1   -1    0    0  501    0  0.00000000000E+00 -0.00000000000E+00 -0.48633771647E+03  0.48633771647E+03  0.00000000000E+00 0. -1.
         23    2    1    2    0    0 -0.78067392404E+02 -0.50073586277E+02 -0.33473191233E+03  0.36915096518E+03  0.12500040063E+03 0.  0.
          5    1    3    3  502    0 -0.22200797755E+02 -0.66948389864E+02 -0.28075597737E+03  0.28951851608E+03  0.47000000000E+01 0.  1.
         -5    1    3    3    0  502 -0.55866594649E+02  0.16874803587E+02 -0.53975934967E+02  0.79632449098E+02  0.47000000000E+01 0.  1.
        -11    1    1    2    0    0  0.48807362124E+02  0.74852365974E+02 -0.54671177447E+02  0.10475673216E+03  0.00000000000E+00 0.  1.
         11    1    1    2    0    0  0.29260030280E+02 -0.24778779698E+02 -0.47961058990E+02  0.61403586823E+02  0.00000000000E+00 0. -1.
<mgrwt>
<rscale>  0 0.14899103E+03</rscale>
<asrwt>0</asrwt>
<pdfrwt beam="2">  1        1 0.74821186E-01 0.15565019E+03</pdfrwt>
<pdfrwt beam="1">  1       -1 0.75343951E-02 0.15565019E+03</pdfrwt>
<totfact> 0.43049936E+03</totfact>
</mgrwt>
</event>
<event>
 7    1  0.6419647E-006  0.1254549E+03  0.7546771E-02  0.1250099E+00
         -1   -1    0    0    0  501 -0.00000000000E+00  0.00000000000E+00  0.11397990822E+02  0.11397990822E+02  0.00000000000E+00 0.  1.
          1   -1    0    0  501    0  0.00000000000E+00 -0.00000000000E+00 -0.12501640533E+04  0.12501640533E+04  0.00000000000E+00 0. -1.
         23    2    1    2    0    0  0.47942531808E+01 -0.94911847430E+01 -0.96199755800E+03  0.97014340578E+03  0.12500343483E+03 0.  0.
          5    1    3    3  502    0  0.16499317873E+02 -0.65612407056E+02 -0.54117947216E+03  0.54541225375E+03  0.47000000000E+01 0. -1.
         -5    1    3    3    0  502 -0.11705064692E+02  0.56121222313E+02 -0.42081808584E+03  0.42473115203E+03  0.47000000000E+01 0. -1.
        -11    1    1    2    0    0  0.25527507843E+01 -0.37870738499E+02 -0.17301890279E+03  0.17713342456E+03  0.00000000000E+00 0. -1.
         11    1    1    2    0    0 -0.73470039651E+01  0.47361923242E+02 -0.10374960164E+03  0.11428521375E+03  0.00000000000E+00 0.  1.
<mgrwt>
<rscale>  0 0.11585300E+03</rscale>
<asrwt>0</asrwt>
<pdfrwt beam="2">  1        1 0.19233303E+00 0.12545488E+03</pdfrwt>
<pdfrwt beam="1">  1       -1 0.17535361E-02 0.12545488E+03</pdfrwt>
<totfact> 0.84971651E+03</totfact>
</mgrwt>
</event>
<event>
 7    1  0.6419647E-006  0.2861158E+03  0.7546771E-02  0.1094177E+00
          1   -1    0    0  501    0  0.00000000000E+00  0.00000000000E+00  0.10489969629E+04  0.10489969629E+04  0.00000000000E+00 0. -1.
         -1   -1    0    0    0  501 -0.00000000000E+00 -0.00000000000E+00 -0.75154041946E+02  0.75154041946E+02  0.00000000000E+00 0.  1.
         23    2    1    2    0    0  0.10464814433E+03 -0.23513089061E+03  0.55027464271E+03  0.62021321387E+03  0.12499791363E+03 0.  0.
          5    1    3    3  502    0  0.88614913239E+02 -0.64357477709E+02  0.27239664120E+03  0.29362647688E+03  0.47000000000E+01 0. -1.
         -5    1    3    3    0  502  0.16033231094E+02 -0.17077341290E+03  0.27787800151E+03  0.32658673698E+03  0.47000000000E+01 0. -1.
        -11    1    1    2    0    0 -0.40996089633E+02  0.99114992177E+02  0.97504215250E+02  0.14495355474E+03  0.00000000000E+00 0.  1.
         11    1    1    2    0    0 -0.63652054700E+02  0.13601589843E+03  0.32606406297E+03  0.35898423622E+03  0.00000000000E+00 0. -1.
<mgrwt>
<rscale>  0 0.28278566E+03</rscale>
<asrwt>0</asrwt>
<pdfrwt beam="1">  1        1 0.16138414E+00 0.28611580E+03</pdfrwt>
<pdfrwt beam="2">  1       -1 0.11562161E-01 0.28611580E+03</pdfrwt>
<totfact> 0.71532765E+02</totfact>
</mgrwt>
</event>
<event>
 7    1  0.6419647E-006  0.2006067E+03  0.7546771E-02  0.1153361E+00
         -1   -1    0    0    0  501 -0.00000000000E+00  0.00000000000E+00  0.72876110503E+02  0.72876110503E+02  0.00000000000E+00 0.  1.
          1   -1    0    0  501    0  0.00000000000E+00 -0.00000000000E+00 -0.85889513352E+03  0.85889513352E+03  0.00000000000E+00 0. -1.
         23    2    1    2    0    0  0.10212567497E+03  0.11912162563E+03 -0.70432638982E+03  0.73233784558E+03  0.12499376578E+03 0.  0.
          5    1    3    3  502    0  0.43677843035E+02 -0.13672115217E+02 -0.28275538233E+03  0.28647404235E+03  0.47000000000E+01 0. -1.
         -5    1    3    3    0  502  0.58447831933E+02  0.13279374084E+03 -0.42157100749E+03  0.44586380322E+03  0.47000000000E+01 0. -1.
        -11    1    1    2    0    0 -0.91902041277E+02 -0.59350520161E+02 -0.16912178695E+02  0.11070000552E+03  0.00000000000E+00 0.  1.
         11    1    1    2    0    0 -0.10223633691E+02 -0.59771105467E+02 -0.64780454497E+02  0.88733392921E+02  0.00000000000E+00 0. -1.
<mgrwt>
<rscale>  0 0.19576615E+03</rscale>
<asrwt>0</asrwt>
<pdfrwt beam="2">  1        1 0.13213771E+00 0.20060672E+03</pdfrwt>
<pdfrwt beam="1">  1       -1 0.11211709E-01 0.20060672E+03</pdfrwt>
<totfact> 0.10527857E+03</totfact>
</mgrwt>
</event>
<event>
 7    1  0.6419647E-006  0.1265608E+03  0.7546771E-02  0.1247548E+00
         -1   -1    0    0    0  501 -0.00000000000E+00  0.00000000000E+00  0.11103880129E+02  0.11103880129E+02  0.00000000000E+00 0.  1.
          1   -1    0    0  501    0  0.00000000000E+00 -0.00000000000E+00 -0.12101245240E+04  0.12101245240E+04  0.00000000000E+00 0. -1.
         23    2    1    2    0    0 -0.17797553331E+02 -0.87457213977E+01 -0.87061664978E+03  0.87976757467E+03  0.12499757611E+03 0.  0.
          5    1    3    3  502    0 -0.40721651170E+02 -0.14217899752E+02 -0.10287849887E+03  0.11165337916E+03  0.47000000000E+01 0. -1.
         -5    1    3    3    0  502  0.22924097839E+02  0.54721783544E+01 -0.76773815091E+03  0.76811419552E+03  0.47000000000E+01 0. -1.
        -11    1    1    2    0    0 -0.21914311102E+02  0.31675584037E+02 -0.22599483754E+03  0.22925367228E+03  0.00000000000E+00 0. -1.
         11    1    1    2    0    0  0.39711864434E+02 -0.22929862640E+02 -0.10240915657E+03  0.11220715720E+03  0.00000000000E+00 0.  1.
<mgrwt>
<rscale>  0 0.11734174E+03</rscale>
<asrwt>0</asrwt>
<pdfrwt beam="2">  1        1 0.18617285E+00 0.12656079E+03</pdfrwt>
<pdfrwt beam="1">  1       -1 0.17082907E-02 0.12656079E+03</pdfrwt>
<totfact> 0.93944469E+03</totfact>
</mgrwt>
</event>
<event>
 7    1  0.6419647E-006  0.1478344E+03  0.7546771E-02  0.1213254E+00
          4   -1    0    0  501    0  0.00000000000E+00  0.00000000000E+00  0.86708239811E+02  0.86708239811E+02  0.00000000000E+00 0. -1.
         -4   -1    0    0    0  501 -0.00000000000E+00 -0.00000000000E+00 -0.21145613616E+03  0.21145613616E+03  0.00000000000E+00 0.  1.
         23    2    1    2    0    0  0.78300428113E+02  0.99273889674E+01 -0.43869717259E+02  0.15420620784E+03  0.12500196939E+03 0.  0.
          5    1    3    3  502    0  0.64384078938E+02  0.39243400745E+02 -0.76803638300E+02  0.10773227455E+03  0.47000000000E+01 0.  1.
         -5    1    3    3    0  502  0.13916349174E+02 -0.29316011777E+02  0.32933921041E+02  0.46473933296E+02  0.47000000000E+01 0.  1.
        -11    1    1    2    0    0 -0.38594078412E+02  0.12662578663E+02 -0.88749064265E+02  0.97602459984E+02  0.00000000000E+00 0.  1.
         11    1    1    2    0    0 -0.39706349700E+02 -0.22589967630E+02  0.78708851768E+01  0.46355708144E+02  0.00000000000E+00 0. -1.
<mgrwt>
<rscale>  0 0.14005588E+03</rscale>
<asrwt>0</asrwt>
<pdfrwt beam="1">  1        4 0.13339729E-01 0.14783438E+03</pdfrwt>
<pdfrwt beam="2">  1       -4 0.32531713E-01 0.14783438E+03</pdfrwt>
<totfact> 0.70918465E+02</totfact>
</mgrwt>
</event>
<event>
 6    1  0.6419647E-006  0.2528669E+03  0.7546771E-02  0.1135798E+00
         -1   -1    0    0    0  501 -0.00000000000E+00  0.00000000000E+00  0.66405638788E+02  0.66405638788E+02  0.00000000000E+00 0.  1.
          1   -1    0    0  501    0  0.00000000000E+00 -0.00000000000E+00 -0.65007038549E+03  0.65007038549E+03  0.00000000000E+00 0. -1.
          5    1    1    2  502    0  0.78025759393E+02 -0.11195448135E+02 -0.18521583508E+03  0.20134635023E+03  0.47000000000E+01 0. -1.
         -5    1    1    2    0  502 -0.14998200223E+03  0.83944067849E+02 -0.29860437274E+03  0.34456910618E+03  0.47000000000E+01 0.  1.
        -11    1    1    2    0    0  0.75095560656E+02 -0.15018726016E+02 -0.76392642936E+02  0.10816996467E+03  0.00000000000E+00 0. -1.
         11    1    1    2    0    0 -0.31393178215E+01 -0.57729893698E+02 -0.23451895945E+02  0.62390603189E+02  0.00000000000E+00 0.  1.
<mgrwt>
<rscale>  0 0.21745062E+03</rscale>
<asrwt>0</asrwt>
<pdfrwt beam="2">  1        1 0.10001083E+00 0.25286695E+03</pdfrwt>
<pdfrwt beam="1">  1       -1 0.10216252E-01 0.25286695E+03</pdfrwt>
<totfact> 0.18471325E+03</totfact>
</mgrwt>
</event>
<event>
 7    1  0.6419647E-006  0.1598375E+03  0.7546771E-02  0.1196215E+00
         -1   -1    0    0    0  501 -0.00000000000E+00  0.00000000000E+00  0.45338010929E+02  0.45338010929E+02  0.00000000000E+00 0.  1.
          1   -1    0    0  501    0  0.00000000000E+00 -0.00000000000E+00 -0.15951852501E+04  0.15951852501E+04  0.00000000000E+00 0. -1.
         23    2    1    2    0    0 -0.65825728317E+02  0.74768125732E+02 -0.14781429700E+04  0.14867597911E+04  0.12499895003E+03 0.  0.
          5    1    3    3  502    0 -0.73597582058E+02  0.53633729810E+02 -0.14347650391E+04  0.14376599002E+04  0.47000000000E+01 0.  1.
         -5    1    3    3    0  502  0.77718537401E+01  0.21134395922E+02 -0.43377930881E+02  0.49099890927E+02  0.47000000000E+01 0.  1.
        -11    1    1    2    0    0  0.22620274278E+02 -0.85694841946E+02 -0.61972758433E+02  0.10814760992E+03  0.00000000000E+00 0. -1.
         11    1    1    2    0    0  0.43205454040E+02  0.10926716214E+02 -0.97315107715E+01  0.45615860048E+02  0.00000000000E+00 0.  1.
<mgrwt>
<rscale>  0 0.15351844E+03</rscale>
<asrwt>0</asrwt>
<pdfrwt beam="2">  1        1 0.24541312E+00 0.15983753E+03</pdfrwt>
<pdfrwt beam="1">  1       -1 0.69750784E-02 0.15983753E+03</pdfrwt>
<totfact> 0.66790763E+02</totfact>
</mgrwt>
</event>
<event>
 7    1  0.6419647E-006  0.1406412E+03  0.7546771E-02  0.1224353E+00
          2   -1    0    0  501    0  0.00000000000E+00  0.00000000000E+00  0.60895591482E+03  0.60895591482E+03  0.00000000000E+00 0. -1.
         -2   -1    0    0    0  501 -0.00000000000E+00 -0.00000000000E+00 -0.25767583874E+02  0.25767583874E+02  0.00000000000E+00 0.  1.
         23    2    1    2    0    0 -0.64470234385E+02 -0.69767171743E+00  0.34509236593E+03  0.37265088142E+03  0.12499216188E+03 0.  0.
          5    1    3    3  502    0 -0.35855349189E+02  0.21966749621E+01  0.34135233178E+03  0.34326947994E+03  0.47000000000E+01 0. -1.
         -5    1    3    3    0  502 -0.28614885196E+02 -0.28943466795E+01  0.37400341524E+01  0.29381401480E+02  0.47000000000E+01 0. -1.
        -11    1    1    2    0    0  0.10456235326E+02 -0.37378984828E+02  0.12708223517E+03  0.13287744677E+03  0.00000000000E+00 0. -1.
         11    1    1    2    0    0  0.54013999059E+02  0.38076656546E+02  0.11101372984E+03  0.12919517050E+03  0.00000000000E+00 0.  1.
<mgrwt>
<rscale>  0 0.13211358E+03</rscale>
<asrwt>0</asrwt>
<pdfrwt beam="1">  1        2 0.93685514E-01 0.14064117E+03</pdfrwt>
<pdfrwt beam="2">  1       -2 0.39642441E-02 0.14064117E+03</pdfrwt>
<totfact> 0.13167512E+04</totfact>
</mgrwt>
</event>
<event>
 7    1  0.6419647E-006  0.1182527E+03  0.7546771E-02  0.1254758E+00
          2   -1    0    0  501    0  0.00000000000E+00  0.00000000000E+00  0.76725528955E+03  0.76725528955E+03  0.00000000000E+00 0. -1.
         -2   -1    0    0    0  501 -0.00000000000E+00 -0.00000000000E+00 -0.20339086241E+02  0.20339086241E+02  0.00000000000E+00 0.  1.
         23    2    1    2    0    0  0.23292536860E+02 -0.21640300357E+02  0.59121359004E+03  0.60292388407E+03  0.11389844626E+03 0.  0.
          5    1    3    3  502    0 -0.14625784149E+02  0.39542933863E+01  0.77579366260E+01  0.17658583716E+02  0.47000000000E+01 0. -1.
         -5    1    3    3    0  502  0.37918321009E+02 -0.25594593743E+02  0.58345565342E+03  0.58526530036E+03  0.47000000000E+01 0.  1.
        -11    1    1    2    0    0  0.98382799398E+01  0.31388482876E+02  0.14474943111E+03  0.14843997581E+03  0.00000000000E+00 0. -1.
         11    1    1    2    0    0 -0.33130816800E+02 -0.97481825196E+01  0.10953182156E+02  0.36230515917E+02  0.00000000000E+00 0.  1.
<mgrwt>
<rscale>  0 0.11319892E+03</rscale>
<asrwt>0</asrwt>
<pdfrwt beam="1">  1        2 0.11803925E+00 0.11825270E+03</pdfrwt>
<pdfrwt beam="2">  1       -2 0.31290908E-02 0.11825270E+03</pdfrwt>
<totfact> 0.14045889E+04</totfact>
</mgrwt>
</event>
<event>
 7    1  0.6419647E-006  0.1255104E+03  0.7546771E-02  0.1248162E+00
         -2   -1    0    0    0  501 -0.00000000000E+00  0.00000000000E+00  0.13458223762E+03  0.13458223762E+03  0.00000000000E+00 0.  1.
          2   -1    0    0  501    0  0.00000000000E+00 -0.00000000000E+00 -0.13326390635E+03  0.13326390635E+03  0.00000000000E+00 0. -1.
         23    2    1    2    0    0  0.70858730549E+01 -0.86884122596E+01 -0.74997106290E+02  0.14621021360E+03  0.12500864972E+03 0.  0.
          5    1    3    3  502    0 -0.13425049160E+02  0.22264076691E+02  0.26871131860E+02  0.37683800012E+02  0.47000000000E+01 0. -1.
         -5    1    3    3    0  502  0.20510922215E+02 -0.30952488951E+02 -0.10186823815E+03  0.10852641359E+03  0.47000000000E+01 0. -1.
        -11    1    1    2    0    0  0.46315819259E+01  0.45823518058E+02  0.67491268227E+02  0.81708736652E+02  0.00000000000E+00 0.  1.
         11    1    1    2    0    0 -0.11717454981E+02 -0.37135105799E+02  0.88241693284E+01  0.39927193719E+02  0.00000000000E+00 0. -1.
<mgrwt>
<rscale>  0 0.11698130E+03</rscale>
<asrwt>0</asrwt>
<pdfrwt beam="2">  1        2 0.20502140E-01 0.12551040E+03</pdfrwt>
<pdfrwt beam="1">  1       -2 0.20704960E-01 0.12551040E+03</pdfrwt>
<totfact> 0.50680968E+03</totfact>
</mgrwt>
</event>
<event>
 7    1  0.6419647E-006  0.1375487E+03  0.7546771E-02  0.1228608E+00
          2   -1    0    0  501    0  0.00000000000E+00  0.00000000000E+00  0.50057426001E+03  0.50057426001E+03  0.00000000000E+00 0.  1.
         -2   -1    0    0    0  501 -0.00000000000E+00 -0.00000000000E+00 -0.32508169210E+02  0.32508169210E+02  0.00000000000E+00 0. -1.
         23    2    1    2    0    0  0.26786376416E+02  0.50762919223E+02  0.33562762510E+03  0.36271967000E+03  0.12500108938E+03 0.  0.
          5    1    3    3  502    0 -0.47983725017E+01  0.36568496637E+02  0.14837040718E+02  0.40031326511E+02  0.47000000000E+01 0.  1.
         -5    1    3    3    0  502  0.31584748918E+02  0.14194422586E+02  0.32079058438E+03  0.32268834349E+03  0.47000000000E+01 0.  1.
        -11    1    1    2    0    0 -0.28606226587E+02  0.52058865321E+01  0.28777097859E+01  0.29218122248E+02  0.00000000000E+00 0. -1.
         11    1    1    2    0    0  0.18198501702E+01 -0.55968805755E+02  0.12956075591E+03  0.14114463697E+03  0.00000000000E+00 0.  1.
<mgrwt>
<rscale>  0 0.12922658E+03</rscale>
<asrwt>0</asrwt>
<pdfrwt beam="1">  1        2 0.77011419E-01 0.13754874E+03</pdfrwt>
<pdfrwt beam="2">  1       -2 0.50012572E-02 0.13754874E+03</pdfrwt>
<totfact> 0.11569132E+04</totfact>
</mgrwt>
</event>
<event>
 7    1  0.6419647E-006  0.1222943E+03  0.7546771E-02  0.1251041E+00
         -1   -1    0    0    0  501 -0.00000000000E+00  0.00000000000E+00  0.24934998384E+02  0.24934998384E+02  0.00000000000E+00 0.  1.
          1   -1    0    0  501    0  0.00000000000E+00 -0.00000000000E+00 -0.48675226014E+03  0.48675226014E+03  0.00000000000E+00 0. -1.
         23    2    1    2    0    0 -0.13455028918E+02 -0.11362825602E+02 -0.28603378974E+03  0.31108073112E+03  0.12101958847E+03 0.  0.
          5    1    3    3  502    0  0.30317905864E+02 -0.39826991563E+02 -0.56467240454E+02  0.75604258593E+02  0.47000000000E+01 0. -1.
         -5    1    3    3    0  502 -0.43772934782E+02  0.28464165961E+02 -0.22956654929E+03  0.23547647253E+03  0.47000000000E+01 0.  1.
        -11    1    1    2    0    0  0.13370412577E+02 -0.35360933924E+02 -0.32355254991E+02  0.49759683540E+02  0.00000000000E+00 0.  1.
         11    1    1    2    0    0  0.84616341462E-01  0.46723759527E+02 -0.14342821703E+03  0.15084684386E+03  0.00000000000E+00 0. -1.
<mgrwt>
<rscale>  0 0.11530982E+03</rscale>
<asrwt>0</asrwt>
<pdfrwt beam="2">  1        1 0.74884955E-01 0.12229429E+03</pdfrwt>
<pdfrwt beam="1">  1       -1 0.38361540E-02 0.12229429E+03</pdfrwt>
<totfact> 0.11541938E+04</totfact>
</mgrwt>
</event>
<event>
 7    1  0.6419647E-006  0.1676885E+03  0.7546771E-02  0.1185298E+00
         -1   -1    0    0    0  501 -0.00000000000E+00  0.00000000000E+00  0.53666411777E+03  0.53666411777E+03  0.00000000000E+00 0.  1.
          1   -1    0    0  501    0  0.00000000000E+00 -0.00000000000E+00 -0.48863404370E+02  0.48863404370E+02  0.00000000000E+00 0. -1.
         23    2    1    2    0    0 -0.10433346267E+03  0.40094898297E+02  0.19966538678E+03  0.26074066592E+03  0.12500542343E+03 0.  0.
          5    1    3    3  502    0 -0.11258721392E+03  0.69054648642E+02  0.13329684432E+03  0.18770872101E+03  0.47000000000E+01 0. -1.
         -5    1    3    3    0  502  0.82537512524E+01 -0.28959750345E+02  0.66368542458E+02  0.73031944913E+02  0.47000000000E+01 0. -1.
        -11    1    1    2    0    0  0.73996680648E+02 -0.69177746858E+02  0.24218918173E+03  0.26251984526E+03  0.00000000000E+00 0.  1.
         11    1    1    2    0    0  0.30336782018E+02  0.29082848562E+02  0.45946144889E+02  0.62267010960E+02  0.00000000000E+00 0. -1.
<mgrwt>
<rscale>  0 0.16304768E+03</rscale>
<asrwt>0</asrwt>
<pdfrwt beam="2">  1        1 0.75174472E-02 0.16768849E+03</pdfrwt>
<pdfrwt beam="1">  1       -1 0.82563706E-01 0.16768849E+03</pdfrwt>
<totfact> 0.14243875E+03</totfact>
</mgrwt>
</event>
<event>
 7    1  0.6419647E-006  0.1483606E+03  0.7546771E-02  0.1212025E+00
          2   -1    0    0  501    0  0.00000000000E+00  0.00000000000E+00  0.77132385438E+03  0.77132385438E+03  0.00000000000E+00 0.  1.
         -2   -1    0    0    0  501 -0.00000000000E+00 -0.00000000000E+00 -0.24125785783E+02  0.24125785783E+02  0.00000000000E+00 0. -1.
         23    2    1    2    0    0 -0.62127313426E+02 -0.50268415544E+02  0.47400749018E+03  0.49668295544E+03  0.12499656317E+03 0.  0.
          5    1    3    3  502    0  0.26462943686E+02  0.14110357351E+01  0.23527426244E+03  0.23680867167E+03  0.47000000000E+01 0.  1.
         -5    1    3    3    0  502 -0.88590257112E+02 -0.51679451279E+02  0.23873322775E+03  0.25987428378E+03  0.47000000000E+01 0.  1.
        -11    1    1    2    0    0  0.21090116393E+02  0.14816134473E+02  0.64497225712E+01  0.26568962559E+02  0.00000000000E+00 0. -1.
         11    1    1    2    0    0  0.41037197033E+02  0.35452281070E+02  0.26674085584E+03  0.27219772216E+03  0.00000000000E+00 0.  1.
<mgrwt>
<rscale>  0 0.14097387E+03</rscale>
<asrwt>0</asrwt>
<pdfrwt beam="1">  1        2 0.11866519E+00 0.14836057E+03</pdfrwt>
<pdfrwt beam="2">  1       -2 0.37116600E-02 0.14836057E+03</pdfrwt>
<totfact> 0.11014779E+04</totfact>
</mgrwt>
</event>
<event>
 7    1  0.6419647E-006  0.1608958E+03  0.7546771E-02  0.1196082E+00
          1   -1    0    0  501    0  0.00000000000E+00  0.00000000000E+00  0.30004928253E+03  0.30004928253E+03  0.00000000000E+00 0. -1.
         -1   -1    0    0    0  501 -0.00000000000E+00 -0.00000000000E+00 -0.72550483392E+02  0.72550483392E+02  0.00000000000E+00 0.  1.
         23    2    1    2    0    0 -0.27627696890E+02 -0.97502396114E+02  0.11401368476E+03  0.19719683041E+03  0.12496984728E+03 0.  0.
          5    1    3    3  502    0  0.10265257502E+02  0.19496747311E+02 -0.79859443592E+01  0.23903221009E+02  0.47000000000E+01 0. -1.
         -5    1    3    3    0  502 -0.37892954392E+02 -0.11699914342E+03  0.12199962912E+03  0.17329360940E+03  0.47000000000E+01 0. -1.
        -11    1    1    2    0    0  0.19473672051E+01  0.88389332652E+02  0.40019447294E+02  0.97046496729E+02  0.00000000000E+00 0.  1.
         11    1    1    2    0    0  0.25680329685E+02  0.91130634619E+01  0.73465667085E+02  0.78356438783E+02  0.00000000000E+00 0. -1.
<mgrwt>
<rscale>  0 0.15363026E+03</rscale>
<asrwt>0</asrwt>
<pdfrwt beam="1">  1        1 0.46161428E-01 0.16089583E+03</pdfrwt>
<pdfrwt beam="2">  1       -1 0.11161613E-01 0.16089583E+03</pdfrwt>
<totfact> 0.43638517E+03</totfact>
</mgrwt>
</event>
<event>
 7    1  0.6419647E-006  0.1259691E+03  0.7546771E-02  0.1250247E+00
         -1   -1    0    0    0  501 -0.00000000000E+00  0.00000000000E+00  0.10966968288E+03  0.10966968288E+03  0.00000000000E+00 0.  1.
          1   -1    0    0  501    0  0.00000000000E+00 -0.00000000000E+00 -0.10671123770E+03  0.10671123770E+03  0.00000000000E+00 0. -1.
         23    2    1    2    0    0 -0.10792309142E+02  0.11279675840E+02 -0.57659359906E+01  0.12610095580E+03  0.12499800004E+03 0.  0.
          5    1    3    3  502    0 -0.45998194139E+02 -0.39973212886E+02  0.96207932401E+01  0.61873591095E+02  0.47000000000E+01 0. -1.
         -5    1    3    3    0  502  0.35205884996E+02  0.51252888726E+02 -0.15386729231E+02  0.64227364709E+02  0.47000000000E+01 0. -1.
        -11    1    1    2    0    0 -0.64988168263E+01  0.15736928469E+02  0.41233413940E+02  0.44610312294E+02  0.00000000000E+00 0.  1.
         11    1    1    2    0    0  0.17291125969E+02 -0.27016604309E+02 -0.32509032778E+02  0.45669652482E+02  0.00000000000E+00 0. -1.
<mgrwt>
<rscale>  0 0.11576744E+03</rscale>
<asrwt>0</asrwt>
<pdfrwt beam="2">  1        1 0.16417113E-01 0.12596906E+03</pdfrwt>
<pdfrwt beam="1">  1       -1 0.16872259E-01 0.12596906E+03</pdfrwt>
<totfact> 0.82542556E+03</totfact>
</mgrwt>
</event>
<event>
 7    1  0.6419647E-006  0.1598382E+03  0.7546771E-02  0.1195975E+00
          1   -1    0    0  501    0  0.00000000000E+00  0.00000000000E+00  0.21845210010E+03  0.21845210010E+03  0.00000000000E+00 0. -1.
         -1   -1    0    0    0  501 -0.00000000000E+00 -0.00000000000E+00 -0.10139024826E+03  0.10139024826E+03  0.00000000000E+00 0.  1.
         23    2    1    2    0    0 -0.44773113121E+02 -0.88981632874E+02  0.76605257940E+02  0.17724731767E+03  0.12500353367E+03 0.  0.
          5    1    3    3  502    0  0.21775187604E+02 -0.45418573746E+02  0.83120115354E+02  0.97303901324E+02  0.47000000000E+01 0.  1.
         -5    1    3    3    0  502 -0.66548300726E+02 -0.43563059128E+02 -0.65148574140E+01  0.79943416347E+02  0.47000000000E+01 0.  1.
        -11    1    1    2    0    0  0.43993157231E+02  0.20846321107E+01 -0.53408735608E+01  0.44365172203E+02  0.00000000000E+00 0.  1.
         11    1    1    2    0    0  0.77995589056E+00  0.86897000764E+02  0.45797467455E+02  0.98229858486E+02  0.00000000000E+00 0. -1.
<mgrwt>
<rscale>  0 0.15372014E+03</rscale>
<asrwt>0</asrwt>
<pdfrwt beam="1">  1        1 0.33608015E-01 0.15983819E+03</pdfrwt>
<pdfrwt beam="2">  1       -1 0.15598500E-01 0.15983819E+03</pdfrwt>
<totfact> 0.38406175E+03</totfact>
</mgrwt>
</event>
<event>
 7    1  0.6419647E-006  0.1959908E+03  0.7546771E-02  0.1158057E+00
         -2   -1    0    0    0  501 -0.00000000000E+00  0.00000000000E+00  0.97875731357E+02  0.97875731357E+02  0.00000000000E+00 0. -1.
          2   -1    0    0  501    0  0.00000000000E+00 -0.00000000000E+00 -0.38413956843E+03  0.38413956843E+03  0.00000000000E+00 0.  1.
         23    2    1    2    0    0 -0.14984371793E+03  0.18311539346E+02 -0.22123538906E+03  0.29556301952E+03  0.12499579535E+03 0.  0.
          5    1    3    3  502    0 -0.69873510609E+02 -0.26766669459E+02 -0.17966388741E+03  0.19467913221E+03  0.47000000000E+01 0. -1.
         -5    1    3    3    0  502 -0.79970207325E+02  0.45078208806E+02 -0.41571501653E+02  0.10088388731E+03  0.47000000000E+01 0. -1.
        -11    1    1    2    0    0  0.27959045048E+02 -0.41330133874E+02 -0.26885746709E+02  0.56680962784E+02  0.00000000000E+00 0.  1.
         11    1    1    2    0    0  0.12188467289E+03  0.23018594527E+02 -0.38142701301E+02  0.12977131748E+03  0.00000000000E+00 0. -1.
<mgrwt>
<rscale>  0 0.19044864E+03</rscale>
<asrwt>0</asrwt>
<pdfrwt beam="2">  1        2 0.59098394E-01 0.19599082E+03</pdfrwt>
<pdfrwt beam="1">  1       -2 0.15057805E-01 0.19599082E+03</pdfrwt>
<totfact> 0.27991599E+03</totfact>
</mgrwt>
</event>
<event>
 7    1  0.6419647E-006  0.1682798E+03  0.7546771E-02  0.1185904E+00
         -1   -1    0    0    0  501 -0.00000000000E+00  0.00000000000E+00  0.12316118507E+03  0.12316118507E+03  0.00000000000E+00 0.  1.
          1   -1    0    0  501    0  0.00000000000E+00 -0.00000000000E+00 -0.20555645622E+03  0.20555645622E+03  0.00000000000E+00 0. -1.
         23    2    1    2    0    0  0.14033931846E+02  0.11178530344E+03 -0.68679337919E+02  0.18175516360E+03  0.12500073092E+03 0.  0.
          5    1    3    3  502    0  0.49159773908E+02  0.12416872848E+01 -0.58138551408E+01  0.49740487227E+02  0.47000000000E+01 0.  1.
         -5    1    3    3    0  502 -0.35125842061E+02  0.11054361615E+03 -0.62865482778E+02  0.13201467637E+03  0.47000000000E+01 0.  1.
        -11    1    1    2    0    0  0.12486914516E+02 -0.11515248604E+03  0.22022412823E+01  0.11584846974E+03  0.00000000000E+00 0. -1.
         11    1    1    2    0    0 -0.26520846362E+02  0.33671825987E+01 -0.15918174516E+02  0.31114007944E+02  0.00000000000E+00 0.  1.
<mgrwt>
<rscale>  0 0.16249899E+03</rscale>
<asrwt>0</asrwt>
<pdfrwt beam="2">  1        1 0.31624070E-01 0.16827979E+03</pdfrwt>
<pdfrwt beam="1">  1       -1 0.18947875E-01 0.16827979E+03</pdfrwt>
<totfact> 0.30472738E+03</totfact>
</mgrwt>
</event>
<event>
 7    1  0.6419647E-006  0.1263895E+03  0.7546771E-02  0.1247059E+00
          1   -1    0    0  501    0  0.00000000000E+00  0.00000000000E+00  0.64608370958E+03  0.64608370958E+03  0.00000000000E+00 0. -1.
         -1   -1    0    0    0  501 -0.00000000000E+00 -0.00000000000E+00 -0.19281258699E+02  0.19281258699E+02  0.00000000000E+00 0.  1.
         23    2    1    2    0    0 -0.32351678461E+01  0.18417428169E+02  0.40136756163E+03  0.42079713273E+03  0.12499855764E+03 0.  0.
          5    1    3    3  502    0  0.15923694343E+02 -0.47481449856E+02  0.10330924971E+03  0.11490406084E+03  0.47000000000E+01 0.  1.
         -5    1    3    3    0  502 -0.19158862189E+02  0.65898878025E+02  0.29805831192E+03  0.30589307189E+03  0.47000000000E+01 0.  1.
        -11    1    1    2    0    0  0.36114011288E+02 -0.13067991501E+02  0.19718618958E+03  0.20089148208E+03  0.00000000000E+00 0. -1.
         11    1    1    2    0    0 -0.32878843442E+02 -0.53494366676E+01  0.28248699670E+02  0.43676353463E+02  0.00000000000E+00 0.  1.
<mgrwt>
<rscale>  0 0.11763012E+03</rscale>
<asrwt>0</asrwt>
<pdfrwt beam="1">  1        1 0.99397477E-01 0.12638951E+03</pdfrwt>
<pdfrwt beam="2">  1       -1 0.29663480E-02 0.12638951E+03</pdfrwt>
<totfact> 0.11531906E+04</totfact>
</mgrwt>
</event>
<event>
 7    1  0.6419647E-006  0.1449953E+03  0.7546771E-02  0.1217123E+00
         -1   -1    0    0    0  501 -0.00000000000E+00  0.00000000000E+00  0.16326195736E+02  0.16326195736E+02  0.00000000000E+00 0.  1.
          1   -1    0    0  501    0  0.00000000000E+00 -0.00000000000E+00 -0.41706068567E+04  0.41706068567E+04  0.00000000000E+00 0. -1.
         23    2    1    2    0    0  0.68933983989E+02  0.25440884215E+02 -0.39437638248E+04  0.39464283526E+04  0.12499801310E+03 0.  0.
          5    1    3    3  502    0 -0.11662958722E+02  0.18804249380E+02 -0.14109925099E+03  0.14290106028E+03  0.47000000000E+01 0. -1.
         -5    1    3    3    0  502  0.80596942710E+02  0.66366348351E+01 -0.38026645738E+04  0.38035272923E+04  0.47000000000E+01 0. -1.
        -11    1    1    2    0    0 -0.48388331427E+01  0.30210093427E+02 -0.43870173179E+02  0.53485102092E+02  0.00000000000E+00 0.  1.
         11    1    1    2    0    0 -0.64095150846E+02 -0.55650977642E+02 -0.16664666299E+03  0.18701959779E+03  0.00000000000E+00 0. -1.
<mgrwt>
<rscale>  0 0.13721712E+03</rscale>
<asrwt>0</asrwt>
<pdfrwt beam="2">  1        1 0.64163246E+00 0.14499530E+03</pdfrwt>
<pdfrwt beam="1">  1       -1 0.25117199E-02 0.14499530E+03</pdfrwt>
<totfact> 0.46857283E+01</totfact>
</mgrwt>
</event>
<event>
 6    1  0.6419647E-006  0.1415860E+03  0.7546771E-02  0.1224282E+00
          2   -1    0    0  501    0  0.00000000000E+00  0.00000000000E+00  0.19789924722E+03  0.19789924722E+03  0.00000000000E+00 0. -1.
         -2   -1    0    0    0  501 -0.00000000000E+00 -0.00000000000E+00 -0.10414954949E+03  0.10414954949E+03  0.00000000000E+00 0.  1.
          5    1    1    2  502    0 -0.48581329759E+02 -0.37286544434E+01  0.41878334423E+02  0.64419976398E+02  0.47000000000E+01 0. -1.
         -5    1    1    2    0  502  0.81163564352E+02 -0.44345266877E+02  0.84428108058E+02  0.12531648855E+03  0.47000000000E+01 0.  1.
        -11    1    1    2    0    0  0.24767187048E+02 -0.69417719360E+01 -0.18312736120E+02  0.31574642612E+02  0.00000000000E+00 0.  1.
         11    1    1    2    0    0 -0.57349421641E+02  0.55015693256E+02 -0.14244008630E+02  0.80737689148E+02  0.00000000000E+00 0. -1.
<mgrwt>
<rscale>  0 0.13216226E+03</rscale>
<asrwt>0</asrwt>
<pdfrwt beam="1">  1        2 0.30446038E-01 0.14158605E+03</pdfrwt>
<pdfrwt beam="2">  1       -2 0.16023008E-01 0.14158605E+03</pdfrwt>
<totfact> 0.50679594E+03</totfact>
</mgrwt>
</event>
<event>
 7    1  0.6419647E-006  0.2764498E+03  0.7546771E-02  0.1099546E+00
         -1   -1    0    0    0  501 -0.00000000000E+00  0.00000000000E+00  0.32389125404E+03  0.32389125404E+03  0.00000000000E+00 0.  1.
          1   -1    0    0  501    0  0.00000000000E+00 -0.00000000000E+00 -0.54540632638E+03  0.54540632638E+03  0.00000000000E+00 0. -1.
         23    2    1    2    0    0 -0.56280556023E+01  0.24651091443E+03 -0.44514118932E+03  0.52399919981E+03  0.12500070814E+03 0.  0.
          5    1    3    3  502    0 -0.41692843198E+02  0.62894576181E+02 -0.21160032699E+03  0.22470160050E+03  0.47000000000E+01 0.  1.
         -5    1    3    3    0  502  0.36064787596E+02  0.18361633824E+03 -0.23354086233E+03  0.29929759931E+03  0.47000000000E+01 0.  1.
        -11    1    1    2    0    0  0.29965962892E+02 -0.10963999647E+03  0.14935182926E+03  0.18768286193E+03  0.00000000000E+00 0.  1.
         11    1    1    2    0    0 -0.24337907289E+02 -0.13687091796E+03  0.74274287716E+02  0.15761551868E+03  0.00000000000E+00 0. -1.
<mgrwt>
<rscale>  0 0.27305050E+03</rscale>
<asrwt>0</asrwt>
<pdfrwt beam="2">  1        1 0.83908665E-01 0.27644978E+03</pdfrwt>
<pdfrwt beam="1">  1       -1 0.49829424E-01 0.27644978E+03</pdfrwt>
<totfact> 0.16762095E+02</totfact>
</mgrwt>
</event>
<event>
 6    1  0.6419647E-006  0.2851011E+03  0.7546771E-02  0.1136560E+00
          1   -1    0    0  501    0  0.00000000000E+00  0.00000000000E+00  0.35793094207E+03  0.35793094207E+03  0.00000000000E+00 0. -1.
         -1   -1    0    0    0  501 -0.00000000000E+00 -0.00000000000E+00 -0.15684945959E+03  0.15684945959E+03  0.00000000000E+00 0.  1.
          5    1    1    2  502    0 -0.10774961681E+03 -0.88505080096E+02  0.70153821859E+02  0.15616266470E+03  0.47000000000E+01 0. -1.
         -5    1    1    2    0  502  0.10745520397E+03  0.64290039073E+02  0.20371344268E+03  0.23916748674E+03  0.47000000000E+01 0.  1.
        -11    1    1    2    0    0 -0.42418988894E+02  0.29304531978E+02 -0.36429700513E+02  0.63128830915E+02  0.00000000000E+00 0. -1.
         11    1    1    2    0    0  0.42713401737E+02 -0.50894909558E+01 -0.36356081553E+02  0.56321419301E+02  0.00000000000E+00 0.  1.
<mgrwt>
<rscale>  0 0.21644713E+03</rscale>
<asrwt>0</asrwt>
<pdfrwt beam="1">  1        1 0.55066299E-01 0.28510112E+03</pdfrwt>
<pdfrwt beam="2">  1       -1 0.24130686E-01 0.28510112E+03</pdfrwt>
<totfact> 0.10348560E+03</totfact>
</mgrwt>
</event>
<event>
 7    1  0.6419647E-006  0.1273959E+03  0.7546771E-02  0.1245920E+00
          2   -1    0    0  501    0  0.00000000000E+00  0.00000000000E+00  0.33944862152E+03  0.33944862152E+03  0.00000000000E+00 0. -1.
         -2   -1    0    0    0  501 -0.00000000000E+00 -0.00000000000E+00 -0.54985620314E+02  0.54985620314E+02  0.00000000000E+00 0.  1.
         23    2    1    2    0    0 -0.16889933236E+02 -0.17887866867E+02  0.27006331189E+03  0.29860326829E+03  0.12499789509E+03 0.  0.
          5    1    3    3  502    0 -0.24837354586E+02  0.50344840715E+02  0.14952581427E+03  0.15978597029E+03  0.47000000000E+01 0. -1.
         -5    1    3    3    0  502  0.79474213500E+01 -0.68232707582E+02  0.12053749762E+03  0.13881729800E+03  0.47000000000E+01 0. -1.
        -11    1    1    2    0    0  0.19546465004E+02  0.45709546930E+02 -0.18155335185E+02  0.52924882337E+02  0.00000000000E+00 0.  1.
         11    1    1    2    0    0 -0.26565317677E+01 -0.27821680063E+02  0.32555024499E+02  0.42906091208E+02  0.00000000000E+00 0. -1.
<mgrwt>
<rscale>  0 0.11830507E+03</rscale>
<asrwt>0</asrwt>
<pdfrwt beam="1">  1        2 0.52222863E-01 0.12739592E+03</pdfrwt>
<pdfrwt beam="2">  1       -2 0.84593264E-02 0.12739592E+03</pdfrwt>
<totfact> 0.78402359E+03</totfact>
</mgrwt>
</event>
<event>
 7    1  0.6419647E-006  0.1375709E+03  0.7546771E-02  0.1222661E+00
         -2   -1    0    0    0  501 -0.00000000000E+00  0.00000000000E+00  0.10963331907E+02  0.10963331907E+02  0.00000000000E+00 0.  1.
          2   -1    0    0  501    0  0.00000000000E+00 -0.00000000000E+00 -0.17498897402E+04  0.17498897402E+04  0.00000000000E+00 0. -1.
         23    2    1    2    0    0  0.24800161970E+02 -0.76070795103E+02 -0.12310239193E+04  0.12386870689E+04  0.11191045819E+03 0.  0.
          5    1    3    3  502    0  0.48886010524E+02  0.59717741371E+01 -0.56920353095E+03  0.57134950228E+03  0.47000000000E+01 0. -1.
         -5    1    3    3    0  502 -0.24085848554E+02 -0.82042569240E+02 -0.66182038840E+03  0.66733756658E+03  0.47000000000E+01 0.  1.
        -11    1    1    2    0    0 -0.26872793683E+02 -0.13414235158E+02 -0.93447115283E+02  0.98155244892E+02  0.00000000000E+00 0.  1.
         11    1    1    2    0    0  0.20726317132E+01  0.89485030261E+02 -0.41445537366E+03  0.42401075835E+03  0.00000000000E+00 0. -1.
<mgrwt>
<rscale>  0 0.13328510E+03</rscale>
<asrwt>0</asrwt>
<pdfrwt beam="2">  1        2 0.26921383E+00 0.13757094E+03</pdfrwt>
<pdfrwt beam="1">  1       -2 0.16866663E-02 0.13757094E+03</pdfrwt>
<totfact> 0.97881717E+03</totfact>
</mgrwt>
</event>
<event>
 7    1  0.6419647E-006  0.1364213E+03  0.7546771E-02  0.1231415E+00
         -2   -1    0    0    0  501 -0.00000000000E+00  0.00000000000E+00  0.27392408825E+02  0.27392408825E+02  0.00000000000E+00 0.  1.
          2   -1    0    0  501    0  0.00000000000E+00 -0.00000000000E+00 -0.56022236560E+03  0.56022236560E+03  0.00000000000E+00 0. -1.
         23    2    1    2    0    0  0.20845803949E+02  0.50462190978E+02 -0.37250525968E+03  0.39670006477E+03  0.12501916909E+03 0.  0.
          5    1    3    3  502    0 -0.41621257480E+01 -0.10419241967E+02  0.52326585488E+01  0.13242152748E+02  0.47000000000E+01 0.  1.
         -5    1    3    3    0  502  0.25007929697E+02  0.60881432945E+02 -0.37773791823E+03  0.38345791202E+03  0.47000000000E+01 0.  1.
        -11    1    1    2    0    0 -0.67681651002E+01 -0.47957889690E+02 -0.16789111516E+03  0.17473749968E+03  0.00000000000E+00 0. -1.
         11    1    1    2    0    0 -0.14077638849E+02 -0.25043012874E+01  0.75664180631E+01  0.16177209982E+02  0.00000000000E+00 0.  1.
<mgrwt>
<rscale>  0 0.12736776E+03</rscale>
<asrwt>0</asrwt>
<pdfrwt beam="2">  1        2 0.86188055E-01 0.13642131E+03</pdfrwt>
<pdfrwt beam="1">  1       -2 0.42142168E-02 0.13642131E+03</pdfrwt>
<totfact> 0.13183506E+04</totfact>
</mgrwt>
</event>
<event>
 7    1  0.6419647E-006  0.1301299E+03  0.7546771E-02  0.1247643E+00
         -2   -1    0    0    0  501 -0.00000000000E+00  0.00000000000E+00  0.36806525032E+02  0.36806525032E+02  0.00000000000E+00 0. -1.
          2   -1    0    0  501    0  0.00000000000E+00 -0.00000000000E+00 -0.33657165002E+03  0.33657165002E+03  0.00000000000E+00 0.  1.
         23    2    1    2    0    0 -0.17047118385E+01 -0.36106719219E+02 -0.22302668813E+03  0.25821441459E+03  0.12500871597E+03 0.  0.
          5    1    3    3  502    0 -0.18061720098E+02  0.42198908092E+02 -0.11335406795E+03  0.12238549055E+03  0.47000000000E+01 0.  1.
         -5    1    3    3    0  502  0.16357008260E+02 -0.78305627311E+02 -0.10967262018E+03  0.13582892404E+03  0.47000000000E+01 0.  1.
        -11    1    1    2    0    0 -0.32283651312E+02 -0.40489981446E+01 -0.36741239632E+02  0.49076952001E+02  0.00000000000E+00 0.  1.
         11    1    1    2    0    0  0.33988363151E+02  0.40155717363E+02 -0.39997197227E+02  0.66086808461E+02  0.00000000000E+00 0. -1.
<mgrwt>
<rscale>  0 0.11728566E+03</rscale>
<asrwt>0</asrwt>
<pdfrwt beam="2">  1        2 0.51780252E-01 0.13012986E+03</pdfrwt>
<pdfrwt beam="1">  1       -2 0.56625425E-02 0.13012986E+03</pdfrwt>
<totfact> 0.14632080E+04</totfact>
</mgrwt>
</event>
<event>
 7    1  0.6419647E-006  0.2407597E+03  0.7546771E-02  0.1121928E+00
          3   -1    0    0  501    0  0.00000000000E+00  0.00000000000E+00  0.33745388513E+03  0.33745388513E+03  0.00000000000E+00 0.  1.
         -3   -1    0    0    0  501 -0.00000000000E+00 -0.00000000000E+00 -0.17255429559E+03  0.17255429559E+03  0.00000000000E+00 0. -1.
         23    2    1    2    0    0  0.19761130585E+03 -0.57367570706E+02  0.15098345417E+03  0.28418521977E+03  0.12499587728E+03 0.  0.
          5    1    3    3  502    0  0.34833937100E+02  0.33570445427E+02  0.82029250288E+01  0.49292554804E+02  0.47000000000E+01 0. -1.
         -5    1    3    3    0  502  0.16277736875E+03 -0.90938016133E+02  0.14278052915E+03  0.23489266497E+03  0.47000000000E+01 0. -1.
        -11    1    1    2    0    0 -0.54667666653E+02  0.61191865987E+02  0.11084434625E+02  0.82800138474E+02  0.00000000000E+00 0. -1.
         11    1    1    2    0    0 -0.14294363919E+03 -0.38242952810E+01  0.28317007357E+01  0.14302282248E+03  0.00000000000E+00 0.  1.
<mgrwt>
<rscale>  0 0.23682270E+03</rscale>
<asrwt>0</asrwt>
<pdfrwt beam="1">  1        3 0.51915982E-01 0.24075971E+03</pdfrwt>
<pdfrwt beam="2">  1       -3 0.26546815E-01 0.24075971E+03</pdfrwt>
<totfact> 0.12385057E+02</totfact>
</mgrwt>
</event>
<event>
 7    1  0.6419647E-006  0.1541625E+03  0.7546771E-02  0.1204033E+00
         -1   -1    0    0    0  501 -0.00000000000E+00  0.00000000000E+00  0.15774662627E+03  0.15774662627E+03  0.00000000000E+00 0.  1.
          1   -1    0    0  501    0  0.00000000000E+00 -0.00000000000E+00 -0.13108767901E+03  0.13108767901E+03  0.00000000000E+00 0. -1.
         23    2    1    2    0    0 -0.81500228548E+02  0.38712283724E+02  0.42530577241E+02  0.15992159488E+03  0.12500055337E+03 0.  0.
          5    1    3    3  502    0 -0.74203352438E+02 -0.19918201824E+02  0.60592311357E+02  0.97961168187E+02  0.47000000000E+01 0.  1.
         -5    1    3    3    0  502 -0.72968761098E+01  0.58630485548E+02 -0.18061734116E+02  0.61960426692E+02  0.47000000000E+01 0.  1.
        -11    1    1    2    0    0  0.47501376572E+02 -0.46485850420E+02  0.28634970173E+02  0.72369030547E+02  0.00000000000E+00 0.  1.
         11    1    1    2    0    0  0.33998851976E+02  0.77735666959E+01 -0.44506600153E+02  0.56543679859E+02  0.00000000000E+00 0. -1.
<mgrwt>
<rscale>  0 0.14713931E+03</rscale>
<asrwt>0</asrwt>
<pdfrwt beam="2">  1        1 0.20167335E-01 0.15416247E+03</pdfrwt>
<pdfrwt beam="1">  1       -1 0.24268712E-01 0.15416247E+03</pdfrwt>
<totfact> 0.35807480E+03</totfact>
</mgrwt>
</event>
<event>
 7    1  0.6419647E-006  0.1646765E+03  0.7546771E-02  0.1190596E+00
          4   -1    0    0  501    0  0.00000000000E+00  0.00000000000E+00  0.70943065317E+02  0.70943065317E+02  0.00000000000E+00 0. -1.
         -4   -1    0    0    0  501 -0.00000000000E+00 -0.00000000000E+00 -0.34228573446E+03  0.34228573446E+03  0.00000000000E+00 0.  1.
         23    2    1    2    0    0  0.29365024634E+02 -0.10310325989E+03 -0.10480036379E+03  0.19519593255E+03  0.12500299581E+03 0.  0.
          5    1    3    3  502    0 -0.28236030554E+02 -0.10216884449E+03 -0.58665378095E+02  0.12124134110E+03  0.47000000000E+01 0.  1.
         -5    1    3    3    0  502  0.57601055188E+02 -0.93441540507E+00 -0.46134985698E+02  0.73954591448E+02  0.47000000000E+01 0.  1.
        -11    1    1    2    0    0 -0.64304982552E+01  0.55197407390E+02 -0.15363211134E+03  0.16337359250E+03  0.00000000000E+00 0.  1.
         11    1    1    2    0    0 -0.22934526379E+02  0.47905852502E+02 -0.12910194004E+02  0.54659274724E+02  0.00000000000E+00 0. -1.
<mgrwt>
<rscale>  0 0.15832965E+03</rscale>
<asrwt>0</asrwt>
<pdfrwt beam="1">  1        4 0.10914318E-01 0.16467646E+03</pdfrwt>
<pdfrwt beam="2">  1       -4 0.52659342E-01 0.16467646E+03</pdfrwt>
<totfact> 0.39251159E+02</totfact>
</mgrwt>
</event>
<event>
 7    1  0.6419647E-006  0.1747241E+03  0.7546771E-02  0.1179139E+00
          2   -1    0    0  501    0  0.00000000000E+00  0.00000000000E+00  0.21195309964E+03  0.21195309964E+03  0.00000000000E+00 0. -1.
         -2   -1    0    0    0  501 -0.00000000000E+00 -0.00000000000E+00 -0.12762890391E+03  0.12762890391E+03  0.00000000000E+00 0.  1.
         23    2    1    2    0    0 -0.62698384929E+02  0.10474593592E+03  0.64291604556E+02  0.18617711081E+03  0.12500283040E+03 0.  0.
          5    1    3    3  502    0 -0.33547866748E+01  0.28460192579E+02 -0.36375003675E+02  0.46545333253E+02  0.47000000000E+01 0. -1.
         -5    1    3    3    0  502 -0.59343598254E+02  0.76285743341E+02  0.10066660823E+03  0.13963177756E+03  0.47000000000E+01 0. -1.
        -11    1    1    2    0    0  0.48849331034E+02 -0.51538644749E+01  0.19509932844E+02  0.52853163964E+02  0.00000000000E+00 0. -1.
         11    1    1    2    0    0  0.13849053895E+02 -0.99592071445E+02  0.52265832560E+00  0.10055172878E+03  0.00000000000E+00 0.  1.
<mgrwt>
<rscale>  0 0.16876822E+03</rscale>
<asrwt>0</asrwt>
<pdfrwt beam="1">  1        2 0.32608169E-01 0.17472409E+03</pdfrwt>
<pdfrwt beam="2">  1       -2 0.19635216E-01 0.17472409E+03</pdfrwt>
<totfact> 0.33868467E+03</totfact>
</mgrwt>
</event>
<event>
 7    1  0.6419647E-006  0.1570729E+03  0.7546771E-02  0.1201006E+00
          2   -1    0    0  501    0  0.00000000000E+00  0.00000000000E+00  0.31777378275E+02  0.31777378275E+02  0.00000000000E+00 0. -1.
         -2   -1    0    0    0  501 -0.00000000000E+00 -0.00000000000E+00 -0.68630817076E+03  0.68630817076E+03  0.00000000000E+00 0.  1.
         23    2    1    2    0    0 -0.95090442123E+02  0.14402263233E+01 -0.26897494103E+03  0.31147941272E+03  0.12501055639E+03 0.  0.
          5    1    3    3  502    0  0.13673474305E+02 -0.36882554894E+02 -0.48499052030E+02  0.62622159041E+02  0.47000000000E+01 0. -1.
         -5    1    3    3    0  502 -0.10876391643E+03  0.38322781218E+02 -0.22047588900E+03  0.24885725368E+03  0.47000000000E+01 0. -1.
        -11    1    1    2    0    0  0.15393961975E+02 -0.26940127100E+02 -0.37694787600E+02  0.48822551405E+02  0.00000000000E+00 0. -1.
         11    1    1    2    0    0  0.79696480149E+02  0.25499900776E+02 -0.34786106386E+03  0.35778358492E+03  0.00000000000E+00 0.  1.
<mgrwt>
<rscale>  0 0.14956673E+03</rscale>
<asrwt>0</asrwt>
<pdfrwt beam="1">  1        2 0.48888277E-02 0.15707293E+03</pdfrwt>
<pdfrwt beam="2">  1       -2 0.10558587E+00 0.15707293E+03</pdfrwt>
<totfact> 0.11922698E+03</totfact>
</mgrwt>
</event>
<event>
 7    1  0.6419647E-006  0.1764372E+03  0.7546771E-02  0.1177369E+00
         -2   -1    0    0    0  501 -0.00000000000E+00  0.00000000000E+00  0.29289965370E+02  0.29289965370E+02  0.00000000000E+00 0. -1.
          2   -1    0    0  501    0  0.00000000000E+00 -0.00000000000E+00 -0.98556483852E+03  0.98556483852E+03  0.00000000000E+00 0.  1.
         23    2    1    2    0    0  0.12431937966E+03  0.71191606675E+01 -0.62903290119E+03  0.65330886019E+03  0.12499634160E+03 0.  0.
          5    1    3    3  502    0  0.10253981276E+03  0.58026642393E+02 -0.36810771270E+03  0.38653186489E+03  0.47000000000E+01 0.  1.
         -5    1    3    3    0  502  0.21779566901E+02 -0.50907481725E+02 -0.26092518849E+03  0.26677699530E+03  0.47000000000E+01 0.  1.
        -11    1    1    2    0    0 -0.52276551167E+02 -0.39868544506E+02 -0.21035121672E+03  0.22038596375E+03  0.00000000000E+00 0. -1.
         11    1    1    2    0    0 -0.72042828493E+02  0.32749383839E+02 -0.11689075524E+03  0.14115997995E+03  0.00000000000E+00 0.  1.
<mgrwt>
<rscale>  0 0.17045954E+03</rscale>
<asrwt>0</asrwt>
<pdfrwt beam="2">  1        2 0.15162536E+00 0.17643717E+03</pdfrwt>
<pdfrwt beam="1">  1       -2 0.45061486E-02 0.17643717E+03</pdfrwt>
<totfact> 0.60448986E+03</totfact>
</mgrwt>
</event>
<event>
 7    1  0.6419647E-006  0.1446538E+03  0.7546771E-02  0.1218614E+00
          1   -1    0    0  501    0  0.00000000000E+00  0.00000000000E+00  0.17457828795E+03  0.17457828795E+03  0.00000000000E+00 0. -1.
         -1   -1    0    0    0  501 -0.00000000000E+00 -0.00000000000E+00 -0.96383572049E+02  0.96383572049E+02  0.00000000000E+00 0.  1.
         23    2    1    2    0    0 -0.72760981191E+02  0.26242947478E+01  0.57107350764E+02  0.15551835938E+03  0.12499465303E+03 0.  0.
          5    1    3    3  502    0 -0.80196934358E+02  0.38723873434E+02  0.21838491486E+01  0.89207319493E+02  0.47000000000E+01 0. -1.
         -5    1    3    3    0  502  0.74359531666E+01 -0.36099578686E+02  0.54923501615E+02  0.66311039884E+02  0.47000000000E+01 0. -1.
        -11    1    1    2    0    0  0.45941019235E+02  0.41130221994E+02  0.16987564908E+02  0.63959751181E+02  0.00000000000E+00 0. -1.
         11    1    1    2    0    0  0.26819961956E+02 -0.43754516742E+02  0.40998002288E+01  0.51483749441E+02  0.00000000000E+00 0.  1.
<mgrwt>
<rscale>  0 0.13614366E+03</rscale>
<asrwt>0</asrwt>
<pdfrwt beam="1">  1        1 0.26858198E-01 0.14465376E+03</pdfrwt>
<pdfrwt beam="2">  1       -1 0.14828242E-01 0.14465376E+03</pdfrwt>
<totfact> 0.54713917E+03</totfact>
</mgrwt>
</event>
<event>
 7    1  0.6419647E-006  0.1229997E+03  0.7546771E-02  0.1247699E+00
         -1   -1    0    0    0  501 -0.00000000000E+00  0.00000000000E+00  0.24440196865E+02  0.24440196865E+02  0.00000000000E+00 0.  1.
          1   -1    0    0  501    0  0.00000000000E+00 -0.00000000000E+00 -0.51626672697E+03  0.51626672697E+03  0.00000000000E+00 0. -1.
         23    2    1    2    0    0 -0.41304824841E+02 -0.15374862516E+02 -0.26205091232E+03  0.28948161149E+03  0.11483225938E+03 0.  0.
          5    1    3    3  502    0 -0.57711713219E+01  0.43845702246E+02 -0.52562124928E+02  0.68852153204E+02  0.47000000000E+01 0. -1.
         -5    1    3    3    0  502 -0.35533653519E+02 -0.59220564763E+02 -0.20948878739E+03  0.22062945829E+03  0.47000000000E+01 0.  1.
        -11    1    1    2    0    0 -0.99915447048E+01  0.41188031767E+02 -0.75101631360E+02  0.86235375336E+02  0.00000000000E+00 0.  1.
         11    1    1    2    0    0  0.51296369546E+02 -0.25813169251E+02 -0.15467398643E+03  0.16498993701E+03  0.00000000000E+00 0. -1.
<mgrwt>
<rscale>  0 0.11725298E+03</rscale>
<asrwt>0</asrwt>
<pdfrwt beam="2">  1        1 0.79425649E-01 0.12299969E+03</pdfrwt>
<pdfrwt beam="1">  1       -1 0.37600303E-02 0.12299969E+03</pdfrwt>
<totfact> 0.11014358E+04</totfact>
</mgrwt>
</event>
<event>
 7    1  0.6419647E-006  0.3648191E+03  0.7546771E-02  0.1057948E+00
         -2   -1    0    0    0  501 -0.00000000000E+00  0.00000000000E+00  0.16460217803E+03  0.16460217803E+03  0.00000000000E+00 0.  1.
          2   -1    0    0  501    0  0.00000000000E+00 -0.00000000000E+00 -0.78074456140E+03  0.78074456140E+03  0.00000000000E+00 0. -1.
         23    2    1    2    0    0 -0.23871866011E+03  0.24592804521E+03 -0.31334155950E+03  0.48091155532E+03  0.12500315606E+03 0.  0.
          5    1    3    3  502    0 -0.21145987852E+03  0.23501271360E+03 -0.22599356328E+03  0.38864049766E+03  0.47000000000E+01 0. -1.
         -5    1    3    3    0  502 -0.27258781596E+02  0.10915331604E+02 -0.87347996219E+02  0.92271057659E+02  0.47000000000E+01 0. -1.
        -11    1    1    2    0    0  0.71909478993E+02 -0.69665746130E+02 -0.14034650285E+03  0.17239904355E+03  0.00000000000E+00 0. -1.
         11    1    1    2    0    0  0.16680918112E+03 -0.17626229908E+03 -0.16245432102E+03  0.29203614057E+03  0.00000000000E+00 0.  1.
<mgrwt>
<rscale>  0 0.36161050E+03</rscale>
<asrwt>0</asrwt>
<pdfrwt beam="2">  1        2 0.12011455E+00 0.36481912E+03</pdfrwt>
<pdfrwt beam="1">  1       -2 0.25323412E-01 0.36481912E+03</pdfrwt>
<totfact> 0.50843419E+02</totfact>
</mgrwt>
</event>
<event>
 7    1  0.6419647E-006  0.1693326E+03  0.7546771E-02  0.1186213E+00
          2   -1    0    0  501    0  0.00000000000E+00  0.00000000000E+00  0.92142379325E+02  0.92142379325E+02  0.00000000000E+00 0. -1.
         -2   -1    0    0    0  501 -0.00000000000E+00 -0.00000000000E+00 -0.26948672898E+03  0.26948672898E+03  0.00000000000E+00 0.  1.
         23    2    1    2    0    0  0.91552636754E+02 -0.68319319582E+02 -0.70499821134E+02  0.18342235305E+03  0.12499648032E+03 0.  0.
          5    1    3    3  502    0  0.10370384948E+03 -0.43082014980E+02 -0.94028916081E+02  0.14654035441E+03  0.47000000000E+01 0.  1.
         -5    1    3    3    0  502 -0.12151212728E+02 -0.25237304602E+02  0.23529094948E+02  0.36881998636E+02  0.47000000000E+01 0.  1.
        -11    1    1    2    0    0  0.72207239612E+01  0.26985664088E+02 -0.49263912052E+02  0.56633011146E+02  0.00000000000E+00 0. -1.
         11    1    1    2    0    0 -0.98773360715E+02  0.41333655494E+02 -0.57580616467E+02  0.12157374411E+03  0.00000000000E+00 0.  1.
<mgrwt>
<rscale>  0 0.16222000E+03</rscale>
<asrwt>0</asrwt>
<pdfrwt beam="1">  1        2 0.14175751E-01 0.16933262E+03</pdfrwt>
<pdfrwt beam="2">  1       -2 0.41459496E-01 0.16933262E+03</pdfrwt>
<totfact> 0.22657211E+03</totfact>
</mgrwt>
</event>
<event>
 7    1  0.6419647E-006  0.1344161E+03  0.7546771E-02  0.1233878E+00
         -2   -1    0    0    0  501 -0.00000000000E+00  0.00000000000E+00  0.89034933131E+02  0.89034933131E+02  0.00000000000E+00 0.  1.
          2   -1    0    0  501    0  0.00000000000E+00 -0.00000000000E+00 -0.23263700042E+03  0.23263700042E+03  0.00000000000E+00 0. -1.
         23    2    1    2    0    0  0.39158520878E+02 -0.30149599792E+02 -0.16864458568E+03  0.21565875075E+03  0.12500124948E+03 0.  0.
          5    1    3    3  502    0 -0.16247284764E+02 -0.65913731475E+02 -0.78912801966E+02  0.10420131752E+03  0.47000000000E+01 0. -1.
         -5    1    3    3    0  502  0.55405805642E+02  0.35764131683E+02 -0.89731783715E+02  0.11145743323E+03  0.47000000000E+01 0. -1.
        -11    1    1    2    0    0 -0.35353111762E+02 -0.27694427760E+02  0.82467521447E+01  0.45659968913E+02  0.00000000000E+00 0.  1.
         11    1    1    2    0    0 -0.38054091162E+01  0.57844027552E+02  0.16795766251E+02  0.60353213882E+02  0.00000000000E+00 0. -1.
<mgrwt>
<rscale>  0 0.12576550E+03</rscale>
<asrwt>0</asrwt>
<pdfrwt beam="2">  1        2 0.35790308E-01 0.13441615E+03</pdfrwt>
<pdfrwt beam="1">  1       -2 0.13697682E-01 0.13441615E+03</pdfrwt>
<totfact> 0.54836862E+03</totfact>
</mgrwt>
</event>
<event>
 7    1  0.6419647E-006  0.1252844E+03  0.7546771E-02  0.1250023E+00
          2   -1    0    0  501    0  0.00000000000E+00  0.00000000000E+00  0.23688125798E+03  0.23688125798E+03  0.00000000000E+00 0. -1.
         -2   -1    0    0    0  501 -0.00000000000E+00 -0.00000000000E+00 -0.51061549899E+02  0.51061549899E+02  0.00000000000E+00 0.  1.
         23    2    1    2    0    0 -0.10327372372E+02 -0.14794749751E+00  0.13002179462E+03  0.18055985134E+03  0.12485798466E+03 0.  0.
          5    1    3    3  502    0 -0.23261889816E+02 -0.21621353022E+02 -0.13472448632E+02  0.34816595130E+02  0.47000000000E+01 0. -1.
         -5    1    3    3    0  502  0.12934517444E+02  0.21473405525E+02  0.14349424325E+03  0.14574325621E+03  0.47000000000E+01 0. -1.
        -11    1    1    2    0    0  0.84795990521E+01 -0.23171539799E+02 -0.17625635977E+02  0.30323042399E+02  0.00000000000E+00 0.  1.
         11    1    1    2    0    0  0.18477733199E+01  0.23319487297E+02  0.73423549439E+02  0.77059914133E+02  0.00000000000E+00 0. -1.
<mgrwt>
<rscale>  0 0.11589695E+03</rscale>
<asrwt>0</asrwt>
<pdfrwt beam="1">  1        2 0.36443270E-01 0.12528445E+03</pdfrwt>
<pdfrwt beam="2">  1       -2 0.78556232E-02 0.12528445E+03</pdfrwt>
<totfact> 0.12849344E+04</totfact>
</mgrwt>
</event>
<event>
 7    1  0.6419647E-006  0.1431322E+03  0.7546771E-02  0.1220063E+00
          2   -1    0    0  501    0  0.00000000000E+00  0.00000000000E+00  0.28324477520E+03  0.28324477520E+03  0.00000000000E+00 0. -1.
         -2   -1    0    0    0  501 -0.00000000000E+00 -0.00000000000E+00 -0.62717104452E+02  0.62717104452E+02  0.00000000000E+00 0.  1.
         23    2    1    2    0    0 -0.38320665105E+02  0.58523936769E+02  0.16817378140E+03  0.22083761711E+03  0.12487316698E+03 0.  0.
          5    1    3    3  502    0  0.21113231721E+02 -0.46714975016E+01  0.11893218942E+03  0.12097333228E+03  0.47000000000E+01 0. -1.
         -5    1    3    3    0  502 -0.59433896826E+02  0.63195434271E+02  0.49241591986E+02  0.99864284837E+02  0.47000000000E+01 0. -1.
        -11    1    1    2    0    0  0.22158621316E+02 -0.74844619869E+02  0.12394508853E+02  0.79033824858E+02  0.00000000000E+00 0.  1.
         11    1    1    2    0    0  0.16162043788E+02  0.16320683100E+02  0.39959380489E+02  0.46090437678E+02  0.00000000000E+00 0. -1.
<mgrwt>
<rscale>  0 0.13511093E+03</rscale>
<asrwt>0</asrwt>
<pdfrwt beam="1">  1        2 0.43576118E-01 0.14313222E+03</pdfrwt>
<pdfrwt beam="2">  1       -2 0.96487855E-02 0.14313222E+03</pdfrwt>
<totfact> 0.77989663E+03</totfact>
</mgrwt>
</event>
<event>
 7    1  0.6419647E-006  0.1769911E+03  0.7546771E-02  0.1174426E+00
          2   -1    0    0  501    0  0.00000000000E+00  0.00000000000E+00  0.36588901192E+03  0.36588901192E+03  0.00000000000E+00 0.  1.
         -2   -1    0    0    0  501 -0.00000000000E+00 -0.00000000000E+00 -0.80979171015E+02  0.80979171015E+02  0.00000000000E+00 0. -1.
         23    2    1    2    0    0  0.90548634508E+02  0.86718708907E+02  0.18426184731E+03  0.25549612510E+03  0.12492658596E+03 0.  0.
          5    1    3    3  502    0  0.47116947128E+02  0.94506727312E+02  0.55681150228E+02  0.11947388294E+03  0.47000000000E+01 0. -1.
         -5    1    3    3    0  502  0.43431687380E+02 -0.77880184048E+01  0.12858069708E+03  0.13602224216E+03  0.47000000000E+01 0. -1.
        -11    1    1    2    0    0 -0.16646835706E+02  0.23126146247E+02  0.74044450213E+01  0.29440814957E+02  0.00000000000E+00 0.  1.
         11    1    1    2    0    0 -0.73901798802E+02 -0.10984485515E+03  0.93243548570E+02  0.16193124288E+03  0.00000000000E+00 0. -1.
<mgrwt>
<rscale>  0 0.17332269E+03</rscale>
<asrwt>0</asrwt>
<pdfrwt beam="1">  1        2 0.56290617E-01 0.17699108E+03</pdfrwt>
<pdfrwt beam="2">  1       -2 0.12458334E-01 0.17699108E+03</pdfrwt>
<totfact> 0.40010802E+03</totfact>
</mgrwt>
</event>
<event>
 7    1  0.6419647E-006  0.1554977E+03  0.7546771E-02  0.1202473E+00
          2   -1    0    0  501    0  0.00000000000E+00  0.00000000000E+00  0.91420905642E+03  0.91420905642E+03  0.00000000000E+00 0. -1.
         -2   -1    0    0    0  501 -0.00000000000E+00 -0.00000000000E+00 -0.26725729028E+02  0.26725729028E+02  0.00000000000E+00 0.  1.
         23    2    1    2    0    0  0.82999328864E+02  0.40829206800E+02  0.67257114217E+03  0.69031259931E+03  0.12499452298E+03 0.  0.
          5    1    3    3  502    0 -0.24254744341E+02  0.20208105544E+02  0.30947703094E+03  0.31111859930E+03  0.47000000000E+01 0. -1.
         -5    1    3    3    0  502  0.10725407320E+03  0.20621101256E+02  0.36309411123E+03  0.37919400001E+03  0.47000000000E+01 0. -1.
        -11    1    1    2    0    0  0.17257035253E+02  0.29442907548E+01  0.47629032050E+02  0.50744446079E+02  0.00000000000E+00 0.  1.
         11    1    1    2    0    0 -0.10025636412E+03 -0.43773497555E+02  0.16728315317E+03  0.19987774006E+03  0.00000000000E+00 0. -1.
<mgrwt>
<rscale>  0 0.14838354E+03</rscale>
<asrwt>0</asrwt>
<pdfrwt beam="1">  1        2 0.14064752E+00 0.15549773E+03</pdfrwt>
<pdfrwt beam="2">  1       -2 0.41116513E-02 0.15549773E+03</pdfrwt>
<totfact> 0.76348801E+03</totfact>
</mgrwt>
</event>
<event>
 7    1  0.6419647E-006  0.1807176E+03  0.7546771E-02  0.1172208E+00
         -2   -1    0    0    0  501 -0.00000000000E+00  0.00000000000E+00  0.26491725568E+02  0.26491725568E+02  0.00000000000E+00 0.  1.
          2   -1    0    0  501    0  0.00000000000E+00 -0.00000000000E+00 -0.11168724290E+04  0.11168724290E+04  0.00000000000E+00 0. -1.
         23    2    1    2    0    0  0.93015324978E+02  0.91591395251E+02 -0.50798072984E+03  0.53916905561E+03  0.12497205396E+03 0.  0.
          5    1    3    3  502    0  0.47909723594E+02  0.91711200634E+02 -0.46599535327E+03  0.47736783009E+03  0.47000000000E+01 0.  1.
         -5    1    3    3    0  502  0.45105601384E+02 -0.11980538332E+00 -0.41985376573E+02  0.61801225518E+02  0.47000000000E+01 0.  1.
        -11    1    1    2    0    0 -0.51118740741E+02 -0.40850449997E+01 -0.10280684051E+03  0.11488716074E+03  0.00000000000E+00 0.  1.
         11    1    1    2    0    0 -0.41896584237E+02 -0.87506350251E+02 -0.47959313304E+03  0.48930793818E+03  0.00000000000E+00 0. -1.
<mgrwt>
<rscale>  0 0.17552261E+03</rscale>
<asrwt>0</asrwt>
<pdfrwt beam="2">  1        2 0.17182652E+00 0.18071759E+03</pdfrwt>
<pdfrwt beam="1">  1       -2 0.40756502E-02 0.18071759E+03</pdfrwt>
<totfact> 0.58826073E+03</totfact>
</mgrwt>
</event>
<event>
 7    1  0.6419647E-006  0.1324821E+03  0.7546771E-02  0.1235743E+00
          4   -1    0    0  501    0  0.00000000000E+00  0.00000000000E+00  0.34451906563E+02  0.34451906563E+02  0.00000000000E+00 0.  1.
         -4   -1    0    0    0  501 -0.00000000000E+00 -0.00000000000E+00 -0.42858755868E+03  0.42858755868E+03  0.00000000000E+00 0. -1.
         23    2    1    2    0    0  0.26205850104E+02  0.35224967715E+02 -0.16511910850E+03  0.21169746732E+03  0.12499581093E+03 0.  0.
          5    1    3    3  502    0  0.35063246947E+02  0.76483007620E+02 -0.13676304034E+03  0.16064028431E+03  0.47000000000E+01 0.  1.
         -5    1    3    3    0  502 -0.88573968425E+01 -0.41258039905E+02 -0.28356068161E+02  0.51057183012E+02  0.47000000000E+01 0.  1.
        -11    1    1    2    0    0  0.80455212660E+01 -0.47874671015E+02 -0.19663496383E+03  0.20253894326E+03  0.00000000000E+00 0. -1.
         11    1    1    2    0    0 -0.34251371370E+02  0.12649703300E+02 -0.32381579790E+02  0.48803054659E+02  0.00000000000E+00 0.  1.
<mgrwt>
<rscale>  0 0.12457002E+03</rscale>
<asrwt>0</asrwt>
<pdfrwt beam="1">  1        4 0.53002933E-02 0.13248207E+03</pdfrwt>
<pdfrwt beam="2">  1       -4 0.65936548E-01 0.13248207E+03</pdfrwt>
<totfact> 0.77680667E+02</totfact>
</mgrwt>
</event>
<event>
 7    1  0.6419647E-006  0.1366412E+03  0.7546771E-02  0.1229149E+00
         -3   -1    0    0    0  501 -0.00000000000E+00  0.00000000000E+00  0.12856430317E+03  0.12856430317E+03  0.00000000000E+00 0.  1.
          3   -1    0    0  501    0  0.00000000000E+00 -0.00000000000E+00 -0.12248810472E+03  0.12248810472E+03  0.00000000000E+00 0. -1.
         23    2    1    2    0    0  0.29505935816E+02 -0.46641661505E+02 -0.24267446614E+02  0.13877946180E+03  0.12499914086E+03 0.  0.
          5    1    3    3  502    0  0.45159643325E+02 -0.83284720370E+02 -0.70501390681E+01  0.95118518140E+02  0.47000000000E+01 0. -1.
         -5    1    3    3    0  502 -0.15653707509E+02  0.36643058866E+02 -0.17217307545E+02  0.43660943656E+02  0.47000000000E+01 0. -1.
        -11    1    1    2    0    0 -0.20038077120E+02 -0.24933889459E+02 -0.41523368031E+01  0.32256244033E+02  0.00000000000E+00 0. -1.
         11    1    1    2    0    0 -0.94678586961E+01  0.71575550963E+02  0.34495981864E+02  0.80016702061E+02  0.00000000000E+00 0.  1.
<mgrwt>
<rscale>  0 0.12886575E+03</rscale>
<asrwt>0</asrwt>
<pdfrwt beam="2">  1        3 0.18844324E-01 0.13664125E+03</pdfrwt>
<pdfrwt beam="1">  1       -3 0.19779124E-01 0.13664125E+03</pdfrwt>
<totfact> 0.13143928E+03</totfact>
</mgrwt>
</event>
<event>
 7    1  0.6419647E-006  0.1560584E+03  0.7546771E-02  0.1201807E+00
         -1   -1    0    0    0  501 -0.00000000000E+00  0.00000000000E+00  0.36698097318E+03  0.36698097318E+03  0.00000000000E+00 0.  1.
          1   -1    0    0  501    0  0.00000000000E+00 -0.00000000000E+00 -0.67900300686E+02  0.67900300686E+02  0.00000000000E+00 0. -1.
         23    2    1    2    0    0 -0.61638279209E+02  0.70213149905E+02  0.68412960787E+02  0.17039529272E+03  0.12500023478E+03 0.  0.
          5    1    3    3  502    0  0.23056919809E+02 -0.20758514966E+02  0.96456237690E+01  0.32827816750E+02  0.47000000000E+01 0. -1.
         -5    1    3    3    0  502 -0.84695199018E+02  0.90971664871E+02  0.58767337018E+02  0.13756747598E+03  0.47000000000E+01 0. -1.
        -11    1    1    2    0    0  0.12609814934E+02  0.20750572758E+02  0.63185154464E+02  0.67690157683E+02  0.00000000000E+00 0.  1.
         11    1    1    2    0    0  0.49028464275E+02 -0.90963722663E+02  0.16748255724E+03  0.19679582346E+03  0.00000000000E+00 0. -1.
<mgrwt>
<rscale>  0 0.14891957E+03</rscale>
<asrwt>0</asrwt>
<pdfrwt beam="2">  1        1 0.10446200E-01 0.15605839E+03</pdfrwt>
<pdfrwt beam="1">  1       -1 0.56458610E-01 0.15605839E+03</pdfrwt>
<totfact> 0.19337879E+03</totfact>
</mgrwt>
</event>
<event>
 7    1  0.6419647E-006  0.1330787E+03  0.7546771E-02  0.1235849E+00
          2   -1    0    0  501    0  0.00000000000E+00  0.00000000000E+00  0.26529757371E+03  0.26529757371E+03  0.00000000000E+00 0. -1.
         -2   -1    0    0    0  501 -0.00000000000E+00 -0.00000000000E+00 -0.52682439330E+02  0.52682439330E+02  0.00000000000E+00 0.  1.
         23    2    1    2    0    0 -0.20096930680E+02  0.41007959045E+02  0.13744376112E+03  0.19131315347E+03  0.12499758355E+03 0.  0.
          5    1    3    3  502    0 -0.29095258795E+02 -0.40886826731E+02  0.56635366778E+02  0.75815047679E+02  0.47000000000E+01 0.  1.
         -5    1    3    3    0  502  0.89983281146E+01  0.81894785776E+02  0.80808394341E+02  0.11549810579E+03  0.47000000000E+01 0.  1.
        -11    1    1    2    0    0  0.95752936725E+01  0.26630922684E+02  0.51872637175E+01  0.28771513634E+02  0.00000000000E+00 0.  1.
         11    1    1    2    0    0  0.10521637008E+02 -0.67638881729E+02  0.69984109547E+02  0.97895345936E+02  0.00000000000E+00 0. -1.
<mgrwt>
<rscale>  0 0.12450246E+03</rscale>
<asrwt>0</asrwt>
<pdfrwt beam="1">  1        2 0.40815011E-01 0.13307868E+03</pdfrwt>
<pdfrwt beam="2">  1       -2 0.81049908E-02 0.13307868E+03</pdfrwt>
<totfact> 0.10909211E+04</totfact>
</mgrwt>
</event>
<event>
 7    1  0.6419647E-006  0.1278742E+03  0.7546771E-02  0.1246718E+00
         -2   -1    0    0    0  501 -0.00000000000E+00  0.00000000000E+00  0.21949266650E+02  0.21949266650E+02  0.00000000000E+00 0.  1.
          2   -1    0    0  501    0  0.00000000000E+00 -0.00000000000E+00 -0.55555142487E+03  0.55555142487E+03  0.00000000000E+00 0. -1.
         23    2    1    2    0    0 -0.18544414336E+02 -0.19566575967E+02 -0.33378150520E+03  0.35743796353E+03  0.12500023344E+03 0.  0.
          5    1    3    3  502    0  0.14603529881E+02 -0.51774560390E+01  0.48103657449E+01  0.16890789047E+02  0.47000000000E+01 0. -1.
         -5    1    3    3    0  502 -0.33147944217E+02 -0.14389119927E+02 -0.33859187095E+03  0.34054717449E+03  0.47000000000E+01 0. -1.
        -11    1    1    2    0    0  0.52148010804E+02  0.32474608553E+01 -0.14113553865E+03  0.15049651592E+03  0.00000000000E+00 0. -1.
         11    1    1    2    0    0 -0.33603596468E+02  0.16319115111E+02 -0.58685114361E+02  0.69566212065E+02  0.00000000000E+00 0.  1.
<mgrwt>
<rscale>  0 0.11783114E+03</rscale>
<asrwt>0</asrwt>
<pdfrwt beam="2">  1        2 0.85469446E-01 0.12787417E+03</pdfrwt>
<pdfrwt beam="1">  1       -2 0.33768104E-02 0.12787417E+03</pdfrwt>
<totfact> 0.18382118E+04</totfact>
</mgrwt>
</event>
<event>
 7    1  0.6419647E-006  0.1541012E+03  0.7546771E-02  0.1204419E+00
          2   -1    0    0  501    0  0.00000000000E+00  0.00000000000E+00  0.22814529703E+03  0.22814529703E+03  0.00000000000E+00 0. -1.
         -2   -1    0    0    0  501 -0.00000000000E+00 -0.00000000000E+00 -0.86617263902E+02  0.86617263902E+02  0.00000000000E+00 0.  1.
         23    2    1    2    0    0  0.24892135005E+02 -0.86613293718E+02  0.75445671733E+02  0.17157862664E+03  0.12500277878E+03 0.  0.
          5    1    3    3  502    0 -0.24481426269E+02 -0.75209487503E+02 -0.15922500964E+01  0.79249179825E+02  0.47000000000E+01 0. -1.
         -5    1    3    3    0  502  0.49373561274E+02 -0.11403806216E+02  0.77037921829E+02  0.92329446813E+02  0.47000000000E+01 0. -1.
        -11    1    1    2    0    0 -0.23586245856E+02 -0.11769185284E+02  0.35363638691E+01  0.26595687343E+02  0.00000000000E+00 0.  1.
         11    1    1    2    0    0 -0.13058891490E+01  0.98382479002E+02  0.62545997531E+02  0.11658824696E+03  0.00000000000E+00 0. -1.
<mgrwt>
<rscale>  0 0.14683338E+03</rscale>
<asrwt>0</asrwt>
<pdfrwt beam="1">  1        2 0.35099276E-01 0.15410119E+03</pdfrwt>
<pdfrwt beam="2">  1       -2 0.13325733E-01 0.15410119E+03</pdfrwt>
<totfact> 0.59039180E+03</totfact>
</mgrwt>
</event>
<event>
 7    1  0.6419647E-006  0.1340450E+03  0.7546771E-02  0.1232368E+00
         -2   -1    0    0    0  501 -0.00000000000E+00  0.00000000000E+00  0.19794022013E+03  0.19794022013E+03  0.00000000000E+00 0. -1.
          2   -1    0    0  501    0  0.00000000000E+00 -0.00000000000E+00 -0.73714107877E+02  0.73714107877E+02  0.00000000000E+00 0.  1.
         23    2    1    2    0    0  0.40782716689E+02  0.26132264127E+02  0.61259942808E+02  0.14737988368E+03  0.12498769664E+03 0.  0.
          5    1    3    3  502    0  0.69400610396E+02  0.51098922665E+02  0.15439522749E+02  0.87681317757E+02  0.47000000000E+01 0.  1.
         -5    1    3    3    0  502 -0.28617893707E+02 -0.24966658538E+02  0.45820420060E+02  0.59698565923E+02  0.47000000000E+01 0.  1.
        -11    1    1    2    0    0 -0.36345978910E+01  0.21149587691E+02 -0.14729977572E+02  0.26028591983E+02  0.00000000000E+00 0.  1.
         11    1    1    2    0    0 -0.37148118798E+02 -0.47281851818E+02  0.77696147015E+02  0.98245852343E+02  0.00000000000E+00 0. -1.
<mgrwt>
<rscale>  0 0.12674410E+03</rscale>
<asrwt>0</asrwt>
<pdfrwt beam="2">  1        2 0.11340632E-01 0.13404495E+03</pdfrwt>
<pdfrwt beam="1">  1       -2 0.30452341E-01 0.13404495E+03</pdfrwt>
<totfact> 0.51783024E+03</totfact>
</mgrwt>
</event>
<event>
 6    1  0.6419647E-006  0.2255986E+03  0.7546771E-02  0.1161021E+00
          2   -1    0    0  501    0  0.00000000000E+00  0.00000000000E+00  0.34584239656E+02  0.34584239656E+02  0.00000000000E+00 0. -1.
         -2   -1    0    0    0  501 -0.00000000000E+00 -0.00000000000E+00 -0.82714072001E+03  0.82714072001E+03  0.00000000000E+00 0.  1.
          5    1    1    2  502    0  0.53520028670E+02  0.81200521442E+02 -0.11395220050E+03  0.14988366205E+03  0.47000000000E+01 0. -1.
         -5    1    1    2    0  502 -0.62374669895E+02 -0.26176323406E+02 -0.49295787589E+03  0.49759959481E+03  0.47000000000E+01 0.  1.
        -11    1    1    2    0    0  0.44657003394E+02 -0.55004363999E+01 -0.92110495215E+02  0.10251266303E+03  0.00000000000E+00 0.  1.
         11    1    1    2    0    0 -0.35802362170E+02 -0.49523761636E+02 -0.93535908742E+02  0.11172903977E+03  0.00000000000E+00 0. -1.
<mgrwt>
<rscale>  0 0.18718948E+03</rscale>
<asrwt>0</asrwt>
<pdfrwt beam="1">  1        2 0.53206531E-02 0.22559860E+03</pdfrwt>
<pdfrwt beam="2">  1       -2 0.12725240E+00 0.22559860E+03</pdfrwt>
<totfact> 0.69162847E+02</totfact>
</mgrwt>
</event>
<event>
 7    1  0.6419647E-006  0.1292556E+03  0.7546771E-02  0.1243228E+00
          4   -1    0    0  501    0  0.00000000000E+00  0.00000000000E+00  0.16560929800E+02  0.16560929800E+02  0.00000000000E+00 0. -1.
         -4   -1    0    0    0  501 -0.00000000000E+00 -0.00000000000E+00 -0.78000156106E+03  0.78000156106E+03  0.00000000000E+00 0.  1.
         23    2    1    2    0    0 -0.29583318416E+02  0.14388755118E+02 -0.38166395398E+03  0.40295705927E+03  0.12499923537E+03 0.  0.
          5    1    3    3  502    0  0.40034981652E+02  0.12878887956E+02 -0.57665295153E+02  0.71526511001E+02  0.47000000000E+01 0. -1.
         -5    1    3    3    0  502 -0.69618300068E+02  0.15098671622E+01 -0.32399865882E+03  0.33143054826E+03  0.47000000000E+01 0. -1.
        -11    1    1    2    0    0 -0.29901662523E+02  0.42813429136E+01 -0.17662513807E+03  0.17918950504E+03  0.00000000000E+00 0.  1.
         11    1    1    2    0    0  0.59484980939E+02 -0.18670098031E+02 -0.20515153922E+03  0.21441592656E+03  0.00000000000E+00 0. -1.
<mgrwt>
<rscale>  0 0.11992064E+03</rscale>
<asrwt>0</asrwt>
<pdfrwt beam="1">  1        4 0.25478353E-02 0.12925563E+03</pdfrwt>
<pdfrwt beam="2">  1       -4 0.12000024E+00 0.12925563E+03</pdfrwt>
<totfact> 0.63660122E+02</totfact>
</mgrwt>
</event>
<event>
 7    1  0.6419647E-006  0.1595559E+03  0.7546771E-02  0.1197066E+00
         -1   -1    0    0    0  501 -0.00000000000E+00  0.00000000000E+00  0.93144337848E+02  0.93144337848E+02  0.00000000000E+00 0.  1.
          1   -1    0    0  501    0  0.00000000000E+00 -0.00000000000E+00 -0.44818129912E+03  0.44818129912E+03  0.00000000000E+00 0. -1.
         23    2    1    2    0    0 -0.74801563218E+02 -0.65093829302E+02 -0.37320163433E+03  0.40587872432E+03  0.12500239404E+03 0.  0.
          5    1    3    3  502    0 -0.10109089130E+03 -0.76379991709E+02 -0.26359713853E+03  0.29250438095E+03  0.47000000000E+01 0.  1.
         -5    1    3    3    0  502  0.26289328086E+02  0.11286162407E+02 -0.10960449580E+03  0.11337434336E+03  0.47000000000E+01 0.  1.
        -11    1    1    2    0    0  0.36953553387E+02  0.19357905873E+02  0.52352648534E+02  0.66940969788E+02  0.00000000000E+00 0.  1.
         11    1    1    2    0    0  0.37848009831E+02  0.45735923428E+02 -0.34187975473E+02  0.68505942858E+02  0.00000000000E+00 0. -1.
<mgrwt>
<rscale>  0 0.15280643E+03</rscale>
<asrwt>0</asrwt>
<pdfrwt beam="2">  1        1 0.68950969E-01 0.15955588E+03</pdfrwt>
<pdfrwt beam="1">  1       -1 0.14329898E-01 0.15955588E+03</pdfrwt>
<totfact> 0.17837594E+03</totfact>
</mgrwt>
</event>
<event>
 7    1  0.6419647E-006  0.1569950E+03  0.7546771E-02  0.1199991E+00
          2   -1    0    0  501    0  0.00000000000E+00  0.00000000000E+00  0.80176956899E+03  0.80176956899E+03  0.00000000000E+00 0. -1.
         -2   -1    0    0    0  501 -0.00000000000E+00 -0.00000000000E+00 -0.28011158468E+02  0.28011158468E+02  0.00000000000E+00 0.  1.
         23    2    1    2    0    0  0.66177106503E+02  0.68153400150E+02  0.52634599287E+03  0.54926089235E+03  0.12499251289E+03 0.  0.
          5    1    3    3  502    0  0.32319666652E+02  0.84616024821E+02  0.18736997838E+03  0.20816827642E+03  0.47000000000E+01 0. -1.
         -5    1    3    3    0  502  0.33857439851E+02 -0.16462624672E+02  0.33897601449E+03  0.34109261593E+03  0.47000000000E+01 0. -1.
        -11    1    1    2    0    0  0.12682184703E+02 -0.98778109479E+01  0.19451458318E+01  0.16192360861E+02  0.00000000000E+00 0.  1.
         11    1    1    2    0    0 -0.78859291206E+02 -0.58275589202E+02  0.24546727183E+03  0.26432747425E+03  0.00000000000E+00 0. -1.
<mgrwt>
<rscale>  0 0.15039287E+03</rscale>
<asrwt>0</asrwt>
<pdfrwt beam="1">  1        2 0.12334915E+00 0.15699498E+03</pdfrwt>
<pdfrwt beam="2">  1       -2 0.43094096E-02 0.15699498E+03</pdfrwt>
<totfact> 0.84306728E+03</totfact>
</mgrwt>
</event>
<event>
 7    1  0.6419647E-006  0.1642966E+03  0.7546771E-02  0.1190957E+00
          2   -1    0    0  501    0  0.00000000000E+00  0.00000000000E+00  0.11138550442E+04  0.11138550442E+04  0.00000000000E+00 0. -1.
         -2   -1    0    0    0  501 -0.00000000000E+00 -0.00000000000E+00 -0.23416185719E+02  0.23416185719E+02  0.00000000000E+00 0.  1.
         23    2    1    2    0    0  0.51293937210E+02 -0.93479259605E+02  0.77033654707E+03  0.78766221351E+03  0.12499570740E+03 0.  0.
          5    1    3    3  502    0 -0.39797890277E+02 -0.12897493826E+02  0.22562524869E+03  0.22951919367E+03  0.47000000000E+01 0. -1.
         -5    1    3    3    0  502  0.91091827487E+02 -0.80581765779E+02  0.54471129838E+03  0.55814301984E+03  0.47000000000E+01 0. -1.
        -11    1    1    2    0    0  0.26109021441E+02  0.29764631693E+02  0.10736083670E+03  0.11442885806E+03  0.00000000000E+00 0. -1.
         11    1    1    2    0    0 -0.77402958651E+02  0.63714627912E+02  0.21274147470E+03  0.23518015834E+03  0.00000000000E+00 0.  1.
<mgrwt>
<rscale>  0 0.15801468E+03</rscale>
<asrwt>0</asrwt>
<pdfrwt beam="1">  1        2 0.17136227E+00 0.16429658E+03</pdfrwt>
<pdfrwt beam="2">  1       -2 0.36024910E-02 0.16429658E+03</pdfrwt>
<totfact> 0.70759370E+03</totfact>
</mgrwt>
</event>
<event>
 6    1  0.6419647E-006  0.2688918E+03  0.7546771E-02  0.1116917E+00
          2   -1    0    0  501    0  0.00000000000E+00  0.00000000000E+00  0.22556759434E+03  0.22556759434E+03  0.00000000000E+00 0. -1.
         -2   -1    0    0    0  501 -0.00000000000E+00 -0.00000000000E+00 -0.25668948040E+03  0.25668948040E+03  0.00000000000E+00 0.  1.
          5    1    1    2  502    0 -0.94079384520E+02 -0.11152158156E+02  0.97127021211E+02  0.13576100129E+03  0.47000000000E+01 0. -1.
         -5    1    1    2    0  502  0.27733497331E+02 -0.13321057553E+03 -0.34238241802E+02  0.14038714866E+03  0.47000000000E+01 0.  1.
        -11    1    1    2    0    0  0.67789963018E+02  0.44156183418E+02 -0.25938250356E+02  0.84959051617E+02  0.00000000000E+00 0.  1.
         11    1    1    2    0    0 -0.14440758288E+01  0.10020655027E+03 -0.68072415107E+02  0.12114987317E+03  0.00000000000E+00 0. -1.
<mgrwt>
<rscale>  0 0.24436828E+03</rscale>
<asrwt>0</asrwt>
<pdfrwt beam="1">  1        2 0.34702707E-01 0.26889180E+03</pdfrwt>
<pdfrwt beam="2">  1       -2 0.39490689E-01 0.26889180E+03</pdfrwt>
<totfact> 0.91282550E+02</totfact>
</mgrwt>
</event>
<event>
 7    1  0.6419647E-006  0.1293834E+03  0.7546771E-02  0.1243806E+00
         -1   -1    0    0    0  501 -0.00000000000E+00  0.00000000000E+00  0.23687134943E+03  0.23687134943E+03  0.00000000000E+00 0.  1.
          1   -1    0    0  501    0  0.00000000000E+00 -0.00000000000E+00 -0.56547672746E+02  0.56547672746E+02  0.00000000000E+00 0. -1.
         23    2    1    2    0    0 -0.16296063162E+01  0.33360570426E+02  0.66228647501E+02  0.14534886643E+03  0.12499790377E+03 0.  0.
          5    1    3    3  502    0  0.32575249278E+02 -0.21592249408E+02  0.70034281226E+02  0.80338425718E+02  0.47000000000E+01 0. -1.
         -5    1    3    3    0  502 -0.34204855594E+02  0.54952819834E+02 -0.38056337251E+01  0.65010440715E+02  0.47000000000E+01 0. -1.
        -11    1    1    2    0    0  0.43514352670E+02 -0.26902526004E+02  0.72112581026E+02  0.88416452858E+02  0.00000000000E+00 0.  1.
         11    1    1    2    0    0 -0.41884746354E+02 -0.64580444217E+01  0.41982448161E+02  0.59653702889E+02  0.00000000000E+00 0. -1.
<mgrwt>
<rscale>  0 0.11957101E+03</rscale>
<asrwt>0</asrwt>
<pdfrwt beam="2">  1        1 0.86996421E-02 0.12938338E+03</pdfrwt>
<pdfrwt beam="1">  1       -1 0.36441745E-01 0.12938338E+03</pdfrwt>
<totfact> 0.53617035E+03</totfact>
</mgrwt>
</event>
<event>
 7    1  0.6419647E-006  0.1601845E+03  0.7546771E-02  0.1197233E+00
          1   -1    0    0  501    0  0.00000000000E+00  0.00000000000E+00  0.21071397850E+03  0.21071397850E+03  0.00000000000E+00 0. -1.
         -1   -1    0    0    0  501 -0.00000000000E+00 -0.00000000000E+00 -0.10395254804E+03  0.10395254804E+03  0.00000000000E+00 0.  1.
         23    2    1    2    0    0 -0.98741473612E+02  0.16824680821E+02  0.82887212761E+02  0.18035900859E+03  0.12500453369E+03 0.  0.
          5    1    3    3  502    0 -0.80718336713E+02 -0.17311759346E+02  0.10652505868E+03  0.13485112168E+03  0.47000000000E+01 0.  1.
         -5    1    3    3    0  502 -0.18023136898E+02  0.34136440167E+02 -0.23637845915E+02  0.45507886904E+02  0.47000000000E+01 0.  1.
        -11    1    1    2    0    0  0.48638133231E+02 -0.23025360608E+02 -0.29060034504E+02  0.61158162503E+02  0.00000000000E+00 0.  1.
         11    1    1    2    0    0  0.50103340381E+02  0.62006797872E+01  0.52934252197E+02  0.73149355450E+02  0.00000000000E+00 0. -1.
<mgrwt>
<rscale>  0 0.15266781E+03</rscale>
<asrwt>0</asrwt>
<pdfrwt beam="1">  1        1 0.32417535E-01 0.16018452E+03</pdfrwt>
<pdfrwt beam="2">  1       -1 0.15992700E-01 0.16018452E+03</pdfrwt>
<totfact> 0.38622753E+03</totfact>
</mgrwt>
</event>
<event>
 7    1  0.6419647E-006  0.1387688E+03  0.7546771E-02  0.1227584E+00
         -2   -1    0    0    0  501 -0.00000000000E+00  0.00000000000E+00  0.28549547879E+03  0.28549547879E+03  0.00000000000E+00 0.  1.
          2   -1    0    0  501    0  0.00000000000E+00 -0.00000000000E+00 -0.52723692967E+02  0.52723692967E+02  0.00000000000E+00 0. -1.
         23    2    1    2    0    0 -0.57520209242E+02  0.17989424401E+02  0.13330494562E+03  0.19242401548E+03  0.12499839737E+03 0.  0.
          5    1    3    3  502    0 -0.70983083815E+01 -0.48258488503E+02  0.22960844788E+02  0.54116153668E+02  0.47000000000E+01 0. -1.
         -5    1    3    3    0  502 -0.50421900860E+02  0.66247912903E+02  0.11034410083E+03  0.13830786181E+03  0.47000000000E+01 0. -1.
        -11    1    1    2    0    0  0.34002629964E+02 -0.28772815979E+01 -0.77506899462E+01  0.34993296337E+02  0.00000000000E+00 0. -1.
         11    1    1    2    0    0  0.23517579278E+02 -0.15112142803E+02  0.10721753015E+03  0.11080185995E+03  0.00000000000E+00 0.  1.
<mgrwt>
<rscale>  0 0.12991329E+03</rscale>
<asrwt>0</asrwt>
<pdfrwt beam="2">  1        2 0.81113375E-02 0.13876885E+03</pdfrwt>
<pdfrwt beam="1">  1       -2 0.43922380E-01 0.13876885E+03</pdfrwt>
<totfact> 0.39654549E+03</totfact>
</mgrwt>
</event>
<event>
 7    1  0.6419647E-006  0.1531742E+03  0.7546771E-02  0.1205071E+00
         -1   -1    0    0    0  501 -0.00000000000E+00  0.00000000000E+00  0.89273135090E+02  0.89273135090E+02  0.00000000000E+00 0.  1.
          1   -1    0    0  501    0  0.00000000000E+00 -0.00000000000E+00 -0.22204790236E+03  0.22204790236E+03  0.00000000000E+00 0. -1.
         23    2    1    2    0    0 -0.81029748464E+02  0.35651743293E+02 -0.84614651381E+02  0.17499138759E+03  0.12500191826E+03 0.  0.
          5    1    3    3  502    0  0.13317299235E+02  0.15019384848E+02 -0.75048116568E+02  0.77828286506E+02  0.47000000000E+01 0.  1.
         -5    1    3    3    0  502 -0.94347047699E+02  0.20632358445E+02 -0.95665348129E+01  0.97163101087E+02  0.47000000000E+01 0.  1.
        -11    1    1    2    0    0  0.26985004211E+02  0.15629891633E+02 -0.53189815083E+02  0.61657443941E+02  0.00000000000E+00 0. -1.
         11    1    1    2    0    0  0.54044744253E+02 -0.51281634926E+02  0.50296991963E+01  0.74672205914E+02  0.00000000000E+00 0.  1.
<mgrwt>
<rscale>  0 0.14631897E+03</rscale>
<asrwt>0</asrwt>
<pdfrwt beam="2">  1        1 0.34161216E-01 0.15317424E+03</pdfrwt>
<pdfrwt beam="1">  1       -1 0.13734329E-01 0.15317424E+03</pdfrwt>
<totfact> 0.45852917E+03</totfact>
</mgrwt>
</event>
<event>
 7    1  0.6419647E-006  0.1265369E+03  0.7546771E-02  0.1247669E+00
         -2   -1    0    0    0  501 -0.00000000000E+00  0.00000000000E+00  0.20378807622E+02  0.20378807622E+02  0.00000000000E+00 0.  1.
          2   -1    0    0  501    0  0.00000000000E+00 -0.00000000000E+00 -0.62805698466E+03  0.62805698466E+03  0.00000000000E+00 0. -1.
         23    2    1    2    0    0  0.19742097802E+02  0.51863530240E+00 -0.42277555215E+03  0.44130575159E+03  0.12498631719E+03 0.  0.
          5    1    3    3  502    0  0.33088528705E+02 -0.15116351455E+02 -0.41810065724E+03  0.41970656940E+03  0.47000000000E+01 0.  1.
         -5    1    3    3    0  502 -0.13346430902E+02  0.15634986758E+02 -0.46748949039E+01  0.21599182186E+02  0.47000000000E+01 0.  1.
        -11    1    1    2    0    0  0.13628320005E+02  0.32084468049E+02 -0.32183598247E+02  0.47443947899E+02  0.00000000000E+00 0.  1.
         11    1    1    2    0    0 -0.33370417807E+02 -0.32603103351E+02 -0.15271902665E+03  0.15968609280E+03  0.00000000000E+00 0. -1.
<mgrwt>
<rscale>  0 0.11727067E+03</rscale>
<asrwt>0</asrwt>
<pdfrwt beam="2">  1        2 0.96624161E-01 0.12653695E+03</pdfrwt>
<pdfrwt beam="1">  1       -2 0.31352009E-02 0.12653695E+03</pdfrwt>
<totfact> 0.17831999E+04</totfact>
</mgrwt>
</event>
<event>
 7    1  0.6419647E-006  0.1388561E+03  0.7546771E-02  0.1225971E+00
         -2   -1    0    0    0  501 -0.00000000000E+00  0.00000000000E+00  0.47583799753E+02  0.47583799753E+02  0.00000000000E+00 0.  1.
          2   -1    0    0  501    0  0.00000000000E+00 -0.00000000000E+00 -0.33894607884E+03  0.33894607884E+03  0.00000000000E+00 0. -1.
         23    2    1    2    0    0  0.29895256598E+02  0.52559787774E+02 -0.20024481870E+03  0.24367805824E+03  0.12499900397E+03 0.  0.
          5    1    3    3  502    0  0.48193653823E+02  0.81333077900E+02 -0.10002884969E+03  0.13771549877E+03  0.47000000000E+01 0. -1.
         -5    1    3    3    0  502 -0.18298397226E+02 -0.28773290125E+02 -0.10021596901E+03  0.10596255948E+03  0.47000000000E+01 0. -1.
        -11    1    1    2    0    0  0.17001331042E+02  0.10844102365E+02  0.26399141108E+01  0.20337378391E+02  0.00000000000E+00 0.  1.
         11    1    1    2    0    0 -0.46896587640E+02 -0.63403890139E+02 -0.93757374492E+02  0.12251444196E+03  0.00000000000E+00 0. -1.
<mgrwt>
<rscale>  0 0.13100591E+03</rscale>
<asrwt>0</asrwt>
<pdfrwt beam="2">  1        2 0.52145552E-01 0.13885607E+03</pdfrwt>
<pdfrwt beam="1">  1       -2 0.73205844E-02 0.13885607E+03</pdfrwt>
<totfact> 0.98733206E+03</totfact>
</mgrwt>
</event>
<event>
 7    1  0.6419647E-006  0.1313202E+03  0.7546771E-02  0.1250500E+00
         -1   -1    0    0    0  501 -0.00000000000E+00  0.00000000000E+00  0.13330065712E+03  0.13330065712E+03  0.00000000000E+00 0.  1.
          1   -1    0    0  501    0  0.00000000000E+00 -0.00000000000E+00 -0.37082989906E+03  0.37082989906E+03  0.00000000000E+00 0. -1.
         23    2    1    2    0    0  0.13638034218E+02 -0.33493629877E+02 -0.34594716418E+03  0.37003301835E+03  0.12624252470E+03 0.  0.
          5    1    3    3  502    0 -0.72637331082E+01  0.12304856366E+02 -0.30390143208E+03  0.30427346537E+03  0.47000000000E+01 0. -1.
         -5    1    3    3    0  502  0.20901767326E+02 -0.45798486243E+02 -0.42045732102E+02  0.65759552975E+02  0.47000000000E+01 0.  1.
        -11    1    1    2    0    0 -0.16004094946E+01 -0.21667573115E+02  0.38739912782E+02  0.44416504563E+02  0.00000000000E+00 0. -1.
         11    1    1    2    0    0 -0.12037624723E+02  0.55161202993E+02  0.69678009466E+02  0.89681033267E+02  0.00000000000E+00 0.  1.
<mgrwt>
<rscale>  0 0.11562178E+03</rscale>
<asrwt>0</asrwt>
<pdfrwt beam="2">  1        1 0.57050752E-01 0.13132020E+03</pdfrwt>
<pdfrwt beam="1">  1       -1 0.20507794E-01 0.13132020E+03</pdfrwt>
<totfact> 0.12782806E+03</totfact>
</mgrwt>
</event>
<event>
 7    1  0.6419647E-006  0.1260103E+03  0.7546771E-02  0.1251210E+00
          1   -1    0    0  501    0  0.00000000000E+00  0.00000000000E+00  0.11142223465E+04  0.11142223465E+04  0.00000000000E+00 0. -1.
         -1   -1    0    0    0  501 -0.00000000000E+00 -0.00000000000E+00 -0.13601517450E+02  0.13601517450E+02  0.00000000000E+00 0.  1.
         23    2    1    2    0    0  0.77908618595E+01  0.13991315398E+02  0.89930192311E+03  0.90808730442E+03  0.12498859591E+03 0.  0.
          5    1    3    3  502    0  0.44834776659E+02 -0.36116528625E+02  0.29799366578E+03  0.30354056678E+03  0.47000000000E+01 0.  1.
         -5    1    3    3    0  502 -0.37043914799E+02  0.50107844024E+02  0.60130825733E+03  0.60454673764E+03  0.47000000000E+01 0.  1.
        -11    1    1    2    0    0  0.38977964418E+02 -0.12882415323E+02  0.86241736994E+02  0.95513745265E+02  0.00000000000E+00 0. -1.
         11    1    1    2    0    0 -0.46768826278E+02 -0.11089000753E+01  0.11507716895E+03  0.12422281427E+03  0.00000000000E+00 0.  1.
<mgrwt>
<rscale>  0 0.11521296E+03</rscale>
<asrwt>0</asrwt>
<pdfrwt beam="1">  1        1 0.17141875E+00 0.12601033E+03</pdfrwt>
<pdfrwt beam="2">  1       -1 0.20925420E-02 0.12601033E+03</pdfrwt>
<totfact> 0.81688742E+03</totfact>
</mgrwt>
</event>
<event>
 7    1  0.6419647E-006  0.1425117E+03  0.7546771E-02  0.1220583E+00
          1   -1    0    0  501    0  0.00000000000E+00  0.00000000000E+00  0.11127966918E+03  0.11127966918E+03  0.00000000000E+00 0. -1.
         -1   -1    0    0    0  501 -0.00000000000E+00 -0.00000000000E+00 -0.26783535372E+03  0.26783535372E+03  0.00000000000E+00 0.  1.
         23    2    1    2    0    0 -0.39440725067E+02 -0.55950052471E+02  0.43423812870E+02  0.14898056433E+03  0.12499440731E+03 0.  0.
          5    1    3    3  502    0 -0.18280674471E+02  0.13810150613E+02 -0.34814270132E+02  0.41940752544E+02  0.47000000000E+01 0. -1.
         -5    1    3    3    0  502 -0.21160050596E+02 -0.69760203084E+02  0.78238083002E+02  0.10703981179E+03  0.47000000000E+01 0. -1.
        -11    1    1    2    0    0 -0.11065554550E+02  0.37131139542E+02 -0.22838519488E+02  0.44975170857E+02  0.00000000000E+00 0. -1.
         11    1    1    2    0    0  0.50506279617E+02  0.18818912928E+02 -0.17714097793E+03  0.18515928771E+03  0.00000000000E+00 0.  1.
<mgrwt>
<rscale>  0 0.13474283E+03</rscale>
<asrwt>0</asrwt>
<pdfrwt beam="1">  1        1 0.17119949E-01 0.14251169E+03</pdfrwt>
<pdfrwt beam="2">  1       -1 0.41205439E-01 0.14251169E+03</pdfrwt>
<totfact> 0.17914897E+03</totfact>
</mgrwt>
</event>
<event>
 7    1  0.6419647E-006  0.1340576E+03  0.7546771E-02  0.1232552E+00
         -1   -1    0    0    0  501 -0.00000000000E+00  0.00000000000E+00  0.75200246310E+02  0.75200246310E+02  0.00000000000E+00 0.  1.
          1   -1    0    0  501    0  0.00000000000E+00 -0.00000000000E+00 -0.19304797707E+03  0.19304797707E+03  0.00000000000E+00 0. -1.
         23    2    1    2    0    0  0.29835480338E+02 -0.38150699613E+02 -0.71152065534E+02  0.15176975081E+03  0.12500323621E+03 0.  0.
          5    1    3    3  502    0 -0.41466075232E+02 -0.45252171456E+02 -0.40548289662E+02  0.73711927197E+02  0.47000000000E+01 0.  1.
         -5    1    3    3    0  502  0.71301555570E+02  0.71014718427E+01 -0.30603775872E+02  0.78057823609E+02  0.47000000000E+01 0.  1.
        -11    1    1    2    0    0 -0.13430405462E+02 -0.31275256442E+02 -0.66879353986E+01  0.34687835566E+02  0.00000000000E+00 0.  1.
         11    1    1    2    0    0 -0.16405074876E+02  0.69425956055E+02 -0.40007729825E+02  0.81790637004E+02  0.00000000000E+00 0. -1.
<mgrwt>
<rscale>  0 0.12662474E+03</rscale>
<asrwt>0</asrwt>
<pdfrwt beam="2">  1        1 0.29699689E-01 0.13405760E+03</pdfrwt>
<pdfrwt beam="1">  1       -1 0.11569269E-01 0.13405760E+03</pdfrwt>
<totfact> 0.70607649E+03</totfact>
</mgrwt>
</event>
<event>
 6    1  0.6419647E-006  0.1582761E+03  0.7546771E-02  0.1204237E+00
          1   -1    0    0  501    0  0.00000000000E+00  0.00000000000E+00  0.11226556892E+04  0.11226556892E+04  0.00000000000E+00 0. -1.
         -1   -1    0    0    0  501 -0.00000000000E+00 -0.00000000000E+00 -0.30896895176E+02  0.30896895176E+02  0.00000000000E+00 0.  1.
          5    1    1    2  502    0  0.95399071623E+02 -0.20255796891E+02  0.45584533352E+03  0.46618487563E+03  0.47000000000E+01 0. -1.
         -5    1    1    2    0  502 -0.38148127388E+02 -0.32326453434E+02  0.51916818546E+03  0.52159176949E+03  0.47000000000E+01 0.  1.
        -11    1    1    2    0    0 -0.88179292455E+01  0.66660117826E+02  0.68101536205E+02  0.95703429500E+02  0.00000000000E+00 0. -1.
         11    1    1    2    0    0 -0.48433014989E+02 -0.14077867500E+02  0.48643738848E+02  0.70072509755E+02  0.00000000000E+00 0.  1.
<mgrwt>
<rscale>  0 0.14697770E+03</rscale>
<asrwt>0</asrwt>
<pdfrwt beam="1">  1        1 0.17271623E+00 0.15827615E+03</pdfrwt>
<pdfrwt beam="2">  1       -1 0.47533694E-02 0.15827615E+03</pdfrwt>
<totfact> 0.24504014E+03</totfact>
</mgrwt>
</event>
<event>
 7    1  0.6419647E-006  0.2057776E+03  0.7546771E-02  0.1148759E+00
          1   -1    0    0  501    0  0.00000000000E+00  0.00000000000E+00  0.12881140912E+04  0.12881140912E+04  0.00000000000E+00 0. -1.
         -1   -1    0    0    0  501 -0.00000000000E+00 -0.00000000000E+00 -0.32578379728E+02  0.32578379728E+02  0.00000000000E+00 0.  1.
         23    2    1    2    0    0  0.70934266698E+02 -0.14726234183E+03  0.83652073164E+03  0.86145884564E+03  0.12500616287E+03 0.  0.
          5    1    3    3  502    0 -0.33284926412E+02 -0.38488945578E+02  0.14609949323E+03  0.15477867159E+03  0.47000000000E+01 0.  1.
         -5    1    3    3    0  502  0.10421919311E+03 -0.10877339626E+03  0.69042123841E+03  0.70668017405E+03  0.47000000000E+01 0.  1.
        -11    1    1    2    0    0 -0.35013048380E+02  0.51309995064E+02  0.61829484230E+02  0.87644248360E+02  0.00000000000E+00 0.  1.
         11    1    1    2    0    0 -0.35921218318E+02  0.95952346769E+02  0.35718549559E+03  0.37158937691E+03  0.00000000000E+00 0. -1.
<mgrwt>
<rscale>  0 0.20116580E+03</rscale>
<asrwt>0</asrwt>
<pdfrwt beam="1">  1        1 0.19817136E+00 0.20577757E+03</pdfrwt>
<pdfrwt beam="2">  1       -1 0.50120594E-02 0.20577757E+03</pdfrwt>
<totfact> 0.17442937E+03</totfact>
</mgrwt>
</event>
<event>
 7    1  0.6419647E-006  0.1557332E+03  0.7546771E-02  0.1201675E+00
         -2   -1    0    0    0  501 -0.00000000000E+00  0.00000000000E+00  0.46670236418E+03  0.46670236418E+03  0.00000000000E+00 0.  1.
          2   -1    0    0  501    0  0.00000000000E+00 -0.00000000000E+00 -0.44048993651E+02  0.44048993651E+02  0.00000000000E+00 0. -1.
         23    2    1    2    0    0  0.81619625687E+02 -0.44332264351E+02  0.24389869897E+03  0.28937759132E+03  0.12500280812E+03 0.  0.
          5    1    3    3  502    0 -0.33072549160E+02 -0.50763654712E+01  0.42937897795E+02  0.54638045915E+02  0.47000000000E+01 0.  1.
         -5    1    3    3    0  502  0.11469217485E+03 -0.39255898879E+02  0.20096080117E+03  0.23473954540E+03  0.47000000000E+01 0.  1.
        -11    1    1    2    0    0 -0.54060037264E+02  0.45920953363E+02  0.18027420211E+03  0.19372663610E+03  0.00000000000E+00 0.  1.
         11    1    1    2    0    0 -0.27559588422E+02 -0.15886890128E+01 -0.15195305564E+01  0.27647130410E+02  0.00000000000E+00 0. -1.
<mgrwt>
<rscale>  0 0.14902573E+03</rscale>
<asrwt>0</asrwt>
<pdfrwt beam="2">  1        2 0.67767686E-02 0.15573315E+03</pdfrwt>
<pdfrwt beam="1">  1       -2 0.71800360E-01 0.15573315E+03</pdfrwt>
<totfact> 0.18486060E+03</totfact>
</mgrwt>
</event>
<event>
 7    1  0.6419647E-006  0.1317232E+03  0.7546771E-02  0.1239760E+00
          2   -1    0    0  501    0  0.00000000000E+00  0.00000000000E+00  0.14142222607E+03  0.14142222607E+03  0.00000000000E+00 0.  1.
         -2   -1    0    0    0  501 -0.00000000000E+00 -0.00000000000E+00 -0.96621681022E+02  0.96621681022E+02  0.00000000000E+00 0. -1.
         23    2    1    2    0    0  0.18705539526E+01  0.41526226177E+02  0.49845474785E+02  0.14083879384E+03  0.12499227201E+03 0.  0.
          5    1    3    3  502    0 -0.50896442778E+01  0.40544138300E+02  0.90450047773E+02  0.99363135878E+02  0.47000000000E+01 0.  1.
         -5    1    3    3    0  502  0.69601982304E+01  0.98208787635E+00 -0.40604572988E+02  0.41475657964E+02  0.47000000000E+01 0.  1.
        -11    1    1    2    0    0 -0.53428226078E+01  0.27301617201E+02  0.22196861876E+01  0.27907903217E+02  0.00000000000E+00 0.  1.
         11    1    1    2    0    0  0.34722686552E+01 -0.68827843378E+02 -0.72646159262E+01  0.69297210032E+02  0.00000000000E+00 0. -1.
<mgrwt>
<rscale>  0 0.12204570E+03</rscale>
<asrwt>0</asrwt>
<pdfrwt beam="1">  1        2 0.21757265E-01 0.13172317E+03</pdfrwt>
<pdfrwt beam="2">  1       -2 0.14864874E-01 0.13172317E+03</pdfrwt>
<totfact> 0.82541792E+03</totfact>
</mgrwt>
</event>
<event>
 7    1  0.6419647E-006  0.1482399E+03  0.7546771E-02  0.1210533E+00
         -1   -1    0    0    0  501 -0.00000000000E+00  0.00000000000E+00  0.18827443426E+02  0.18827443426E+02  0.00000000000E+00 0.  1.
          1   -1    0    0  501    0  0.00000000000E+00 -0.00000000000E+00 -0.10789899365E+04  0.10789899365E+04  0.00000000000E+00 0. -1.
         23    2    1    2    0    0  0.11956193461E+02 -0.78783440249E+02 -0.72613041115E+03  0.74110758451E+03  0.12500118722E+03 0.  0.
          5    1    3    3  502    0 -0.31171645944E+02  0.17954044499E+02 -0.10745495428E+03  0.11341374001E+03  0.47000000000E+01 0. -1.
         -5    1    3    3    0  502  0.43127839405E+02 -0.96737484748E+02 -0.61867545687E+03  0.62769384450E+03  0.47000000000E+01 0. -1.
        -11    1    1    2    0    0 -0.28927531638E+02  0.31248109142E+02 -0.40153443819E+02  0.58528159565E+02  0.00000000000E+00 0.  1.
         11    1    1    2    0    0  0.16971338177E+02  0.47535331107E+02 -0.29387863814E+03  0.29818163588E+03  0.00000000000E+00 0. -1.
<mgrwt>
<rscale>  0 0.14209811E+03</rscale>
<asrwt>0</asrwt>
<pdfrwt beam="2">  1        1 0.16599845E+00 0.14823993E+03</pdfrwt>
<pdfrwt beam="1">  1       -1 0.28965297E-02 0.14823993E+03</pdfrwt>
<totfact> 0.54392185E+03</totfact>
</mgrwt>
</event>
<event>
 7    1  0.6419647E-006  0.2823399E+03  0.7546771E-02  0.1096683E+00
          2   -1    0    0  501    0  0.00000000000E+00  0.00000000000E+00  0.14507295961E+04  0.14507295961E+04  0.00000000000E+00 0. -1.
         -2   -1    0    0    0  501 -0.00000000000E+00 -0.00000000000E+00 -0.88754202818E+02  0.88754202818E+02  0.00000000000E+00 0.  1.
         23    2    1    2    0    0 -0.11356917241E+03 -0.22625884377E+03  0.11891109214E+04  0.12221704460E+04  0.12499917792E+03 0.  0.
          5    1    3    3  502    0 -0.96434784255E+02 -0.14544442533E+03  0.10086254420E+04  0.10236215711E+04  0.47000000000E+01 0.  1.
         -5    1    3    3    0  502 -0.17134388159E+02 -0.80814418431E+02  0.18048547936E+03  0.19854887495E+03  0.47000000000E+01 0.  1.
        -11    1    1    2    0    0  0.10735225370E+03  0.12557107754E+03  0.10859512116E+03  0.19770053674E+03  0.00000000000E+00 0.  1.
         11    1    1    2    0    0  0.62169187142E+01  0.10068776623E+03  0.64269350772E+02  0.11961281618E+03  0.00000000000E+00 0. -1.
<mgrwt>
<rscale>  0 0.27818753E+03</rscale>
<asrwt>0</asrwt>
<pdfrwt beam="1">  1        2 0.22318915E+00 0.28233989E+03</pdfrwt>
<pdfrwt beam="2">  1       -2 0.13654494E-01 0.28233989E+03</pdfrwt>
<totfact> 0.58170342E+02</totfact>
</mgrwt>
</event>
<event>
 7    1  0.6419647E-006  0.1740844E+03  0.7546771E-02  0.1179773E+00
         -1   -1    0    0    0  501 -0.00000000000E+00  0.00000000000E+00  0.51773763404E+02  0.51773763404E+02  0.00000000000E+00 0.  1.
          1   -1    0    0  501    0  0.00000000000E+00 -0.00000000000E+00 -0.80652383503E+03  0.80652383503E+03  0.00000000000E+00 0. -1.
         23    2    1    2    0    0  0.11127089733E+01 -0.12115884960E+03 -0.65279200848E+03  0.67560548347E+03  0.12499863201E+03 0.  0.
          5    1    3    3  502    0  0.23156834308E+02 -0.91863073745E+00 -0.19628180325E+02  0.30731715222E+02  0.47000000000E+01 0.  1.
         -5    1    3    3    0  502 -0.22044125334E+02 -0.12024021887E+03 -0.63316382816E+03  0.64487376825E+03  0.47000000000E+01 0.  1.
        -11    1    1    2    0    0  0.39534765439E+02  0.51418906944E+02 -0.71189178964E+02  0.96305767590E+02  0.00000000000E+00 0. -1.
         11    1    1    2    0    0 -0.40647474412E+02  0.69739942660E+02 -0.30768884182E+02  0.86386347371E+02  0.00000000000E+00 0.  1.
<mgrwt>
<rscale>  0 0.16816702E+03</rscale>
<asrwt>0</asrwt>
<pdfrwt beam="2">  1        1 0.12408059E+00 0.17408436E+03</pdfrwt>
<pdfrwt beam="1">  1       -1 0.79651944E-02 0.17408436E+03</pdfrwt>
<totfact> 0.19591330E+03</totfact>
</mgrwt>
</event>
<event>
 7    1  0.6419647E-006  0.1263340E+03  0.7546771E-02  0.1249264E+00
         -2   -1    0    0    0  501 -0.00000000000E+00  0.00000000000E+00  0.84642915881E+02  0.84642915881E+02  0.00000000000E+00 0.  1.
          2   -1    0    0  501    0  0.00000000000E+00 -0.00000000000E+00 -0.13942347543E+03  0.13942347543E+03  0.00000000000E+00 0. -1.
         23    2    1    2    0    0  0.80725733080E+01 -0.16442840809E+02 -0.28791128128E+02  0.12957316395E+03  0.12499896920E+03 0.  0.
          5    1    3    3  502    0  0.54626940773E+02 -0.34785787525E+02 -0.42344604432E+02  0.77519734239E+02  0.47000000000E+01 0. -1.
         -5    1    3    3    0  502 -0.46554367465E+02  0.18342946716E+02  0.13553476304E+02  0.52053429707E+02  0.47000000000E+01 0. -1.
        -11    1    1    2    0    0  0.11074893845E+02 -0.28191433334E+02  0.12256034246E+02  0.32674463462E+02  0.00000000000E+00 0.  1.
         11    1    1    2    0    0 -0.19147467153E+02  0.44634274143E+02 -0.38245465669E+02  0.61818763906E+02  0.00000000000E+00 0. -1.
<mgrwt>
<rscale>  0 0.11633758E+03</rscale>
<asrwt>0</asrwt>
<pdfrwt beam="2">  1        2 0.21449765E-01 0.12633398E+03</pdfrwt>
<pdfrwt beam="1">  1       -2 0.13021987E-01 0.12633398E+03</pdfrwt>
<totfact> 0.10355835E+04</totfact>
</mgrwt>
</event>
<event>
 7    1  0.6419647E-006  0.1348509E+03  0.7546771E-02  0.1231702E+00
         -2   -1    0    0    0  501 -0.00000000000E+00  0.00000000000E+00  0.84522664197E+02  0.84522664197E+02  0.00000000000E+00 0.  1.
          2   -1    0    0  501    0  0.00000000000E+00 -0.00000000000E+00 -0.37131710398E+03  0.37131710398E+03  0.00000000000E+00 0. -1.
         23    2    1    2    0    0 -0.34831360599E+02 -0.36703340454E+02 -0.31739400715E+03  0.34485318988E+03  0.12499763164E+03 0.  0.
          5    1    3    3  502    0  0.39649244741E+02 -0.42563700646E+02 -0.11296385674E+03  0.12714815827E+03  0.47000000000E+01 0.  1.
         -5    1    3    3    0  502 -0.74480605340E+02  0.58603601922E+01 -0.20443015041E+03  0.21770503161E+03  0.47000000000E+01 0.  1.
        -11    1    1    2    0    0 -0.13739577759E+02 -0.41150388848E+01  0.43881680708E+02  0.46166128750E+02  0.00000000000E+00 0.  1.
         11    1    1    2    0    0  0.48570938358E+02  0.40818379339E+02 -0.13282113342E+02  0.64820449548E+02  0.00000000000E+00 0. -1.
<mgrwt>
<rscale>  0 0.12717924E+03</rscale>
<asrwt>0</asrwt>
<pdfrwt beam="2">  1        2 0.57125707E-01 0.13485091E+03</pdfrwt>
<pdfrwt beam="1">  1       -2 0.13003487E-01 0.13485091E+03</pdfrwt>
<totfact> 0.36303141E+03</totfact>
</mgrwt>
</event>
<event>
 7    1  0.6419647E-006  0.1328613E+03  0.7546771E-02  0.1235846E+00
         -4   -1    0    0    0  501 -0.00000000000E+00  0.00000000000E+00  0.16665926157E+02  0.16665926157E+02  0.00000000000E+00 0.  1.
          4   -1    0    0  501    0  0.00000000000E+00 -0.00000000000E+00 -0.97709383236E+03  0.97709383236E+03  0.00000000000E+00 0. -1.
         23    2    1    2    0    0  0.31619734351E+01 -0.44884732510E+02 -0.72394994328E+03  0.73604052630E+03  0.12500999438E+03 0.  0.
          5    1    3    3  502    0  0.57005651516E+01  0.28555120764E+02 -0.49786420574E+02  0.57867685615E+02  0.47000000000E+01 0.  1.
         -5    1    3    3    0  502 -0.25385917165E+01 -0.73439853274E+02 -0.67416352271E+03  0.67817284069E+03  0.47000000000E+01 0.  1.
        -11    1    1    2    0    0 -0.79946549209E+01  0.72983691425E+02 -0.18150914695E+03  0.19579607797E+03  0.00000000000E+00 0. -1.
         11    1    1    2    0    0  0.48326814858E+01 -0.28098958916E+02 -0.54968815973E+02  0.61923154247E+02  0.00000000000E+00 0.  1.
<mgrwt>
<rscale>  0 0.12450422E+03</rscale>
<asrwt>0</asrwt>
<pdfrwt beam="2">  1        4 0.15032219E+00 0.13286134E+03</pdfrwt>
<pdfrwt beam="1">  1       -4 0.25639876E-02 0.13286134E+03</pdfrwt>
<totfact> 0.36327727E+02</totfact>
</mgrwt>
</event>
<event>
 7    1  0.6419647E-006  0.1321940E+03  0.7546771E-02  0.1239278E+00
          1   -1    0    0  501    0  0.00000000000E+00  0.00000000000E+00  0.39355489161E+03  0.39355489161E+03  0.00000000000E+00 0. -1.
         -1   -1    0    0    0  501 -0.00000000000E+00 -0.00000000000E+00 -0.35056192883E+02  0.35056192883E+02  0.00000000000E+00 0.  1.
         23    2    1    2    0    0 -0.33496250792E+02  0.26967118732E+02  0.25200104028E+03  0.28456947114E+03  0.12500414110E+03 0.  0.
          5    1    3    3  502    0 -0.48744682872E+02 -0.37862749826E+02  0.88855946696E+02  0.10829174113E+03  0.47000000000E+01 0.  1.
         -5    1    3    3    0  502  0.15248432081E+02  0.64829868557E+02  0.16314509359E+03  0.17627773002E+03  0.47000000000E+01 0.  1.
        -11    1    1    2    0    0  0.51538843459E+02 -0.31102436236E+02  0.10981945860E+03  0.12523548783E+03  0.00000000000E+00 0. -1.
         11    1    1    2    0    0 -0.18042592667E+02  0.41353175044E+01 -0.33218001515E+01  0.18806125525E+02  0.00000000000E+00 0.  1.
<mgrwt>
<rscale>  0 0.12234489E+03</rscale>
<asrwt>0</asrwt>
<pdfrwt beam="1">  1        1 0.60546903E-01 0.13219402E+03</pdfrwt>
<pdfrwt beam="2">  1       -1 0.53932607E-02 0.13219402E+03</pdfrwt>
<totfact> 0.92156933E+03</totfact>
</mgrwt>
</event>
<event>
 7    1  0.6419647E-006  0.1269093E+03  0.7546771E-02  0.1248224E+00
         -3   -1    0    0    0  501 -0.00000000000E+00  0.00000000000E+00  0.91811821194E+02  0.91811821194E+02  0.00000000000E+00 0.  1.
          3   -1    0    0  501    0  0.00000000000E+00 -0.00000000000E+00 -0.15573082974E+03  0.15573082974E+03  0.00000000000E+00 0. -1.
         23    2    1    2    0    0 -0.19545096315E+02  0.10283778481E+02 -0.86136465999E+02  0.15338012250E+03  0.12497281429E+03 0.  0.
          5    1    3    3  502    0 -0.58603589548E+02 -0.33713846872E+02 -0.49308710129E+02  0.83811950659E+02  0.47000000000E+01 0. -1.
         -5    1    3    3    0  502  0.39058493233E+02  0.43997625353E+02 -0.36827755870E+02  0.69568171837E+02  0.47000000000E+01 0. -1.
        -11    1    1    2    0    0  0.73112795130E+01  0.17464414210E+02  0.49732771148E+02  0.53214745117E+02  0.00000000000E+00 0.  1.
         11    1    1    2    0    0  0.12233816802E+02 -0.27748192691E+02 -0.27515313695E+02  0.40947783321E+02  0.00000000000E+00 0. -1.
<mgrwt>
<rscale>  0 0.11694456E+03</rscale>
<asrwt>0</asrwt>
<pdfrwt beam="2">  1        3 0.23958589E-01 0.12690930E+03</pdfrwt>
<pdfrwt beam="1">  1       -3 0.14124896E-01 0.12690930E+03</pdfrwt>
<totfact> 0.15176828E+03</totfact>
</mgrwt>
</event>
<event>
 7    1  0.6419647E-006  0.1681557E+03  0.7546771E-02  0.1186689E+00
          1   -1    0    0  501    0  0.00000000000E+00  0.00000000000E+00  0.43277780668E+03  0.43277780668E+03  0.00000000000E+00 0. -1.
         -1   -1    0    0    0  501 -0.00000000000E+00 -0.00000000000E+00 -0.56478270691E+02  0.56478270691E+02  0.00000000000E+00 0.  1.
         23    2    1    2    0    0  0.40207740010E+02  0.10504529322E+03  0.21520013401E+03  0.27310703714E+03  0.12500072029E+03 0.  0.
          5    1    3    3  502    0  0.74160778333E+02  0.28071088248E+02  0.13582168800E+03  0.15734493309E+03  0.47000000000E+01 0. -1.
         -5    1    3    3    0  502 -0.33953038323E+02  0.76974204976E+02  0.79378446014E+02  0.11576210405E+03  0.47000000000E+01 0. -1.
        -11    1    1    2    0    0 -0.11794681741E+02 -0.89778888416E+02  0.16003535857E+03  0.18387680472E+03  0.00000000000E+00 0. -1.
         11    1    1    2    0    0 -0.28413058269E+02 -0.15266404809E+02  0.10640434049E+01  0.32272235503E+02  0.00000000000E+00 0.  1.
<mgrwt>
<rscale>  0 0.16179181E+03</rscale>
<asrwt>0</asrwt>
<pdfrwt beam="1">  1        1 0.66581199E-01 0.16815575E+03</pdfrwt>
<pdfrwt beam="2">  1       -1 0.86889650E-02 0.16815575E+03</pdfrwt>
<totfact> 0.40465471E+03</totfact>
</mgrwt>
</event>
<event>
 7    1  0.6419647E-006  0.1310501E+03  0.7546771E-02  0.1239680E+00
          2   -1    0    0  501    0  0.00000000000E+00  0.00000000000E+00  0.21850996980E+03  0.21850996980E+03  0.00000000000E+00 0.  1.
         -2   -1    0    0    0  501 -0.00000000000E+00 -0.00000000000E+00 -0.70807965930E+02  0.70807965930E+02  0.00000000000E+00 0. -1.
         23    2    1    2    0    0  0.39135388092E+02 -0.41832865242E+01  0.13767091559E+03  0.19007210042E+03  0.12500017549E+03 0.  0.
          5    1    3    3  502    0  0.46447885882E+02  0.26773064540E+02  0.55588877009E+01  0.54103551827E+02  0.47000000000E+01 0. -1.
         -5    1    3    3    0  502 -0.73124977907E+01 -0.30956351064E+02  0.13211202789E+03  0.13596854860E+03  0.47000000000E+01 0. -1.
        -11    1    1    2    0    0 -0.49713556547E+02  0.18146746547E+02  0.38759586147E+02  0.65597619112E+02  0.00000000000E+00 0.  1.
         11    1    1    2    0    0  0.10578168456E+02 -0.13963460023E+02 -0.28728497863E+02  0.33648216196E+02  0.00000000000E+00 0. -1.
<mgrwt>
<rscale>  0 0.12209520E+03</rscale>
<asrwt>0</asrwt>
<pdfrwt beam="1">  1        2 0.33616918E-01 0.13105008E+03</pdfrwt>
<pdfrwt beam="2">  1       -2 0.10893533E-01 0.13105008E+03</pdfrwt>
<totfact> 0.84434194E+03</totfact>
</mgrwt>
</event>
<event>
 7    1  0.6419647E-006  0.3377297E+03  0.7546771E-02  0.1068956E+00
          2   -1    0    0  501    0  0.00000000000E+00  0.00000000000E+00  0.32088574025E+04  0.32088574025E+04  0.00000000000E+00 0. -1.
         -2   -1    0    0    0  501 -0.00000000000E+00 -0.00000000000E+00 -0.43020368976E+02  0.43020368976E+02  0.00000000000E+00 0.  1.
         23    2    1    2    0    0  0.28676655121E+03 -0.12728139409E+03  0.23309978824E+04  0.23553370256E+04  0.12500307242E+03 0.  0.
          5    1    3    3  502    0  0.16840202778E+03 -0.11388368125E+03  0.17807730592E+04  0.17923458132E+04  0.47000000000E+01 0. -1.
         -5    1    3    3    0  502  0.11836452343E+03 -0.13397712833E+02  0.55022482322E+03  0.56299121237E+03  0.47000000000E+01 0. -1.
        -11    1    1    2    0    0 -0.87621958519E+02  0.46899834534E+02  0.39161958710E+03  0.40403354205E+03  0.00000000000E+00 0. -1.
         11    1    1    2    0    0 -0.19914459269E+03  0.80381559553E+02  0.44321956397E+03  0.49250720380E+03  0.00000000000E+00 0.  1.
<mgrwt>
<rscale>  0 0.33497552E+03</rscale>
<asrwt>0</asrwt>
<pdfrwt beam="1">  1        2 0.49367018E+00 0.33772974E+03</pdfrwt>
<pdfrwt beam="2">  1       -2 0.66185208E-02 0.33772974E+03</pdfrwt>
<totfact> 0.19433028E+02</totfact>
</mgrwt>
</event>
<event>
 7    1  0.6419647E-006  0.1338349E+03  0.7546771E-02  0.1233339E+00
          2   -1    0    0  501    0  0.00000000000E+00  0.00000000000E+00  0.27707167593E+03  0.27707167593E+03  0.00000000000E+00 0. -1.
         -2   -1    0    0    0  501 -0.00000000000E+00 -0.00000000000E+00 -0.51694455059E+02  0.51694455059E+02  0.00000000000E+00 0.  1.
         23    2    1    2    0    0 -0.10147004376E+02  0.46720829353E+02  0.12675241995E+03  0.18433112812E+03  0.12500396488E+03 0.  0.
          5    1    3    3  502    0  0.55331639463E+02  0.45881624737E+01  0.49143529418E+02  0.74295477953E+02  0.47000000000E+01 0.  1.
         -5    1    3    3    0  502 -0.65478643839E+02  0.42132666880E+02  0.77608890531E+02  0.11003565016E+03  0.47000000000E+01 0.  1.
        -11    1    1    2    0    0 -0.96338539739E+01  0.11139014843E+02 -0.11357039519E+02  0.18597611156E+02  0.00000000000E+00 0.  1.
         11    1    1    2    0    0  0.19780858350E+02 -0.57859844197E+02  0.10998184044E+03  0.12583739172E+03  0.00000000000E+00 0. -1.
<mgrwt>
<rscale>  0 0.12611349E+03</rscale>
<asrwt>0</asrwt>
<pdfrwt beam="1">  1        2 0.42626411E-01 0.13383493E+03</pdfrwt>
<pdfrwt beam="2">  1       -2 0.79529932E-02 0.13383493E+03</pdfrwt>
<totfact> 0.10731976E+04</totfact>
</mgrwt>
</event>
<event>
 7    1  0.6419647E-006  0.2323262E+03  0.7546771E-02  0.1127715E+00
          1   -1    0    0  501    0  0.00000000000E+00  0.00000000000E+00  0.36614395264E+03  0.36614395264E+03  0.00000000000E+00 0. -1.
         -1   -1    0    0    0  501 -0.00000000000E+00 -0.00000000000E+00 -0.14535965281E+03  0.14535965281E+03  0.00000000000E+00 0.  1.
         23    2    1    2    0    0  0.49225172452E+02 -0.18954170887E+03  0.17123696981E+03  0.28861319692E+03  0.12500520230E+03 0.  0.
          5    1    3    3  502    0  0.14198580606E+02 -0.18000463819E+03  0.95092725100E+02  0.20412737648E+03  0.47000000000E+01 0. -1.
         -5    1    3    3    0  502  0.35026591846E+02 -0.95370706843E+01  0.76144244709E+02  0.84485820443E+02  0.47000000000E+01 0. -1.
        -11    1    1    2    0    0  0.28150990175E+01  0.10419737295E+02 -0.20883611976E+02  0.23507891376E+02  0.00000000000E+00 0.  1.
         11    1    1    2    0    0 -0.52040271469E+02  0.17912197158E+03  0.70430941991E+02  0.19938251715E+03  0.00000000000E+00 0. -1.
<mgrwt>
<rscale>  0 0.22847854E+03</rscale>
<asrwt>0</asrwt>
<pdfrwt beam="1">  1        1 0.56329839E-01 0.23232623E+03</pdfrwt>
<pdfrwt beam="2">  1       -1 0.22363024E-01 0.23232623E+03</pdfrwt>
<totfact> 0.11383398E+03</totfact>
</mgrwt>
</event>
<event>
 7    1  0.6419647E-006  0.1363491E+03  0.7546771E-02  0.1231226E+00
          3   -1    0    0  501    0  0.00000000000E+00  0.00000000000E+00  0.90177075778E+02  0.90177075778E+02  0.00000000000E+00 0. -1.
         -3   -1    0    0    0  501 -0.00000000000E+00 -0.00000000000E+00 -0.16638280686E+03  0.16638280686E+03  0.00000000000E+00 0.  1.
         23    2    1    2    0    0 -0.29596411424E+02 -0.45700457369E+02 -0.18994160425E+02  0.13766577419E+03  0.12500643135E+03 0.  0.
          5    1    3    3  502    0 -0.70299420747E+01 -0.48324538873E+02 -0.67764410567E+02  0.83658750184E+02  0.47000000000E+01 0. -1.
         -5    1    3    3    0  502 -0.22566469349E+02  0.26240815045E+01  0.48770250142E+02  0.54007024002E+02  0.47000000000E+01 0. -1.
        -11    1    1    2    0    0  0.43675131778E+02  0.18922857875E+01 -0.58296024436E+02  0.72866483011E+02  0.00000000000E+00 0.  1.
         11    1    1    2    0    0 -0.14078720354E+02  0.43808171581E+02  0.10844537755E+01  0.46027625445E+02  0.00000000000E+00 0. -1.
<mgrwt>
<rscale>  0 0.12749150E+03</rscale>
<asrwt>0</asrwt>
<pdfrwt beam="1">  1        3 0.13873396E-01 0.13634914E+03</pdfrwt>
<pdfrwt beam="2">  1       -3 0.25597355E-01 0.13634914E+03</pdfrwt>
<totfact> 0.14055621E+03</totfact>
</mgrwt>
</event>
<event>
 7    1  0.6419647E-006  0.1536332E+03  0.7546771E-02  0.1204378E+00
         -2   -1    0    0    0  501 -0.00000000000E+00  0.00000000000E+00  0.36955318870E+02  0.36955318870E+02  0.00000000000E+00 0.  1.
          2   -1    0    0  501    0  0.00000000000E+00 -0.00000000000E+00 -0.70305883092E+03  0.70305883092E+03  0.00000000000E+00 0. -1.
         23    2    1    2    0    0  0.88885141755E+02 -0.86063150396E+01 -0.53482169800E+03  0.55645073213E+03  0.12501412539E+03 0.  0.
          5    1    3    3  502    0  0.10724181724E+02 -0.37711888272E+02 -0.36566956125E+03  0.36779547661E+03  0.47000000000E+01 0.  1.
         -5    1    3    3    0  502  0.78160960030E+02  0.29105573233E+02 -0.16915213675E+03  0.18865525552E+03  0.47000000000E+01 0.  1.
        -11    1    1    2    0    0 -0.32450182063E+02  0.31167521921E+02 -0.11053629336E+03  0.11934278733E+03  0.00000000000E+00 0. -1.
         11    1    1    2    0    0 -0.56434959691E+02 -0.22561206882E+02 -0.20745520687E+02  0.64220630329E+02  0.00000000000E+00 0.  1.
<mgrwt>
<rscale>  0 0.14686544E+03</rscale>
<asrwt>0</asrwt>
<pdfrwt beam="2">  1        2 0.10816289E+00 0.15363323E+03</pdfrwt>
<pdfrwt beam="1">  1       -2 0.56854338E-02 0.15363323E+03</pdfrwt>
<totfact> 0.65145640E+03</totfact>
</mgrwt>
</event>
<event>
 7    1  0.6419647E-006  0.1319865E+03  0.7546771E-02  0.1237759E+00
         -1   -1    0    0    0  501 -0.00000000000E+00  0.00000000000E+00  0.41776025948E+02  0.41776025948E+02  0.00000000000E+00 0. -1.
          1   -1    0    0  501    0  0.00000000000E+00 -0.00000000000E+00 -0.38936881783E+03  0.38936881783E+03  0.00000000000E+00 0.  1.
         23    2    1    2    0    0 -0.78411820217E+01  0.41639915029E+02 -0.28136002727E+03  0.31077950664E+03  0.12500028056E+03 0.  0.
          5    1    3    3  502    0 -0.17390124085E+02 -0.33911463394E+02 -0.17922771054E+03  0.18329502445E+03  0.47000000000E+01 0. -1.
         -5    1    3    3    0  502  0.95489420631E+01  0.75551378423E+02 -0.10213231673E+03  0.12748448218E+03  0.47000000000E+01 0. -1.
        -11    1    1    2    0    0 -0.19293127391E+02 -0.45033123742E+02 -0.76761034372E+02  0.91062963912E+02  0.00000000000E+00 0.  1.
         11    1    1    2    0    0  0.27134309413E+02  0.33932087128E+01  0.10528269761E+02  0.29302373229E+02  0.00000000000E+00 0. -1.
<mgrwt>
<rscale>  0 0.12329427E+03</rscale>
<asrwt>0</asrwt>
<pdfrwt beam="2">  1        1 0.59902896E-01 0.13198650E+03</pdfrwt>
<pdfrwt beam="1">  1       -1 0.64270808E-02 0.13198650E+03</pdfrwt>
<totfact> 0.71950156E+03</totfact>
</mgrwt>
</event>
<event>
 7    1  0.6419647E-006  0.1279166E+03  0.7546771E-02  0.1239238E+00
         -1   -1    0    0    0  501 -0.00000000000E+00  0.00000000000E+00  0.73011652289E+02  0.73011652289E+02  0.00000000000E+00 0.  1.
          1   -1    0    0  501    0  0.00000000000E+00 -0.00000000000E+00 -0.19609512278E+03  0.19609512278E+03  0.00000000000E+00 0. -1.
         23    2    1    2    0    0 -0.23348200787E+02 -0.54360304388E+02 -0.91977662270E+02  0.15755170518E+03  0.11341282236E+03 0.  0.
          5    1    3    3  502    0 -0.68942367565E+02 -0.38345207974E+02 -0.62450532927E+02  0.10072519091E+03  0.47000000000E+01 0. -1.
         -5    1    3    3    0  502  0.45594166778E+02 -0.16015096414E+02 -0.29527129343E+02  0.56826514274E+02  0.47000000000E+01 0.  1.
        -11    1    1    2    0    0 -0.50038522084E+01  0.66542524742E+02  0.13859713755E+01  0.66744790453E+02  0.00000000000E+00 0.  1.
         11    1    1    2    0    0  0.28352052996E+02 -0.12182220354E+02 -0.32491779601E+02  0.44810279440E+02  0.00000000000E+00 0. -1.
<mgrwt>
<rscale>  0 0.12236958E+03</rscale>
<asrwt>0</asrwt>
<pdfrwt beam="2">  1        1 0.30168480E-01 0.12791657E+03</pdfrwt>
<pdfrwt beam="1">  1       -1 0.11232562E-01 0.12791657E+03</pdfrwt>
<totfact> 0.72220072E+03</totfact>
</mgrwt>
</event>
<event>
 7    1  0.6419647E-006  0.1338447E+03  0.7546771E-02  0.1229865E+00
          4   -1    0    0  501    0  0.00000000000E+00  0.00000000000E+00  0.16145713801E+03  0.16145713801E+03  0.00000000000E+00 0. -1.
         -4   -1    0    0    0  501 -0.00000000000E+00 -0.00000000000E+00 -0.96250897319E+02  0.96250897319E+02  0.00000000000E+00 0.  1.
         23    2    1    2    0    0  0.69399611337E+02 -0.27950705535E+01  0.52114050793E+02  0.14363240347E+03  0.11441273777E+03 0.  0.
          5    1    3    3  502    0  0.19269234431E+01 -0.27685523962E+02  0.64620370136E+02  0.70484633131E+02  0.47000000000E+01 0. -1.
         -5    1    3    3    0  502  0.67472687894E+02  0.24890453409E+02 -0.12506319343E+02  0.73147770342E+02  0.47000000000E+01 0.  1.
        -11    1    1    2    0    0 -0.86122532560E+02  0.17407994308E+02 -0.82326916285E+00  0.87868120798E+02  0.00000000000E+00 0.  1.
         11    1    1    2    0    0  0.16722921224E+02 -0.14612923755E+02  0.13915459059E+02  0.26207511056E+02  0.00000000000E+00 0. -1.
<mgrwt>
<rscale>  0 0.12838941E+03</rscale>
<asrwt>0</asrwt>
<pdfrwt beam="1">  1        4 0.24839560E-01 0.13384466E+03</pdfrwt>
<pdfrwt beam="2">  1       -4 0.14807830E-01 0.13384466E+03</pdfrwt>
<totfact> 0.96253576E+02</totfact>
</mgrwt>
</event>
<event>
 7    1  0.7130433E-006  0.2068713E+03  0.7546771E-02  0.1147919E+00
         -2   -1    0    0    0  501 -0.00000000000E+00  0.00000000000E+00  0.84168877904E+02  0.84168877904E+02  0.00000000000E+00 0.  1.
          2   -1    0    0  501    0  0.00000000000E+00 -0.00000000000E+00 -0.55703427867E+03  0.55703427867E+03  0.00000000000E+00 0. -1.
         23    2    1    2    0    0 -0.67782341058E+02 -0.15025241274E+03 -0.37584247695E+03  0.42901431565E+03  0.12500192901E+03 0.  0.
          5    1    3    3  502    0 -0.52868360619E+02 -0.86225653442E+02 -0.89351061328E+02  0.13503936103E+03  0.47000000000E+01 0.  1.
         -5    1    3    3    0  502 -0.14913980439E+02 -0.64026759301E+02 -0.28649141562E+03  0.29397495462E+03  0.47000000000E+01 0.  1.
        -11    1    1    2    0    0 -0.16932639974E+02  0.67945234022E+02 -0.28219826873E+02  0.75495879037E+02  0.00000000000E+00 0.  1.
         11    1    1    2    0    0  0.84714981032E+02  0.82307178722E+02 -0.68803096939E+02  0.13669296188E+03  0.00000000000E+00 0. -1.
<mgrwt>
<rscale>  0 0.20217274E+03</rscale>
<asrwt>0</asrwt>
<pdfrwt beam="2">  1        2 0.85697579E-01 0.20687125E+03</pdfrwt>
<pdfrwt beam="1">  1       -2 0.12949058E-01 0.20687125E+03</pdfrwt>
<totfact> 0.23814505E+03</totfact>
</mgrwt>
</event>
<event>
 7    1  0.6419647E-006  0.1553051E+03  0.7546771E-02  0.1202432E+00
         -1   -1    0    0    0  501 -0.00000000000E+00  0.00000000000E+00  0.23892629856E+02  0.23892629856E+02  0.00000000000E+00 0.  1.
          1   -1    0    0  501    0  0.00000000000E+00 -0.00000000000E+00 -0.84902565579E+03  0.84902565579E+03  0.00000000000E+00 0. -1.
         23    2    1    2    0    0  0.27540661619E+02 -0.87952261357E+02 -0.44509192137E+03  0.47140906022E+03  0.12500238106E+03 0.  0.
          5    1    3    3  502    0  0.13460957969E+02  0.23564501576E+02 -0.19806769232E+03  0.19997345790E+03  0.47000000000E+01 0. -1.
         -5    1    3    3    0  502  0.14079703650E+02 -0.11151676293E+03 -0.24702422905E+03  0.27143560232E+03  0.47000000000E+01 0. -1.
        -11    1    1    2    0    0 -0.47055301304E+02  0.32536868066E+02 -0.27744791394E+03  0.28328465209E+03  0.00000000000E+00 0. -1.
         11    1    1    2    0    0  0.19514639685E+02  0.55415393291E+02 -0.10259319063E+03  0.11822457333E+03  0.00000000000E+00 0.  1.
<mgrwt>
<rscale>  0 0.14841686E+03</rscale>
<asrwt>0</asrwt>
<pdfrwt beam="2">  1        1 0.13061932E+00 0.15530513E+03</pdfrwt>
<pdfrwt beam="1">  1       -1 0.36757895E-02 0.15530513E+03</pdfrwt>
<totfact> 0.57177147E+03</totfact>
</mgrwt>
</event>
<event>
 7    1  0.6419647E-006  0.1525468E+03  0.7546771E-02  0.1208231E+00
          1   -1    0    0  501    0  0.00000000000E+00  0.00000000000E+00  0.11995309057E+04  0.11995309057E+04  0.00000000000E+00 0. -1.
         -1   -1    0    0    0  501 -0.00000000000E+00 -0.00000000000E+00 -0.31448468260E+02  0.31448468260E+02  0.00000000000E+00 0.  1.
         23    2    1    2    0    0  0.19386389329E+02  0.81051487941E+02  0.10538437222E+04  0.10648272685E+04  0.12777067390E+03 0.  0.
          5    1    3    3  502    0 -0.18318847132E+02 -0.24745046328E+02  0.41513356890E+03  0.41630021320E+03  0.47000000000E+01 0. -1.
         -5    1    3    3    0  502  0.37705236461E+02  0.10579653427E+03  0.63871015326E+03  0.64852705526E+03  0.47000000000E+01 0.  1.
        -11    1    1    2    0    0 -0.52605317374E+02 -0.36958946726E+02  0.72801264275E+02  0.97125214230E+02  0.00000000000E+00 0.  1.
         11    1    1    2    0    0  0.33218928046E+02 -0.44092541215E+02  0.41437450952E+02  0.69026891229E+02  0.00000000000E+00 0. -1.
<mgrwt>
<rscale>  0 0.14385756E+03</rscale>
<asrwt>0</asrwt>
<pdfrwt beam="1">  1        1 0.18454318E+00 0.15254678E+03</pdfrwt>
<pdfrwt beam="2">  1       -1 0.48382268E-02 0.15254678E+03</pdfrwt>
<totfact> 0.21095782E+03</totfact>
</mgrwt>
</event>
<event>
 7    1  0.6419647E-006  0.1374482E+03  0.7546771E-02  0.1228895E+00
         -2   -1    0    0    0  501 -0.00000000000E+00  0.00000000000E+00  0.10456543875E+03  0.10456543875E+03  0.00000000000E+00 0.  1.
          2   -1    0    0  501    0  0.00000000000E+00 -0.00000000000E+00 -0.14277082488E+03  0.14277082488E+03  0.00000000000E+00 0. -1.
         23    2    1    2    0    0 -0.10789371958E+02 -0.56126320209E+02 -0.25939300320E+02  0.13987444048E+03  0.12500174971E+03 0.  0.
          5    1    3    3  502    0  0.29959936078E+02 -0.76221845897E+02 -0.41091437820E+02  0.91749462254E+02  0.47000000000E+01 0. -1.
         -5    1    3    3    0  502 -0.40749308036E+02  0.20095525688E+02  0.15152137499E+02  0.48124978223E+02  0.47000000000E+01 0. -1.
        -11    1    1    2    0    0 -0.29789657030E+02  0.16786660979E+02 -0.32749068543E+02  0.47346775426E+02  0.00000000000E+00 0. -1.
         11    1    1    2    0    0  0.40579028988E+02  0.39339659230E+02  0.20482982727E+02  0.60115047728E+02  0.00000000000E+00 0.  1.
<mgrwt>
<rscale>  0 0.12903453E+03</rscale>
<asrwt>0</asrwt>
<pdfrwt beam="2">  1        2 0.21964742E-01 0.13744821E+03</pdfrwt>
<pdfrwt beam="1">  1       -2 0.16086991E-01 0.13744821E+03</pdfrwt>
<totfact> 0.71972262E+03</totfact>
</mgrwt>
</event>
<event>
 7    1  0.6419647E-006  0.1401096E+03  0.7546771E-02  0.1224526E+00
         -1   -1    0    0    0  501 -0.00000000000E+00  0.00000000000E+00  0.51989947008E+02  0.51989947008E+02  0.00000000000E+00 0.  1.
          1   -1    0    0  501    0  0.00000000000E+00 -0.00000000000E+00 -0.42225024840E+03  0.42225024840E+03  0.00000000000E+00 0. -1.
         23    2    1    2    0    0  0.90705404204E+00 -0.63262561730E+02 -0.32690845388E+03  0.35566814172E+03  0.12501086095E+03 0.  0.
          5    1    3    3  502    0 -0.23643827140E+02 -0.80224123382E+02 -0.30985577808E+03  0.32097917961E+03  0.47000000000E+01 0. -1.
         -5    1    3    3    0  502  0.24550881182E+02  0.16961561652E+02 -0.17052675801E+02  0.34688962113E+02  0.47000000000E+01 0. -1.
        -11    1    1    2    0    0 -0.14459490462E+02  0.11941499165E+02  0.25488431117E+02  0.31643899689E+02  0.00000000000E+00 0.  1.
         11    1    1    2    0    0  0.13552436420E+02  0.51321062564E+02 -0.68840278630E+02  0.86928153998E+02  0.00000000000E+00 0. -1.
<mgrwt>
<rscale>  0 0.13199471E+03</rscale>
<asrwt>0</asrwt>
<pdfrwt beam="2">  1        1 0.64961574E-01 0.14010956E+03</pdfrwt>
<pdfrwt beam="1">  1       -1 0.79984537E-02 0.14010956E+03</pdfrwt>
<totfact> 0.46932222E+03</totfact>
</mgrwt>
</event>
<event>
 7    1  0.6419647E-006  0.1396945E+03  0.7546771E-02  0.1224305E+00
         -2   -1    0    0    0  501 -0.00000000000E+00  0.00000000000E+00  0.41805735281E+02  0.41805735281E+02  0.00000000000E+00 0.  1.
          2   -1    0    0  501    0  0.00000000000E+00 -0.00000000000E+00 -0.46333479050E+03  0.46333479050E+03  0.00000000000E+00 0. -1.
         23    2    1    2    0    0  0.17136743810E+02 -0.59958606726E+02 -0.33739095246E+03  0.36516736744E+03  0.12500339569E+03 0.  0.
          5    1    3    3  502    0 -0.83173753101E+00 -0.80918523069E+02 -0.32425764586E+03  0.33423585993E+03  0.47000000000E+01 0. -1.
         -5    1    3    3    0  502  0.17968481341E+02  0.20959916343E+02 -0.13133306598E+02  0.30931507513E+02  0.47000000000E+01 0. -1.
        -11    1    1    2    0    0 -0.18757377580E+02 -0.32719045771E+01 -0.73384276701E+02  0.75814224524E+02  0.00000000000E+00 0. -1.
         11    1    1    2    0    0  0.16206337693E+01  0.63230511304E+02 -0.10753826060E+02  0.64158933816E+02  0.00000000000E+00 0.  1.
<mgrwt>
<rscale>  0 0.13214654E+03</rscale>
<asrwt>0</asrwt>
<pdfrwt beam="2">  1        2 0.71282272E-01 0.13969449E+03</pdfrwt>
<pdfrwt beam="1">  1       -2 0.64316519E-02 0.13969449E+03</pdfrwt>
<totfact> 0.86144377E+03</totfact>
</mgrwt>
</event>
<event>
 7    1  0.6419647E-006  0.1283137E+03  0.7546771E-02  0.1239148E+00
          2   -1    0    0  501    0  0.00000000000E+00  0.00000000000E+00  0.25062730759E+03  0.25062730759E+03  0.00000000000E+00 0. -1.
         -2   -1    0    0    0  501 -0.00000000000E+00 -0.00000000000E+00 -0.17221356378E+03  0.17221356378E+03  0.00000000000E+00 0.  1.
         23    2    1    2    0    0 -0.42510827264E+01  0.54887119377E+02  0.21461431434E+03  0.25004744015E+03  0.11590405873E+03 0.  0.
          5    1    3    3  502    0 -0.30603100106E+02  0.56647118672E+02  0.21366547507E+03  0.22320499776E+03  0.47000000000E+01 0. -1.
         -5    1    3    3    0  502  0.26352017380E+02 -0.17599992948E+01  0.94883926844E+00  0.26842442390E+02  0.47000000000E+01 0.  1.
        -11    1    1    2    0    0  0.22265143838E+02 -0.16313396130E+02  0.24917789999E+01  0.27714120697E+02  0.00000000000E+00 0. -1.
         11    1    1    2    0    0 -0.18014061112E+02 -0.38573723247E+02 -0.13869234952E+03  0.14507931051E+03  0.00000000000E+00 0.  1.
<mgrwt>
<rscale>  0 0.12242587E+03</rscale>
<asrwt>0</asrwt>
<pdfrwt beam="1">  1        2 0.38558047E-01 0.12831375E+03</pdfrwt>
<pdfrwt beam="2">  1       -2 0.26494394E-01 0.12831375E+03</pdfrwt>
<totfact> 0.16650530E+03</totfact>
</mgrwt>
</event>
<event>
 7    1  0.6419647E-006  0.2578023E+03  0.7546771E-02  0.1110365E+00
         -2   -1    0    0    0  501 -0.00000000000E+00  0.00000000000E+00  0.72619441467E+02  0.72619441467E+02  0.00000000000E+00 0.  1.
          2   -1    0    0  501    0  0.00000000000E+00 -0.00000000000E+00 -0.91290475712E+03  0.91290475712E+03  0.00000000000E+00 0. -1.
         23    2    1    2    0    0 -0.15090671036E+03 -0.16752270139E+03 -0.53339193334E+03  0.59242633423E+03  0.12500126487E+03 0.  0.
          5    1    3    3  502    0 -0.14199995469E+03 -0.82467755853E+02 -0.41474808891E+03  0.44609750632E+03  0.47000000000E+01 0. -1.
         -5    1    3    3    0  502 -0.89067556733E+01 -0.85054945533E+02 -0.11864384443E+03  0.14632882791E+03  0.47000000000E+01 0. -1.
        -11    1    1    2    0    0  0.16050801214E+01  0.18154863548E+02  0.26040924380E+01  0.18410775380E+02  0.00000000000E+00 0.  1.
         11    1    1    2    0    0  0.14930163024E+03  0.14936783784E+03 -0.30949747475E+03  0.37468708898E+03  0.00000000000E+00 0. -1.
<mgrwt>
<rscale>  0 0.25470816E+03</rscale>
<asrwt>0</asrwt>
<pdfrwt beam="2">  1        2 0.14044688E+00 0.25780226E+03</pdfrwt>
<pdfrwt beam="1">  1       -2 0.11172222E-01 0.25780226E+03</pdfrwt>
<totfact> 0.16537181E+03</totfact>
</mgrwt>
</event>
<event>
 7    1  0.6419647E-006  0.1391114E+03  0.7546771E-02  0.1225769E+00
          2   -1    0    0  501    0  0.00000000000E+00  0.00000000000E+00  0.12512537140E+03  0.12512537140E+03  0.00000000000E+00 0. -1.
         -2   -1    0    0    0  501 -0.00000000000E+00 -0.00000000000E+00 -0.17629170637E+03  0.17629170637E+03  0.00000000000E+00 0.  1.
         23    2    1    2    0    0 -0.36718511327E+02 -0.48784976875E+02  0.54094139069E+02  0.14925867827E+03  0.12499501636E+03 0.  0.
          5    1    3    3  502    0 -0.50260219688E+02  0.12936535569E+02  0.66710040769E+02  0.84650830917E+02  0.47000000000E+01 0.  1.
         -5    1    3    3    0  502  0.13541708361E+02 -0.61721512444E+02 -0.12615901700E+02  0.64607847352E+02  0.47000000000E+01 0.  1.
        -11    1    1    2    0    0  0.48248702437E+02  0.30019712040E+02 -0.14337866410E+02  0.58606269383E+02  0.00000000000E+00 0. -1.
         11    1    1    2    0    0 -0.11530191110E+02  0.18765264835E+02 -0.90922607633E+02  0.93552130121E+02  0.00000000000E+00 0.  1.
<mgrwt>
<rscale>  0 0.13114334E+03</rscale>
<asrwt>0</asrwt>
<pdfrwt beam="1">  1        2 0.19250057E-01 0.13911138E+03</pdfrwt>
<pdfrwt beam="2">  1       -2 0.27121801E-01 0.13911138E+03</pdfrwt>
<totfact> 0.34312087E+03</totfact>
</mgrwt>
</event>
<event>
 7    1  0.6419647E-006  0.1596449E+03  0.7546771E-02  0.1197058E+00
          2   -1    0    0  501    0  0.00000000000E+00  0.00000000000E+00  0.43368994629E+03  0.43368994629E+03  0.00000000000E+00 0. -1.
         -2   -1    0    0    0  501 -0.00000000000E+00 -0.00000000000E+00 -0.56521292788E+02  0.56521292788E+02  0.00000000000E+00 0.  1.
         23    2    1    2    0    0 -0.98720864415E+02 -0.10689164298E+02  0.28783487971E+03  0.32914345502E+03  0.12500571467E+03 0.  0.
          5    1    3    3  502    0  0.27162027013E+02 -0.18809706851E+02  0.63265307125E+02  0.71527406418E+02  0.47000000000E+01 0.  1.
         -5    1    3    3    0  502 -0.12588289143E+03  0.81205425538E+01  0.22456957258E+03  0.25761604860E+03  0.47000000000E+01 0.  1.
        -11    1    1    2    0    0  0.71228671314E+02 -0.34637105615E+02  0.66205768372E+02  0.10323011415E+03  0.00000000000E+00 0. -1.
         11    1    1    2    0    0  0.27492193101E+02  0.45326269913E+02  0.23128005427E+02  0.57837669911E+02  0.00000000000E+00 0.  1.
<mgrwt>
<rscale>  0 0.15281344E+03</rscale>
<asrwt>0</asrwt>
<pdfrwt beam="1">  1        2 0.66721528E-01 0.15964491E+03</pdfrwt>
<pdfrwt beam="2">  1       -2 0.86955838E-02 0.15964491E+03</pdfrwt>
<totfact> 0.58615575E+03</totfact>
</mgrwt>
</event>
<event>
 7    1  0.6419647E-006  0.1365312E+03  0.7546771E-02  0.1231781E+00
          1   -1    0    0  501    0  0.00000000000E+00  0.00000000000E+00  0.35130224853E+02  0.35130224853E+02  0.00000000000E+00 0. -1.
         -1   -1    0    0    0  501 -0.00000000000E+00 -0.00000000000E+00 -0.41473915405E+03  0.41473915405E+03  0.00000000000E+00 0.  1.
         23    2    1    2    0    0  0.23363290066E+02 -0.49659315409E+02 -0.18585676452E+03  0.23061551465E+03  0.12501555003E+03 0.  0.
          5    1    3    3  502    0 -0.50642017066E+02 -0.83838943959E+01 -0.65630696688E+02  0.83452872482E+02  0.47000000000E+01 0. -1.
         -5    1    3    3    0  502  0.74005307131E+02 -0.41275421013E+02 -0.12022606784E+03  0.14716264217E+03  0.47000000000E+01 0. -1.
        -11    1    1    2    0    0  0.31611416532E+02  0.25414893988E+02 -0.57749803625E+02  0.70570803526E+02  0.00000000000E+00 0. -1.
         11    1    1    2    0    0 -0.54974706598E+02  0.24244421421E+02 -0.13600236104E+03  0.14868306072E+03  0.00000000000E+00 0.  1.
<mgrwt>
<rscale>  0 0.12712756E+03</rscale>
<asrwt>0</asrwt>
<pdfrwt beam="1">  1        1 0.54046500E-02 0.13653124E+03</pdfrwt>
<pdfrwt beam="2">  1       -1 0.63806024E-01 0.13653124E+03</pdfrwt>
<totfact> 0.36973789E+03</totfact>
</mgrwt>
</event>
<event>
 7    1  0.6419647E-006  0.1335448E+03  0.7546771E-02  0.1235200E+00
          1   -1    0    0  501    0  0.00000000000E+00  0.00000000000E+00  0.48332114355E+03  0.48332114355E+03  0.00000000000E+00 0. -1.
         -1   -1    0    0    0  501 -0.00000000000E+00 -0.00000000000E+00 -0.30302393237E+02  0.30302393237E+02  0.00000000000E+00 0.  1.
         23    2    1    2    0    0  0.44049168922E+02  0.16419139968E+02  0.31260180105E+03  0.33993248157E+03  0.12499715422E+03 0.  0.
          5    1    3    3  502    0 -0.67112326628E+01  0.54525339797E+02  0.69925949234E+02  0.89049321727E+02  0.47000000000E+01 0. -1.
         -5    1    3    3    0  502  0.50760401585E+02 -0.38106199829E+02  0.24267585182E+03  0.25088315984E+03  0.47000000000E+01 0. -1.
        -11    1    1    2    0    0  0.10883330561E+02 -0.36691277832E+02  0.29698057746E+02  0.48442454386E+02  0.00000000000E+00 0.  1.
         11    1    1    2    0    0 -0.54932499483E+02  0.20272137865E+02  0.11071889151E+03  0.12524860083E+03  0.00000000000E+00 0. -1.
<mgrwt>
<rscale>  0 0.12491608E+03</rscale>
<asrwt>0</asrwt>
<pdfrwt beam="1">  1        1 0.74357093E-01 0.13354477E+03</pdfrwt>
<pdfrwt beam="2">  1       -1 0.46619070E-02 0.13354477E+03</pdfrwt>
<totfact> 0.88043479E+03</totfact>
</mgrwt>
</event>
<event>
 7    1  0.6419647E-006  0.1563474E+03  0.7546771E-02  0.1200522E+00
          1   -1    0    0  501    0  0.00000000000E+00  0.00000000000E+00  0.12554936035E+03  0.12554936035E+03  0.00000000000E+00 0. -1.
         -1   -1    0    0    0  501 -0.00000000000E+00 -0.00000000000E+00 -0.23422016595E+03  0.23422016595E+03  0.00000000000E+00 0.  1.
         23    2    1    2    0    0 -0.11342879037E+02  0.93218162627E+02  0.39353642181E+02  0.16122414545E+03  0.12500491661E+03 0.  0.
          5    1    3    3  502    0 -0.14185567676E+02  0.97421613287E+02 -0.20751809319E+02  0.10072203659E+03  0.47000000000E+01 0. -1.
         -5    1    3    3    0  502  0.28426886391E+01 -0.42034506600E+01  0.60105451501E+02  0.60502108858E+02  0.47000000000E+01 0. -1.
        -11    1    1    2    0    0  0.47369371291E+01 -0.10525292754E+03 -0.15135822765E+03  0.18441781477E+03  0.00000000000E+00 0.  1.
         11    1    1    2    0    0  0.66059419080E+01  0.12034764909E+02  0.33337798664E+01  0.14127566071E+02  0.00000000000E+00 0. -1.
<mgrwt>
<rscale>  0 0.14996013E+03</rscale>
<asrwt>0</asrwt>
<pdfrwt beam="1">  1        1 0.19315286E-01 0.15634742E+03</pdfrwt>
<pdfrwt beam="2">  1       -1 0.36033872E-01 0.15634742E+03</pdfrwt>
<totfact> 0.19462133E+03</totfact>
</mgrwt>
</event>
<event>
 7    1  0.6419647E-006  0.1271372E+03  0.7546771E-02  0.1245874E+00
          2   -1    0    0  501    0  0.00000000000E+00  0.00000000000E+00  0.45386987873E+03  0.45386987873E+03  0.00000000000E+00 0. -1.
         -2   -1    0    0    0  501 -0.00000000000E+00 -0.00000000000E+00 -0.27486701543E+02  0.27486701543E+02  0.00000000000E+00 0.  1.
         23    2    1    2    0    0 -0.19619090660E+02  0.12478258077E+02  0.22273562344E+03  0.25646640653E+03  0.12499297615E+03 0.  0.
          5    1    3    3  502    0 -0.38021884167E+02 -0.48558925851E+02  0.90864491487E+02  0.10991850967E+03  0.47000000000E+01 0. -1.
         -5    1    3    3    0  502  0.18402793507E+02  0.61037183928E+02  0.13187113195E+03  0.14654789686E+03  0.47000000000E+01 0. -1.
        -11    1    1    2    0    0 -0.19450157646E+02 -0.41748540610E+02  0.86992251934E+02  0.98432216129E+02  0.00000000000E+00 0. -1.
         11    1    1    2    0    0  0.39069248306E+02  0.29270282534E+02  0.11665530182E+03  0.12645795762E+03  0.00000000000E+00 0.  1.
<mgrwt>
<rscale>  0 0.11833250E+03</rscale>
<asrwt>0</asrwt>
<pdfrwt beam="1">  1        2 0.69826130E-01 0.12713717E+03</pdfrwt>
<pdfrwt beam="2">  1       -2 0.42287236E-02 0.12713717E+03</pdfrwt>
<totfact> 0.16438284E+04</totfact>
</mgrwt>
</event>
<event>
 7    1  0.6419647E-006  0.1837934E+03  0.7546771E-02  0.1169387E+00
         -1   -1    0    0    0  501 -0.00000000000E+00  0.00000000000E+00  0.38932409801E+02  0.38932409801E+02  0.00000000000E+00 0.  1.
          1   -1    0    0  501    0  0.00000000000E+00 -0.00000000000E+00 -0.79375714391E+03  0.79375714391E+03  0.00000000000E+00 0. -1.
         23    2    1    2    0    0  0.12262487456E+03 -0.55839365485E+02 -0.46738726290E+03  0.50222589665E+03  0.12500041257E+03 0.  0.
          5    1    3    3  502    0 -0.11941607173E+02 -0.39295646435E+02 -0.60137568724E+02  0.72975112077E+02  0.47000000000E+01 0. -1.
         -5    1    3    3    0  502  0.13456648174E+03 -0.16543719050E+02 -0.40724969418E+03  0.42925078457E+03  0.47000000000E+01 0. -1.
        -11    1    1    2    0    0 -0.93430920240E+02 -0.37006635658E+01 -0.13491621488E+03  0.16415059185E+03  0.00000000000E+00 0.  1.
         11    1    1    2    0    0 -0.29193954323E+02  0.59540029051E+02 -0.15252125632E+03  0.16631306520E+03  0.00000000000E+00 0. -1.
<mgrwt>
<rscale>  0 0.17837288E+03</rscale>
<asrwt>0</asrwt>
<pdfrwt beam="2">  1        1 0.12211648E+00 0.18379336E+03</pdfrwt>
<pdfrwt beam="1">  1       -1 0.59896019E-02 0.18379336E+03</pdfrwt>
<totfact> 0.30898406E+03</totfact>
</mgrwt>
</event>
<event>
 7    1  0.6419647E-006  0.2036044E+03  0.7546771E-02  0.1150963E+00
         -1   -1    0    0    0  501 -0.00000000000E+00  0.00000000000E+00  0.31898925686E+02  0.31898925686E+02  0.00000000000E+00 0.  1.
          1   -1    0    0  501    0  0.00000000000E+00 -0.00000000000E+00 -0.11926125833E+04  0.11926125833E+04  0.00000000000E+00 0. -1.
         23    2    1    2    0    0 -0.31264919895E+02 -0.15764580714E+03 -0.54229188615E+03  0.57925403799E+03  0.12500022009E+03 0.  0.
          5    1    3    3  502    0  0.29140469593E+02  0.49906472505E+01 -0.86825113346E+02  0.91840970354E+02  0.47000000000E+01 0.  1.
         -5    1    3    3    0  502 -0.60405389489E+02 -0.16263645439E+03 -0.45546677280E+03  0.48741306763E+03  0.47000000000E+01 0.  1.
        -11    1    1    2    0    0 -0.13551681162E+02  0.69602081452E+02 -0.38988926302E+03  0.39628491673E+03  0.00000000000E+00 0.  1.
         11    1    1    2    0    0  0.44816601057E+02  0.88043725689E+02 -0.22853250844E+03  0.24897255427E+03  0.00000000000E+00 0. -1.
<mgrwt>
<rscale>  0 0.19855649E+03</rscale>
<asrwt>0</asrwt>
<pdfrwt beam="2">  1        1 0.18347885E+00 0.20360440E+03</pdfrwt>
<pdfrwt beam="1">  1       -1 0.49075273E-02 0.20360440E+03</pdfrwt>
<totfact> 0.20938648E+03</totfact>
</mgrwt>
</event>
<event>
 7    1  0.6419647E-006  0.1929651E+03  0.7546771E-02  0.1160430E+00
          2   -1    0    0  501    0  0.00000000000E+00  0.00000000000E+00  0.75958242689E+03  0.75958242689E+03  0.00000000000E+00 0.  1.
         -2   -1    0    0    0  501 -0.00000000000E+00 -0.00000000000E+00 -0.50270555306E+02  0.50270555306E+02  0.00000000000E+00 0. -1.
         23    2    1    2    0    0  0.12788197101E+03 -0.72470734982E+02  0.51267117542E+03  0.54778395442E+03  0.12501888127E+03 0.  0.
          5    1    3    3  502    0  0.87387705564E+02 -0.73829794126E+02  0.48539335094E+03  0.49871459245E+03  0.47000000000E+01 0. -1.
         -5    1    3    3    0  502  0.40494265441E+02  0.13590591445E+01  0.27277824474E+02  0.49069361963E+02  0.47000000000E+01 0. -1.
        -11    1    1    2    0    0 -0.99069350005E+02  0.52204778992E+01  0.12600902236E+03  0.16037538220E+03  0.00000000000E+00 0.  1.
         11    1    1    2    0    0 -0.28812621001E+02  0.67250257083E+02  0.70631673806E+02  0.10169364558E+03  0.00000000000E+00 0. -1.
<mgrwt>
<rscale>  0 0.18783306E+03</rscale>
<asrwt>0</asrwt>
<pdfrwt beam="1">  1        2 0.11685883E+00 0.19296509E+03</pdfrwt>
<pdfrwt beam="2">  1       -2 0.77339322E-02 0.19296509E+03</pdfrwt>
<totfact> 0.37320872E+03</totfact>
</mgrwt>
</event>
<event>
 6    1  0.6419647E-006  0.2086480E+03  0.7546771E-02  0.1175796E+00
          2   -1    0    0  501    0  0.00000000000E+00  0.00000000000E+00  0.34140083068E+03  0.34140083068E+03  0.00000000000E+00 0. -1.
         -2   -1    0    0    0  501 -0.00000000000E+00 -0.00000000000E+00 -0.73330907808E+02  0.73330907808E+02  0.00000000000E+00 0.  1.
          5    1    1    2  502    0 -0.26134689555E+02 -0.66121364718E+02  0.21159006382E+03  0.22326554140E+03  0.47000000000E+01 0. -1.
         -5    1    1    2    0  502  0.34203768540E+02  0.78973019592E+02  0.20053945344E+02  0.88492295313E+02  0.47000000000E+01 0.  1.
        -11    1    1    2    0    0 -0.37406717432E+02 -0.34124555305E+02 -0.13165919958E+01  0.50650579446E+02  0.00000000000E+00 0. -1.
         11    1    1    2    0    0  0.29337638446E+02  0.21272900431E+02  0.37742505702E+02  0.52323322324E+02  0.00000000000E+00 0.  1.
<mgrwt>
<rscale>  0 0.17198294E+03</rscale>
<asrwt>0</asrwt>
<pdfrwt beam="1">  1        2 0.52523204E-01 0.20864803E+03</pdfrwt>
<pdfrwt beam="2">  1       -2 0.11281678E-01 0.20864803E+03</pdfrwt>
<totfact> 0.50946068E+03</totfact>
</mgrwt>
</event>
<event>
 7    1  0.6419647E-006  0.1355005E+03  0.7546771E-02  0.1232345E+00
         -2   -1    0    0    0  501 -0.00000000000E+00  0.00000000000E+00  0.33058594050E+02  0.33058594050E+02  0.00000000000E+00 0.  1.
          2   -1    0    0  501    0  0.00000000000E+00 -0.00000000000E+00 -0.43351922304E+03  0.43351922304E+03  0.00000000000E+00 0. -1.
         23    2    1    2    0    0  0.28956669961E+02  0.43453330085E+02 -0.23500056031E+03  0.27126672750E+03  0.12503476904E+03 0.  0.
          5    1    3    3  502    0  0.36970149251E+02 -0.37038109506E+02 -0.11546695527E+03  0.12685945472E+03  0.47000000000E+01 0. -1.
         -5    1    3    3    0  502 -0.80134792901E+01  0.80491439591E+02 -0.11953360504E+03  0.14440727278E+03  0.47000000000E+01 0. -1.
        -11    1    1    2    0    0 -0.48707102415E+02 -0.43756064371E+01 -0.42508564565E+02  0.64795878100E+02  0.00000000000E+00 0.  1.
         11    1    1    2    0    0  0.19750432454E+02 -0.39077723648E+02 -0.12295150411E+03  0.13051521149E+03  0.00000000000E+00 0. -1.
<mgrwt>
<rscale>  0 0.12675919E+03</rscale>
<asrwt>0</asrwt>
<pdfrwt beam="2">  1        2 0.66695265E-01 0.13550046E+03</pdfrwt>
<pdfrwt beam="1">  1       -2 0.50859376E-02 0.13550046E+03</pdfrwt>
<totfact> 0.13175611E+04</totfact>
</mgrwt>
</event>
<event>
 7    1  0.6419647E-006  0.1819808E+03  0.7546771E-02  0.1171245E+00
         -2   -1    0    0    0  501 -0.00000000000E+00  0.00000000000E+00  0.58694805555E+03  0.58694805555E+03  0.00000000000E+00 0.  1.
          2   -1    0    0  501    0  0.00000000000E+00 -0.00000000000E+00 -0.63569892091E+02  0.63569892091E+02  0.00000000000E+00 0. -1.
         23    2    1    2    0    0  0.39179063882E+02  0.12631633452E+03  0.12482109033E+03  0.22067468977E+03  0.12500479470E+03 0.  0.
          5    1    3    3  502    0  0.67652000354E+02  0.18416185235E+02  0.46737383941E+02  0.84394443467E+02  0.47000000000E+01 0.  1.
         -5    1    3    3    0  502 -0.28472936472E+02  0.10790014929E+03  0.78083706390E+02  0.13628024630E+03  0.47000000000E+01 0.  1.
        -11    1    1    2    0    0 -0.82222124823E+01 -0.12508756370E+03  0.35427403322E+03  0.37579860828E+03  0.00000000000E+00 0.  1.
         11    1    1    2    0    0 -0.30956851400E+02 -0.12287708265E+01  0.44283039901E+02  0.54044649589E+02  0.00000000000E+00 0. -1.
<mgrwt>
<rscale>  0 0.17648927E+03</rscale>
<asrwt>0</asrwt>
<pdfrwt beam="2">  1        2 0.97799838E-02 0.18198081E+03</pdfrwt>
<pdfrwt beam="1">  1       -2 0.90299697E-01 0.18198081E+03</pdfrwt>
<totfact> 0.70765177E+02</totfact>
</mgrwt>
</event>
<event>
 7    1  0.6419647E-006  0.2157565E+03  0.7546771E-02  0.1140931E+00
          3   -1    0    0  501    0  0.00000000000E+00  0.00000000000E+00  0.45072994741E+03  0.45072994741E+03  0.00000000000E+00 0. -1.
         -3   -1    0    0    0  501 -0.00000000000E+00 -0.00000000000E+00 -0.10223719885E+03  0.10223719885E+03  0.00000000000E+00 0.  1.
         23    2    1    2    0    0  0.17436235689E+03 -0.22809258889E+02  0.25856692292E+03  0.33676061179E+03  0.12501344821E+03 0.  0.
          5    1    3    3  502    0  0.11731028021E+03  0.45606843909E+02  0.16359059018E+03  0.20645981994E+03  0.47000000000E+01 0. -1.
         -5    1    3    3    0  502  0.57052076683E+02 -0.68416102798E+02  0.94976332743E+02  0.13030079185E+03  0.47000000000E+01 0. -1.
        -11    1    1    2    0    0 -0.36296419849E+02 -0.54373904343E+00 -0.16940644658E+02  0.40058846556E+02  0.00000000000E+00 0.  1.
         11    1    1    2    0    0 -0.13806593704E+03  0.23352997932E+02  0.10686647030E+03  0.17614768791E+03  0.00000000000E+00 0. -1.
<mgrwt>
<rscale>  0 0.21080391E+03</rscale>
<asrwt>0</asrwt>
<pdfrwt beam="1">  1        3 0.69343068E-01 0.21575647E+03</pdfrwt>
<pdfrwt beam="2">  1       -3 0.15728800E-01 0.21575647E+03</pdfrwt>
<totfact> 0.17098442E+02</totfact>
</mgrwt>
</event>
<event>
 7    1  0.7517081E-006  0.2058398E+03  0.7546771E-02  0.1148842E+00
         -1   -1    0    0    0  501 -0.00000000000E+00  0.00000000000E+00  0.10892156447E+03  0.10892156447E+03  0.00000000000E+00 0.  1.
          1   -1    0    0  501    0  0.00000000000E+00 -0.00000000000E+00 -0.40802378861E+03  0.40802378861E+03  0.00000000000E+00 0. -1.
         23    2    1    2    0    0  0.71208606229E+02 -0.14722065796E+03 -0.24880037961E+03  0.32291118315E+03  0.12500166231E+03 0.  0.
          5    1    3    3  502    0  0.95944674661E+02 -0.14708418050E+03 -0.23724893120E+03  0.29520887877E+03  0.47000000000E+01 0.  1.
         -5    1    3    3    0  502 -0.24736068432E+02 -0.13647745912E+00 -0.11551448403E+02  0.27702304377E+02  0.47000000000E+01 0.  1.
        -11    1    1    2    0    0 -0.43271104755E+02  0.13280792283E+03 -0.61244802084E+01  0.13981359780E+03  0.00000000000E+00 0.  1.
         11    1    1    2    0    0 -0.27937501473E+02  0.14412735130E+02 -0.44177364330E+02  0.54220572126E+02  0.00000000000E+00 0. -1.
<mgrwt>
<rscale>  0 0.20106648E+03</rscale>
<asrwt>0</asrwt>
<pdfrwt beam="2">  1        1 0.62772890E-01 0.20583975E+03</pdfrwt>
<pdfrwt beam="1">  1       -1 0.16757164E-01 0.20583975E+03</pdfrwt>
<totfact> 0.15793526E+03</totfact>
</mgrwt>
</event>
<event>
 7    1  0.6419647E-006  0.1350125E+03  0.7546771E-02  0.1233092E+00
         -1   -1    0    0    0  501 -0.00000000000E+00  0.00000000000E+00  0.15482745660E+03  0.15482745660E+03  0.00000000000E+00 0.  1.
          1   -1    0    0  501    0  0.00000000000E+00 -0.00000000000E+00 -0.96474189577E+02  0.96474189577E+02  0.00000000000E+00 0. -1.
         23    2    1    2    0    0 -0.17782298480E+02 -0.47820393388E+02  0.51762496766E+01  0.13511167711E+03  0.12500148626E+03 0.  0.
          5    1    3    3  502    0  0.43404260087E+02 -0.44071289006E+02 -0.24680909888E+02  0.66764104287E+02  0.47000000000E+01 0.  1.
         -5    1    3    3    0  502 -0.61186558567E+02 -0.37491043827E+01  0.29857159565E+02  0.68347572819E+02  0.47000000000E+01 0.  1.
        -11    1    1    2    0    0  0.33373713969E+02  0.65111862359E+02  0.56801148489E+02  0.92626831284E+02  0.00000000000E+00 0. -1.
         11    1    1    2    0    0 -0.15591415489E+02 -0.17291468971E+02 -0.36241311393E+01  0.23563137792E+02  0.00000000000E+00 0.  1.
<mgrwt>
<rscale>  0 0.12627366E+03</rscale>
<asrwt>0</asrwt>
<pdfrwt beam="2">  1        1 0.14842183E-01 0.13501249E+03</pdfrwt>
<pdfrwt beam="1">  1       -1 0.23819609E-01 0.13501249E+03</pdfrwt>
<totfact> 0.54326478E+03</totfact>
</mgrwt>
</event>
<event>
 7    1  0.6419647E-006  0.1373144E+03  0.7546771E-02  0.1228748E+00
         -2   -1    0    0    0  501 -0.00000000000E+00  0.00000000000E+00  0.24559441204E+02  0.24559441204E+02  0.00000000000E+00 0. -1.
          2   -1    0    0  501    0  0.00000000000E+00 -0.00000000000E+00 -0.82691865985E+03  0.82691865985E+03  0.00000000000E+00 0.  1.
         23    2    1    2    0    0 -0.56581718822E+02  0.53000623992E+01 -0.65438443732E+03  0.66863610610E+03  0.12500267598E+03 0.  0.
          5    1    3    3  502    0 -0.51004093467E+01 -0.24340906829E+02 -0.53112573442E+03  0.53172843603E+03  0.47000000000E+01 0. -1.
         -5    1    3    3    0  502 -0.51481309475E+02  0.29640969228E+02 -0.12325870290E+03  0.13690767007E+03  0.47000000000E+01 0. -1.
        -11    1    1    2    0    0  0.13215923564E+02  0.39107679267E+02 -0.35808800878E+02  0.54647428427E+02  0.00000000000E+00 0. -1.
         11    1    1    2    0    0  0.43365795258E+02 -0.44407741666E+02 -0.11216598045E+03  0.12819456653E+03  0.00000000000E+00 0.  1.
<mgrwt>
<rscale>  0 0.12913314E+03</rscale>
<asrwt>0</asrwt>
<pdfrwt beam="2">  1        2 0.12721826E+00 0.13731442E+03</pdfrwt>
<pdfrwt beam="1">  1       -2 0.37783753E-02 0.13731442E+03</pdfrwt>
<totfact> 0.97909599E+03</totfact>
</mgrwt>
</event>
<event>
 7    1  0.6419647E-006  0.1263198E+03  0.7546771E-02  0.1248250E+00
          2   -1    0    0  501    0  0.00000000000E+00  0.00000000000E+00  0.71854771009E+02  0.71854771009E+02  0.00000000000E+00 0. -1.
         -2   -1    0    0    0  501 -0.00000000000E+00 -0.00000000000E+00 -0.16698614739E+03  0.16698614739E+03  0.00000000000E+00 0.  1.
         23    2    1    2    0    0 -0.35045271669E+01 -0.17837462071E+02 -0.53533728307E+02  0.13719530085E+03  0.12500493488E+03 0.  0.
          5    1    3    3  502    0  0.50509060541E+02  0.29836297230E+01  0.92700371816E+01  0.51653565535E+02  0.47000000000E+01 0. -1.
         -5    1    3    3    0  502 -0.54013587708E+02 -0.20821091794E+02 -0.62803765489E+02  0.85541735312E+02  0.47000000000E+01 0. -1.
        -11    1    1    2    0    0  0.76681773854E+01 -0.13913656676E+02 -0.61782232743E+02  0.63792123881E+02  0.00000000000E+00 0.  1.
         11    1    1    2    0    0 -0.41636502185E+01  0.31751118747E+02  0.20184584670E+02  0.37853493671E+02  0.00000000000E+00 0. -1.
<mgrwt>
<rscale>  0 0.11692978E+03</rscale>
<asrwt>0</asrwt>
<pdfrwt beam="1">  1        2 0.11054580E-01 0.12631979E+03</pdfrwt>
<pdfrwt beam="2">  1       -2 0.25690176E-01 0.12631979E+03</pdfrwt>
<totfact> 0.71917611E+03</totfact>
</mgrwt>
</event>
<event>
 7    1  0.6419647E-006  0.1431334E+03  0.7546771E-02  0.1224849E+00
         -2   -1    0    0    0  501 -0.00000000000E+00  0.00000000000E+00  0.16061238058E+03  0.16061238058E+03  0.00000000000E+00 0. -1.
          2   -1    0    0  501    0  0.00000000000E+00 -0.00000000000E+00 -0.11103641240E+03  0.11103641240E+03  0.00000000000E+00 0.  1.
         23    2    1    2    0    0 -0.69563339719E+02 -0.62265172449E+01 -0.24111359562E+02  0.14515004033E+03  0.12493737951E+03 0.  0.
          5    1    3    3  502    0 -0.68518433408E+02 -0.12841201639E+02 -0.69784221787E+02  0.98750188793E+02  0.47000000000E+01 0.  1.
         -5    1    3    3    0  502 -0.10449063109E+01  0.66146843936E+01  0.45672862226E+02  0.46399851538E+02  0.47000000000E+01 0.  1.
        -11    1    1    2    0    0  0.44121797994E+02  0.24633422352E+02  0.47610907925E+01  0.50756344830E+02  0.00000000000E+00 0.  1.
         11    1    1    2    0    0  0.25441541725E+02 -0.18406905107E+02  0.68926236957E+02  0.75742407818E+02  0.00000000000E+00 0. -1.
<mgrwt>
<rscale>  0 0.13177287E+03</rscale>
<asrwt>0</asrwt>
<pdfrwt beam="2">  1        2 0.17082525E-01 0.14313342E+03</pdfrwt>
<pdfrwt beam="1">  1       -2 0.24709597E-01 0.14313342E+03</pdfrwt>
<totfact> 0.46417086E+03</totfact>
</mgrwt>
</event>
<event>
 7    1  0.6419647E-006  0.1583149E+03  0.7546771E-02  0.1197809E+00
         -2   -1    0    0    0  501 -0.00000000000E+00  0.00000000000E+00  0.10967060052E+03  0.10967060052E+03  0.00000000000E+00 0.  1.
          2   -1    0    0  501    0  0.00000000000E+00 -0.00000000000E+00 -0.28091843504E+03  0.28091843504E+03  0.00000000000E+00 0. -1.
         23    2    1    2    0    0  0.91783152627E+02  0.31892366188E+02 -0.19724084295E+03  0.25291809090E+03  0.12498936134E+03 0.  0.
          5    1    3    3  502    0  0.12027938213E+03  0.40745783250E+02 -0.16994753467E+03  0.21220651065E+03  0.47000000000E+01 0. -1.
         -5    1    3    3    0  502 -0.28496229507E+02 -0.88534170618E+01 -0.27293308278E+02  0.40711580252E+02  0.47000000000E+01 0. -1.
        -11    1    1    2    0    0 -0.41971951747E+02 -0.24989128784E+02  0.59695830641E+02  0.77134256247E+02  0.00000000000E+00 0.  1.
         11    1    1    2    0    0 -0.49811200880E+02 -0.69032374033E+01 -0.33702822209E+02  0.60536688418E+02  0.00000000000E+00 0. -1.
<mgrwt>
<rscale>  0 0.15218835E+03</rscale>
<asrwt>0</asrwt>
<pdfrwt beam="2">  1        2 0.43218221E-01 0.15831491E+03</pdfrwt>
<pdfrwt beam="1">  1       -2 0.16872400E-01 0.15831491E+03</pdfrwt>
<totfact> 0.32143457E+03</totfact>
</mgrwt>
</event>
<event>
 7    1  0.6419647E-006  0.1320572E+03  0.7546771E-02  0.1236808E+00
         -1   -1    0    0    0  501 -0.00000000000E+00  0.00000000000E+00  0.83920801494E+02  0.83920801494E+02  0.00000000000E+00 0.  1.
          1   -1    0    0  501    0  0.00000000000E+00 -0.00000000000E+00 -0.16413666692E+03  0.16413666692E+03  0.00000000000E+00 0. -1.
         23    2    1    2    0    0 -0.32449604881E+02  0.27580123704E+02 -0.52029868346E+02  0.14193736246E+03  0.12500187031E+03 0.  0.
          5    1    3    3  502    0 -0.31602445329E+02  0.17567693031E+02 -0.92788982499E+02  0.99695655183E+02  0.47000000000E+01 0. -1.
         -5    1    3    3    0  502 -0.84715955269E+00  0.10012430672E+02  0.40759114153E+02  0.42241707279E+02  0.47000000000E+01 0. -1.
        -11    1    1    2    0    0  0.51442361133E+02 -0.44858621257E+02 -0.38599381265E+02  0.78412528680E+02  0.00000000000E+00 0.  1.
         11    1    1    2    0    0 -0.18992756252E+02  0.17278497553E+02  0.10413384189E+02  0.27707577267E+02  0.00000000000E+00 0. -1.
<mgrwt>
<rscale>  0 0.12389378E+03</rscale>
<asrwt>0</asrwt>
<pdfrwt beam="2">  1        1 0.25251795E-01 0.13205721E+03</pdfrwt>
<pdfrwt beam="1">  1       -1 0.12910893E-01 0.13205721E+03</pdfrwt>
<totfact> 0.72910466E+03</totfact>
</mgrwt>
</event>
<event>
 7    1  0.6419647E-006  0.1838857E+03  0.7546771E-02  0.1169607E+00
          2   -1    0    0  501    0  0.00000000000E+00  0.00000000000E+00  0.10853880186E+03  0.10853880186E+03  0.00000000000E+00 0. -1.
         -2   -1    0    0    0  501 -0.00000000000E+00 -0.00000000000E+00 -0.29815419876E+03  0.29815419876E+03  0.00000000000E+00 0.  1.
         23    2    1    2    0    0 -0.82928984110E+02 -0.10632644702E+03 -0.44461160190E+02  0.18918440566E+03  0.12502565671E+03 0.  0.
          5    1    3    3  502    0 -0.52464670791E+02 -0.12424919197E+03 -0.63069870812E+02  0.14896409632E+03  0.47000000000E+01 0. -1.
         -5    1    3    3    0  502 -0.30464313319E+02  0.17922744949E+02  0.18608710622E+02  0.40220309342E+02  0.47000000000E+01 0. -1.
        -11    1    1    2    0    0  0.42336137535E+02  0.49833493024E+02 -0.13115186085E+03  0.14654875016E+03  0.00000000000E+00 0.  1.
         11    1    1    2    0    0  0.40592846574E+02  0.56492954000E+02 -0.14002375865E+02  0.70959844804E+02  0.00000000000E+00 0. -1.
<mgrwt>
<rscale>  0 0.17814839E+03</rscale>
<asrwt>0</asrwt>
<pdfrwt beam="1">  1        2 0.16698277E-01 0.18388568E+03</pdfrwt>
<pdfrwt beam="2">  1       -2 0.45869876E-01 0.18388568E+03</pdfrwt>
<totfact> 0.15421273E+03</totfact>
</mgrwt>
</event>
<event>
 7    1  0.6419647E-006  0.1261282E+03  0.7546771E-02  0.1248601E+00
          3   -1    0    0  501    0  0.00000000000E+00  0.00000000000E+00  0.81579942144E+02  0.81579942144E+02  0.00000000000E+00 0. -1.
         -3   -1    0    0    0  501 -0.00000000000E+00 -0.00000000000E+00 -0.20205570940E+03  0.20205570940E+03  0.00000000000E+00 0.  1.
         23    2    1    2    0    0  0.17050960312E+02  0.11286986294E+01  0.67738669126E+01  0.12630998112E+03  0.12496526257E+03 0.  0.
          5    1    3    3  502    0 -0.11561856931E+02  0.26412048444E+02  0.56401232487E+02  0.63517413870E+02  0.47000000000E+01 0.  1.
         -5    1    3    3    0  502  0.28612817243E+02 -0.25283349814E+02 -0.49627365575E+02  0.62792567253E+02  0.47000000000E+01 0.  1.
        -11    1    1    2    0    0 -0.37900474136E+02  0.28246622291E+02 -0.36602975680E+02  0.59783738920E+02  0.00000000000E+00 0. -1.
         11    1    1    2    0    0  0.20849513825E+02 -0.29375320920E+02 -0.90646658493E+02  0.97541931505E+02  0.00000000000E+00 0.  1.
<mgrwt>
<rscale>  0 0.11672433E+03</rscale>
<asrwt>0</asrwt>
<pdfrwt beam="1">  1        3 0.12550760E-01 0.12612821E+03</pdfrwt>
<pdfrwt beam="2">  1       -3 0.31085494E-01 0.12612821E+03</pdfrwt>
<totfact> 0.11510022E+03</totfact>
</mgrwt>
</event>
<event>
 7    1  0.6419647E-006  0.1187808E+03  0.7546771E-02  0.1265062E+00
         -3   -1    0    0    0  501 -0.00000000000E+00  0.00000000000E+00  0.80903941834E+02  0.80903941834E+02  0.00000000000E+00 0.  1.
          3   -1    0    0  501    0  0.00000000000E+00 -0.00000000000E+00 -0.17735150485E+03  0.17735150485E+03  0.00000000000E+00 0. -1.
         23    2    1    2    0    0 -0.20715598541E+02 -0.21615047128E+02 -0.12581074071E+03  0.17302378629E+03  0.11494582140E+03 0.  0.
          5    1    3    3  502    0  0.96962551635E+01 -0.62638866892E+02 -0.91167450672E+02  0.11113612856E+03  0.47000000000E+01 0. -1.
         -5    1    3    3    0  502 -0.30411853704E+02  0.41023819764E+02 -0.34643290043E+02  0.61887657726E+02  0.47000000000E+01 0.  1.
        -11    1    1    2    0    0 -0.24070458623E+02 -0.58384614852E+01  0.20083213061E+02  0.31887459254E+02  0.00000000000E+00 0. -1.
         11    1    1    2    0    0  0.44786057163E+02  0.27453508613E+02  0.92799646405E+01  0.53344201139E+02  0.00000000000E+00 0.  1.
<mgrwt>
<rscale>  0 0.10760967E+03</rscale>
<asrwt>0</asrwt>
<pdfrwt beam="2">  1        3 0.27284847E-01 0.11878084E+03</pdfrwt>
<pdfrwt beam="1">  1       -3 0.12446760E-01 0.11878084E+03</pdfrwt>
<totfact> 0.14683442E+03</totfact>
</mgrwt>
</event>
<event>
 7    1  0.6419647E-006  0.1445007E+03  0.7546771E-02  0.1224281E+00
          2   -1    0    0  501    0  0.00000000000E+00  0.00000000000E+00  0.20528158942E+04  0.20528158942E+04  0.00000000000E+00 0. -1.
         -2   -1    0    0    0  501 -0.00000000000E+00 -0.00000000000E+00 -0.86011465058E+01  0.86011465058E+01  0.00000000000E+00 0.  1.
         23    2    1    2    0    0 -0.71121150174E+02 -0.13568580597E+02  0.15646089422E+04  0.15712675113E+04  0.12505249216E+03 0.  0.
          5    1    3    3  502    0 -0.20126260324E+02  0.45816559690E+02  0.29598369042E+03  0.30022101608E+03  0.47000000000E+01 0. -1.
         -5    1    3    3    0  502 -0.50994889850E+02 -0.59385140287E+02  0.12686252517E+04  0.12710464952E+04  0.47000000000E+01 0. -1.
        -11    1    1    2    0    0  0.73178373095E+02  0.27104881604E+02  0.45778635673E+03  0.46439002714E+03  0.00000000000E+00 0. -1.
         11    1    1    2    0    0 -0.20572229215E+01 -0.13536301007E+02  0.21819448804E+02  0.25759502271E+02  0.00000000000E+00 0.  1.
<mgrwt>
<rscale>  0 0.13216287E+03</rscale>
<asrwt>0</asrwt>
<pdfrwt beam="1">  1        2 0.31581744E+00 0.14450069E+03</pdfrwt>
<pdfrwt beam="2">  1       -2 0.13232549E-02 0.14450069E+03</pdfrwt>
<totfact> 0.97360599E+03</totfact>
</mgrwt>
</event>
<event>
 7    1  0.6419647E-006  0.1536465E+03  0.7546771E-02  0.1204466E+00
          1   -1    0    0  501    0  0.00000000000E+00  0.00000000000E+00  0.22413778536E+04  0.22413778536E+04  0.00000000000E+00 0. -1.
         -1   -1    0    0    0  501 -0.00000000000E+00 -0.00000000000E+00 -0.11211470318E+02  0.11211470318E+02  0.00000000000E+00 0.  1.
         23    2    1    2    0    0  0.56574309360E+02  0.69153347509E+02  0.17104512651E+04  0.17173382840E+04  0.12499765394E+03 0.  0.
          5    1    3    3  502    0  0.46796932425E+02 -0.26459183893E+02  0.79939991423E+03  0.80121929219E+03  0.47000000000E+01 0.  1.
         -5    1    3    3    0  502  0.97773769353E+01  0.95612531401E+02  0.91105135086E+03  0.91611899182E+03  0.47000000000E+01 0.  1.
        -11    1    1    2    0    0 -0.75737283739E+02 -0.76007849322E+02  0.42089275235E+03  0.43435473784E+03  0.00000000000E+00 0. -1.
         11    1    1    2    0    0  0.19162974379E+02  0.68545018131E+01  0.98822365889E+02  0.10089630212E+03  0.00000000000E+00 0.  1.
<mgrwt>
<rscale>  0 0.14679592E+03</rscale>
<asrwt>0</asrwt>
<pdfrwt beam="1">  1        1 0.34482700E+00 0.15364651E+03</pdfrwt>
<pdfrwt beam="2">  1       -1 0.17248434E-02 0.15364651E+03</pdfrwt>
<totfact> 0.20083678E+03</totfact>
</mgrwt>
</event>
<event>
 7    1  0.6419647E-006  0.1428254E+03  0.7546771E-02  0.1236281E+00
          2   -1    0    0  501    0  0.00000000000E+00  0.00000000000E+00  0.23662125125E+03  0.23662125125E+03  0.00000000000E+00 0. -1.
         -2   -1    0    0    0  501 -0.00000000000E+00 -0.00000000000E+00 -0.69633003071E+02  0.69633003071E+02  0.00000000000E+00 0.  1.
         23    2    1    2    0    0  0.53180743520E+01 -0.72670752787E+02  0.17294003379E+03  0.22429299690E+03  0.12284043694E+03 0.  0.
          5    1    3    3  502    0 -0.45422862188E+02 -0.76177336494E+02  0.13064660161E+03  0.15797736394E+03  0.47000000000E+01 0. -1.
         -5    1    3    3    0  502  0.50740936540E+02  0.35065837074E+01  0.42293432175E+02  0.66315632964E+02  0.47000000000E+01 0.  1.
        -11    1    1    2    0    0 -0.18552643977E+02  0.29374031937E+02 -0.10912821964E+02  0.36415985968E+02  0.00000000000E+00 0. -1.
         11    1    1    2    0    0  0.13234569625E+02  0.43296720850E+02  0.49610363530E+01  0.45545271447E+02  0.00000000000E+00 0.  1.
<mgrwt>
<rscale>  0 0.12422792E+03</rscale>
<asrwt>0</asrwt>
<pdfrwt beam="1">  1        2 0.36403269E-01 0.14282539E+03</pdfrwt>
<pdfrwt beam="2">  1       -2 0.10712770E-01 0.14282539E+03</pdfrwt>
<totfact> 0.80096573E+03</totfact>
</mgrwt>
</event>
<event>
 7    1  0.6419647E-006  0.1652905E+03  0.7546771E-02  0.1189814E+00
         -2   -1    0    0    0  501 -0.00000000000E+00  0.00000000000E+00  0.31544449394E+03  0.31544449394E+03  0.00000000000E+00 0.  1.
          2   -1    0    0  501    0  0.00000000000E+00 -0.00000000000E+00 -0.76861703673E+02  0.76861703673E+02  0.00000000000E+00 0. -1.
         23    2    1    2    0    0 -0.89105435754E+02  0.61334778839E+02  0.94932400173E+02  0.19061248732E+03  0.12497690164E+03 0.  0.
          5    1    3    3  502    0 -0.88845614889E+02 -0.96114761224E+01  0.30168038732E+02  0.94435821165E+02  0.47000000000E+01 0. -1.
         -5    1    3    3    0  502 -0.25982086494E+00  0.70946254961E+02  0.64764361441E+02  0.96176666155E+02  0.47000000000E+01 0. -1.
        -11    1    1    2    0    0  0.65319706686E+02 -0.61420240907E+02  0.15200904875E+03  0.17648189986E+03  0.00000000000E+00 0.  1.
         11    1    1    2    0    0  0.23785729068E+02  0.85462067872E-01 -0.83586586560E+01  0.25211810438E+02  0.00000000000E+00 0. -1.
<mgrwt>
<rscale>  0 0.15901442E+03</rscale>
<asrwt>0</asrwt>
<pdfrwt beam="2">  1        2 0.11824878E-01 0.16529053E+03</pdfrwt>
<pdfrwt beam="1">  1       -2 0.48529921E-01 0.16529053E+03</pdfrwt>
<totfact> 0.20713143E+03</totfact>
</mgrwt>
</event>
<event>
 7    1  0.6419647E-006  0.1424135E+03  0.7546771E-02  0.1220765E+00
          1   -1    0    0  501    0  0.00000000000E+00  0.00000000000E+00  0.14939996547E+04  0.14939996547E+04  0.00000000000E+00 0. -1.
         -1   -1    0    0    0  501 -0.00000000000E+00 -0.00000000000E+00 -0.12368343906E+02  0.12368343906E+02  0.00000000000E+00 0.  1.
         23    2    1    2    0    0  0.21948343333E+02  0.64611249963E+02  0.10659141099E+04  0.10753857478E+04  0.12500109384E+03 0.  0.
          5    1    3    3  502    0 -0.11358083122E+02  0.14669246152E+02  0.19791003625E+02  0.27531194296E+02  0.47000000000E+01 0. -1.
         -5    1    3    3    0  502  0.33306426456E+02  0.49942003811E+02  0.10461231063E+04  0.10478545535E+04  0.47000000000E+01 0. -1.
        -11    1    1    2    0    0 -0.57104360734E+02 -0.34749347903E+02  0.22178126427E+03  0.23163625445E+03  0.00000000000E+00 0. -1.
         11    1    1    2    0    0  0.35156017401E+02 -0.29861902059E+02  0.19393593660E+03  0.19934599635E+03  0.00000000000E+00 0.  1.
<mgrwt>
<rscale>  0 0.13461452E+03</rscale>
<asrwt>0</asrwt>
<pdfrwt beam="1">  1        1 0.22984596E+00 0.14241354E+03</pdfrwt>
<pdfrwt beam="2">  1       -1 0.19028233E-02 0.14241354E+03</pdfrwt>
<totfact> 0.52417346E+03</totfact>
</mgrwt>
</event>
<event>
 7    1  0.6419647E-006  0.1630921E+03  0.7546771E-02  0.1190487E+00
          1   -1    0    0  501    0  0.00000000000E+00  0.00000000000E+00  0.61560857156E+02  0.61560857156E+02  0.00000000000E+00 0. -1.
         -1   -1    0    0    0  501 -0.00000000000E+00 -0.00000000000E+00 -0.61237948805E+03  0.61237948805E+03  0.00000000000E+00 0.  1.
         23    2    1    2    0    0  0.10527798355E+03 -0.39002481604E+02 -0.80814593550E+02  0.18201657622E+03  0.11829787866E+03 0.  0.
          5    1    3    3  502    0  0.11265728064E+03 -0.65274922283E+02 -0.47450660791E+02  0.13865833393E+03  0.47000000000E+01 0. -1.
         -5    1    3    3    0  502 -0.73792970843E+01  0.26272440679E+02 -0.33363932760E+02  0.43358242283E+02  0.47000000000E+01 0.  1.
        -11    1    1    2    0    0 -0.58662211762E+02  0.66819160527E+02 -0.32985156950E+03  0.34162569166E+03  0.00000000000E+00 0.  1.
         11    1    1    2    0    0 -0.46615771790E+02 -0.27816678923E+02 -0.14015246785E+03  0.15029807733E+03  0.00000000000E+00 0. -1.
<mgrwt>
<rscale>  0 0.15842435E+03</rscale>
<asrwt>0</asrwt>
<pdfrwt beam="1">  1        1 0.94709011E-02 0.16309211E+03</pdfrwt>
<pdfrwt beam="2">  1       -1 0.94212229E-01 0.16309211E+03</pdfrwt>
<totfact> 0.78884086E+02</totfact>
</mgrwt>
</event>
<event>
 7    1  0.6419647E-006  0.2130092E+03  0.7546771E-02  0.1143036E+00
          3   -1    0    0  501    0  0.00000000000E+00  0.00000000000E+00  0.21666355906E+03  0.21666355906E+03  0.00000000000E+00 0. -1.
         -3   -1    0    0    0  501 -0.00000000000E+00 -0.00000000000E+00 -0.19390178826E+03  0.19390178826E+03  0.00000000000E+00 0.  1.
         23    2    1    2    0    0 -0.16684448362E+03 -0.43723927938E+02  0.35308141717E+02  0.21591568727E+03  0.12499622214E+03 0.  0.
          5    1    3    3  502    0 -0.72254660293E+02 -0.12743701057E+02  0.78287236852E+02  0.10739701721E+03  0.47000000000E+01 0.  1.
         -5    1    3    3    0  502 -0.94589823329E+02 -0.30980226881E+02 -0.42979095135E+02  0.10851867007E+03  0.47000000000E+01 0.  1.
        -11    1    1    2    0    0  0.15876317673E+03  0.57324813174E+02  0.76810974239E+01  0.16897005578E+03  0.00000000000E+00 0.  1.
         11    1    1    2    0    0  0.80813068880E+01 -0.13600885237E+02 -0.20227468335E+02  0.25679604270E+02  0.00000000000E+00 0. -1.
<mgrwt>
<rscale>  0 0.20815468E+03</rscale>
<asrwt>0</asrwt>
<pdfrwt beam="1">  1        3 0.33332855E-01 0.21300920E+03</pdfrwt>
<pdfrwt beam="2">  1       -3 0.29831044E-01 0.21300920E+03</pdfrwt>
<totfact> 0.23493387E+02</totfact>
</mgrwt>
</event>
<event>
 7    1  0.6419647E-006  0.1262868E+03  0.7546771E-02  0.1248234E+00
         -3   -1    0    0    0  501 -0.00000000000E+00  0.00000000000E+00  0.89571965706E+02  0.89571965706E+02  0.00000000000E+00 0.  1.
          3   -1    0    0  501    0  0.00000000000E+00 -0.00000000000E+00 -0.13513671566E+03  0.13513671566E+03  0.00000000000E+00 0. -1.
         23    2    1    2    0    0  0.15812148007E+02 -0.85287937699E+01 -0.36312749252E+02  0.13140387539E+03  0.12500239342E+03 0.  0.
          5    1    3    3  502    0  0.18819622256E+02 -0.31849083165E+02  0.38046255220E+02  0.53274288513E+02  0.47000000000E+01 0.  1.
         -5    1    3    3    0  502 -0.30074742490E+01  0.23320289395E+02 -0.74359004472E+02  0.78129586873E+02  0.47000000000E+01 0.  1.
        -11    1    1    2    0    0 -0.19413862579E+01 -0.32309127252E+02 -0.31161322542E+02  0.44929686255E+02  0.00000000000E+00 0.  1.
         11    1    1    2    0    0 -0.13870761749E+02  0.40837921022E+02  0.21909321840E+02  0.48375119725E+02  0.00000000000E+00 0. -1.
<mgrwt>
<rscale>  0 0.11693866E+03</rscale>
<asrwt>0</asrwt>
<pdfrwt beam="2">  1        3 0.20790264E-01 0.12628683E+03</pdfrwt>
<pdfrwt beam="1">  1       -3 0.13780302E-01 0.12628683E+03</pdfrwt>
<totfact> 0.20352992E+03</totfact>
</mgrwt>
</event>
<event>
 7    1  0.6419647E-006  0.1383362E+03  0.7546771E-02  0.1227707E+00
         -1   -1    0    0    0  501 -0.00000000000E+00  0.00000000000E+00  0.46466935303E+03  0.46466935303E+03  0.00000000000E+00 0.  1.
          1   -1    0    0  501    0  0.00000000000E+00 -0.00000000000E+00 -0.32737401099E+02  0.32737401099E+02  0.00000000000E+00 0. -1.
         23    2    1    2    0    0  0.59062048769E+02  0.48134417037E+01  0.22067261628E+03  0.26044825800E+03  0.12500158676E+03 0.  0.
          5    1    3    3  502    0 -0.32445800452E+02 -0.12803844598E+02  0.11104192478E+03  0.11648634024E+03  0.47000000000E+01 0. -1.
         -5    1    3    3    0  502  0.91507849221E+02  0.17617286302E+02  0.10963069150E+03  0.14396191776E+03  0.47000000000E+01 0. -1.
        -11    1    1    2    0    0 -0.25883952472E+02  0.74318470125E+01  0.46304564607E+01  0.27324942317E+02  0.00000000000E+00 0. -1.
         11    1    1    2    0    0 -0.33178096297E+02 -0.12245288716E+02  0.20662887919E+03  0.20963355381E+03  0.00000000000E+00 0.  1.
<mgrwt>
<rscale>  0 0.12983081E+03</rscale>
<asrwt>0</asrwt>
<pdfrwt beam="2">  1        1 0.50365236E-02 0.13833615E+03</pdfrwt>
<pdfrwt beam="1">  1       -1 0.71487588E-01 0.13833615E+03</pdfrwt>
<totfact> 0.32621438E+03</totfact>
</mgrwt>
</event>
<event>
 7    1  0.6419647E-006  0.1575012E+03  0.7546771E-02  0.1199805E+00
          2   -1    0    0  501    0  0.00000000000E+00  0.00000000000E+00  0.25671139359E+03  0.25671139359E+03  0.00000000000E+00 0. -1.
         -2   -1    0    0    0  501 -0.00000000000E+00 -0.00000000000E+00 -0.82267778843E+02  0.82267778843E+02  0.00000000000E+00 0.  1.
         23    2    1    2    0    0 -0.86241694953E+02 -0.41737970197E+02  0.76854710899E+02  0.17525202690E+03  0.12500775272E+03 0.  0.
          5    1    3    3  502    0  0.28440172455E+02 -0.81082198967E+01  0.40260588380E+02  0.50175607778E+02  0.47000000000E+01 0.  1.
         -5    1    3    3    0  502 -0.11468186741E+03 -0.33629750301E+02  0.36594122519E+02  0.12507641912E+03  0.47000000000E+01 0.  1.
        -11    1    1    2    0    0  0.72202471073E+02 -0.80493972015E+01  0.29965026811E+02  0.78586846585E+02  0.00000000000E+00 0.  1.
         11    1    1    2    0    0  0.14039223880E+02  0.49787367399E+02  0.67623877032E+02  0.85140298946E+02  0.00000000000E+00 0. -1.
<mgrwt>
<rscale>  0 0.15054462E+03</rscale>
<asrwt>0</asrwt>
<pdfrwt beam="1">  1        2 0.39494060E-01 0.15750119E+03</pdfrwt>
<pdfrwt beam="2">  1       -2 0.12656581E-01 0.15750119E+03</pdfrwt>
<totfact> 0.56612378E+03</totfact>
</mgrwt>
</event>
<event>
 7    1  0.6419647E-006  0.1725295E+03  0.7546771E-02  0.1181937E+00
         -1   -1    0    0    0  501 -0.00000000000E+00  0.00000000000E+00  0.30867951503E+03  0.30867951503E+03  0.00000000000E+00 0.  1.
          1   -1    0    0  501    0  0.00000000000E+00 -0.00000000000E+00 -0.13197746502E+03  0.13197746502E+03  0.00000000000E+00 0. -1.
         23    2    1    2    0    0 -0.11836039729E+03 -0.11468709140E+02 -0.40887686573E+02  0.17730828983E+03  0.12500284715E+03 0.  0.
          5    1    3    3  502    0 -0.11759241259E+03  0.37276350000E+02 -0.26491979382E+02  0.12625932337E+03  0.47000000000E+01 0.  1.
         -5    1    3    3    0  502 -0.76798470201E+00 -0.48745059140E+02 -0.14395707190E+02  0.51048966460E+02  0.47000000000E+01 0.  1.
        -11    1    1    2    0    0  0.63571842354E+02  0.33912708173E+02  0.56004270758E+02  0.91257488783E+02  0.00000000000E+00 0. -1.
         11    1    1    2    0    0  0.54788554933E+02 -0.22443999033E+02  0.16158546582E+03  0.17209120143E+03  0.00000000000E+00 0.  1.
<mgrwt>
<rscale>  0 0.16613771E+03</rscale>
<asrwt>0</asrwt>
<pdfrwt beam="2">  1        1 0.20304226E-01 0.17252950E+03</pdfrwt>
<pdfrwt beam="1">  1       -1 0.47489156E-01 0.17252950E+03</pdfrwt>
<totfact> 0.11225948E+03</totfact>
</mgrwt>
</event>
<event>
 7    1  0.6419647E-006  0.1473016E+03  0.7546771E-02  0.1214097E+00
          2   -1    0    0  501    0  0.00000000000E+00  0.00000000000E+00  0.17132964483E+03  0.17132964483E+03  0.00000000000E+00 0. -1.
         -2   -1    0    0    0  501 -0.00000000000E+00 -0.00000000000E+00 -0.11611474680E+03  0.11611474680E+03  0.00000000000E+00 0.  1.
         23    2    1    2    0    0  0.73187420753E+02 -0.24971645802E+02  0.78512623627E+02  0.16691915873E+03  0.12537061789E+03 0.  0.
          5    1    3    3  502    0  0.97000144787E+02 -0.48478507951E+02  0.39981324864E+02  0.11567104287E+03  0.47000000000E+01 0.  1.
         -5    1    3    3    0  502 -0.23812724034E+02  0.23506862149E+02  0.38531298763E+02  0.51248115852E+02  0.47000000000E+01 0.  1.
        -11    1    1    2    0    0 -0.24442563412E+02  0.55560090692E+02 -0.12545936355E+02  0.61981957882E+02  0.00000000000E+00 0.  1.
         11    1    1    2    0    0 -0.48744857341E+02 -0.30588444890E+02 -0.10751789236E+02  0.58543275017E+02  0.00000000000E+00 0. -1.
<mgrwt>
<rscale>  0 0.13943052E+03</rscale>
<asrwt>0</asrwt>
<pdfrwt beam="1">  1        2 0.26358407E-01 0.14730164E+03</pdfrwt>
<pdfrwt beam="2">  1       -2 0.17863807E-01 0.14730164E+03</pdfrwt>
<totfact> 0.49639038E+03</totfact>
</mgrwt>
</event>
<event>
 7    1  0.6419647E-006  0.1969657E+03  0.7546771E-02  0.1157084E+00
          2   -1    0    0  501    0  0.00000000000E+00  0.00000000000E+00  0.18873864682E+04  0.18873864682E+04  0.00000000000E+00 0. -1.
         -2   -1    0    0    0  501 -0.00000000000E+00 -0.00000000000E+00 -0.24840766507E+02  0.24840766507E+02  0.00000000000E+00 0.  1.
         23    2    1    2    0    0 -0.37240076609E+02 -0.14759507122E+03  0.14547459640E+04  0.14680195133E+04  0.12499737277E+03 0.  0.
          5    1    3    3  502    0 -0.16201233771E+02 -0.50430538692E+02  0.14408025806E+03  0.15358036974E+03  0.47000000000E+01 0. -1.
         -5    1    3    3    0  502 -0.21038842838E+02 -0.97164532527E+02  0.13106657059E+04  0.13144391435E+04  0.47000000000E+01 0. -1.
        -11    1    1    2    0    0  0.27767732803E+02  0.71815083948E+02  0.31373259845E+03  0.32304271637E+03  0.00000000000E+00 0. -1.
         11    1    1    2    0    0  0.94723438052E+01  0.75779987271E+02  0.94067139215E+02  0.12116500505E+03  0.00000000000E+00 0.  1.
<mgrwt>
<rscale>  0 0.19153489E+03</rscale>
<asrwt>0</asrwt>
<pdfrwt beam="1">  1        2 0.29036704E+00 0.19696566E+03</pdfrwt>
<pdfrwt beam="2">  1       -2 0.38216579E-02 0.19696566E+03</pdfrwt>
<totfact> 0.25123353E+03</totfact>
</mgrwt>
</event>
<event>
 7    1  0.6419647E-006  0.1363533E+03  0.7546771E-02  0.1225940E+00
         -1   -1    0    0    0  501 -0.00000000000E+00  0.00000000000E+00  0.11144518499E+03  0.11144518499E+03  0.00000000000E+00 0.  1.
          1   -1    0    0  501    0  0.00000000000E+00 -0.00000000000E+00 -0.15081242393E+03  0.15081242393E+03  0.00000000000E+00 0. -1.
         23    2    1    2    0    0 -0.71414979751E+02  0.22416946933E+02 -0.50629895982E+02  0.14544969262E+03  0.11397196092E+03 0.  0.
          5    1    3    3  502    0 -0.43123734132E+02  0.40298182104E+02 -0.80782426832E+02  0.10015732830E+03  0.47000000000E+01 0. -1.
         -5    1    3    3    0  502 -0.28291245619E+02 -0.17881235171E+02  0.30152530850E+02  0.45292364330E+02  0.47000000000E+01 0.  1.
        -11    1    1    2    0    0  0.46283728508E+02 -0.56267242990E+02  0.15330161426E+02  0.74452669580E+02  0.00000000000E+00 0.  1.
         11    1    1    2    0    0  0.25131251243E+02  0.33850296057E+02 -0.40675043904E+01  0.42355246713E+02  0.00000000000E+00 0. -1.
<mgrwt>
<rscale>  0 0.13102685E+03</rscale>
<asrwt>0</asrwt>
<pdfrwt beam="2">  1        1 0.23201911E-01 0.13635332E+03</pdfrwt>
<pdfrwt beam="1">  1       -1 0.17145413E-01 0.13635332E+03</pdfrwt>
<totfact> 0.52120669E+03</totfact>
</mgrwt>
</event>
<event>
 7    1  0.6419647E-006  0.1588234E+03  0.7546771E-02  0.1197547E+00
          1   -1    0    0  501    0  0.00000000000E+00  0.00000000000E+00  0.13533368597E+04  0.13533368597E+04  0.00000000000E+00 0. -1.
         -1   -1    0    0    0  501 -0.00000000000E+00 -0.00000000000E+00 -0.15945951631E+02  0.15945951631E+02  0.00000000000E+00 0.  1.
         23    2    1    2    0    0  0.94957194574E+02  0.23344532821E+02  0.75502438548E+03  0.77154824816E+03  0.12515206973E+03 0.  0.
          5    1    3    3  502    0  0.55446588066E+02  0.67924455057E+02  0.57989999952E+03  0.58651014924E+03  0.47000000000E+01 0. -1.
         -5    1    3    3    0  502  0.39510606509E+02 -0.44579922236E+02  0.17512438596E+03  0.18503809891E+03  0.47000000000E+01 0. -1.
        -11    1    1    2    0    0 -0.29906849123E+02  0.35268062609E+02  0.23463719674E+03  0.23915030830E+03  0.00000000000E+00 0.  1.
         11    1    1    2    0    0 -0.65050345451E+02 -0.58612595431E+02  0.34772932586E+03  0.35858425488E+03  0.00000000000E+00 0. -1.
<mgrwt>
<rscale>  0 0.15240637E+03</rscale>
<asrwt>0</asrwt>
<pdfrwt beam="1">  1        1 0.20820558E+00 0.15882341E+03</pdfrwt>
<pdfrwt beam="2">  1       -1 0.24532244E-02 0.15882341E+03</pdfrwt>
<totfact> 0.45021449E+03</totfact>
</mgrwt>
</event>
<event>
 7    1  0.6419647E-006  0.1323732E+03  0.7546771E-02  0.1236975E+00
          2   -1    0    0  501    0  0.00000000000E+00  0.00000000000E+00  0.15258018937E+03  0.15258018937E+03  0.00000000000E+00 0. -1.
         -2   -1    0    0    0  501 -0.00000000000E+00 -0.00000000000E+00 -0.94809162800E+02  0.94809162800E+02  0.00000000000E+00 0.  1.
         23    2    1    2    0    0 -0.43552410475E+02  0.38678391596E+01  0.61775107826E+02  0.14607815263E+03  0.12494354762E+03 0.  0.
          5    1    3    3  502    0 -0.21080829305E+02 -0.23467829527E+02 -0.32339463901E+02  0.45421044817E+02  0.47000000000E+01 0.  1.
         -5    1    3    3    0  502 -0.22471581170E+02  0.27335668686E+02  0.94114571726E+02  0.10065710782E+03  0.47000000000E+01 0.  1.
        -11    1    1    2    0    0  0.22411355540E+02 -0.23646325695E+02  0.38153180113E+02  0.50170536461E+02  0.00000000000E+00 0. -1.
         11    1    1    2    0    0  0.21141054935E+02  0.19778486536E+02 -0.42157261370E+02  0.51140663073E+02  0.00000000000E+00 0.  1.
<mgrwt>
<rscale>  0 0.12378828E+03</rscale>
<asrwt>0</asrwt>
<pdfrwt beam="1">  1        2 0.23473875E-01 0.13237319E+03</pdfrwt>
<pdfrwt beam="2">  1       -2 0.14586025E-01 0.13237319E+03</pdfrwt>
<totfact> 0.78252077E+03</totfact>
</mgrwt>
</event>
<event>
 7    1  0.6419647E-006  0.2155822E+03  0.7546771E-02  0.1140782E+00
          2   -1    0    0  501    0  0.00000000000E+00  0.00000000000E+00  0.80459156375E+03  0.80459156375E+03  0.00000000000E+00 0. -1.
         -2   -1    0    0    0  501 -0.00000000000E+00 -0.00000000000E+00 -0.53239799431E+02  0.53239799431E+02  0.00000000000E+00 0.  1.
         23    2    1    2    0    0  0.96627541820E+02 -0.14553846025E+03  0.36967785916E+03  0.42794558725E+03  0.12632252707E+03 0.  0.
          5    1    3    3  502    0  0.10246703211E+03 -0.12565681973E+03  0.37271473970E+03  0.40648185225E+03  0.47000000000E+01 0. -1.
         -5    1    3    3    0  502 -0.58394902952E+01 -0.19881640524E+02 -0.30368805458E+01  0.21463735003E+02  0.47000000000E+01 0.  1.
        -11    1    1    2    0    0 -0.92427483212E+02  0.13224037026E+03  0.38327494319E+03  0.41584857491E+03  0.00000000000E+00 0.  1.
         11    1    1    2    0    0 -0.42000586077E+01  0.13298089994E+02 -0.16010380248E+01  0.14037201023E+02  0.00000000000E+00 0. -1.
<mgrwt>
<rscale>  0 0.21099349E+03</rscale>
<asrwt>0</asrwt>
<pdfrwt beam="1">  1        2 0.12378331E+00 0.21558225E+03</pdfrwt>
<pdfrwt beam="2">  1       -2 0.81907390E-02 0.21558225E+03</pdfrwt>
<totfact> 0.31844569E+03</totfact>
</mgrwt>
</event>
<event>
 7    1  0.6419647E-006  0.1363335E+03  0.7546771E-02  0.1229889E+00
          2   -1    0    0  501    0  0.00000000000E+00  0.00000000000E+00  0.14632266599E+03  0.14632266599E+03  0.00000000000E+00 0. -1.
         -2   -1    0    0    0  501 -0.00000000000E+00 -0.00000000000E+00 -0.11699752830E+03  0.11699752830E+03  0.00000000000E+00 0.  1.
         23    2    1    2    0    0 -0.15674936864E+02  0.52076938069E+02  0.64092014042E+02  0.15064731644E+03  0.12501646517E+03 0.  0.
          5    1    3    3  502    0 -0.14605933064E+02 -0.39594801375E+02  0.84319229138E+01  0.43292827358E+02  0.47000000000E+01 0.  1.
         -5    1    3    3    0  502 -0.10690037994E+01  0.91671739444E+02  0.55660091128E+02  0.10735448908E+03  0.47000000000E+01 0.  1.
        -11    1    1    2    0    0  0.51986213409E+01 -0.52278686836E+02  0.20520049396E+02  0.56401765826E+02  0.00000000000E+00 0. -1.
         11    1    1    2    0    0  0.10476315523E+02  0.20174876673E+00 -0.55286925751E+02  0.56271112025E+02  0.00000000000E+00 0.  1.
<mgrwt>
<rscale>  0 0.12837344E+03</rscale>
<asrwt>0</asrwt>
<pdfrwt beam="1">  1        2 0.22511179E-01 0.13633352E+03</pdfrwt>
<pdfrwt beam="2">  1       -2 0.17999620E-01 0.13633352E+03</pdfrwt>
<totfact> 0.58091740E+03</totfact>
</mgrwt>
</event>
<event>
 7    1  0.6419647E-006  0.1855850E+03  0.7546771E-02  0.1167520E+00
         -2   -1    0    0    0  501 -0.00000000000E+00  0.00000000000E+00  0.12356516597E+04  0.12356516597E+04  0.00000000000E+00 0.  1.
          2   -1    0    0  501    0  0.00000000000E+00 -0.00000000000E+00 -0.26448550651E+02  0.26448550651E+02  0.00000000000E+00 0. -1.
         23    2    1    2    0    0 -0.13717157194E+03  0.85456001661E+00  0.78942819173E+03  0.81094922865E+03  0.12500004454E+03 0.  0.
          5    1    3    3  502    0 -0.78358585417E+02  0.34654350799E+02  0.20025045933E+03  0.21786080051E+03  0.47000000000E+01 0. -1.
         -5    1    3    3    0  502 -0.58812986523E+02 -0.33799790782E+02  0.58917773240E+03  0.59308842814E+03  0.47000000000E+01 0. -1.
        -11    1    1    2    0    0  0.85791484949E+02 -0.18838390520E+02  0.35887604510E+03  0.36946864494E+03  0.00000000000E+00 0.  1.
         11    1    1    2    0    0  0.51380086990E+02  0.17983830503E+02  0.60898872178E+02  0.81682336715E+02  0.00000000000E+00 0. -1.
<mgrwt>
<rscale>  0 0.18029329E+03</rscale>
<asrwt>0</asrwt>
<pdfrwt beam="2">  1        2 0.40690088E-02 0.18558497E+03</pdfrwt>
<pdfrwt beam="1">  1       -2 0.19010021E+00 0.18558497E+03</pdfrwt>
<totfact> 0.34317922E+02</totfact>
</mgrwt>
</event>
<event>
 7    1  0.6419647E-006  0.2947753E+03  0.7546771E-02  0.1090012E+00
         -2   -1    0    0    0  501 -0.00000000000E+00  0.00000000000E+00  0.11327650558E+03  0.11327650558E+03  0.00000000000E+00 0.  1.
          2   -1    0    0  501    0  0.00000000000E+00 -0.00000000000E+00 -0.72596704418E+03  0.72596704418E+03  0.00000000000E+00 0. -1.
         23    2    1    2    0    0 -0.29345499549E+02  0.26534338444E+03 -0.30519214889E+03  0.42430502251E+03  0.12499693746E+03 0.  0.
          5    1    3    3  502    0 -0.71979313139E+02  0.21663144447E+03 -0.21869085471E+03  0.31616132620E+03  0.47000000000E+01 0. -1.
         -5    1    3    3    0  502  0.42633813589E+02  0.48711939978E+02 -0.86501294179E+02  0.10814369631E+03  0.47000000000E+01 0. -1.
        -11    1    1    2    0    0 -0.12049046366E+02 -0.15956570015E+03 -0.21746732777E+03  0.26999709411E+03  0.00000000000E+00 0. -1.
         11    1    1    2    0    0  0.41394545915E+02 -0.10577768429E+03 -0.90031061940E+02  0.14494143314E+03  0.00000000000E+00 0.  1.
<mgrwt>
<rscale>  0 0.29064589E+03</rscale>
<asrwt>0</asrwt>
<pdfrwt beam="2">  1        2 0.11168724E+00 0.29477535E+03</pdfrwt>
<pdfrwt beam="1">  1       -2 0.17427155E-01 0.29477535E+03</pdfrwt>
<totfact> 0.10684267E+03</totfact>
</mgrwt>
</event>
<event>
 7    1  0.6419647E-006  0.1527611E+03  0.7546771E-02  0.1205691E+00
          1   -1    0    0  501    0  0.00000000000E+00  0.00000000000E+00  0.11309763371E+03  0.11309763371E+03  0.00000000000E+00 0. -1.
         -1   -1    0    0    0  501 -0.00000000000E+00 -0.00000000000E+00 -0.17300223795E+03  0.17300223795E+03  0.00000000000E+00 0.  1.
         23    2    1    2    0    0 -0.55774768929E+02 -0.67839458473E+02 -0.36981439234E+02  0.15717369023E+03  0.12499170003E+03 0.  0.
          5    1    3    3  502    0  0.14857405507E+02  0.25583656006E+02 -0.25608970190E+02  0.39410345180E+02  0.47000000000E+01 0.  1.
         -5    1    3    3    0  502 -0.70632174436E+02 -0.93423114479E+02 -0.11372469043E+02  0.11776334505E+03  0.47000000000E+01 0.  1.
        -11    1    1    2    0    0  0.30192556683E+02  0.45216168607E+02 -0.58325553770E+02  0.79736833428E+02  0.00000000000E+00 0.  1.
         11    1    1    2    0    0  0.25582212246E+02  0.22623289866E+02  0.35402388761E+02  0.49189348011E+02  0.00000000000E+00 0. -1.
<mgrwt>
<rscale>  0 0.14583135E+03</rscale>
<asrwt>0</asrwt>
<pdfrwt beam="1">  1        1 0.17399636E-01 0.15276106E+03</pdfrwt>
<pdfrwt beam="2">  1       -1 0.26615729E-01 0.15276106E+03</pdfrwt>
<totfact> 0.37127527E+03</totfact>
</mgrwt>
</event>
<event>
 6    1  0.6419647E-006  0.1838046E+03  0.7546771E-02  0.1172349E+00
          3   -1    0    0  501    0  0.00000000000E+00  0.00000000000E+00  0.15078602494E+03  0.15078602494E+03  0.00000000000E+00 0. -1.
         -3   -1    0    0    0  501 -0.00000000000E+00 -0.00000000000E+00 -0.19085810544E+03  0.19085810544E+03  0.00000000000E+00 0.  1.
          5    1    1    2  502    0 -0.16723043452E+02 -0.60288902534E+01  0.25707621684E+02  0.31606637161E+02  0.47000000000E+01 0. -1.
         -5    1    1    2    0  502  0.13454933972E+03  0.41569447609E+02 -0.70600503996E+02  0.15760096750E+03  0.47000000000E+01 0.  1.
        -11    1    1    2    0    0 -0.11238654724E+03 -0.54245506640E+02  0.21694406951E+02  0.12666474760E+03  0.00000000000E+00 0. -1.
         11    1    1    2    0    0 -0.54397490239E+01  0.18704949284E+02 -0.16873605140E+02  0.25771778122E+02  0.00000000000E+00 0.  1.
<mgrwt>
<rscale>  0 0.17538211E+03</rscale>
<asrwt>0</asrwt>
<pdfrwt beam="1">  1        3 0.23197850E-01 0.18380464E+03</pdfrwt>
<pdfrwt beam="2">  1       -3 0.29362785E-01 0.18380464E+03</pdfrwt>
<totfact> 0.46459841E+02</totfact>
</mgrwt>
</event>
<event>
 7    1  0.6419647E-006  0.1784169E+03  0.7546771E-02  0.1175049E+00
         -2   -1    0    0    0  501 -0.00000000000E+00  0.00000000000E+00  0.50444847780E+02  0.50444847780E+02  0.00000000000E+00 0.  1.
          2   -1    0    0  501    0  0.00000000000E+00 -0.00000000000E+00 -0.67960121310E+03  0.67960121310E+03  0.00000000000E+00 0. -1.
         23    2    1    2    0    0 -0.28851884999E+02 -0.12399645313E+03 -0.48641248511E+03  0.51810200333E+03  0.12500011413E+03 0.  0.
          5    1    3    3  502    0 -0.38323337798E+02 -0.42836855833E+02 -0.57452067121E+02  0.81403344244E+02  0.47000000000E+01 0.  1.
         -5    1    3    3    0  502  0.94714527986E+01 -0.81159597294E+02 -0.42896041799E+03  0.43669865909E+03  0.47000000000E+01 0.  1.
        -11    1    1    2    0    0  0.17749637372E+02  0.13670946969E+03 -0.11526601334E+03  0.17969636212E+03  0.00000000000E+00 0. -1.
         11    1    1    2    0    0  0.11102247627E+02 -0.12713016559E+02 -0.27477866865E+02  0.32247695419E+02  0.00000000000E+00 0.  1.
<mgrwt>
<rscale>  0 0.17271146E+03</rscale>
<asrwt>0</asrwt>
<pdfrwt beam="2">  1        2 0.10455403E+00 0.17841687E+03</pdfrwt>
<pdfrwt beam="1">  1       -2 0.77607458E-02 0.17841687E+03</pdfrwt>
<totfact> 0.42369532E+03</totfact>
</mgrwt>
</event>
<event>
 7    1  0.6419647E-006  0.1254151E+03  0.7546771E-02  0.1257247E+00
         -1   -1    0    0    0  501 -0.00000000000E+00  0.00000000000E+00  0.91643969892E+02  0.91643969892E+02  0.00000000000E+00 0.  1.
          1   -1    0    0  501    0  0.00000000000E+00 -0.00000000000E+00 -0.13676373846E+03  0.13676373846E+03  0.00000000000E+00 0. -1.
         23    2    1    2    0    0 -0.10090084693E+02 -0.14232014956E+01 -0.72147766448E+02  0.14468670634E+03  0.12500042990E+03 0.  0.
          5    1    3    3  502    0 -0.13221524760E+02 -0.48595594743E+02  0.83003268736E+01  0.51257447962E+02  0.47000000000E+01 0. -1.
         -5    1    3    3    0  502  0.31314400668E+01  0.47172393247E+02 -0.80448093322E+02  0.93429258376E+02  0.47000000000E+01 0. -1.
        -11    1    1    2    0    0 -0.13234581061E+02  0.85265587017E+01  0.48649131076E+02  0.51133103696E+02  0.00000000000E+00 0.  1.
         11    1    1    2    0    0  0.23324665755E+02 -0.71033572061E+01 -0.21621133197E+02  0.32587898320E+02  0.00000000000E+00 0. -1.
<mgrwt>
<rscale>  0 0.11181395E+03</rscale>
<asrwt>0</asrwt>
<pdfrwt beam="2">  1        1 0.21040575E-01 0.12541508E+03</pdfrwt>
<pdfrwt beam="1">  1       -1 0.14099072E-01 0.12541508E+03</pdfrwt>
<totfact> 0.79698651E+03</totfact>
</mgrwt>
</event>
<event>
 7    1  0.6419647E-006  0.1380353E+03  0.7546771E-02  0.1223792E+00
          3   -1    0    0  501    0  0.00000000000E+00  0.00000000000E+00  0.30463602546E+03  0.30463602546E+03  0.00000000000E+00 0. -1.
         -3   -1    0    0    0  501 -0.00000000000E+00 -0.00000000000E+00 -0.57406068795E+02  0.57406068795E+02  0.00000000000E+00 0.  1.
         23    2    1    2    0    0  0.31003732092E+02 -0.49653989824E+02  0.18033866237E+03  0.22710300479E+03  0.12500796586E+03 0.  0.
          5    1    3    3  502    0  0.28214476346E+02 -0.17052670038E+02  0.18981602311E+03  0.19271497830E+03  0.47000000000E+01 0.  1.
         -5    1    3    3    0  502  0.27892557459E+01 -0.32601319787E+02 -0.94773607367E+01  0.34388026491E+02  0.47000000000E+01 0.  1.
        -11    1    1    2    0    0  0.11521846092E+02  0.46598288246E+02 -0.80951698070E+01  0.48679412271E+02  0.00000000000E+00 0.  1.
         11    1    1    2    0    0 -0.42525578184E+02  0.30557015781E+01  0.74986464100E+02  0.86259677198E+02  0.00000000000E+00 0. -1.
<mgrwt>
<rscale>  0 0.13250055E+03</rscale>
<asrwt>0</asrwt>
<pdfrwt beam="1">  1        3 0.46867080E-01 0.13803529E+03</pdfrwt>
<pdfrwt beam="2">  1       -3 0.88317030E-02 0.13803529E+03</pdfrwt>
<totfact> 0.95417099E+02</totfact>
</mgrwt>
</event>
<event>
 7    1  0.6419647E-006  0.1324177E+03  0.7546771E-02  0.1236641E+00
         -2   -1    0    0    0  501 -0.00000000000E+00  0.00000000000E+00  0.25179107923E+03  0.25179107923E+03  0.00000000000E+00 0.  1.
          2   -1    0    0  501    0  0.00000000000E+00 -0.00000000000E+00 -0.75504692690E+02  0.75504692690E+02  0.00000000000E+00 0. -1.
         23    2    1    2    0    0  0.41450689056E+02  0.13823763436E+02  0.10623794074E+02  0.13284313846E+03  0.12500071350E+03 0.  0.
          5    1    3    3  502    0 -0.21999308971E+02 -0.41636039844E+02  0.10335783708E+02  0.48440146924E+02  0.47000000000E+01 0.  1.
         -5    1    3    3    0  502  0.63449998027E+02  0.55459803280E+02  0.28801036631E+00  0.84402991532E+02  0.47000000000E+01 0.  1.
        -11    1    1    2    0    0 -0.55855847130E+02 -0.38697920658E+02  0.85007985898E+02  0.10882905122E+03  0.00000000000E+00 0.  1.
         11    1    1    2    0    0  0.14405158075E+02  0.24874157222E+02  0.80654606569E+02  0.85623582251E+02  0.00000000000E+00 0. -1.
<mgrwt>
<rscale>  0 0.12399949E+03</rscale>
<asrwt>0</asrwt>
<pdfrwt beam="2">  1        2 0.11616107E-01 0.13241765E+03</pdfrwt>
<pdfrwt beam="1">  1       -2 0.38737089E-01 0.13241765E+03</pdfrwt>
<totfact> 0.32282647E+03</totfact>
</mgrwt>
</event>
<event>
 7    1  0.6419647E-006  0.1768385E+03  0.7546771E-02  0.1177991E+00
         -2   -1    0    0    0  501 -0.00000000000E+00  0.00000000000E+00  0.48192496644E+02  0.48192496644E+02  0.00000000000E+00 0.  1.
          2   -1    0    0  501    0  0.00000000000E+00 -0.00000000000E+00 -0.58560107643E+03  0.58560107643E+03  0.00000000000E+00 0. -1.
         23    2    1    2    0    0  0.24394027282E+02  0.12268215157E+03 -0.36022557784E+03  0.40129079974E+03  0.12500344053E+03 0.  0.
          5    1    3    3  502    0 -0.29922282636E+02  0.11658374996E+03 -0.22192805515E+03  0.25250993132E+03  0.47000000000E+01 0.  1.
         -5    1    3    3    0  502  0.54316309918E+02  0.60984016126E+01 -0.13829752268E+03  0.14878086841E+03  0.47000000000E+01 0.  1.
        -11    1    1    2    0    0 -0.40936714882E+02 -0.27374177779E+02 -0.88457004715E+02  0.10124130539E+03  0.00000000000E+00 0. -1.
         11    1    1    2    0    0  0.16542687600E+02 -0.95307973794E+02 -0.88725997228E+02  0.13126146794E+03  0.00000000000E+00 0.  1.
<mgrwt>
<rscale>  0 0.16986306E+03</rscale>
<asrwt>0</asrwt>
<pdfrwt beam="2">  1        2 0.90092471E-01 0.17683845E+03</pdfrwt>
<pdfrwt beam="1">  1       -2 0.74142304E-02 0.17683845E+03</pdfrwt>
<totfact> 0.54069355E+03</totfact>
</mgrwt>
</event>
<event>
 7    1  0.6419647E-006  0.1607225E+03  0.7546771E-02  0.1195280E+00
          1   -1    0    0  501    0  0.00000000000E+00  0.00000000000E+00  0.93280836570E+03  0.93280836570E+03  0.00000000000E+00 0.  1.
         -1   -1    0    0    0  501 -0.00000000000E+00 -0.00000000000E+00 -0.24601896098E+02  0.24601896098E+02  0.00000000000E+00 0. -1.
         23    2    1    2    0    0  0.95047029148E+02  0.34254006623E+02  0.58180965264E+03  0.60360102354E+03  0.12499779594E+03 0.  0.
          5    1    3    3  502    0  0.11087573757E+03  0.25876972599E+01  0.52416532164E+03  0.53579053721E+03  0.47000000000E+01 0. -1.
         -5    1    3    3    0  502 -0.15828708421E+02  0.31666309363E+02  0.57644331001E+02  0.67810486324E+02  0.47000000000E+01 0. -1.
        -11    1    1    2    0    0 -0.63706637057E+02 -0.63357915347E+02  0.25740849700E+03  0.27263876351E+03  0.00000000000E+00 0.  1.
         11    1    1    2    0    0 -0.31340392092E+02  0.29103908724E+02  0.68988319969E+02  0.81170474753E+02  0.00000000000E+00 0. -1.
<mgrwt>
<rscale>  0 0.15430536E+03</rscale>
<asrwt>0</asrwt>
<pdfrwt beam="1">  1        1 0.14350895E+00 0.16072251E+03</pdfrwt>
<pdfrwt beam="2">  1       -1 0.37849078E-02 0.16072251E+03</pdfrwt>
<totfact> 0.47208953E+03</totfact>
</mgrwt>
</event>
<event>
 7    1  0.6419647E-006  0.1255337E+03  0.7546771E-02  0.1248591E+00
         -2   -1    0    0    0  501 -0.00000000000E+00  0.00000000000E+00  0.21620119225E+02  0.21620119225E+02  0.00000000000E+00 0.  1.
          2   -1    0    0  501    0  0.00000000000E+00 -0.00000000000E+00 -0.55655821012E+03  0.55655821012E+03  0.00000000000E+00 0. -1.
         23    2    1    2    0    0  0.10234444248E+01 -0.11458509654E+02 -0.30522667105E+03  0.33003337951E+03  0.12500546384E+03 0.  0.
          5    1    3    3  502    0  0.17471834980E+02  0.53307111768E+02 -0.10883662939E+03  0.12253332232E+03  0.47000000000E+01 0. -1.
         -5    1    3    3    0  502 -0.16448390555E+02 -0.64765621422E+02 -0.19639004166E+03  0.20750005719E+03  0.47000000000E+01 0. -1.
        -11    1    1    2    0    0  0.14787790839E+02  0.37989488554E+02 -0.44395787363E+02  0.60273260523E+02  0.00000000000E+00 0.  1.
         11    1    1    2    0    0 -0.15811235264E+02 -0.26530978900E+02 -0.18531563249E+03  0.18787168931E+03  0.00000000000E+00 0. -1.
<mgrwt>
<rscale>  0 0.11673027E+03</rscale>
<asrwt>0</asrwt>
<pdfrwt beam="2">  1        2 0.85624327E-01 0.12553370E+03</pdfrwt>
<pdfrwt beam="1">  1       -2 0.33261727E-02 0.12553370E+03</pdfrwt>
<totfact> 0.18728197E+04</totfact>
</mgrwt>
</event>
<event>
 7    1  0.6419647E-006  0.1331192E+03  0.7546771E-02  0.1235722E+00
         -2   -1    0    0    0  501 -0.00000000000E+00  0.00000000000E+00  0.15504629065E+03  0.15504629065E+03  0.00000000000E+00 0.  1.
          2   -1    0    0  501    0  0.00000000000E+00 -0.00000000000E+00 -0.91785275283E+02  0.91785275283E+02  0.00000000000E+00 0. -1.
         23    2    1    2    0    0  0.45749300411E+02  0.35877544171E+01  0.15260227222E+02  0.13399105643E+03  0.12495942621E+03 0.  0.
          5    1    3    3  502    0  0.18863309727E+02  0.43543918290E+02 -0.38771604849E+02  0.61459129643E+02  0.47000000000E+01 0. -1.
         -5    1    3    3    0  502  0.26885990684E+02 -0.39956163873E+02  0.54031832071E+02  0.72531926787E+02  0.47000000000E+01 0. -1.
        -11    1    1    2    0    0 -0.26080441586E+02  0.19303626777E+02 -0.20227008767E+02  0.38235472061E+02  0.00000000000E+00 0. -1.
         11    1    1    2    0    0 -0.19668858825E+02 -0.22891381195E+02  0.68227796913E+02  0.74605037444E+02  0.00000000000E+00 0.  1.
<mgrwt>
<rscale>  0 0.12458347E+03</rscale>
<asrwt>0</asrwt>
<pdfrwt beam="2">  1        2 0.14120812E-01 0.13311923E+03</pdfrwt>
<pdfrwt beam="1">  1       -2 0.23853275E-01 0.13311923E+03</pdfrwt>
<totfact> 0.61331563E+03</totfact>
</mgrwt>
</event>
<event>
 6    1  0.6419647E-006  0.1441431E+03  0.7546771E-02  0.1219010E+00
         -1   -1    0    0    0  501 -0.00000000000E+00  0.00000000000E+00  0.15030979255E+03  0.15030979255E+03  0.00000000000E+00 0.  1.
          1   -1    0    0  501    0  0.00000000000E+00 -0.00000000000E+00 -0.21955495697E+03  0.21955495697E+03  0.00000000000E+00 0. -1.
          5    1    1    2  502    0  0.69285805752E+02  0.63476746779E+02 -0.92053428353E+02  0.13162729174E+03  0.47000000000E+01 0. -1.
         -5    1    1    2    0  502 -0.11994250014E+02 -0.46279299872E+02 -0.74427027096E+02  0.88583903687E+02  0.47000000000E+01 0.  1.
        -11    1    1    2    0    0 -0.40636943009E+02 -0.38878843431E+02  0.10678867946E+03  0.12069278216E+03  0.00000000000E+00 0.  1.
         11    1    1    2    0    0 -0.16654612728E+02  0.21681396524E+02 -0.95533884384E+01  0.28960771933E+02  0.00000000000E+00 0. -1.
<mgrwt>
<rscale>  0 0.13586055E+03</rscale>
<asrwt>0</asrwt>
<pdfrwt beam="2">  1        1 0.33777686E-01 0.14414308E+03</pdfrwt>
<pdfrwt beam="1">  1       -1 0.23124583E-01 0.14414308E+03</pdfrwt>
<totfact> 0.20212271E+03</totfact>
</mgrwt>
</event>
<event>
 7    1  0.6419647E-006  0.1321826E+03  0.7546771E-02  0.1237900E+00
         -1   -1    0    0    0  501 -0.00000000000E+00  0.00000000000E+00  0.15616432594E+02  0.15616432594E+02  0.00000000000E+00 0.  1.
          1   -1    0    0  501    0  0.00000000000E+00 -0.00000000000E+00 -0.94965697614E+03  0.94965697614E+03  0.00000000000E+00 0. -1.
         23    2    1    2    0    0 -0.16591716038E+02  0.39636268187E+02 -0.67211263532E+03  0.68498731900E+03  0.12500365529E+03 0.  0.
          5    1    3    3  502    0  0.22644938544E+02  0.75358049361E+02 -0.41309782068E+03  0.42055145737E+03  0.47000000000E+01 0.  1.
         -5    1    3    3    0  502 -0.39236654582E+02 -0.35721781174E+02 -0.25901481464E+03  0.26443586163E+03  0.47000000000E+01 0.  1.
        -11    1    1    2    0    0  0.37466393742E+02 -0.13887066208E+01 -0.42936295281E+02  0.57001619438E+02  0.00000000000E+00 0.  1.
         11    1    1    2    0    0 -0.20874677705E+02 -0.38247561566E+02 -0.21899161295E+03  0.22328447030E+03  0.00000000000E+00 0. -1.
<mgrwt>
<rscale>  0 0.12320567E+03</rscale>
<asrwt>0</asrwt>
<pdfrwt beam="2">  1        1 0.14610110E+00 0.13218257E+03</pdfrwt>
<pdfrwt beam="1">  1       -1 0.24025277E-02 0.13218257E+03</pdfrwt>
<totfact> 0.88192463E+03</totfact>
</mgrwt>
</event>
<event>
 7    1  0.6419647E-006  0.1562140E+03  0.7546771E-02  0.1200233E+00
          2   -1    0    0  501    0  0.00000000000E+00  0.00000000000E+00  0.12842935562E+03  0.12842935562E+03  0.00000000000E+00 0. -1.
         -2   -1    0    0    0  501 -0.00000000000E+00 -0.00000000000E+00 -0.18254489025E+03  0.18254489025E+03  0.00000000000E+00 0.  1.
         23    2    1    2    0    0 -0.89726826002E+02 -0.37392997043E+02  0.21283993628E+02  0.15765733071E+03  0.12228526490E+03 0.  0.
          5    1    3    3  502    0 -0.80741037361E+01 -0.40531470061E+02 -0.38202339399E+02  0.56475658048E+02  0.47000000000E+01 0. -1.
         -5    1    3    3    0  502 -0.81652722265E+02  0.31384730177E+01  0.59486333027E+02  0.10118167267E+03  0.47000000000E+01 0.  1.
        -11    1    1    2    0    0  0.18823898333E+02  0.25034545617E+02 -0.75072100972E+02  0.81344255895E+02  0.00000000000E+00 0.  1.
         11    1    1    2    0    0  0.70902927668E+02  0.12358451426E+02 -0.32742728823E+00  0.71972659269E+02  0.00000000000E+00 0. -1.
<mgrwt>
<rscale>  0 0.15019536E+03</rscale>
<asrwt>0</asrwt>
<pdfrwt beam="1">  1        2 0.19758362E-01 0.15621404E+03</pdfrwt>
<pdfrwt beam="2">  1       -2 0.28083829E-01 0.15621404E+03</pdfrwt>
<totfact> 0.31504930E+03</totfact>
</mgrwt>
</event>
<event>
 7    1  0.6752127E-006  0.1754815E+03  0.7546771E-02  0.1178175E+00
         -1   -1    0    0    0  501 -0.00000000000E+00  0.00000000000E+00  0.46356064466E+02  0.46356064466E+02  0.00000000000E+00 0.  1.
          1   -1    0    0  501    0  0.00000000000E+00 -0.00000000000E+00 -0.62638093818E+03  0.62638093818E+03  0.00000000000E+00 0. -1.
         23    2    1    2    0    0  0.11190014373E+03 -0.51445312131E+02 -0.39603017801E+03  0.43316702901E+03  0.12500204324E+03 0.  0.
          5    1    3    3  502    0  0.57487635010E+02 -0.86891547871E+02 -0.29578412175E+03  0.31363243765E+03  0.47000000000E+01 0.  1.
         -5    1    3    3    0  502  0.54412508722E+02  0.35446235740E+02 -0.10024605627E+03  0.11953459135E+03  0.47000000000E+01 0.  1.
        -11    1    1    2    0    0 -0.31576229924E+01  0.43625293663E+02 -0.42948310860E+02  0.61300034550E+02  0.00000000000E+00 0.  1.
         11    1    1    2    0    0 -0.10874252074E+03  0.78200184676E+01 -0.14104638484E+03  0.17826993909E+03  0.00000000000E+00 0. -1.
<mgrwt>
<rscale>  0 0.16968707E+03</rscale>
<asrwt>0</asrwt>
<pdfrwt beam="2">  1        1 0.96366297E-01 0.17548155E+03</pdfrwt>
<pdfrwt beam="1">  1       -1 0.71317023E-02 0.17548155E+03</pdfrwt>
<totfact> 0.33448567E+03</totfact>
</mgrwt>
</event>
<event>
 7    1  0.6419647E-006  0.1335899E+03  0.7546771E-02  0.1234118E+00
          2   -1    0    0  501    0  0.00000000000E+00  0.00000000000E+00  0.13050049813E+03  0.13050049813E+03  0.00000000000E+00 0. -1.
         -2   -1    0    0    0  501 -0.00000000000E+00 -0.00000000000E+00 -0.12327652352E+03  0.12327652352E+03  0.00000000000E+00 0.  1.
         23    2    1    2    0    0 -0.35300277823E+02 -0.31219990309E+02  0.47607459084E+02  0.14181940851E+03  0.12500190823E+03 0.  0.
          5    1    3    3  502    0 -0.20460996801E+02  0.20185216737E+02 -0.33594895195E+02  0.44461245461E+02  0.47000000000E+01 0. -1.
         -5    1    3    3    0  502 -0.14839281023E+02 -0.51405207046E+02  0.81202354279E+02  0.97358163054E+02  0.47000000000E+01 0. -1.
        -11    1    1    2    0    0 -0.21517997841E+02 -0.18283440953E+02 -0.48827774621E+01  0.28655714263E+02  0.00000000000E+00 0.  1.
         11    1    1    2    0    0  0.56818275664E+02  0.49503431262E+02 -0.35500707015E+02  0.83301898867E+02  0.00000000000E+00 0. -1.
<mgrwt>
<rscale>  0 0.12561080E+03</rscale>
<asrwt>0</asrwt>
<pdfrwt beam="1">  1        2 0.20077000E-01 0.13358995E+03</pdfrwt>
<pdfrwt beam="2">  1       -2 0.18965619E-01 0.13358995E+03</pdfrwt>
<totfact> 0.60437321E+03</totfact>
</mgrwt>
</event>
<event>
 7    1  0.6419647E-006  0.1300233E+03  0.7546771E-02  0.1240720E+00
          3   -1    0    0  501    0  0.00000000000E+00  0.00000000000E+00  0.17343908050E+03  0.17343908050E+03  0.00000000000E+00 0. -1.
         -3   -1    0    0    0  501 -0.00000000000E+00 -0.00000000000E+00 -0.83723202244E+02  0.83723202244E+02  0.00000000000E+00 0.  1.
         23    2    1    2    0    0 -0.13264928893E+02 -0.35038689320E+02  0.90080571051E+02  0.15817891993E+03  0.12450860750E+03 0.  0.
          5    1    3    3  502    0 -0.42480702170E+02 -0.41983239122E+02  0.10755734362E+03  0.12311732043E+03  0.47000000000E+01 0.  1.
         -5    1    3    3    0  502  0.29215773277E+02  0.69445498014E+01 -0.17476772565E+02  0.35061599499E+02  0.47000000000E+01 0.  1.
        -11    1    1    2    0    0 -0.18206214537E+01  0.14931771271E+02 -0.45169809571E+02  0.47608656276E+02  0.00000000000E+00 0.  1.
         11    1    1    2    0    0  0.15085550347E+02  0.20106918049E+02  0.44805116778E+02  0.51374706542E+02  0.00000000000E+00 0. -1.
<mgrwt>
<rscale>  0 0.12145230E+03</rscale>
<asrwt>0</asrwt>
<pdfrwt beam="1">  1        3 0.26682935E-01 0.13002331E+03</pdfrwt>
<pdfrwt beam="2">  1       -3 0.12880493E-01 0.13002331E+03</pdfrwt>
<totfact> 0.14664520E+03</totfact>
</mgrwt>
</event>
<event>
 7    1  0.6419647E-006  0.1217172E+03  0.7546771E-02  0.1242210E+00
         -2   -1    0    0    0  501 -0.00000000000E+00  0.00000000000E+00  0.38081310558E+02  0.38081310558E+02  0.00000000000E+00 0.  1.
          2   -1    0    0  501    0  0.00000000000E+00 -0.00000000000E+00 -0.92889454636E+03  0.92889454636E+03  0.00000000000E+00 0. -1.
         23    2    1    2    0    0 -0.23571031288E+02 -0.29397734946E+02 -0.82244011675E+03  0.83139811201E+03  0.11573787056E+03 0.  0.
          5    1    3    3  502    0 -0.18414557178E+02 -0.68296548186E+02 -0.67641670826E+03  0.68012143594E+03  0.47000000000E+01 0. -1.
         -5    1    3    3    0  502 -0.51564741104E+01  0.38898813240E+02 -0.14602340848E+03  0.15127667607E+03  0.47000000000E+01 0.  1.
        -11    1    1    2    0    0  0.60004343162E+02  0.40060265269E+02 -0.65604154217E+02  0.97515389053E+02  0.00000000000E+00 0.  1.
         11    1    1    2    0    0 -0.36433311873E+02 -0.10662530323E+02 -0.27689648365E+01  0.38062355855E+02  0.00000000000E+00 0. -1.
<mgrwt>
<rscale>  0 0.12053954E+03</rscale>
<asrwt>0</asrwt>
<pdfrwt beam="2">  1        2 0.14290685E+00 0.12171719E+03</pdfrwt>
<pdfrwt beam="1">  1       -2 0.58586632E-02 0.12171719E+03</pdfrwt>
<totfact> 0.43478960E+03</totfact>
</mgrwt>
</event>
<event>
 7    1  0.6419647E-006  0.2954913E+03  0.7546771E-02  0.1089124E+00
         -1   -1    0    0    0  501 -0.00000000000E+00  0.00000000000E+00  0.31625339288E+02  0.31625339288E+02  0.00000000000E+00 0.  1.
          1   -1    0    0  501    0  0.00000000000E+00 -0.00000000000E+00 -0.29326226709E+04  0.29326226709E+04  0.00000000000E+00 0. -1.
         23    2    1    2    0    0 -0.26668011590E+03  0.23845542573E+02 -0.19409046219E+04  0.19632691735E+04  0.12501280900E+03 0.  0.
          5    1    3    3  502    0 -0.60142513977E+02 -0.38476979976E+02 -0.70968378939E+03  0.71328169113E+03  0.47000000000E+01 0. -1.
         -5    1    3    3    0  502 -0.20653760193E+03  0.62322522549E+02 -0.12312208325E+04  0.12499874824E+04  0.47000000000E+01 0. -1.
        -11    1    1    2    0    0  0.73358957020E+02 -0.13989962253E+02 -0.43454825598E+03  0.44091886147E+03  0.00000000000E+00 0. -1.
         11    1    1    2    0    0  0.19332115888E+03 -0.98555803201E+01 -0.52554445375E+03  0.56005997518E+03  0.00000000000E+00 0.  1.
<mgrwt>
<rscale>  0 0.29235948E+03</rscale>
<asrwt>0</asrwt>
<pdfrwt beam="2">  1        1 0.45117289E+00 0.29549128E+03</pdfrwt>
<pdfrwt beam="1">  1       -1 0.48654350E-02 0.29549128E+03</pdfrwt>
<totfact> 0.14687107E+02</totfact>
</mgrwt>
</event>
<event>
 7    1  0.6419647E-006  0.1298173E+03  0.7546771E-02  0.1242581E+00
          2   -1    0    0  501    0  0.00000000000E+00  0.00000000000E+00  0.16756522176E+04  0.16756522176E+04  0.00000000000E+00 0. -1.
         -2   -1    0    0    0  501 -0.00000000000E+00 -0.00000000000E+00 -0.95158649426E+01  0.95158649426E+01  0.00000000000E+00 0.  1.
         23    2    1    2    0    0 -0.35000847772E+02  0.23722216429E+01  0.13086805316E+04  0.13151035236E+04  0.12498742779E+03 0.  0.
          5    1    3    3  502    0 -0.30628292254E+02 -0.42459724077E+02  0.11133982197E+04  0.11146383297E+04  0.47000000000E+01 0. -1.
         -5    1    3    3    0  502 -0.43725555184E+01  0.44831945719E+02  0.19528231193E+03  0.20046519386E+03  0.47000000000E+01 0. -1.
        -11    1    1    2    0    0  0.52205298314E+02 -0.30006710496E+02  0.27278382954E+03  0.27935069985E+03  0.00000000000E+00 0. -1.
         11    1    1    2    0    0 -0.17204450541E+02  0.27634488853E+02  0.84671991563E+02  0.90713859183E+02  0.00000000000E+00 0.  1.
<mgrwt>
<rscale>  0 0.12031344E+03</rscale>
<asrwt>0</asrwt>
<pdfrwt beam="1">  1        2 0.25779241E+00 0.12981735E+03</pdfrwt>
<pdfrwt beam="2">  1       -2 0.14639806E-02 0.12981735E+03</pdfrwt>
<totfact> 0.13073038E+04</totfact>
</mgrwt>
</event>
<event>
 7    1  0.6419647E-006  0.2049247E+03  0.7546771E-02  0.1149593E+00
          2   -1    0    0  501    0  0.00000000000E+00  0.00000000000E+00  0.73127453548E+02  0.73127453548E+02  0.00000000000E+00 0. -1.
         -2   -1    0    0    0  501 -0.00000000000E+00 -0.00000000000E+00 -0.52416067290E+03  0.52416067290E+03  0.00000000000E+00 0.  1.
         23    2    1    2    0    0  0.13329295352E+03  0.92752925987E+02 -0.24172012451E+03  0.31689547456E+03  0.12499602581E+03 0.  0.
          5    1    3    3  502    0  0.53068221331E+02 -0.16891054128E+02 -0.25361629506E+02  0.61374637075E+02  0.47000000000E+01 0.  1.
         -5    1    3    3    0  502  0.80224732192E+02  0.10964398011E+03 -0.21635849500E+03  0.25552083749E+03  0.47000000000E+01 0.  1.
        -11    1    1    2    0    0 -0.12556253329E+03 -0.59120573595E+02 -0.11591957299E+03  0.18082737456E+03  0.00000000000E+00 0. -1.
         11    1    1    2    0    0 -0.77304202325E+01 -0.33632352392E+02 -0.93393521853E+02  0.99565277323E+02  0.00000000000E+00 0.  1.
<mgrwt>
<rscale>  0 0.20017309E+03</rscale>
<asrwt>0</asrwt>
<pdfrwt beam="1">  1        2 0.11250377E-01 0.20492468E+03</pdfrwt>
<pdfrwt beam="2">  1       -2 0.80640106E-01 0.20492468E+03</pdfrwt>
<totfact> 0.76893932E+02</totfact>
</mgrwt>
</event>
<event>
 7    1  0.6419647E-006  0.1361381E+03  0.7546771E-02  0.1232495E+00
         -2   -1    0    0    0  501 -0.00000000000E+00  0.00000000000E+00  0.36311424945E+02  0.36311424945E+02  0.00000000000E+00 0.  1.
          2   -1    0    0  501    0  0.00000000000E+00 -0.00000000000E+00 -0.39398329241E+03  0.39398329241E+03  0.00000000000E+00 0. -1.
         23    2    1    2    0    0 -0.48572214074E+02  0.23421715051E+02 -0.22433078073E+03  0.26240785061E+03  0.12500297660E+03 0.  0.
          5    1    3    3  502    0 -0.77344055815E+02  0.12011331642E+02 -0.21631929801E+03  0.23009238090E+03  0.47000000000E+01 0.  1.
         -5    1    3    3    0  502  0.28771841741E+02  0.11410383409E+02 -0.80114827240E+01  0.32315469703E+02  0.47000000000E+01 0.  1.
        -11    1    1    2    0    0  0.48294229060E-01 -0.28132336578E+02 -0.11054486215E+03  0.11406838844E+03  0.00000000000E+00 0. -1.
         11    1    1    2    0    0  0.48523919845E+02  0.47106215271E+01 -0.22796224581E+02  0.53818478309E+02  0.00000000000E+00 0.  1.
<mgrwt>
<rscale>  0 0.12666191E+03</rscale>
<asrwt>0</asrwt>
<pdfrwt beam="2">  1        2 0.60612809E-01 0.13613809E+03</pdfrwt>
<pdfrwt beam="1">  1       -2 0.55863736E-02 0.13613809E+03</pdfrwt>
<totfact> 0.12677914E+04</totfact>
</mgrwt>
</event>
<event>
 7    1  0.6419647E-006  0.1817429E+03  0.7546771E-02  0.1171625E+00
         -1   -1    0    0    0  501 -0.00000000000E+00  0.00000000000E+00  0.39219187232E+02  0.39219187232E+02  0.00000000000E+00 0.  1.
          1   -1    0    0  501    0  0.00000000000E+00 -0.00000000000E+00 -0.76375387357E+03  0.76375387357E+03  0.00000000000E+00 0. -1.
         23    2    1    2    0    0 -0.10264146102E+03  0.82900899239E+02 -0.44657527305E+03  0.48214101495E+03  0.12499062039E+03 0.  0.
          5    1    3    3  502    0  0.16021049403E+02  0.53573883419E+02 -0.10080753172E+03  0.11537366884E+03  0.47000000000E+01 0. -1.
         -5    1    3    3    0  502 -0.11866251042E+03  0.29327015820E+02 -0.34576774132E+03  0.36676734611E+03  0.47000000000E+01 0. -1.
        -11    1    1    2    0    0  0.28410372241E+02 -0.40284423845E+02 -0.19679183852E+03  0.20287190975E+03  0.00000000000E+00 0. -1.
         11    1    1    2    0    0  0.74231088775E+02 -0.42616475394E+02 -0.81167574768E+02  0.11796013610E+03  0.00000000000E+00 0.  1.
<mgrwt>
<rscale>  0 0.17610637E+03</rscale>
<asrwt>0</asrwt>
<pdfrwt beam="2">  1        1 0.11750059E+00 0.18174291E+03</pdfrwt>
<pdfrwt beam="1">  1       -1 0.60337215E-02 0.18174291E+03</pdfrwt>
<totfact> 0.32376032E+03</totfact>
</mgrwt>
</event>
<event>
 7    1  0.6419647E-006  0.1267219E+03  0.7546771E-02  0.1271427E+00
          1   -1    0    0  501    0  0.00000000000E+00  0.00000000000E+00  0.18058624196E+03  0.18058624196E+03  0.00000000000E+00 0. -1.
         -1   -1    0    0    0  501 -0.00000000000E+00 -0.00000000000E+00 -0.48221126606E+02  0.48221126606E+02  0.00000000000E+00 0.  1.
         23    2    1    2    0    0 -0.13508728152E+02  0.15851744610E+02  0.10445392760E+03  0.16422260085E+03  0.12499870437E+03 0.  0.
          5    1    3    3  502    0 -0.37931639588E+02  0.38314299197E+02  0.11662308493E+03  0.12856838158E+03  0.47000000000E+01 0. -1.
         -5    1    3    3    0  502  0.24422911435E+02 -0.22462554587E+02 -0.12169157327E+02  0.35654219268E+02  0.47000000000E+01 0. -1.
        -11    1    1    2    0    0 -0.13055361675E+02  0.60234710720E+00  0.30548223300E+02  0.33226483974E+02  0.00000000000E+00 0. -1.
         11    1    1    2    0    0  0.26564089827E+02 -0.16454091717E+02 -0.26370355480E+01  0.31358283739E+02  0.00000000000E+00 0.  1.
<mgrwt>
<rscale>  0 0.10433938E+03</rscale>
<asrwt>0</asrwt>
<pdfrwt beam="1">  1        1 0.27782498E-01 0.12672190E+03</pdfrwt>
<pdfrwt beam="2">  1       -1 0.74186350E-02 0.12672190E+03</pdfrwt>
<totfact> 0.14997178E+04</totfact>
</mgrwt>
</event>
<event>
 7    1  0.6419647E-006  0.1282588E+03  0.7546771E-02  0.1239310E+00
          1   -1    0    0  501    0  0.00000000000E+00  0.00000000000E+00  0.39687974545E+03  0.39687974545E+03  0.00000000000E+00 0. -1.
         -1   -1    0    0    0  501 -0.00000000000E+00 -0.00000000000E+00 -0.94285847582E+02  0.94285847582E+02  0.00000000000E+00 0.  1.
         23    2    1    2    0    0  0.34717208717E+02 -0.44128224989E+02  0.35160960615E+03  0.37427215208E+03  0.11531584396E+03 0.  0.
          5    1    3    3  502    0 -0.32500263965E+01  0.12746866812E+02  0.25732946750E+03  0.25770834315E+03  0.47000000000E+01 0. -1.
         -5    1    3    3    0  502  0.37967235114E+02 -0.56875091801E+02  0.94280138650E+02  0.11656380893E+03  0.47000000000E+01 0.  1.
        -11    1    1    2    0    0  0.15993287419E+02  0.52275353285E+02 -0.27708719417E+02  0.61288424154E+02  0.00000000000E+00 0.  1.
         11    1    1    2    0    0 -0.50710496137E+02 -0.81471282967E+01 -0.21306988866E+02  0.55605016792E+02  0.00000000000E+00 0. -1.
<mgrwt>
<rscale>  0 0.12232499E+03</rscale>
<asrwt>0</asrwt>
<pdfrwt beam="1">  1        1 0.61058422E-01 0.12825883E+03</pdfrwt>
<pdfrwt beam="2">  1       -1 0.14505515E-01 0.12825883E+03</pdfrwt>
<totfact> 0.20299088E+03</totfact>
</mgrwt>
</event>
<event>
 7    1  0.6419647E-006  0.1268495E+03  0.7546771E-02  0.1246396E+00
         -2   -1    0    0    0  501 -0.00000000000E+00  0.00000000000E+00  0.14270428054E+03  0.14270428054E+03  0.00000000000E+00 0.  1.
          2   -1    0    0  501    0  0.00000000000E+00 -0.00000000000E+00 -0.87192860238E+02  0.87192860238E+02  0.00000000000E+00 0. -1.
         23    2    1    2    0    0 -0.21560708590E+02  0.59428761873E+00  0.19963373146E+02  0.12841082596E+03  0.12500234647E+03 0.  0.
          5    1    3    3  502    0  0.20409785279E+01 -0.57809933999E+02  0.28520825116E+02  0.64665922460E+02  0.47000000000E+01 0.  1.
         -5    1    3    3    0  502 -0.23601687117E+02  0.58404221618E+02 -0.85574519699E+01  0.63744903497E+02  0.47000000000E+01 0.  1.
        -11    1    1    2    0    0  0.54168759688E+02  0.16687173586E+01  0.41504271814E+02  0.68261583065E+02  0.00000000000E+00 0.  1.
         11    1    1    2    0    0 -0.32608051098E+02 -0.22630049773E+01 -0.59562246591E+01  0.33224731754E+02  0.00000000000E+00 0. -1.
<mgrwt>
<rscale>  0 0.11802188E+03</rscale>
<asrwt>0</asrwt>
<pdfrwt beam="2">  1        2 0.13414286E-01 0.12684953E+03</pdfrwt>
<pdfrwt beam="1">  1       -2 0.21954505E-01 0.12684953E+03</pdfrwt>
<totfact> 0.74894631E+03</totfact>
</mgrwt>
</event>
<event>
 7    1  0.6419647E-006  0.1407866E+03  0.7546771E-02  0.1222941E+00
          2   -1    0    0  501    0  0.00000000000E+00  0.00000000000E+00  0.20700599903E+03  0.20700599903E+03  0.00000000000E+00 0. -1.
         -2   -1    0    0    0  501 -0.00000000000E+00 -0.00000000000E+00 -0.78617547436E+02  0.78617547436E+02  0.00000000000E+00 0.  1.
         23    2    1    2    0    0  0.63166408110E+02  0.14228279956E+02  0.88652587715E+02  0.16637353709E+03  0.12501373313E+03 0.  0.
          5    1    3    3  502    0  0.90577621739E+02 -0.63581627093E+01  0.25610907674E+02  0.94460258230E+02  0.47000000000E+01 0. -1.
         -5    1    3    3    0  502 -0.27411213629E+02  0.20586442665E+02  0.63041680041E+02  0.71913278861E+02  0.47000000000E+01 0. -1.
        -11    1    1    2    0    0 -0.13562117845E+02  0.37908883753E+02  0.10791607276E+02  0.41683009674E+02  0.00000000000E+00 0. -1.
         11    1    1    2    0    0 -0.49604290265E+02 -0.52137163709E+02  0.28944256604E+02  0.77566999701E+02  0.00000000000E+00 0.  1.
<mgrwt>
<rscale>  0 0.13309030E+03</rscale>
<asrwt>0</asrwt>
<pdfrwt beam="1">  1        2 0.31847077E-01 0.14078662E+03</pdfrwt>
<pdfrwt beam="2">  1       -2 0.12095007E-01 0.14078662E+03</pdfrwt>
<totfact> 0.76163446E+03</totfact>
</mgrwt>
</event>
<event>
 7    1  0.6419647E-006  0.1280097E+03  0.7546771E-02  0.1244385E+00
         -2   -1    0    0    0  501 -0.00000000000E+00  0.00000000000E+00  0.23111536643E+02  0.23111536643E+02  0.00000000000E+00 0.  1.
          2   -1    0    0  501    0  0.00000000000E+00 -0.00000000000E+00 -0.64743071810E+03  0.64743071810E+03  0.00000000000E+00 0. -1.
         23    2    1    2    0    0  0.31339185755E+02  0.25470978617E+02 -0.48189617639E+03  0.49860847539E+03  0.12147251377E+03 0.  0.
          5    1    3    3  502    0 -0.61381687895E+01  0.48209109403E+02 -0.41879607575E+03  0.42163258699E+03  0.47000000000E+01 0. -1.
         -5    1    3    3    0  502  0.37477354545E+02 -0.22738130786E+02 -0.63100100636E+02  0.76975888404E+02  0.47000000000E+01 0.  1.
        -11    1    1    2    0    0  0.25532657854E+02  0.63171674710E+01 -0.19261993412E+02  0.32601343717E+02  0.00000000000E+00 0. -1.
         11    1    1    2    0    0 -0.56871843609E+02 -0.31788146088E+02 -0.12316101165E+03  0.13933243563E+03  0.00000000000E+00 0.  1.
<mgrwt>
<rscale>  0 0.11922234E+03</rscale>
<asrwt>0</asrwt>
<pdfrwt beam="2">  1        2 0.99604716E-01 0.12800971E+03</pdfrwt>
<pdfrwt beam="1">  1       -2 0.35556214E-02 0.12800971E+03</pdfrwt>
<totfact> 0.14318334E+04</totfact>
</mgrwt>
</event>
<event>
 7    1  0.6419647E-006  0.1816158E+03  0.7546771E-02  0.1171425E+00
          1   -1    0    0  501    0  0.00000000000E+00  0.00000000000E+00  0.66486177872E+03  0.66486177872E+03  0.00000000000E+00 0. -1.
         -1   -1    0    0    0  501 -0.00000000000E+00 -0.00000000000E+00 -0.49445072851E+02  0.49445072851E+02  0.00000000000E+00 0.  1.
         23    2    1    2    0    0  0.88489478836E+02  0.97612039880E+02  0.43998014820E+03  0.47599038339E+03  0.12500326427E+03 0.  0.
          5    1    3    3  502    0  0.53718497666E+02  0.32348657950E+02  0.53771898640E+02  0.82738260472E+02  0.47000000000E+01 0. -1.
         -5    1    3    3    0  502  0.34770981170E+02  0.65263381930E+02  0.38620824956E+03  0.39325212292E+03  0.47000000000E+01 0. -1.
        -11    1    1    2    0    0 -0.10032382062E+03 -0.50355424094E+02  0.11520813015E+03  0.16085226443E+03  0.00000000000E+00 0.  1.
         11    1    1    2    0    0  0.11834341785E+02 -0.47256615786E+02  0.60228427519E+02  0.77464203748E+02  0.00000000000E+00 0. -1.
<mgrwt>
<rscale>  0 0.17630797E+03</rscale>
<asrwt>0</asrwt>
<pdfrwt beam="1">  1        1 0.10228642E+00 0.18161584E+03</pdfrwt>
<pdfrwt beam="2">  1       -1 0.76069347E-02 0.18161584E+03</pdfrwt>
<totfact> 0.27929262E+03</totfact>
</mgrwt>
</event>
<event>
 7    1  0.6419647E-006  0.2471980E+03  0.7546771E-02  0.1117691E+00
          2   -1    0    0  501    0  0.00000000000E+00  0.00000000000E+00  0.29914175086E+04  0.29914175086E+04  0.00000000000E+00 0. -1.
         -2   -1    0    0    0  501 -0.00000000000E+00 -0.00000000000E+00 -0.24792951542E+02  0.24792951542E+02  0.00000000000E+00 0.  1.
         23    2    1    2    0    0 -0.12944743980E+03 -0.16948810286E+03  0.22398732850E+04  0.22534726923E+04  0.12499594230E+03 0.  0.
          5    1    3    3  502    0 -0.43374739815E+02 -0.15339725552E+03  0.14291748975E+04  0.14380455708E+04  0.47000000000E+01 0. -1.
         -5    1    3    3    0  502 -0.86072699983E+02 -0.16090847345E+02  0.81069838748E+03  0.81542712152E+03  0.47000000000E+01 0. -1.
        -11    1    1    2    0    0  0.69516132105E+02  0.32728234943E+02  0.32980989467E+03  0.33864169354E+03  0.00000000000E+00 0. -1.
         11    1    1    2    0    0  0.59931307693E+02  0.13675986792E+03  0.39694137741E+03  0.42409607428E+03  0.00000000000E+00 0.  1.
<mgrwt>
<rscale>  0 0.24318165E+03</rscale>
<asrwt>0</asrwt>
<pdfrwt beam="1">  1        2 0.46021779E+00 0.24719798E+03</pdfrwt>
<pdfrwt beam="2">  1       -2 0.38143026E-02 0.24719798E+03</pdfrwt>
<totfact> 0.62595475E+02</totfact>
</mgrwt>
</event>
<event>
 7    1  0.6419647E-006  0.1372811E+03  0.7546771E-02  0.1228266E+00
         -2   -1    0    0    0  501 -0.00000000000E+00  0.00000000000E+00  0.39783093765E+02  0.39783093765E+02  0.00000000000E+00 0.  1.
          2   -1    0    0  501    0  0.00000000000E+00 -0.00000000000E+00 -0.38699325434E+03  0.38699325434E+03  0.00000000000E+00 0. -1.
         23    2    1    2    0    0 -0.54514610772E+02 -0.72934041191E+01 -0.22244727194E+03  0.26139795052E+03  0.12578180794E+03 0.  0.
          5    1    3    3  502    0 -0.73553884489E+02 -0.50826102425E+02 -0.14396413101E+03  0.16953237929E+03  0.47000000000E+01 0. -1.
         -5    1    3    3    0  502  0.19039273716E+02  0.43532698306E+02 -0.78483140930E+02  0.91865571221E+02  0.47000000000E+01 0. -1.
        -11    1    1    2    0    0  0.24897358092E+02  0.84548182484E+01  0.94432985921E+01  0.27938115181E+02  0.00000000000E+00 0.  1.
         11    1    1    2    0    0  0.29617252680E+02 -0.11614141293E+01 -0.13420618722E+03  0.13744028241E+03  0.00000000000E+00 0. -1.
<mgrwt>
<rscale>  0 0.12945557E+03</rscale>
<asrwt>0</asrwt>
<pdfrwt beam="2">  1        2 0.59537424E-01 0.13728110E+03</pdfrwt>
<pdfrwt beam="1">  1       -2 0.61204760E-02 0.13728110E+03</pdfrwt>
<totfact> 0.11260860E+04</totfact>
</mgrwt>
</event>
<event>
 7    1  0.6419647E-006  0.1295774E+03  0.7546771E-02  0.1242007E+00
          2   -1    0    0  501    0  0.00000000000E+00  0.00000000000E+00  0.25143311292E+03  0.25143311292E+03  0.00000000000E+00 0. -1.
         -2   -1    0    0    0  501 -0.00000000000E+00 -0.00000000000E+00 -0.51454903361E+02  0.51454903361E+02  0.00000000000E+00 0.  1.
         23    2    1    2    0    0 -0.20173842865E+02 -0.27522532414E+02  0.12377307827E+03  0.17919282361E+03  0.12500327757E+03 0.  0.
          5    1    3    3  502    0 -0.74460433516E+01 -0.24741784203E+02  0.14852531878E+03  0.15082924042E+03  0.47000000000E+01 0. -1.
         -5    1    3    3    0  502 -0.12727799514E+02 -0.27807482113E+01 -0.24752240512E+02  0.28363583191E+02  0.47000000000E+01 0. -1.
        -11    1    1    2    0    0  0.48401539537E+02  0.24463861978E+02  0.78275003838E+02  0.95226917404E+02  0.00000000000E+00 0. -1.
         11    1    1    2    0    0 -0.28227696671E+02  0.30586704363E+01 -0.20698725486E+01  0.28468275265E+02  0.00000000000E+00 0.  1.
<mgrwt>
<rscale>  0 0.12066293E+03</rscale>
<asrwt>0</asrwt>
<pdfrwt beam="1">  1        2 0.38682017E-01 0.12957736E+03</pdfrwt>
<pdfrwt beam="2">  1       -2 0.79161391E-02 0.12957736E+03</pdfrwt>
<totfact> 0.11951197E+04</totfact>
</mgrwt>
</event>
<event>
 7    1  0.6419647E-006  0.1406073E+03  0.7546771E-02  0.1221864E+00
         -1   -1    0    0    0  501 -0.00000000000E+00  0.00000000000E+00  0.59596877964E+03  0.59596877964E+03  0.00000000000E+00 0.  1.
          1   -1    0    0  501    0  0.00000000000E+00 -0.00000000000E+00 -0.33027711984E+02  0.33027711984E+02  0.00000000000E+00 0. -1.
         23    2    1    2    0    0 -0.95328186301E+01 -0.63756489601E+02  0.17637682383E+03  0.22556417454E+03  0.12495858616E+03 0.  0.
          5    1    3    3  502    0  0.40380799055E+01 -0.39379533251E+02  0.19001786915E+03  0.19415440846E+03  0.47000000000E+01 0.  1.
         -5    1    3    3    0  502 -0.13570898536E+02 -0.24376956350E+02 -0.13641045321E+02  0.31409766083E+02  0.47000000000E+01 0.  1.
        -11    1    1    2    0    0  0.37091757280E+02 -0.85377806529E+01  0.12547000868E+03  0.13111603729E+03  0.00000000000E+00 0. -1.
         11    1    1    2    0    0 -0.27558938650E+02  0.72294270254E+02  0.26109423514E+03  0.27231627979E+03  0.00000000000E+00 0.  1.
<mgrwt>
<rscale>  0 0.13384194E+03</rscale>
<asrwt>0</asrwt>
<pdfrwt beam="2">  1        1 0.50811869E-02 0.14060730E+03</pdfrwt>
<pdfrwt beam="1">  1       -1 0.91687497E-01 0.14060730E+03</pdfrwt>
<totfact> 0.19333621E+03</totfact>
</mgrwt>
</event>
<event>
 7    1  0.6419647E-006  0.3694203E+03  0.7546771E-02  0.1055910E+00
         -3   -1    0    0    0  501 -0.00000000000E+00  0.00000000000E+00  0.59172213966E+02  0.59172213966E+02  0.00000000000E+00 0.  1.
          3   -1    0    0  501    0  0.00000000000E+00 -0.00000000000E+00 -0.22442320011E+04  0.22442320011E+04  0.00000000000E+00 0. -1.
         23    2    1    2    0    0  0.29322487155E+03 -0.18672160937E+03 -0.10795220762E+04  0.11409817066E+04  0.12500222759E+03 0.  0.
          5    1    3    3  502    0  0.16033150067E+02 -0.58483162209E+02 -0.24101276686E+03  0.24856907682E+03  0.47000000000E+01 0. -1.
         -5    1    3    3    0  502  0.27719172148E+03 -0.12823844716E+03 -0.83850930938E+03  0.89241262973E+03  0.47000000000E+01 0. -1.
        -11    1    1    2    0    0 -0.10836626812E+03  0.52209710440E+02 -0.52243550435E+03  0.53610442839E+03  0.00000000000E+00 0.  1.
         11    1    1    2    0    0 -0.18485860343E+03  0.13451189893E+03 -0.58310220653E+03  0.62631808011E+03  0.00000000000E+00 0. -1.
<mgrwt>
<rscale>  0 0.36683393E+03</rscale>
<asrwt>0</asrwt>
<pdfrwt beam="2">  1        3 0.34526641E+00 0.36942028E+03</pdfrwt>
<pdfrwt beam="1">  1       -3 0.91034188E-02 0.36942028E+03</pdfrwt>
<totfact> 0.54942502E+00</totfact>
</mgrwt>
</event>
<event>
 7    1  0.6419647E-006  0.1307453E+03  0.7546771E-02  0.1238315E+00
         -2   -1    0    0    0  501 -0.00000000000E+00  0.00000000000E+00  0.55590697865E+03  0.55590697865E+03  0.00000000000E+00 0.  1.
          2   -1    0    0  501    0  0.00000000000E+00 -0.00000000000E+00 -0.24555758363E+02  0.24555758363E+02  0.00000000000E+00 0. -1.
         23    2    1    2    0    0  0.19485227754E+02 -0.33005583427E+02  0.32023890957E+03  0.34590069091E+03  0.12500114452E+03 0.  0.
          5    1    3    3  502    0  0.19687050387E+02 -0.61639256222E+02  0.30739660187E+03  0.31416832861E+03  0.47000000000E+01 0.  1.
         -5    1    3    3    0  502 -0.20182263287E+00  0.28633672795E+02  0.12842307702E+02  0.31732362301E+02  0.47000000000E+01 0.  1.
        -11    1    1    2    0    0 -0.14553900228E+02 -0.30735649207E+02  0.10810408769E+03  0.11332691613E+03  0.00000000000E+00 0.  1.
         11    1    1    2    0    0 -0.49313275261E+01  0.63741232635E+02  0.10300822303E+03  0.12123512998E+03  0.00000000000E+00 0. -1.
<mgrwt>
<rscale>  0 0.12294588E+03</rscale>
<asrwt>0</asrwt>
<pdfrwt beam="2">  1        2 0.37778094E-02 0.13074528E+03</pdfrwt>
<pdfrwt beam="1">  1       -2 0.85524141E-01 0.13074528E+03</pdfrwt>
<totfact> 0.26780111E+03</totfact>
</mgrwt>
</event>
<event>
 7    1  0.6419647E-006  0.1326652E+03  0.7546771E-02  0.1236617E+00
         -2   -1    0    0    0  501 -0.00000000000E+00  0.00000000000E+00  0.94460371496E+02  0.94460371496E+02  0.00000000000E+00 0.  1.
          2   -1    0    0  501    0  0.00000000000E+00 -0.00000000000E+00 -0.16364742542E+03  0.16364742542E+03  0.00000000000E+00 0. -1.
         23    2    1    2    0    0 -0.44111284405E+02 -0.54750192102E+01 -0.82055221240E+02  0.15599077699E+03  0.12499712767E+03 0.  0.
          5    1    3    3  502    0  0.37931560891E+02 -0.62678586873E+01  0.15428422541E+01  0.38762865301E+02  0.47000000000E+01 0.  1.
         -5    1    3    3    0  502 -0.82042845296E+02  0.79283947715E+00 -0.83598063494E+02  0.11722791169E+03  0.47000000000E+01 0.  1.
        -11    1    1    2    0    0  0.46614307908E+02  0.42906299328E+02  0.35073879209E+01  0.63451918756E+02  0.00000000000E+00 0. -1.
         11    1    1    2    0    0 -0.25030235030E+01 -0.37431280117E+02  0.93607793938E+01  0.38665101173E+02  0.00000000000E+00 0.  1.
<mgrwt>
<rscale>  0 0.12401477E+03</rscale>
<asrwt>0</asrwt>
<pdfrwt beam="2">  1        2 0.25176527E-01 0.13266523E+03</pdfrwt>
<pdfrwt beam="1">  1       -2 0.14532365E-01 0.13266523E+03</pdfrwt>
<totfact> 0.72870208E+03</totfact>
</mgrwt>
</event>
<event>
 7    1  0.6419647E-006  0.2594419E+03  0.7546771E-02  0.1109768E+00
          1   -1    0    0  501    0  0.00000000000E+00  0.00000000000E+00  0.39393846392E+03  0.39393846392E+03  0.00000000000E+00 0. -1.
         -1   -1    0    0    0  501 -0.00000000000E+00 -0.00000000000E+00 -0.19231145673E+03  0.19231145673E+03  0.00000000000E+00 0.  1.
         23    2    1    2    0    0 -0.14203642350E+03 -0.17753335930E+03  0.22094532272E+03  0.34077402284E+03  0.12497063555E+03 0.  0.
          5    1    3    3  502    0 -0.10542995600E+03 -0.73670528744E+02  0.51486738865E+02  0.13862105434E+03  0.47000000000E+01 0.  1.
         -5    1    3    3    0  502 -0.36606467505E+02 -0.10386283055E+03  0.16945858385E+03  0.20215296850E+03  0.47000000000E+01 0.  1.
        -11    1    1    2    0    0  0.29943263098E+02  0.10961468939E+03 -0.10516003340E+02  0.11411645570E+03  0.00000000000E+00 0.  1.
         11    1    1    2    0    0  0.11209316041E+03  0.67918669910E+02 -0.88023121888E+01  0.13135944211E+03  0.00000000000E+00 0. -1.
<mgrwt>
<rscale>  0 0.25567899E+03</rscale>
<asrwt>0</asrwt>
<pdfrwt beam="1">  1        1 0.60605917E-01 0.25944190E+03</pdfrwt>
<pdfrwt beam="2">  1       -1 0.29586378E-01 0.25944190E+03</pdfrwt>
<totfact> 0.64932036E+02</totfact>
</mgrwt>
</event>
<event>
 7    1  0.6419647E-006  0.1567790E+03  0.7546771E-02  0.1200648E+00
          1   -1    0    0  501    0  0.00000000000E+00  0.00000000000E+00  0.10582134627E+04  0.10582134627E+04  0.00000000000E+00 0.  1.
         -1   -1    0    0    0  501 -0.00000000000E+00 -0.00000000000E+00 -0.23834142255E+02  0.23834142255E+02  0.00000000000E+00 0. -1.
         23    2    1    2    0    0  0.73473754570E+02  0.59628265926E+02  0.78405041160E+03  0.79957157945E+03  0.12500296009E+03 0.  0.
          5    1    3    3  502    0 -0.14722512177E+02  0.48714321157E+02  0.13325028469E+03  0.14271498107E+03  0.47000000000E+01 0. -1.
         -5    1    3    3    0  502  0.88196266747E+02  0.10913944769E+02  0.65080012691E+03  0.65685659838E+03  0.47000000000E+01 0. -1.
        -11    1    1    2    0    0 -0.42537274833E+02  0.17772634755E+02  0.10980817807E+03  0.11909291443E+03  0.00000000000E+00 0. -1.
         11    1    1    2    0    0 -0.30936479737E+02 -0.77400900681E+02  0.14052073075E+03  0.16338311105E+03  0.00000000000E+00 0.  1.
<mgrwt>
<rscale>  0 0.14985794E+03</rscale>
<asrwt>0</asrwt>
<pdfrwt beam="1">  1        1 0.16280203E+00 0.15677903E+03</pdfrwt>
<pdfrwt beam="2">  1       -1 0.36667919E-02 0.15677903E+03</pdfrwt>
<totfact> 0.39932212E+03</totfact>
</mgrwt>
</event>
<event>
 7    1  0.6419647E-006  0.2095762E+03  0.7546771E-02  0.1145645E+00
          2   -1    0    0  501    0  0.00000000000E+00  0.00000000000E+00  0.50950202893E+03  0.50950202893E+03  0.00000000000E+00 0. -1.
         -2   -1    0    0    0  501 -0.00000000000E+00 -0.00000000000E+00 -0.81604579215E+02  0.81604579215E+02  0.00000000000E+00 0.  1.
         23    2    1    2    0    0 -0.15702949536E+03  0.60318939996E+02  0.27626700448E+03  0.34676452037E+03  0.12500215153E+03 0.  0.
          5    1    3    3  502    0 -0.14529614568E+03  0.86436953191E+02  0.18344209611E+03  0.24951033937E+03  0.47000000000E+01 0.  1.
         -5    1    3    3    0  502 -0.11733349674E+02 -0.26118013195E+02  0.92824908370E+02  0.97254180999E+02  0.47000000000E+01 0.  1.
        -11    1    1    2    0    0  0.46246447471E+02  0.18227151265E+02  0.70130876925E+02  0.85961054235E+02  0.00000000000E+00 0. -1.
         11    1    1    2    0    0  0.11078304788E+03 -0.78546091261E+02  0.81499568308E+02  0.15838103354E+03  0.00000000000E+00 0.  1.
<mgrwt>
<rscale>  0 0.20493038E+03</rscale>
<asrwt>0</asrwt>
<pdfrwt beam="1">  1        2 0.78384925E-01 0.20957618E+03</pdfrwt>
<pdfrwt beam="2">  1       -2 0.12554551E-01 0.20957618E+03</pdfrwt>
<totfact> 0.27699802E+03</totfact>
</mgrwt>
</event>
<event>
 7    1  0.6419647E-006  0.1295299E+03  0.7546771E-02  0.1243870E+00
         -1   -1    0    0    0  501 -0.00000000000E+00  0.00000000000E+00  0.51794221830E+02  0.51794221830E+02  0.00000000000E+00 0.  1.
          1   -1    0    0  501    0  0.00000000000E+00 -0.00000000000E+00 -0.28144255306E+03  0.28144255306E+03  0.00000000000E+00 0. -1.
         23    2    1    2    0    0 -0.21214954077E+02 -0.26328463757E+02 -0.19292951294E+03  0.23237858014E+03  0.12503897499E+03 0.  0.
          5    1    3    3  502    0  0.29880377149E+02 -0.36526482618E+02 -0.19581140764E+02  0.51308205432E+02  0.47000000000E+01 0.  1.
         -5    1    3    3    0  502 -0.51095331227E+02  0.10198018862E+02 -0.17334837217E+03  0.18107037471E+03  0.47000000000E+01 0.  1.
        -11    1    1    2    0    0  0.14228978737E+02  0.94986048493E+01  0.28445592746E+02  0.33193961448E+02  0.00000000000E+00 0.  1.
         11    1    1    2    0    0  0.69859753405E+01  0.16829858907E+02 -0.65164411043E+02  0.67664233306E+02  0.00000000000E+00 0. -1.
<mgrwt>
<rscale>  0 0.11953263E+03</rscale>
<asrwt>0</asrwt>
<pdfrwt beam="2">  1        1 0.43298855E-01 0.12952995E+03</pdfrwt>
<pdfrwt beam="1">  1       -1 0.79683417E-02 0.12952995E+03</pdfrwt>
<totfact> 0.77925639E+03</totfact>
</mgrwt>
</event>
<event>
 7    1  0.6419647E-006  0.1403300E+03  0.7546771E-02  0.1223549E+00
          2   -1    0    0  501    0  0.00000000000E+00  0.00000000000E+00  0.28346944579E+03  0.28346944579E+03  0.00000000000E+00 0. -1.
         -2   -1    0    0    0  501 -0.00000000000E+00 -0.00000000000E+00 -0.57656312130E+02  0.57656312130E+02  0.00000000000E+00 0.  1.
         23    2    1    2    0    0  0.41464222486E+02 -0.48452264240E+02  0.15216142508E+03  0.20699182661E+03  0.12500245336E+03 0.  0.
          5    1    3    3  502    0 -0.21915195050E+02  0.22233872793E+01  0.11575735881E+03  0.11792826355E+03  0.47000000000E+01 0.  1.
         -5    1    3    3    0  502  0.63379417536E+02 -0.50675651519E+02  0.36404066272E+02  0.89063563062E+02  0.47000000000E+01 0.  1.
        -11    1    1    2    0    0 -0.31659548401E+02  0.13924842506E+02  0.88707466121E+02  0.95211568569E+02  0.00000000000E+00 0. -1.
         11    1    1    2    0    0 -0.98046740847E+01  0.34527421734E+02 -0.15055757548E+02  0.38922362735E+02  0.00000000000E+00 0.  1.
<mgrwt>
<rscale>  0 0.13266867E+03</rscale>
<asrwt>0</asrwt>
<pdfrwt beam="1">  1        2 0.43610683E-01 0.14033003E+03</pdfrwt>
<pdfrwt beam="2">  1       -2 0.88702020E-02 0.14033003E+03</pdfrwt>
<totfact> 0.88755451E+03</totfact>
</mgrwt>
</event>
<event>
 7    1  0.6419647E-006  0.1472685E+03  0.7546771E-02  0.1218886E+00
          2   -1    0    0  501    0  0.00000000000E+00  0.00000000000E+00  0.13366246390E+04  0.13366246390E+04  0.00000000000E+00 0. -1.
         -2   -1    0    0    0  501 -0.00000000000E+00 -0.00000000000E+00 -0.42710917792E+02  0.42710917792E+02  0.00000000000E+00 0.  1.
         23    2    1    2    0    0 -0.61368972456E+02 -0.46636784404E+02  0.12578928143E+04  0.12664842476E+04  0.12548655965E+03 0.  0.
          5    1    3    3  502    0 -0.58519923221E+02 -0.53821138653E+02  0.12541800163E+04  0.12567063697E+04  0.47000000000E+01 0. -1.
         -5    1    3    3    0  502 -0.28490492342E+01  0.71843542491E+01  0.37127980752E+01  0.97778779427E+01  0.47000000000E+01 0.  1.
        -11    1    1    2    0    0  0.92108253682E+01 -0.14116297371E+02  0.27598059629E+02  0.32338244397E+02  0.00000000000E+00 0. -1.
         11    1    1    2    0    0  0.52158147087E+02  0.60753081776E+02  0.84228472974E+01  0.80513064837E+02  0.00000000000E+00 0.  1.
<mgrwt>
<rscale>  0 0.13594893E+03</rscale>
<asrwt>0</asrwt>
<pdfrwt beam="1">  1        2 0.20563453E+00 0.14726852E+03</pdfrwt>
<pdfrwt beam="2">  1       -2 0.65709114E-02 0.14726852E+03</pdfrwt>
<totfact> 0.21498141E+03</totfact>
</mgrwt>
</event>
<event>
 7    1  0.6419647E-006  0.1289411E+03  0.7546771E-02  0.1242721E+00
         -2   -1    0    0    0  501 -0.00000000000E+00  0.00000000000E+00  0.58726292323E+02  0.58726292323E+02  0.00000000000E+00 0.  1.
          2   -1    0    0  501    0  0.00000000000E+00 -0.00000000000E+00 -0.21837840134E+03  0.21837840134E+03  0.00000000000E+00 0. -1.
         23    2    1    2    0    0  0.29909807266E+02  0.10338826726E+02 -0.94666747508E+02  0.15996122374E+03  0.12499724840E+03 0.  0.
          5    1    3    3  502    0 -0.88222881347E+01  0.17964095198E+02  0.25866661316E+02  0.33041120621E+02  0.47000000000E+01 0.  1.
         -5    1    3    3    0  502  0.38732095401E+02 -0.76252684719E+01 -0.12053340882E+03  0.12692010312E+03  0.47000000000E+01 0.  1.
        -11    1    1    2    0    0  0.26626708658E+02  0.11937229070E+01  0.42781796901E+01  0.26994618164E+02  0.00000000000E+00 0.  1.
         11    1    1    2    0    0 -0.56536515925E+02 -0.11532549633E+02 -0.69263541202E+02  0.90148851761E+02  0.00000000000E+00 0. -1.
<mgrwt>
<rscale>  0 0.12022811E+03</rscale>
<asrwt>0</asrwt>
<pdfrwt beam="2">  1        2 0.33596677E-01 0.12894107E+03</pdfrwt>
<pdfrwt beam="1">  1       -2 0.90348142E-02 0.12894107E+03</pdfrwt>
<totfact> 0.11316072E+04</totfact>
</mgrwt>
</event>
<event>
 7    1  0.6419647E-006  0.1307569E+03  0.7546771E-02  0.1237965E+00
         -4   -1    0    0    0  501 -0.00000000000E+00  0.00000000000E+00  0.25570352343E+03  0.25570352343E+03  0.00000000000E+00 0. -1.
          4   -1    0    0  501    0  0.00000000000E+00 -0.00000000000E+00 -0.78730852041E+02  0.78730852041E+02  0.00000000000E+00 0.  1.
         23    2    1    2    0    0  0.85566045776E+01  0.37351401350E+02  0.12258613113E+01  0.13076262687E+03  0.12501607571E+03 0.  0.
          5    1    3    3  502    0  0.63880456018E+02  0.13098788284E+01 -0.50806218000E+01  0.64267652528E+02  0.47000000000E+01 0. -1.
         -5    1    3    3    0  502 -0.55323851440E+02  0.36041522521E+02  0.63064831112E+01  0.66494974344E+02  0.47000000000E+01 0. -1.
        -11    1    1    2    0    0 -0.12671358311E+02 -0.57033511450E+02  0.17393219736E+03  0.18348240795E+03  0.00000000000E+00 0. -1.
         11    1    1    2    0    0  0.41147537337E+01  0.19682110101E+02  0.18146127152E+01  0.20189340643E+02  0.00000000000E+00 0.  1.
<mgrwt>
<rscale>  0 0.12316499E+03</rscale>
<asrwt>0</asrwt>
<pdfrwt beam="2">  1        4 0.12112439E-01 0.13075688E+03</pdfrwt>
<pdfrwt beam="1">  1       -4 0.39339003E-01 0.13075688E+03</pdfrwt>
<totfact> 0.56563333E+02</totfact>
</mgrwt>
</event>
<event>
 7    1  0.6419647E-006  0.1362240E+03  0.7546771E-02  0.1230158E+00
         -1   -1    0    0    0  501 -0.00000000000E+00  0.00000000000E+00  0.12888817966E+03  0.12888817966E+03  0.00000000000E+00 0.  1.
          1   -1    0    0  501    0  0.00000000000E+00 -0.00000000000E+00 -0.11587753597E+03  0.11587753597E+03  0.00000000000E+00 0. -1.
         23    2    1    2    0    0  0.41259182746E+02 -0.35061959304E+02 -0.54951068295E+01  0.13633479750E+03  0.12500127863E+03 0.  0.
          5    1    3    3  502    0  0.50783976390E+02  0.62878662983E+00  0.48738767755E+02  0.70547608839E+02  0.47000000000E+01 0. -1.
         -5    1    3    3    0  502 -0.95247936443E+01 -0.35690745934E+02 -0.54233874584E+02  0.65787188660E+02  0.47000000000E+01 0. -1.
        -11    1    1    2    0    0 -0.29725139680E+02 -0.29075712242E+02  0.50116903390E+01  0.41881953290E+02  0.00000000000E+00 0.  1.
         11    1    1    2    0    0 -0.11534043066E+02  0.64137671546E+02  0.13494060186E+02  0.66548964839E+02  0.00000000000E+00 0. -1.
<mgrwt>
<rscale>  0 0.12819580E+03</rscale>
<asrwt>0</asrwt>
<pdfrwt beam="2">  1        1 0.17827313E-01 0.13622401E+03</pdfrwt>
<pdfrwt beam="1">  1       -1 0.19828951E-01 0.13622401E+03</pdfrwt>
<totfact> 0.57766410E+03</totfact>
</mgrwt>
</event>
<event>
 7    1  0.6419647E-006  0.1474895E+03  0.7546771E-02  0.1213546E+00
         -3   -1    0    0    0  501 -0.00000000000E+00  0.00000000000E+00  0.39617962259E+02  0.39617962259E+02  0.00000000000E+00 0.  1.
          3   -1    0    0  501    0  0.00000000000E+00 -0.00000000000E+00 -0.44897022400E+03  0.44897022400E+03  0.00000000000E+00 0. -1.
         23    2    1    2    0    0  0.14908828153E+02 -0.76851072743E+02 -0.22113372803E+03  0.26580683260E+03  0.12499914418E+03 0.  0.
          5    1    3    3  502    0 -0.36028068714E+02 -0.58437493436E+02 -0.19235600596E+03  0.20429362546E+03  0.47000000000E+01 0. -1.
         -5    1    3    3    0  502  0.50936896868E+02 -0.18413579307E+02 -0.28777722071E+02  0.61513207143E+02  0.47000000000E+01 0. -1.
        -11    1    1    2    0    0 -0.30237797763E+02  0.26720699670E+02 -0.15625971885E+03  0.16138593477E+03  0.00000000000E+00 0. -1.
         11    1    1    2    0    0  0.15328969610E+02  0.50130373074E+02 -0.31958814858E+02  0.61395418892E+02  0.00000000000E+00 0.  1.
<mgrwt>
<rscale>  0 0.13983862E+03</rscale>
<asrwt>0</asrwt>
<pdfrwt beam="2">  1        3 0.69072341E-01 0.14748948E+03</pdfrwt>
<pdfrwt beam="1">  1       -3 0.60950712E-02 0.14748948E+03</pdfrwt>
<totfact> 0.79599102E+02</totfact>
</mgrwt>
</event>
<event>
 6    1  0.6419647E-006  0.1811433E+03  0.7546771E-02  0.1193258E+00
          2   -1    0    0  501    0  0.00000000000E+00  0.00000000000E+00  0.61242090232E+03  0.61242090232E+03  0.00000000000E+00 0. -1.
         -2   -1    0    0    0  501 -0.00000000000E+00 -0.00000000000E+00 -0.49159174792E+02  0.49159174792E+02  0.00000000000E+00 0.  1.
          5    1    1    2  502    0 -0.52832408316E+02  0.72794862570E+02  0.25318961397E+03  0.26873300134E+03  0.47000000000E+01 0. -1.
         -5    1    1    2    0  502  0.78716392672E+02 -0.45433937749E+02  0.27080315106E+03  0.28568680368E+03  0.47000000000E+01 0.  1.
        -11    1    1    2    0    0  0.15949381560E+02  0.20107041812E+02 -0.94042921776E+01  0.27333433995E+02  0.00000000000E+00 0. -1.
         11    1    1    2    0    0 -0.41833365916E+02 -0.47467966633E+02  0.48673254677E+02  0.79826838099E+02  0.00000000000E+00 0.  1.
<mgrwt>
<rscale>  0 0.15602601E+03</rscale>
<asrwt>0</asrwt>
<pdfrwt beam="1">  1        2 0.94218595E-01 0.18114332E+03</pdfrwt>
<pdfrwt beam="2">  1       -2 0.75629504E-02 0.18114332E+03</pdfrwt>
<totfact> 0.49854288E+03</totfact>
</mgrwt>
</event>
<event>
 7    1  0.6419647E-006  0.1325972E+03  0.7546771E-02  0.1236628E+00
          2   -1    0    0  501    0  0.00000000000E+00  0.00000000000E+00  0.18773492139E+03  0.18773492139E+03  0.00000000000E+00 0.  1.
         -2   -1    0    0    0  501 -0.00000000000E+00 -0.00000000000E+00 -0.77611739582E+02  0.77611739582E+02  0.00000000000E+00 0. -1.
         23    2    1    2    0    0  0.43914995063E+02  0.54605809318E+01  0.94235522102E+02  0.16267252517E+03  0.12499468822E+03 0.  0.
          5    1    3    3  502    0  0.57787761856E+02 -0.23932737622E+02 -0.16346271931E+00  0.62724142644E+02  0.47000000000E+01 0. -1.
         -5    1    3    3    0  502 -0.13872766793E+02  0.29393318553E+02  0.94398984821E+02  0.99948382525E+02  0.47000000000E+01 0. -1.
        -11    1    1    2    0    0 -0.30788824448E+02  0.41736133361E+02  0.13673960503E+02  0.53636123411E+02  0.00000000000E+00 0.  1.
         11    1    1    2    0    0 -0.13126170615E+02 -0.47196714292E+02  0.22136992024E+01  0.49038012390E+02  0.00000000000E+00 0. -1.
<mgrwt>
<rscale>  0 0.12400819E+03</rscale>
<asrwt>0</asrwt>
<pdfrwt beam="1">  1        2 0.28882295E-01 0.13259720E+03</pdfrwt>
<pdfrwt beam="2">  1       -2 0.11940268E-01 0.13259720E+03</pdfrwt>
<totfact> 0.86051507E+03</totfact>
</mgrwt>
</event>
<event>
 7    1  0.6419647E-006  0.1392933E+03  0.7546771E-02  0.1223773E+00
          1   -1    0    0  501    0  0.00000000000E+00  0.00000000000E+00  0.79591808860E+03  0.79591808860E+03  0.00000000000E+00 0. -1.
         -1   -1    0    0    0  501 -0.00000000000E+00 -0.00000000000E+00 -0.25625287235E+02  0.25625287235E+02  0.00000000000E+00 0.  1.
         23    2    1    2    0    0 -0.52089755176E+01  0.61235750426E+02  0.60414418605E+03  0.61999421836E+03  0.12500273078E+03 0.  0.
          5    1    3    3  502    0  0.33622983593E+02  0.83995882480E+02  0.33322763188E+03  0.34532384503E+03  0.47000000000E+01 0.  1.
         -5    1    3    3    0  502 -0.38831959111E+02 -0.22760132054E+02  0.27091655418E+03  0.27467037333E+03  0.47000000000E+01 0.  1.
        -11    1    1    2    0    0  0.45567266827E+01 -0.86232799424E+02  0.14515715774E+03  0.16890073978E+03  0.00000000000E+00 0.  1.
         11    1    1    2    0    0  0.65224883494E+00  0.24997048997E+02  0.20991457572E+02  0.32648417697E+02  0.00000000000E+00 0. -1.
<mgrwt>
<rscale>  0 0.13251357E+03</rscale>
<asrwt>0</asrwt>
<pdfrwt beam="1">  1        1 0.12244892E+00 0.13929334E+03</pdfrwt>
<pdfrwt beam="2">  1       -1 0.39423525E-02 0.13929334E+03</pdfrwt>
<totfact> 0.56666501E+03</totfact>
</mgrwt>
</event>
<event>
 7    1  0.6419647E-006  0.1300331E+03  0.7546771E-02  0.1240993E+00
          2   -1    0    0  501    0  0.00000000000E+00  0.00000000000E+00  0.35877768549E+02  0.35877768549E+02  0.00000000000E+00 0. -1.
         -2   -1    0    0    0  501 -0.00000000000E+00 -0.00000000000E+00 -0.41088700980E+03  0.41088700980E+03  0.00000000000E+00 0.  1.
         23    2    1    2    0    0 -0.24649180085E+02  0.26022351692E+02 -0.13538055066E+03  0.18771388435E+03  0.12499545598E+03 0.  0.
          5    1    3    3  502    0  0.27023349118E+02 -0.30329171453E+02 -0.12227220517E+02  0.42681552926E+02  0.47000000000E+01 0. -1.
         -5    1    3    3    0  502 -0.51672529202E+02  0.56351523145E+02 -0.12315333014E+03  0.14503233143E+03  0.47000000000E+01 0. -1.
        -11    1    1    2    0    0  0.30330416707E+01  0.32324609925E+02 -0.11860929678E+03  0.12297253771E+03  0.00000000000E+00 0. -1.
         11    1    1    2    0    0  0.21616138414E+02 -0.58346961617E+02 -0.12101939381E+03  0.13607835628E+03  0.00000000000E+00 0.  1.
<mgrwt>
<rscale>  0 0.12128455E+03</rscale>
<asrwt>0</asrwt>
<pdfrwt beam="1">  1        2 0.55196565E-02 0.13003311E+03</pdfrwt>
<pdfrwt beam="2">  1       -2 0.63213388E-01 0.13003311E+03</pdfrwt>
<totfact> 0.31145595E+03</totfact>
</mgrwt>
</event>
<event>
 7    1  0.6419647E-006  0.3076657E+03  0.7546771E-02  0.1083042E+00
          2   -1    0    0  501    0  0.00000000000E+00  0.00000000000E+00  0.99096009812E+03  0.99096009812E+03  0.00000000000E+00 0.  1.
         -2   -1    0    0    0  501 -0.00000000000E+00 -0.00000000000E+00 -0.10460614236E+03  0.10460614236E+03  0.00000000000E+00 0. -1.
         23    2    1    2    0    0  0.27579201026E+03  0.54478734916E+02  0.64432757738E+03  0.71401414270E+03  0.12501601307E+03 0.  0.
          5    1    3    3  502    0  0.66408895892E+02  0.92868297874E+01  0.30791573625E+03  0.31516753845E+03  0.47000000000E+01 0. -1.
         -5    1    3    3    0  502  0.20938311437E+03  0.45191905129E+02  0.33641184113E+03  0.39884660425E+03  0.47000000000E+01 0. -1.
        -11    1    1    2    0    0 -0.18144828677E+03 -0.76682449564E+02  0.17710998290E+03  0.26489927310E+03  0.00000000000E+00 0.  1.
         11    1    1    2    0    0 -0.94343723485E+02  0.22203714648E+02  0.64916395463E+02  0.11665282468E+03  0.00000000000E+00 0. -1.
<mgrwt>
<rscale>  0 0.30444052E+03</rscale>
<asrwt>0</asrwt>
<pdfrwt beam="1">  1        2 0.15245539E+00 0.30766568E+03</pdfrwt>
<pdfrwt beam="2">  1       -2 0.16093253E-01 0.30766568E+03</pdfrwt>
<totfact> 0.81012775E+02</totfact>
</mgrwt>
</event>
<event>
 7    1  0.6419647E-006  0.2539956E+03  0.7546771E-02  0.1113097E+00
         -2   -1    0    0    0  501 -0.00000000000E+00  0.00000000000E+00  0.14836284155E+03  0.14836284155E+03  0.00000000000E+00 0. -1.
          2   -1    0    0  501    0  0.00000000000E+00 -0.00000000000E+00 -0.41428793348E+03  0.41428793348E+03  0.00000000000E+00 0.  1.
         23    2    1    2    0    0  0.10768848014E+03 -0.19493658583E+03 -0.16327878273E+03  0.30194988144E+03  0.12213389686E+03 0.  0.
          5    1    3    3  502    0  0.49614236425E+02 -0.56255577955E+02 -0.12642650482E+03  0.14707825681E+03  0.47000000000E+01 0. -1.
         -5    1    3    3    0  502  0.58074243714E+02 -0.13868100787E+03 -0.36852277918E+02  0.15487162463E+03  0.47000000000E+01 0. -1.
        -11    1    1    2    0    0 -0.59444052107E+02  0.69698612886E+02 -0.85669560464E+02  0.12542234872E+03  0.00000000000E+00 0.  1.
         11    1    1    2    0    0 -0.48244428032E+02  0.12523797294E+03 -0.16976748727E+02  0.13527854486E+03  0.00000000000E+00 0. -1.
<mgrwt>
<rscale>  0 0.25032877E+03</rscale>
<asrwt>0</asrwt>
<pdfrwt beam="2">  1        2 0.63736605E-01 0.25399561E+03</pdfrwt>
<pdfrwt beam="1">  1       -2 0.22825053E-01 0.25399561E+03</pdfrwt>
<totfact> 0.12817090E+03</totfact>
</mgrwt>
</event>
<event>
 7    1  0.6419647E-006  0.1347618E+03  0.7546771E-02  0.1233250E+00
          2   -1    0    0  501    0  0.00000000000E+00  0.00000000000E+00  0.36711276759E+03  0.36711276759E+03  0.00000000000E+00 0. -1.
         -2   -1    0    0    0  501 -0.00000000000E+00 -0.00000000000E+00 -0.46280952385E+02  0.46280952385E+02  0.00000000000E+00 0.  1.
         23    2    1    2    0    0  0.42798182582E+02 -0.26507857383E+02  0.26116531974E+03  0.29388443984E+03  0.12500555512E+03 0.  0.
          5    1    3    3  502    0  0.77606999369E+02 -0.37915356427E+02  0.22941722536E+03  0.24518314358E+03  0.47000000000E+01 0. -1.
         -5    1    3    3    0  502 -0.34808816787E+02  0.11407499043E+02  0.31748094373E+02  0.48701296254E+02  0.47000000000E+01 0. -1.
        -11    1    1    2    0    0 -0.40584004843E+02  0.50015490724E+01 -0.13620485454E+02  0.43099820953E+02  0.00000000000E+00 0.  1.
         11    1    1    2    0    0 -0.22141777398E+01  0.21506308311E+02  0.73286980921E+02  0.76409459184E+02  0.00000000000E+00 0. -1.
<mgrwt>
<rscale>  0 0.12617156E+03</rscale>
<asrwt>0</asrwt>
<pdfrwt beam="1">  1        2 0.56478885E-01 0.13476179E+03</pdfrwt>
<pdfrwt beam="2">  1       -2 0.71201468E-02 0.13476179E+03</pdfrwt>
<totfact> 0.94444934E+03</totfact>
</mgrwt>
</event>
<event>
 7    1  0.6419647E-006  0.1259493E+03  0.7546771E-02  0.1243272E+00
          1   -1    0    0  501    0  0.00000000000E+00  0.00000000000E+00  0.68901247775E+03  0.68901247775E+03  0.00000000000E+00 0. -1.
         -1   -1    0    0    0  501 -0.00000000000E+00 -0.00000000000E+00 -0.19388176387E+02  0.19388176387E+02  0.00000000000E+00 0.  1.
         23    2    1    2    0    0 -0.22243322155E+02  0.49897994796E+02  0.41099906891E+03  0.42986446901E+03  0.11348414783E+03 0.  0.
          5    1    3    3  502    0  0.21153695696E+02  0.73207801946E+01  0.31697204380E+03  0.31779622279E+03  0.47000000000E+01 0. -1.
         -5    1    3    3    0  502 -0.43397017851E+02  0.42577214601E+02  0.94027025108E+02  0.11206824623E+03  0.47000000000E+01 0.  1.
        -11    1    1    2    0    0 -0.32469264267E+02 -0.55635974067E+01  0.86742139480E+02  0.92786882154E+02  0.00000000000E+00 0.  1.
         11    1    1    2    0    0  0.54712586422E+02 -0.44334397389E+02  0.17188309297E+03  0.18574930297E+03  0.00000000000E+00 0. -1.
<mgrwt>
<rscale>  0 0.11989372E+03</rscale>
<asrwt>0</asrwt>
<pdfrwt beam="1">  1        1 0.10600190E+00 0.12594930E+03</pdfrwt>
<pdfrwt beam="2">  1       -1 0.29827969E-02 0.12594930E+03</pdfrwt>
<totfact> 0.10450203E+04</totfact>
</mgrwt>
</event>
<event>
 7    1  0.6419647E-006  0.2931042E+03  0.7546771E-02  0.1090404E+00
          2   -1    0    0  501    0  0.00000000000E+00  0.00000000000E+00  0.44991177090E+03  0.44991177090E+03  0.00000000000E+00 0. -1.
         -2   -1    0    0    0  501 -0.00000000000E+00 -0.00000000000E+00 -0.22551226798E+03  0.22551226798E+03  0.00000000000E+00 0.  1.
         23    2    1    2    0    0  0.24131421213E+02  0.26401149035E+03  0.26113104637E+03  0.39255511659E+03  0.12500281460E+03 0.  0.
          5    1    3    3  502    0  0.53699495011E+02  0.25452792811E+03  0.24444409233E+03  0.35699174532E+03  0.47000000000E+01 0. -1.
         -5    1    3    3    0  502 -0.29568073799E+02  0.94835622367E+01  0.16686954044E+02  0.35563371271E+02  0.47000000000E+01 0. -1.
        -11    1    1    2    0    0  0.27516227228E+02 -0.17315028029E+03 -0.32207182815E+02  0.17825673886E+03  0.00000000000E+00 0. -1.
         11    1    1    2    0    0 -0.51647648440E+02 -0.90861210061E+02 -0.45243606352E+01  0.10461218343E+03  0.00000000000E+00 0.  1.
<mgrwt>
<rscale>  0 0.28989432E+03</rscale>
<asrwt>0</asrwt>
<pdfrwt beam="1">  1        2 0.69217195E-01 0.29310424E+03</pdfrwt>
<pdfrwt beam="2">  1       -2 0.34694195E-01 0.29310424E+03</pdfrwt>
<totfact> 0.54965213E+02</totfact>
</mgrwt>
</event>
<event>
 7    1  0.6419647E-006  0.1691368E+03  0.7546771E-02  0.1185360E+00
          2   -1    0    0  501    0  0.00000000000E+00  0.00000000000E+00  0.77704952781E+03  0.77704952781E+03  0.00000000000E+00 0. -1.
         -2   -1    0    0    0  501 -0.00000000000E+00 -0.00000000000E+00 -0.32574640558E+02  0.32574640558E+02  0.00000000000E+00 0.  1.
         23    2    1    2    0    0  0.59678126332E+02 -0.97062769881E+02  0.34212616589E+03  0.38165109917E+03  0.12499835219E+03 0.  0.
          5    1    3    3  502    0 -0.20516097283E+02  0.13489531170E+02  0.10528554296E+03  0.10821281465E+03  0.47000000000E+01 0.  1.
         -5    1    3    3    0  502  0.80194223615E+02 -0.11055230105E+03  0.23684062293E+03  0.27343828452E+03  0.47000000000E+01 0.  1.
        -11    1    1    2    0    0 -0.26968545260E+02  0.33756837964E+02  0.40653850720E+02  0.59325897559E+02  0.00000000000E+00 0.  1.
         11    1    1    2    0    0 -0.32709581072E+02  0.63305931917E+02  0.36169487064E+03  0.36864717164E+03  0.00000000000E+00 0. -1.
<mgrwt>
<rscale>  0 0.16299187E+03</rscale>
<asrwt>0</asrwt>
<pdfrwt beam="1">  1        2 0.11954607E+00 0.16913677E+03</pdfrwt>
<pdfrwt beam="2">  1       -2 0.50114838E-02 0.16913677E+03</pdfrwt>
<totfact> 0.70130581E+03</totfact>
</mgrwt>
</event>
<event>
 7    1  0.6419647E-006  0.1381887E+03  0.7546771E-02  0.1227164E+00
         -2   -1    0    0    0  501 -0.00000000000E+00  0.00000000000E+00  0.13462587324E+03  0.13462587324E+03  0.00000000000E+00 0.  1.
          2   -1    0    0  501    0  0.00000000000E+00 -0.00000000000E+00 -0.12199771165E+03  0.12199771165E+03  0.00000000000E+00 0. -1.
         23    2    1    2    0    0 -0.36926174051E+01  0.58797350067E+02 -0.26900281844E+02  0.14078265319E+03  0.12500146590E+03 0.  0.
          5    1    3    3  502    0 -0.61955989045E+02  0.42830360563E+02 -0.27111931351E+02  0.80188098780E+02  0.47000000000E+01 0.  1.
         -5    1    3    3    0  502  0.58263371640E+02  0.15966989504E+02  0.21164950685E+00  0.60594554410E+02  0.47000000000E+01 0.  1.
        -11    1    1    2    0    0  0.48030519227E+01 -0.73285658140E+02 -0.30116959993E+00  0.73443500052E+02  0.00000000000E+00 0. -1.
         11    1    1    2    0    0 -0.11104345176E+01  0.14488308073E+02  0.39829613035E+02  0.42397431646E+02  0.00000000000E+00 0.  1.
<mgrwt>
<rscale>  0 0.13019660E+03</rscale>
<asrwt>0</asrwt>
<pdfrwt beam="2">  1        2 0.18768879E-01 0.13818875E+03</pdfrwt>
<pdfrwt beam="1">  1       -2 0.20711673E-01 0.13818875E+03</pdfrwt>
<totfact> 0.56341245E+03</totfact>
</mgrwt>
</event>
<event>
 7    1  0.6419647E-006  0.1715765E+03  0.7546771E-02  0.1182630E+00
          1   -1    0    0  501    0  0.00000000000E+00  0.00000000000E+00  0.14143054425E+04  0.14143054425E+04  0.00000000000E+00 0. -1.
         -1   -1    0    0    0  501 -0.00000000000E+00 -0.00000000000E+00 -0.21470924557E+02  0.21470924557E+02  0.00000000000E+00 0.  1.
         23    2    1    2    0    0 -0.11751618164E+03 -0.92950625325E+00  0.10221236723E+04  0.10364242792E+04  0.12501027147E+03 0.  0.
          5    1    3    3  502    0 -0.20384413577E+01  0.15287369094E+02  0.13379169847E+02  0.20951159461E+02  0.47000000000E+01 0. -1.
         -5    1    3    3    0  502 -0.11547774028E+03 -0.16216875347E+02  0.10087445025E+04  0.10154731197E+04  0.47000000000E+01 0. -1.
        -11    1    1    2    0    0  0.63573789556E+02  0.34611483587E+02  0.27553996224E+03  0.28488919303E+03  0.00000000000E+00 0. -1.
         11    1    1    2    0    0  0.53942392080E+02 -0.33681977333E+02  0.95170883419E+02  0.11446289491E+03  0.00000000000E+00 0.  1.
<mgrwt>
<rscale>  0 0.16549431E+03</rscale>
<asrwt>0</asrwt>
<pdfrwt beam="1">  1        1 0.21758538E+00 0.17157647E+03</pdfrwt>
<pdfrwt beam="2">  1       -1 0.33032203E-02 0.17157647E+03</pdfrwt>
<totfact> 0.26595094E+03</totfact>
</mgrwt>
</event>
<event>
 7    1  0.6419647E-006  0.1726638E+03  0.7546771E-02  0.1180584E+00
          2   -1    0    0  501    0  0.00000000000E+00  0.00000000000E+00  0.15491118885E+04  0.15491118885E+04  0.00000000000E+00 0. -1.
         -2   -1    0    0    0  501 -0.00000000000E+00 -0.00000000000E+00 -0.17069956468E+02  0.17069956468E+02  0.00000000000E+00 0.  1.
         23    2    1    2    0    0  0.11271445720E+03  0.38568037971E+02  0.81590877150E+03  0.83397835950E+03  0.12498295201E+03 0.  0.
          5    1    3    3  502    0 -0.13894115886E+02 -0.87540124313E-01  0.33036168954E+03  0.33068714828E+03  0.47000000000E+01 0.  1.
         -5    1    3    3    0  502  0.12660857309E+03  0.38655578095E+02  0.48554708196E+03  0.50329121123E+03  0.47000000000E+01 0.  1.
        -11    1    1    2    0    0 -0.50542271292E+01  0.10683980877E+02  0.80715650250E+01  0.14312331089E+02  0.00000000000E+00 0.  1.
         11    1    1    2    0    0 -0.10766023007E+03 -0.49252018848E+02  0.70806159549E+03  0.71789115436E+03  0.00000000000E+00 0. -1.
<mgrwt>
<rscale>  0 0.16740279E+03</rscale>
<asrwt>0</asrwt>
<pdfrwt beam="1">  1        2 0.23832480E+00 0.17266378E+03</pdfrwt>
<pdfrwt beam="2">  1       -2 0.26261484E-02 0.17266378E+03</pdfrwt>
<totfact> 0.65622476E+03</totfact>
</mgrwt>
</event>
<event>
 7    1  0.7173691E-006  0.1420486E+03  0.7546771E-02  0.1221433E+00
         -3   -1    0    0    0  501 -0.00000000000E+00  0.00000000000E+00  0.87274115593E+02  0.87274115593E+02  0.00000000000E+00 0. -1.
          3   -1    0    0  501    0  0.00000000000E+00 -0.00000000000E+00 -0.20986887874E+03  0.20986887874E+03  0.00000000000E+00 0.  1.
         23    2    1    2    0    0  0.43863080425E+02  0.51273471622E+02 -0.11700207804E+03  0.18403066071E+03  0.12499943639E+03 0.  0.
          5    1    3    3  502    0 -0.28797185813E+02  0.28913020448E+02 -0.96911160157E+02  0.10525732101E+03  0.47000000000E+01 0. -1.
         -5    1    3    3    0  502  0.72660266238E+02  0.22360451174E+02 -0.20090917878E+02  0.78773339702E+02  0.47000000000E+01 0. -1.
        -11    1    1    2    0    0  0.17992135998E+02  0.62621884927E+01 -0.19768273764E+02  0.27453899725E+02  0.00000000000E+00 0.  1.
         11    1    1    2    0    0 -0.61855216424E+02 -0.57535660115E+02  0.14175588657E+02  0.85658433896E+02  0.00000000000E+00 0. -1.
<mgrwt>
<rscale>  0 0.13414432E+03</rscale>
<asrwt>0</asrwt>
<pdfrwt beam="2">  1        3 0.32287519E-01 0.14204858E+03</pdfrwt>
<pdfrwt beam="1">  1       -3 0.13426787E-01 0.14204858E+03</pdfrwt>
<totfact> 0.97560679E+02</totfact>
</mgrwt>
</event>
<event>
 7    1  0.6419647E-006  0.1314664E+03  0.7546771E-02  0.1243202E+00
          4   -1    0    0  501    0  0.00000000000E+00  0.00000000000E+00  0.90556442549E+02  0.90556442549E+02  0.00000000000E+00 0. -1.
         -4   -1    0    0    0  501 -0.00000000000E+00 -0.00000000000E+00 -0.13932756021E+03  0.13932756021E+03  0.00000000000E+00 0.  1.
         23    2    1    2    0    0 -0.16862630409E+02  0.37061927720E+02 -0.13240385100E+02  0.13213150042E+03  0.12500196324E+03 0.  0.
          5    1    3    3  502    0  0.39591913631E+02  0.45242779584E+02 -0.36341977089E+02  0.70407798064E+02  0.47000000000E+01 0. -1.
         -5    1    3    3    0  502 -0.56454544040E+02 -0.81808518640E+01  0.23101591988E+02  0.61723702355E+02  0.47000000000E+01 0. -1.
        -11    1    1    2    0    0  0.45584967281E+01 -0.61530293123E+02 -0.33702486726E+02  0.70303730169E+02  0.00000000000E+00 0.  1.
         11    1    1    2    0    0  0.12304133681E+02  0.24468365403E+02 -0.18282458380E+01  0.27448772176E+02  0.00000000000E+00 0. -1.
<mgrwt>
<rscale>  0 0.11993638E+03</rscale>
<asrwt>0</asrwt>
<pdfrwt beam="1">  1        4 0.13931760E-01 0.13146644E+03</pdfrwt>
<pdfrwt beam="2">  1       -4 0.21435009E-01 0.13146644E+03</pdfrwt>
<totfact> 0.13957124E+03</totfact>
</mgrwt>
</event>
<event>
 7    1  0.6419647E-006  0.1620904E+03  0.7546771E-02  0.1193808E+00
          2   -1    0    0  501    0  0.00000000000E+00  0.00000000000E+00  0.58336747214E+03  0.58336747214E+03  0.00000000000E+00 0. -1.
         -2   -1    0    0    0  501 -0.00000000000E+00 -0.00000000000E+00 -0.40921936633E+02  0.40921936633E+02  0.00000000000E+00 0.  1.
         23    2    1    2    0    0  0.23625606235E+02 -0.10045156606E+03  0.36845244391E+03  0.40253013224E+03  0.12499847017E+03 0.  0.
          5    1    3    3  502    0  0.65446422804E+02 -0.28951730480E+02  0.11202844708E+03  0.13301841944E+03  0.47000000000E+01 0. -1.
         -5    1    3    3    0  502 -0.41820816569E+02 -0.71499835583E+02  0.25642399683E+03  0.26951171280E+03  0.47000000000E+01 0. -1.
        -11    1    1    2    0    0 -0.41003104490E+02  0.11504295695E+02  0.83248103053E+02  0.93508556075E+02  0.00000000000E+00 0. -1.
         11    1    1    2    0    0  0.17377498255E+02  0.88947270368E+02  0.90744988544E+02  0.12825072046E+03  0.00000000000E+00 0.  1.
<mgrwt>
<rscale>  0 0.15555573E+03</rscale>
<asrwt>0</asrwt>
<pdfrwt beam="1">  1        2 0.89748836E-01 0.16209042E+03</pdfrwt>
<pdfrwt beam="2">  1       -2 0.62956830E-02 0.16209042E+03</pdfrwt>
<totfact> 0.69523411E+03</totfact>
</mgrwt>
</event>
<event>
 7    1  0.6419647E-006  0.1350820E+03  0.7546771E-02  0.1231355E+00
         -1   -1    0    0    0  501 -0.00000000000E+00  0.00000000000E+00  0.17637687949E+02  0.17637687949E+02  0.00000000000E+00 0.  1.
          1   -1    0    0  501    0  0.00000000000E+00 -0.00000000000E+00 -0.11075962503E+04  0.11075962503E+04  0.00000000000E+00 0. -1.
         23    2    1    2    0    0  0.51183585486E+02 -0.18499500154E+01 -0.87277420443E+03  0.88316586551E+03  0.12499580936E+03 0.  0.
          5    1    3    3  502    0 -0.28932652990E+02 -0.24422048138E+02 -0.48669890898E+03  0.48819202456E+03  0.47000000000E+01 0.  1.
         -5    1    3    3    0  502  0.80116238476E+02  0.22572098123E+02 -0.38607529545E+03  0.39497384095E+03  0.47000000000E+01 0.  1.
        -11    1    1    2    0    0 -0.67798766960E+02 -0.14819140219E+02 -0.95065145651E+02  0.11770157873E+03  0.00000000000E+00 0.  1.
         11    1    1    2    0    0  0.16615181473E+02  0.16669090234E+02 -0.12211921228E+03  0.12436649401E+03  0.00000000000E+00 0. -1.
<mgrwt>
<rscale>  0 0.12740716E+03</rscale>
<asrwt>0</asrwt>
<pdfrwt beam="2">  1        1 0.17039945E+00 0.13508195E+03</pdfrwt>
<pdfrwt beam="1">  1       -1 0.27134900E-02 0.13508195E+03</pdfrwt>
<totfact> 0.56880019E+03</totfact>
</mgrwt>
</event>
<event>
 7    1  0.6419647E-006  0.1327584E+03  0.7546771E-02  0.1235650E+00
         -1   -1    0    0    0  501 -0.00000000000E+00  0.00000000000E+00  0.25574436212E+02  0.25574436212E+02  0.00000000000E+00 0.  1.
          1   -1    0    0  501    0  0.00000000000E+00 -0.00000000000E+00 -0.86715098381E+03  0.86715098381E+03  0.00000000000E+00 0. -1.
         23    2    1    2    0    0  0.12375256891E+02  0.47018438559E+02 -0.72516415990E+03  0.73721627814E+03  0.12353502099E+03 0.  0.
          5    1    3    3  502    0  0.43707679490E+02  0.59975216893E+01 -0.60143513045E+03  0.60306934730E+03  0.47000000000E+01 0. -1.
         -5    1    3    3    0  502 -0.31332422599E+02  0.41020916870E+02 -0.12372902945E+03  0.13414693085E+03  0.47000000000E+01 0.  1.
        -11    1    1    2    0    0  0.37568809810E+02 -0.51279927945E+01 -0.42093882928E+02  0.56653391430E+02  0.00000000000E+00 0. -1.
         11    1    1    2    0    0 -0.49944066701E+02 -0.41890445765E+02 -0.74318504774E+02  0.98855750449E+02  0.00000000000E+00 0.  1.
<mgrwt>
<rscale>  0 0.12462910E+03</rscale>
<asrwt>0</asrwt>
<pdfrwt beam="2">  1        1 0.13340783E+00 0.13275836E+03</pdfrwt>
<pdfrwt beam="1">  1       -1 0.39345289E-02 0.13275836E+03</pdfrwt>
<totfact> 0.49728572E+03</totfact>
</mgrwt>
</event>
<event>
 7    1  0.6419647E-006  0.1456536E+03  0.7546771E-02  0.1224759E+00
         -1   -1    0    0    0  501 -0.00000000000E+00  0.00000000000E+00  0.18619618560E+03  0.18619618560E+03  0.00000000000E+00 0.  1.
          1   -1    0    0  501    0  0.00000000000E+00 -0.00000000000E+00 -0.91458850443E+02  0.91458850443E+02  0.00000000000E+00 0. -1.
         23    2    1    2    0    0  0.13189539302E+02 -0.73594641792E+02  0.62357637232E+01  0.14578704437E+03  0.12499936923E+03 0.  0.
          5    1    3    3  502    0 -0.37408925582E+02 -0.45580222451E+02 -0.40155797788E+02  0.71495192061E+02  0.47000000000E+01 0. -1.
         -5    1    3    3    0  502  0.50598464885E+02 -0.28014419341E+02  0.46391561511E+02  0.74291852307E+02  0.47000000000E+01 0. -1.
        -11    1    1    2    0    0 -0.17452533797E+02  0.27226672403E+02  0.54288304451E+00  0.32344664909E+02  0.00000000000E+00 0. -1.
         11    1    1    2    0    0  0.42629944943E+01  0.46367969388E+02  0.87958688392E+02  0.99523326768E+02  0.00000000000E+00 0.  1.
<mgrwt>
<rscale>  0 0.13183451E+03</rscale>
<asrwt>0</asrwt>
<pdfrwt beam="2">  1        1 0.14070592E-01 0.14565362E+03</pdfrwt>
<pdfrwt beam="1">  1       -1 0.28645567E-01 0.14565362E+03</pdfrwt>
<totfact> 0.43125433E+03</totfact>
</mgrwt>
</event>
<event>
 7    1  0.6419647E-006  0.1451595E+03  0.7546771E-02  0.1216713E+00
         -2   -1    0    0    0  501 -0.00000000000E+00  0.00000000000E+00  0.10765084103E+03  0.10765084103E+03  0.00000000000E+00 0.  1.
          2   -1    0    0  501    0  0.00000000000E+00 -0.00000000000E+00 -0.18397606097E+03  0.18397606097E+03  0.00000000000E+00 0. -1.
         23    2    1    2    0    0  0.58454370942E+02  0.45068890730E+02 -0.94643484417E+02  0.17328780917E+03  0.12499262887E+03 0.  0.
          5    1    3    3  502    0  0.58360624948E+02 -0.30622599735E+02 -0.62395028517E+02  0.90878686954E+02  0.47000000000E+01 0. -1.
         -5    1    3    3    0  502  0.93745994270E-01  0.75691490465E+02 -0.32248455900E+02  0.82409122220E+02  0.47000000000E+01 0. -1.
        -11    1    1    2    0    0 -0.43335291961E+02  0.21361677655E+02  0.12831568985E+02  0.49989178471E+02  0.00000000000E+00 0.  1.
         11    1    1    2    0    0 -0.15119078981E+02 -0.66430568385E+02  0.54866954961E+01  0.68349914357E+02  0.00000000000E+00 0. -1.
<mgrwt>
<rscale>  0 0.13751482E+03</rscale>
<asrwt>0</asrwt>
<pdfrwt beam="2">  1        2 0.28304009E-01 0.14515948E+03</pdfrwt>
<pdfrwt beam="1">  1       -2 0.16561668E-01 0.14515948E+03</pdfrwt>
<totfact> 0.52024831E+03</totfact>
</mgrwt>
</event>
<event>
 7    1  0.6419647E-006  0.1735915E+03  0.7546771E-02  0.1185413E+00
          2   -1    0    0  501    0  0.00000000000E+00  0.00000000000E+00  0.20486215208E+03  0.20486215208E+03  0.00000000000E+00 0. -1.
         -2   -1    0    0    0  501 -0.00000000000E+00 -0.00000000000E+00 -0.14470806895E+03  0.14470806895E+03  0.00000000000E+00 0.  1.
         23    2    1    2    0    0 -0.88205372398E+02 -0.82025385584E+02  0.11042508918E+03  0.20573697503E+03  0.12500260386E+03 0.  0.
          5    1    3    3  502    0 -0.21791140837E+02 -0.96124350180E+02  0.36383908017E+02  0.10516949786E+03  0.47000000000E+01 0. -1.
         -5    1    3    3    0  502 -0.66414231560E+02  0.14098964597E+02  0.74041181162E+02  0.10056747717E+03  0.47000000000E+01 0. -1.
        -11    1    1    2    0    0  0.59690581751E+02  0.67316409501E+02 -0.73828078722E+01  0.90271647764E+02  0.00000000000E+00 0. -1.
         11    1    1    2    0    0  0.28514790647E+02  0.14708976083E+02 -0.42888198178E+02  0.53561598240E+02  0.00000000000E+00 0.  1.
<mgrwt>
<rscale>  0 0.16294396E+03</rscale>
<asrwt>0</asrwt>
<pdfrwt beam="1">  1        2 0.31517254E-01 0.17359148E+03</pdfrwt>
<pdfrwt beam="2">  1       -2 0.22262780E-01 0.17359148E+03</pdfrwt>
<totfact> 0.28336019E+03</totfact>
</mgrwt>
</event>
<event>
 7    1  0.6419647E-006  0.1259144E+03  0.7546771E-02  0.1249038E+00
          2   -1    0    0  501    0  0.00000000000E+00  0.00000000000E+00  0.66436090256E+03  0.66436090256E+03  0.00000000000E+00 0. -1.
         -2   -1    0    0    0  501 -0.00000000000E+00 -0.00000000000E+00 -0.26534135798E+02  0.26534135798E+02  0.00000000000E+00 0.  1.
         23    2    1    2    0    0 -0.12227479206E+02 -0.90281654579E+01  0.54767071893E+03  0.56195876320E+03  0.12499366444E+03 0.  0.
          5    1    3    3  502    0 -0.63442406459E+02  0.19886275685E+02  0.30850581325E+03  0.31562371538E+03  0.47000000000E+01 0.  1.
         -5    1    3    3    0  502  0.51214927253E+02 -0.28914441143E+02  0.23916490567E+03  0.24633504782E+03  0.47000000000E+01 0.  1.
        -11    1    1    2    0    0 -0.17152692941E+02 -0.22048051266E+02 -0.13111015705E+01  0.27965164528E+02  0.00000000000E+00 0.  1.
         11    1    1    2    0    0  0.29380172147E+02  0.31076216724E+02  0.91467149400E+02  0.10097111062E+03  0.00000000000E+00 0. -1.
<mgrwt>
<rscale>  0 0.11646924E+03</rscale>
<asrwt>0</asrwt>
<pdfrwt beam="1">  1        2 0.10220936E+00 0.12591440E+03</pdfrwt>
<pdfrwt beam="2">  1       -2 0.40821752E-02 0.12591440E+03</pdfrwt>
<totfact> 0.11312461E+04</totfact>
</mgrwt>
</event>
<event>
 7    1  0.6419647E-006  0.1272198E+03  0.7546771E-02  0.1245827E+00
          3   -1    0    0  501    0  0.00000000000E+00  0.00000000000E+00  0.11877074184E+03  0.11877074184E+03  0.00000000000E+00 0. -1.
         -3   -1    0    0    0  501 -0.00000000000E+00 -0.00000000000E+00 -0.10507598382E+03  0.10507598382E+03  0.00000000000E+00 0.  1.
         23    2    1    2    0    0  0.22922136870E+02 -0.60753548281E+01  0.17720701464E+02  0.12844800365E+03  0.12499012795E+03 0.  0.
          5    1    3    3  502    0 -0.12829857590E+01  0.39632695111E+02 -0.35974427168E+02  0.53746125296E+02  0.47000000000E+01 0. -1.
         -5    1    3    3    0  502  0.24205122629E+02 -0.45708049939E+02  0.53695128632E+02  0.74701878353E+02  0.47000000000E+01 0. -1.
        -11    1    1    2    0    0 -0.24756129136E+02 -0.22339155095E+02 -0.38338332513E+02  0.50810742172E+02  0.00000000000E+00 0.  1.
         11    1    1    2    0    0  0.18339922666E+01  0.28414509923E+02  0.34312389073E+02  0.44587979835E+02  0.00000000000E+00 0. -1.
<mgrwt>
<rscale>  0 0.11835995E+03</rscale>
<asrwt>0</asrwt>
<pdfrwt beam="1">  1        3 0.18272422E-01 0.12721976E+03</pdfrwt>
<pdfrwt beam="2">  1       -3 0.16165536E-01 0.12721976E+03</pdfrwt>
<totfact> 0.19460450E+03</totfact>
</mgrwt>
</event>
<event>
 6    1  0.6419647E-006  0.1772882E+03  0.7546771E-02  0.1179643E+00
          2   -1    0    0  501    0  0.00000000000E+00  0.00000000000E+00  0.31645476966E+03  0.31645476966E+03  0.00000000000E+00 0. -1.
         -2   -1    0    0    0  501 -0.00000000000E+00 -0.00000000000E+00 -0.82926942517E+02  0.82926942517E+02  0.00000000000E+00 0.  1.
          5    1    1    2  502    0  0.33999453186E+02 -0.16002005400E+02  0.98754329730E+02  0.10576641544E+03  0.47000000000E+01 0. -1.
         -5    1    1    2    0  502  0.15706060711E+02  0.11562970998E+03  0.55801374768E+02  0.12943258322E+03  0.47000000000E+01 0.  1.
        -11    1    1    2    0    0 -0.81165401892E+01 -0.86293660122E+02  0.83401819735E+02  0.12028440272E+03  0.00000000000E+00 0. -1.
         11    1    1    2    0    0 -0.41588973708E+02 -0.13334044455E+02 -0.44296970873E+01  0.43898310809E+02  0.00000000000E+00 0.  1.
<mgrwt>
<rscale>  0 0.16828946E+03</rscale>
<asrwt>0</asrwt>
<pdfrwt beam="1">  1        2 0.48685349E-01 0.17728819E+03</pdfrwt>
<pdfrwt beam="2">  1       -2 0.12757991E-01 0.17728819E+03</pdfrwt>
<totfact> 0.44985052E+03</totfact>
</mgrwt>
</event>
<event>
 7    1  0.6419647E-006  0.1487890E+03  0.7546771E-02  0.1207712E+00
          2   -1    0    0  501    0  0.00000000000E+00  0.00000000000E+00  0.16947287283E+03  0.16947287283E+03  0.00000000000E+00 0. -1.
         -2   -1    0    0    0  501 -0.00000000000E+00 -0.00000000000E+00 -0.12203573397E+03  0.12203573397E+03  0.00000000000E+00 0.  1.
         23    2    1    2    0    0  0.19085130022E+02 -0.36015850612E+02  0.55029361857E+02  0.14252607072E+03  0.12499626589E+03 0.  0.
          5    1    3    3  502    0  0.41132119965E+02  0.30724263518E+02 -0.24408334966E+01  0.51612782619E+02  0.47000000000E+01 0.  1.
         -5    1    3    3    0  502 -0.22046989943E+02 -0.66740114130E+02  0.57470195353E+02  0.90913288102E+02  0.47000000000E+01 0.  1.
        -11    1    1    2    0    0 -0.18362835303E+02 -0.46946399750E+02  0.29165482276E+02  0.58239020649E+02  0.00000000000E+00 0.  1.
         11    1    1    2    0    0 -0.72229471884E+00  0.82962250362E+02 -0.36757705278E+02  0.90743515427E+02  0.00000000000E+00 0. -1.
<mgrwt>
<rscale>  0 0.14425740E+03</rscale>
<asrwt>0</asrwt>
<pdfrwt beam="1">  1        2 0.26072750E-01 0.14878896E+03</pdfrwt>
<pdfrwt beam="2">  1       -2 0.18774728E-01 0.14878896E+03</pdfrwt>
<totfact> 0.46248395E+03</totfact>
</mgrwt>
</event>
<event>
 6    1  0.6419647E-006  0.1401619E+03  0.7546771E-02  0.1220596E+00
          2   -1    0    0  501    0  0.00000000000E+00  0.00000000000E+00  0.10640986898E+03  0.10640986898E+03  0.00000000000E+00 0. -1.
         -2   -1    0    0    0  501 -0.00000000000E+00 -0.00000000000E+00 -0.16069377163E+03  0.16069377163E+03  0.00000000000E+00 0.  1.
          5    1    1    2  502    0 -0.92690573085E+01 -0.41631765625E+02  0.39438381287E+02  0.58280316154E+02  0.47000000000E+01 0. -1.
         -5    1    1    2    0  502  0.28782187286E+02  0.93949312738E+00 -0.83799570892E+02  0.88734181881E+02  0.47000000000E+01 0.  1.
        -11    1    1    2    0    0 -0.51211402628E+02 -0.15889260917E+02  0.39549280481E+01  0.53765396190E+02  0.00000000000E+00 0.  1.
         11    1    1    2    0    0  0.31698272650E+02  0.56581533415E+02 -0.13877641089E+02  0.66323746387E+02  0.00000000000E+00 0. -1.
<mgrwt>
<rscale>  0 0.13473376E+03</rscale>
<asrwt>0</asrwt>
<pdfrwt beam="1">  1        2 0.16370749E-01 0.14016186E+03</pdfrwt>
<pdfrwt beam="2">  1       -2 0.24722118E-01 0.14016186E+03</pdfrwt>
<totfact> 0.48652503E+03</totfact>
</mgrwt>
</event>
<event>
 7    1  0.6419647E-006  0.2267773E+03  0.7546771E-02  0.1132084E+00
         -2   -1    0    0    0  501 -0.00000000000E+00  0.00000000000E+00  0.43393255327E+02  0.43393255327E+02  0.00000000000E+00 0.  1.
          2   -1    0    0  501    0  0.00000000000E+00 -0.00000000000E+00 -0.12956711190E+04  0.12956711190E+04  0.00000000000E+00 0. -1.
         23    2    1    2    0    0  0.14870789217E+03  0.11699984034E+03 -0.90768540279E+03  0.93558577917E+03  0.12499983965E+03 0.  0.
          5    1    3    3  502    0  0.13579176443E+03  0.14266770122E+03 -0.76521320522E+03  0.79016885265E+03  0.47000000000E+01 0.  1.
         -5    1    3    3    0  502  0.12916127744E+02 -0.25667860873E+02 -0.14247219757E+03  0.14541692652E+03  0.47000000000E+01 0.  1.
        -11    1    1    2    0    0 -0.81536287698E+02 -0.40236182403E+02 -0.84608343398E+02  0.12420019468E+03  0.00000000000E+00 0.  1.
         11    1    1    2    0    0 -0.67171604472E+02 -0.76763657941E+02 -0.25998411747E+03  0.27927840046E+03  0.00000000000E+00 0. -1.
<mgrwt>
<rscale>  0 0.22243044E+03</rscale>
<asrwt>0</asrwt>
<pdfrwt beam="2">  1        2 0.19933401E+00 0.22677734E+03</pdfrwt>
<pdfrwt beam="1">  1       -2 0.66758856E-02 0.22677734E+03</pdfrwt>
<totfact> 0.22126904E+03</totfact>
</mgrwt>
</event>
<event>
 7    1  0.6419647E-006  0.1551226E+03  0.7546771E-02  0.1202470E+00
          1   -1    0    0  501    0  0.00000000000E+00  0.00000000000E+00  0.77300806046E+03  0.77300806046E+03  0.00000000000E+00 0. -1.
         -1   -1    0    0    0  501 -0.00000000000E+00 -0.00000000000E+00 -0.26815140091E+02  0.26815140091E+02  0.00000000000E+00 0.  1.
         23    2    1    2    0    0 -0.85946092741E+02  0.32372816009E+02  0.46225291674E+03  0.48758668528E+03  0.12501314550E+03 0.  0.
          5    1    3    3  502    0 -0.45194065813E+02 -0.11697305271E+02  0.39312582123E+03  0.39591581410E+03  0.47000000000E+01 0. -1.
         -5    1    3    3    0  502 -0.40752026929E+02  0.44070121279E+02  0.69127095513E+02  0.91670871177E+02  0.47000000000E+01 0. -1.
        -11    1    1    2    0    0  0.35810434822E+02  0.14747445250E+02  0.19993479941E+03  0.20365116842E+03  0.00000000000E+00 0. -1.
         11    1    1    2    0    0  0.50135657919E+02 -0.47120261259E+02  0.84005204208E+02  0.10858534685E+03  0.00000000000E+00 0.  1.
<mgrwt>
<rscale>  0 0.14838662E+03</rscale>
<asrwt>0</asrwt>
<pdfrwt beam="1">  1        1 0.11892430E+00 0.15512259E+03</pdfrwt>
<pdfrwt beam="2">  1       -1 0.41254068E-02 0.15512259E+03</pdfrwt>
<totfact> 0.55652894E+03</totfact>
</mgrwt>
</event>
<event>
 7    1  0.6419647E-006  0.1256776E+03  0.7546771E-02  0.1249933E+00
         -2   -1    0    0    0  501 -0.00000000000E+00  0.00000000000E+00  0.14542926641E+02  0.14542926641E+02  0.00000000000E+00 0.  1.
          2   -1    0    0  501    0  0.00000000000E+00 -0.00000000000E+00 -0.95542208989E+03  0.95542208989E+03  0.00000000000E+00 0. -1.
         23    2    1    2    0    0 -0.22099435157E+01  0.12596608919E+02 -0.72272436655E+03  0.73357028803E+03  0.12502519377E+03 0.  0.
          5    1    3    3  502    0  0.28176743222E+01  0.63638913580E+02 -0.53872476528E+03  0.54249821505E+03  0.47000000000E+01 0.  1.
         -5    1    3    3    0  502 -0.50276178379E+01 -0.51042304661E+02 -0.18399960127E+03  0.19107207299E+03  0.47000000000E+01 0.  1.
        -11    1    1    2    0    0 -0.11766313111E+02  0.36680435893E+02 -0.74282786882E+02  0.83676955780E+02  0.00000000000E+00 0.  1.
         11    1    1    2    0    0  0.13976256627E+02 -0.49277044813E+02 -0.14387200982E+03  0.15271777272E+03  0.00000000000E+00 0. -1.
<mgrwt>
<rscale>  0 0.11594952E+03</rscale>
<asrwt>0</asrwt>
<pdfrwt beam="2">  1        2 0.14698801E+00 0.12567759E+03</pdfrwt>
<pdfrwt beam="1">  1       -2 0.22373734E-02 0.12567759E+03</pdfrwt>
<totfact> 0.17408329E+04</totfact>
</mgrwt>
</event>
<event>
 7    1  0.6419647E-006  0.1702965E+03  0.7546771E-02  0.1185225E+00
          1   -1    0    0  501    0  0.00000000000E+00  0.00000000000E+00  0.73532509773E+03  0.73532509773E+03  0.00000000000E+00 0. -1.
         -1   -1    0    0    0  501 -0.00000000000E+00 -0.00000000000E+00 -0.37341742226E+02  0.37341742226E+02  0.00000000000E+00 0.  1.
         23    2    1    2    0    0  0.65711572966E+02  0.95167080386E+02  0.50028444260E+03  0.52847460215E+03  0.12500439033E+03 0.  0.
          5    1    3    3  502    0  0.68106136097E+02  0.33415018498E+02  0.42117623651E+03  0.42797958063E+03  0.47000000000E+01 0.  1.
         -5    1    3    3    0  502 -0.23945631306E+01  0.61752061888E+02  0.79108206093E+02  0.10049502152E+03  0.47000000000E+01 0.  1.
        -11    1    1    2    0    0 -0.68320896383E+02 -0.54716782649E+02  0.76001892295E+02  0.11592221020E+03  0.00000000000E+00 0.  1.
         11    1    1    2    0    0  0.26093234167E+01 -0.40450297737E+02  0.12169702060E+03  0.12827002760E+03  0.00000000000E+00 0. -1.
<mgrwt>
<rscale>  0 0.16311445E+03</rscale>
<asrwt>0</asrwt>
<pdfrwt beam="1">  1        1 0.11312693E+00 0.17029645E+03</pdfrwt>
<pdfrwt beam="2">  1       -1 0.57448840E-02 0.17029645E+03</pdfrwt>
<totfact> 0.36782473E+03</totfact>
</mgrwt>
</event>
<event>
 7    1  0.6419647E-006  0.3982532E+03  0.7546771E-02  0.1045016E+00
          2   -1    0    0  501    0  0.00000000000E+00  0.00000000000E+00  0.57461842752E+03  0.57461842752E+03  0.00000000000E+00 0.  1.
         -2   -1    0    0    0  501 -0.00000000000E+00 -0.00000000000E+00 -0.27805872441E+03  0.27805872441E+03  0.00000000000E+00 0. -1.
         23    2    1    2    0    0  0.37811560772E+03 -0.22982977371E+01  0.21714858134E+03  0.45360674573E+03  0.12501551272E+03 0.  0.
          5    1    3    3  502    0  0.24754455212E+03 -0.57780648224E+02  0.16115164210E+03  0.30101304016E+03  0.47000000000E+01 0. -1.
         -5    1    3    3    0  502  0.13057105560E+03  0.55482350486E+02  0.55996939238E+02  0.15259370557E+03  0.47000000000E+01 0. -1.
        -11    1    1    2    0    0 -0.14853215545E+03  0.44369664832E+02  0.90167227744E+01  0.15527964983E+03  0.00000000000E+00 0. -1.
         11    1    1    2    0    0 -0.22958345227E+03 -0.42071367095E+02  0.70394398995E+02  0.24379075638E+03  0.00000000000E+00 0.  1.
<mgrwt>
<rscale>  0 0.39645005E+03</rscale>
<asrwt>0</asrwt>
<pdfrwt beam="1">  1        2 0.88402835E-01 0.39825315E+03</pdfrwt>
<pdfrwt beam="2">  1       -2 0.42778265E-01 0.39825315E+03</pdfrwt>
<totfact> 0.27741734E+02</totfact>
</mgrwt>
</event>
<event>
 6    1  0.6419647E-006  0.2897208E+03  0.7546771E-02  0.1112051E+00
          2   -1    0    0  501    0  0.00000000000E+00  0.00000000000E+00  0.22137204727E+04  0.22137204727E+04  0.00000000000E+00 0. -1.
         -2   -1    0    0    0  501 -0.00000000000E+00 -0.00000000000E+00 -0.68941226423E+02  0.68941226423E+02  0.00000000000E+00 0.  1.
          5    1    1    2  502    0 -0.12986244289E+03  0.11086215237E+03  0.18802557859E+04  0.18879985650E+04  0.47000000000E+01 0. -1.
         -5    1    1    2    0  502  0.69797439338E+02  0.18231164522E+02  0.20682486452E+03  0.21909512199E+03  0.47000000000E+01 0.  1.
        -11    1    1    2    0    0 -0.95795774570E+01 -0.78612231789E+02  0.35162644161E+02  0.86649078677E+02  0.00000000000E+00 0.  1.
         11    1    1    2    0    0  0.69644581012E+02 -0.50481085100E+02  0.22535951724E+02  0.88918933514E+02  0.00000000000E+00 0. -1.
<mgrwt>
<rscale>  0 0.25199476E+03</rscale>
<asrwt>0</asrwt>
<pdfrwt beam="1">  1        2 0.34057233E+00 0.28972084E+03</pdfrwt>
<pdfrwt beam="2">  1       -2 0.10606344E-01 0.28972084E+03</pdfrwt>
<totfact> 0.34508944E+02</totfact>
</mgrwt>
</event>
<event>
 7    1  0.6419647E-006  0.1470274E+03  0.7546771E-02  0.1214565E+00
         -1   -1    0    0    0  501 -0.00000000000E+00  0.00000000000E+00  0.26063442214E+02  0.26063442214E+02  0.00000000000E+00 0.  1.
          1   -1    0    0  501    0  0.00000000000E+00 -0.00000000000E+00 -0.71738988996E+03  0.71738988996E+03  0.00000000000E+00 0. -1.
         23    2    1    2    0    0  0.71237778906E+02 -0.30261017139E+02 -0.47403598578E+03  0.49631358501E+03  0.12500603406E+03 0.  0.
          5    1    3    3  502    0 -0.14236167459E+02  0.20905938180E+02 -0.23406707889E+02  0.34780607949E+02  0.47000000000E+01 0. -1.
         -5    1    3    3    0  502  0.85473946365E+02 -0.51166955319E+02 -0.45062927789E+03  0.46153297706E+03  0.47000000000E+01 0. -1.
        -11    1    1    2    0    0 -0.62710490030E+02  0.57314343626E+02 -0.18831373255E+03  0.20659041946E+03  0.00000000000E+00 0. -1.
         11    1    1    2    0    0 -0.85272888759E+01 -0.27053326487E+02 -0.28976729417E+02  0.40549327705E+02  0.00000000000E+00 0.  1.
<mgrwt>
<rscale>  0 0.13908507E+03</rscale>
<asrwt>0</asrwt>
<pdfrwt beam="2">  1        1 0.11036769E+00 0.14702741E+03</pdfrwt>
<pdfrwt beam="1">  1       -1 0.40097598E-02 0.14702741E+03</pdfrwt>
<totfact> 0.64590408E+03</totfact>
</mgrwt>
</event>
<event>
 7    1  0.6419647E-006  0.1663014E+03  0.7546771E-02  0.1190335E+00
         -2   -1    0    0    0  501 -0.00000000000E+00  0.00000000000E+00  0.43279205411E+03  0.43279205411E+03  0.00000000000E+00 0.  1.
          2   -1    0    0  501    0  0.00000000000E+00 -0.00000000000E+00 -0.53305704134E+02  0.53305704134E+02  0.00000000000E+00 0. -1.
         23    2    1    2    0    0  0.36381465373E+02  0.10347818435E+03  0.20328959523E+03  0.26264581898E+03  0.12499928417E+03 0.  0.
          5    1    3    3  502    0 -0.34846157148E+02 -0.59369728061E+01  0.43262805717E+02  0.56064807791E+02  0.47000000000E+01 0.  1.
         -5    1    3    3    0  502  0.71227622521E+02  0.10941515715E+03  0.16002678951E+03  0.20658101119E+03  0.47000000000E+01 0.  1.
        -11    1    1    2    0    0 -0.47296094157E+02 -0.46390433345E+02  0.14025650053E+03  0.15511569479E+03  0.00000000000E+00 0.  1.
         11    1    1    2    0    0  0.10914628784E+02 -0.57087751000E+02  0.35940254221E+02  0.68336244477E+02  0.00000000000E+00 0. -1.
<mgrwt>
<rscale>  0 0.15855793E+03</rscale>
<asrwt>0</asrwt>
<pdfrwt beam="2">  1        2 0.82008778E-02 0.16630143E+03</pdfrwt>
<pdfrwt beam="1">  1       -2 0.66583391E-01 0.16630143E+03</pdfrwt>
<totfact> 0.17087878E+03</totfact>
</mgrwt>
</event>
<event>
 7    1  0.6419647E-006  0.1312175E+03  0.7546771E-02  0.1239497E+00
         -2   -1    0    0    0  501 -0.00000000000E+00  0.00000000000E+00  0.38361232852E+02  0.38361232852E+02  0.00000000000E+00 0. -1.
          2   -1    0    0  501    0  0.00000000000E+00 -0.00000000000E+00 -0.40195068877E+03  0.40195068877E+03  0.00000000000E+00 0.  1.
         23    2    1    2    0    0 -0.25334339917E+02 -0.30849550243E+02 -0.28627098659E+03  0.31491125252E+03  0.12499798265E+03 0.  0.
          5    1    3    3  502    0 -0.50252865707E+02  0.25890868778E+02 -0.71163410069E+02  0.91005541208E+02  0.47000000000E+01 0.  1.
         -5    1    3    3    0  502  0.24918525790E+02 -0.56740419021E+02 -0.21510757652E+03  0.22390571131E+03  0.47000000000E+01 0.  1.
        -11    1    1    2    0    0 -0.31065329253E+02  0.16911108883E+02 -0.49887155746E+02  0.61153647428E+02  0.00000000000E+00 0.  1.
         11    1    1    2    0    0  0.56399669171E+02  0.13938441360E+02 -0.27431313581E+02  0.64247021681E+02  0.00000000000E+00 0. -1.
<mgrwt>
<rscale>  0 0.12220911E+03</rscale>
<asrwt>0</asrwt>
<pdfrwt beam="2">  1        2 0.61838567E-01 0.13121745E+03</pdfrwt>
<pdfrwt beam="1">  1       -2 0.59017282E-02 0.13121745E+03</pdfrwt>
<totfact> 0.11389161E+04</totfact>
</mgrwt>
</event>
<event>
 6    1  0.6419647E-006  0.2615140E+03  0.7546771E-02  0.1106237E+00
         -1   -1    0    0    0  501 -0.00000000000E+00  0.00000000000E+00  0.88176087428E+02  0.88176087428E+02  0.00000000000E+00 0.  1.
          1   -1    0    0  501    0  0.00000000000E+00 -0.00000000000E+00 -0.19390063456E+03  0.19390063456E+03  0.00000000000E+00 0. -1.
          5    1    1    2  502    0 -0.28009988723E+01  0.48111552704E+01  0.33522164027E+02  0.34304785246E+02  0.47000000000E+01 0. -1.
         -5    1    1    2    0  502  0.44132739773E+01  0.57649535127E+02 -0.12440985508E+03  0.13726925340E+03  0.47000000000E+01 0.  1.
        -11    1    1    2    0    0  0.79200729871E+01 -0.55675306632E+02 -0.48876872633E+02  0.74507825113E+02  0.00000000000E+00 0. -1.
         11    1    1    2    0    0 -0.95323480922E+01 -0.67853837655E+01  0.34040016547E+02  0.35994858237E+02  0.00000000000E+00 0.  1.
<mgrwt>
<rscale>  0 0.26151405E+03</rscale>
<asrwt>0</asrwt>
<pdfrwt beam="2">  1        1 0.29830866E-01 0.26151405E+03</pdfrwt>
<pdfrwt beam="1">  1       -1 0.13565552E-01 0.26151405E+03</pdfrwt>
<totfact> 0.56988272E+03</totfact>
</mgrwt>
</event>
<event>
 7    1  0.6419647E-006  0.1402769E+03  0.7546771E-02  0.1223868E+00
         -2   -1    0    0    0  501 -0.00000000000E+00  0.00000000000E+00  0.47770972554E+03  0.47770972554E+03  0.00000000000E+00 0.  1.
          2   -1    0    0  501    0  0.00000000000E+00 -0.00000000000E+00 -0.37172116362E+02  0.37172116362E+02  0.00000000000E+00 0. -1.
         23    2    1    2    0    0  0.49378689845E+02  0.40122585275E+02  0.15878060449E+03  0.21186999534E+03  0.12501814949E+03 0.  0.
          5    1    3    3  502    0 -0.84354086021E+01  0.72955381482E+02  0.81029562951E+02  0.10946014744E+03  0.47000000000E+01 0. -1.
         -5    1    3    3    0  502  0.57814098447E+02 -0.32832796207E+02  0.77751041543E+02  0.10240984790E+03  0.47000000000E+01 0. -1.
        -11    1    1    2    0    0 -0.56174914656E+02  0.12587942129E+02  0.12864984466E+03  0.14094275382E+03  0.00000000000E+00 0. -1.
         11    1    1    2    0    0  0.67962248118E+01 -0.52710527404E+02  0.15310716003E+03  0.16206909275E+03  0.00000000000E+00 0.  1.
<mgrwt>
<rscale>  0 0.13244786E+03</rscale>
<asrwt>0</asrwt>
<pdfrwt beam="2">  1        2 0.57187875E-02 0.14027692E+03</pdfrwt>
<pdfrwt beam="1">  1       -2 0.73493800E-01 0.14027692E+03</pdfrwt>
<totfact> 0.21748025E+03</totfact>
</mgrwt>
</event>
<event>
 7    1  0.6419647E-006  0.1349970E+03  0.7546771E-02  0.1232384E+00
         -1   -1    0    0    0  501 -0.00000000000E+00  0.00000000000E+00  0.21779260846E+02  0.21779260846E+02  0.00000000000E+00 0.  1.
          1   -1    0    0  501    0  0.00000000000E+00 -0.00000000000E+00 -0.66108969995E+03  0.66108969995E+03  0.00000000000E+00 0. -1.
         23    2    1    2    0    0 -0.50987857374E+02 -0.11216612360E+01 -0.34862392481E+03  0.37384868340E+03  0.12499270942E+03 0.  0.
          5    1    3    3  502    0 -0.38840881165E+02  0.10235363631E+02 -0.20628323997E+02  0.45398176938E+02  0.47000000000E+01 0. -1.
         -5    1    3    3    0  502 -0.12146976209E+02 -0.11357024867E+02 -0.32799560081E+03  0.32845050646E+03  0.47000000000E+01 0. -1.
        -11    1    1    2    0    0  0.18757286510E+02  0.44278577572E+02 -0.10149708688E+03  0.11231245200E+03  0.00000000000E+00 0. -1.
         11    1    1    2    0    0  0.32230570865E+02 -0.43156916336E+02 -0.18918942742E+03  0.19670782540E+03  0.00000000000E+00 0.  1.
<mgrwt>
<rscale>  0 0.12673366E+03</rscale>
<asrwt>0</asrwt>
<pdfrwt beam="2">  1        1 0.10170609E+00 0.13499703E+03</pdfrwt>
<pdfrwt beam="1">  1       -1 0.33506560E-02 0.13499703E+03</pdfrwt>
<totfact> 0.93946119E+03</totfact>
</mgrwt>
</event>
<event>
 7    1  0.6419647E-006  0.1406266E+03  0.7546771E-02  0.1223609E+00
         -1   -1    0    0    0  501 -0.00000000000E+00  0.00000000000E+00  0.98956598627E+02  0.98956598627E+02  0.00000000000E+00 0.  1.
          1   -1    0    0  501    0  0.00000000000E+00 -0.00000000000E+00 -0.16057232795E+03  0.16057232795E+03  0.00000000000E+00 0. -1.
         23    2    1    2    0    0  0.63580855501E+02  0.10399888441E+02 -0.28935486441E+02  0.14357267608E+03  0.12500067230E+03 0.  0.
          5    1    3    3  502    0  0.10072668971E+03  0.80178078228E+00 -0.12651852913E+02  0.10163005587E+03  0.47000000000E+01 0. -1.
         -5    1    3    3    0  502 -0.37145834212E+02  0.95981076588E+01 -0.16283633528E+02  0.41942620219E+02  0.47000000000E+01 0. -1.
        -11    1    1    2    0    0 -0.77629526668E+02 -0.32331139708E+02 -0.31773227692E+02  0.89895405909E+02  0.00000000000E+00 0. -1.
         11    1    1    2    0    0  0.14048671167E+02  0.21931251267E+02 -0.90701518709E+00  0.26060844581E+02  0.00000000000E+00 0.  1.
<mgrwt>
<rscale>  0 0.13262682E+03</rscale>
<asrwt>0</asrwt>
<pdfrwt beam="2">  1        1 0.24703435E-01 0.14062664E+03</pdfrwt>
<pdfrwt beam="1">  1       -1 0.15224092E-01 0.14062664E+03</pdfrwt>
<totfact> 0.58204958E+03</totfact>
</mgrwt>
</event>
<event>
 7    1  0.6419647E-006  0.1387159E+03  0.7546771E-02  0.1225989E+00
         -2   -1    0    0    0  501 -0.00000000000E+00  0.00000000000E+00  0.49572393787E+03  0.49572393787E+03  0.00000000000E+00 0. -1.
          2   -1    0    0  501    0  0.00000000000E+00 -0.00000000000E+00 -0.44163983169E+02  0.44163983169E+02  0.00000000000E+00 0.  1.
         23    2    1    2    0    0  0.37195757425E+02  0.47244318238E+02  0.98858912821E+02  0.17033847865E+03  0.12500625059E+03 0.  0.
          5    1    3    3  502    0  0.25100983353E+02  0.53487792187E+02  0.12620640480E+03  0.13943152402E+03  0.47000000000E+01 0.  1.
         -5    1    3    3    0  502  0.12094774072E+02 -0.62434739484E+01 -0.27347491978E+02  0.30906954626E+02  0.47000000000E+01 0.  1.
        -11    1    1    2    0    0 -0.38367398668E+02 -0.71306293615E+02  0.21470735533E+03  0.22946871948E+03  0.00000000000E+00 0.  1.
         11    1    1    2    0    0  0.11716412436E+01  0.24061975377E+02  0.13799368655E+03  0.14008072291E+03  0.00000000000E+00 0. -1.
<mgrwt>
<rscale>  0 0.13099376E+03</rscale>
<asrwt>0</asrwt>
<pdfrwt beam="2">  1        2 0.67944593E-02 0.13871594E+03</pdfrwt>
<pdfrwt beam="1">  1       -2 0.76265217E-01 0.13871594E+03</pdfrwt>
<totfact> 0.16081355E+03</totfact>
</mgrwt>
</event>
<event>
 7    1  0.6419647E-006  0.1281623E+03  0.7546771E-02  0.1239623E+00
          1   -1    0    0  501    0  0.00000000000E+00  0.00000000000E+00  0.37434719041E+03  0.37434719041E+03  0.00000000000E+00 0. -1.
         -1   -1    0    0    0  501 -0.00000000000E+00 -0.00000000000E+00 -0.40909656747E+02  0.40909656747E+02  0.00000000000E+00 0.  1.
         23    2    1    2    0    0  0.26854029150E+02 -0.47438107254E+02  0.24875432037E+03  0.27982902822E+03  0.11599163861E+03 0.  0.
          5    1    3    3  502    0 -0.42510605133E+02 -0.30165405387E+02  0.14132896596E+03  0.15070855932E+03  0.47000000000E+01 0. -1.
         -5    1    3    3    0  502  0.69364634283E+02 -0.17272701867E+02  0.10742535441E+03  0.12912046890E+03  0.47000000000E+01 0.  1.
        -11    1    1    2    0    0  0.11764317144E+02 -0.12051643149E+02 -0.80615812673E+01  0.18671645695E+02  0.00000000000E+00 0. -1.
         11    1    1    2    0    0 -0.38618346294E+02  0.59489750402E+02  0.92744794557E+02  0.11675617325E+03  0.00000000000E+00 0.  1.
<mgrwt>
<rscale>  0 0.12213051E+03</rscale>
<asrwt>0</asrwt>
<pdfrwt beam="1">  1        1 0.57591873E-01 0.12816229E+03</pdfrwt>
<pdfrwt beam="2">  1       -1 0.62937936E-02 0.12816229E+03</pdfrwt>
<totfact> 0.77829856E+03</totfact>
</mgrwt>
</event>
<event>
 7    1  0.6419647E-006  0.1558735E+03  0.7546771E-02  0.1201554E+00
          1   -1    0    0  501    0  0.00000000000E+00  0.00000000000E+00  0.72457867985E+02  0.72457867985E+02  0.00000000000E+00 0. -1.
         -1   -1    0    0    0  501 -0.00000000000E+00 -0.00000000000E+00 -0.28721911705E+03  0.28721911705E+03  0.00000000000E+00 0.  1.
         23    2    1    2    0    0  0.92723844500E+02  0.79538034080E+01 -0.95296710103E+02  0.18269650074E+03  0.12504228925E+03 0.  0.
          5    1    3    3  502    0  0.95515542861E+02 -0.12604377207E+02 -0.11745064205E+03  0.15198300093E+03  0.47000000000E+01 0.  1.
         -5    1    3    3    0  502 -0.27916983611E+01  0.20558180615E+02  0.22153931951E+02  0.30713499814E+02  0.47000000000E+01 0.  1.
        -11    1    1    2    0    0 -0.10053808946E+03  0.11821480119E+02 -0.69818751054E+02  0.12297281335E+03  0.00000000000E+00 0. -1.
         11    1    1    2    0    0  0.78142449638E+01 -0.19775283527E+02 -0.49645787905E+02  0.54007670933E+02  0.00000000000E+00 0.  1.
<mgrwt>
<rscale>  0 0.14912339E+03</rscale>
<asrwt>0</asrwt>
<pdfrwt beam="1">  1        1 0.11147364E-01 0.15587350E+03</pdfrwt>
<pdfrwt beam="2">  1       -1 0.44187556E-01 0.15587350E+03</pdfrwt>
<totfact> 0.27796565E+03</totfact>
</mgrwt>
</event>
<event>
 7    1  0.6419647E-006  0.1334615E+03  0.7546771E-02  0.1235353E+00
          1   -1    0    0  501    0  0.00000000000E+00  0.00000000000E+00  0.82544120335E+03  0.82544120335E+03  0.00000000000E+00 0. -1.
         -1   -1    0    0    0  501 -0.00000000000E+00 -0.00000000000E+00 -0.44743776198E+02  0.44743776198E+02  0.00000000000E+00 0.  1.
         23    2    1    2    0    0 -0.37678681193E+02  0.27711537481E+02  0.75252014462E+03  0.76426339879E+03  0.12499744938E+03 0.  0.
          5    1    3    3  502    0 -0.35165098540E+02 -0.31106235377E+02  0.57996868887E+03  0.58188482718E+03  0.47000000000E+01 0. -1.
         -5    1    3    3    0  502 -0.25135826533E+01  0.58817772858E+02  0.17255145575E+03  0.18237857161E+03  0.47000000000E+01 0. -1.
        -11    1    1    2    0    0  0.64004069403E+02 -0.10857561422E+02  0.16744031971E+01  0.64940058256E+02  0.00000000000E+00 0.  1.
         11    1    1    2    0    0 -0.26325388210E+02 -0.16853976059E+02  0.26502879338E+02  0.40981522502E+02  0.00000000000E+00 0. -1.
<mgrwt>
<rscale>  0 0.12481843E+03</rscale>
<asrwt>0</asrwt>
<pdfrwt beam="1">  1        1 0.12699094E+00 0.13346151E+03</pdfrwt>
<pdfrwt beam="2">  1       -1 0.68836585E-02 0.13346151E+03</pdfrwt>
<totfact> 0.23438178E+03</totfact>
</mgrwt>
</event>
<event>
 7    1  0.6419647E-006  0.1684483E+03  0.7546771E-02  0.1186097E+00
          1   -1    0    0  501    0  0.00000000000E+00  0.00000000000E+00  0.34416682087E+03  0.34416682087E+03  0.00000000000E+00 0. -1.
         -1   -1    0    0    0  501 -0.00000000000E+00 -0.00000000000E+00 -0.89508840031E+02  0.89508840031E+02  0.00000000000E+00 0.  1.
         23    2    1    2    0    0  0.41358887669E+02  0.10506639560E+03  0.23193724129E+03  0.28665259242E+03  0.12500127907E+03 0.  0.
          5    1    3    3  502    0  0.25446561824E+02  0.11260752076E+03  0.24027371745E+03  0.26661119733E+03  0.47000000000E+01 0.  1.
         -5    1    3    3    0  502  0.15912325845E+02 -0.75411251680E+01 -0.83364761591E+01  0.20041395095E+02  0.47000000000E+01 0.  1.
        -11    1    1    2    0    0  0.11659329958E+02 -0.80689486945E+02 -0.64539012946E+01  0.81782553888E+02  0.00000000000E+00 0.  1.
         11    1    1    2    0    0 -0.53018217627E+02 -0.24376908651E+02  0.29174640837E+02  0.65240514588E+02  0.00000000000E+00 0. -1.
<mgrwt>
<rscale>  0 0.16232451E+03</rscale>
<asrwt>0</asrwt>
<pdfrwt beam="1">  1        1 0.52948741E-01 0.16844829E+03</pdfrwt>
<pdfrwt beam="2">  1       -1 0.13770591E-01 0.16844829E+03</pdfrwt>
<totfact> 0.26578996E+03</totfact>
</mgrwt>
</event>
<event>
 7    1  0.6419647E-006  0.1259859E+03  0.7546771E-02  0.1249074E+00
          1   -1    0    0  501    0  0.00000000000E+00  0.00000000000E+00  0.33431348436E+03  0.33431348436E+03  0.00000000000E+00 0. -1.
         -1   -1    0    0    0  501 -0.00000000000E+00 -0.00000000000E+00 -0.35578053587E+02  0.35578053587E+02  0.00000000000E+00 0.  1.
         23    2    1    2    0    0  0.14463314136E+02  0.62016670540E+01  0.18012059972E+03  0.21980873892E+03  0.12499921254E+03 0.  0.
          5    1    3    3  502    0  0.50184902812E+02 -0.38787791346E+02  0.12401176027E+03  0.13937009692E+03  0.47000000000E+01 0.  1.
         -5    1    3    3    0  502 -0.35721588676E+02  0.44989458400E+02  0.56108839441E+02  0.80438642008E+02  0.47000000000E+01 0.  1.
        -11    1    1    2    0    0  0.38485747471E+02  0.30937397105E+00  0.53488523291E+02  0.65895907267E+02  0.00000000000E+00 0. -1.
         11    1    1    2    0    0 -0.52949061607E+02 -0.65110410251E+01  0.65126307765E+02  0.84186891755E+02  0.00000000000E+00 0.  1.
<mgrwt>
<rscale>  0 0.11644828E+03</rscale>
<asrwt>0</asrwt>
<pdfrwt beam="1">  1        1 0.51432842E-01 0.12598592E+03</pdfrwt>
<pdfrwt beam="2">  1       -1 0.54735469E-02 0.12598592E+03</pdfrwt>
<totfact> 0.11012287E+04</totfact>
</mgrwt>
</event>
<event>
 7    1  0.6419647E-006  0.2824791E+03  0.7546771E-02  0.1096190E+00
          1   -1    0    0  501    0  0.00000000000E+00  0.00000000000E+00  0.33725043188E+03  0.33725043188E+03  0.00000000000E+00 0. -1.
         -1   -1    0    0    0  501 -0.00000000000E+00 -0.00000000000E+00 -0.25644126990E+03  0.25644126990E+03  0.00000000000E+00 0.  1.
         23    2    1    2    0    0  0.19066788038E+03 -0.16679244231E+03  0.14423978158E+03  0.31717433277E+03  0.12498193212E+03 0.  0.
          5    1    3    3  502    0 -0.10477180740E+02 -0.45783621805E+02  0.31300258053E+02  0.56636626807E+02  0.47000000000E+01 0. -1.
         -5    1    3    3    0  502  0.20114506112E+03 -0.12100882051E+03  0.11293952353E+03  0.26053770597E+03  0.47000000000E+01 0. -1.
        -11    1    1    2    0    0 -0.72245223856E+02  0.59473636338E+02  0.20804301938E+02  0.95860861505E+02  0.00000000000E+00 0. -1.
         11    1    1    2    0    0 -0.11842265653E+03  0.10731880598E+03 -0.84234921542E+02  0.18065650750E+03  0.00000000000E+00 0.  1.
<mgrwt>
<rscale>  0 0.27908459E+03</rscale>
<asrwt>0</asrwt>
<pdfrwt beam="1">  1        1 0.51884682E-01 0.28247910E+03</pdfrwt>
<pdfrwt beam="2">  1       -1 0.39452503E-01 0.28247910E+03</pdfrwt>
<totfact> 0.47985218E+02</totfact>
</mgrwt>
</event>
<event>
 7    1  0.6419647E-006  0.1483708E+03  0.7546771E-02  0.1211974E+00
          1   -1    0    0  501    0  0.00000000000E+00  0.00000000000E+00  0.25465514456E+03  0.25465514456E+03  0.00000000000E+00 0. -1.
         -1   -1    0    0    0  501 -0.00000000000E+00 -0.00000000000E+00 -0.88171545794E+02  0.88171545794E+02  0.00000000000E+00 0.  1.
         23    2    1    2    0    0  0.63353956773E+02  0.48739100431E+02  0.16481674555E+03  0.22176214852E+03  0.12499866860E+03 0.  0.
          5    1    3    3  502    0 -0.22878058131E+02  0.55694950538E+02  0.53343407368E+02  0.80578794784E+02  0.47000000000E+01 0.  1.
         -5    1    3    3    0  502  0.86232014904E+02 -0.69558501073E+01  0.11147333818E+03  0.14118335373E+03  0.47000000000E+01 0.  1.
        -11    1    1    2    0    0 -0.82818795333E+02 -0.39147810526E+02 -0.16112539175E+02  0.93011385583E+02  0.00000000000E+00 0.  1.
         11    1    1    2    0    0  0.19464838560E+02 -0.95912899047E+01  0.17779392393E+02  0.28053156259E+02  0.00000000000E+00 0. -1.
<mgrwt>
<rscale>  0 0.14101173E+03</rscale>
<asrwt>0</asrwt>
<pdfrwt beam="1">  1        1 0.39177714E-01 0.14837079E+03</pdfrwt>
<pdfrwt beam="2">  1       -1 0.13564853E-01 0.14837079E+03</pdfrwt>
<totfact> 0.39369839E+03</totfact>
</mgrwt>
</event>
<event>
 7    1  0.6419647E-006  0.1296698E+03  0.7546771E-02  0.1240254E+00
          2   -1    0    0  501    0  0.00000000000E+00  0.00000000000E+00  0.35471047815E+03  0.35471047815E+03  0.00000000000E+00 0. -1.
         -2   -1    0    0    0  501 -0.00000000000E+00 -0.00000000000E+00 -0.37782197163E+02  0.37782197163E+02  0.00000000000E+00 0.  1.
         23    2    1    2    0    0  0.21509319266E+02 -0.26962171682E+02  0.19727852090E+03  0.23607851207E+03  0.12499855813E+03 0.  0.
          5    1    3    3  502    0 -0.31516771332E+02 -0.50519286128E+02  0.14873819010E+03  0.16028301326E+03  0.47000000000E+01 0. -1.
         -5    1    3    3    0  502  0.53026090598E+02  0.23557114446E+02  0.48540330802E+02  0.75795498807E+02  0.47000000000E+01 0. -1.
        -11    1    1    2    0    0 -0.38819439997E+02 -0.29642578244E+01  0.82819312998E+01  0.39803594463E+02  0.00000000000E+00 0.  1.
         11    1    1    2    0    0  0.17310120731E+02  0.29926429506E+02  0.11136782878E+03  0.11661056878E+03  0.00000000000E+00 0. -1.
<mgrwt>
<rscale>  0 0.12174011E+03</rscale>
<asrwt>0</asrwt>
<pdfrwt beam="1">  1        2 0.54570841E-01 0.12966977E+03</pdfrwt>
<pdfrwt beam="2">  1       -2 0.58126460E-02 0.12966977E+03</pdfrwt>
<totfact> 0.13299629E+04</totfact>
</mgrwt>
</event>
<event>
 7    1  0.6419647E-006  0.1637463E+03  0.7546771E-02  0.1191655E+00
          2   -1    0    0  501    0  0.00000000000E+00  0.00000000000E+00  0.53269635604E+03  0.53269635604E+03  0.00000000000E+00 0. -1.
         -2   -1    0    0    0  501 -0.00000000000E+00 -0.00000000000E+00 -0.44694414395E+02  0.44694414395E+02  0.00000000000E+00 0.  1.
         23    2    1    2    0    0 -0.99165847476E+02  0.36803458660E+02  0.31434559129E+03  0.35443756678E+03  0.12499791241E+03 0.  0.
          5    1    3    3  502    0 -0.14445388510E+02 -0.39268111692E+02  0.13964825061E+03  0.14585738837E+03  0.47000000000E+01 0.  1.
         -5    1    3    3    0  502 -0.84720458966E+02  0.76071570352E+02  0.17469734068E+03  0.20858017841E+03  0.47000000000E+01 0.  1.
        -11    1    1    2    0    0  0.29445473930E+02 -0.13945173183E+02 -0.19458885989E+01  0.32638784789E+02  0.00000000000E+00 0.  1.
         11    1    1    2    0    0  0.69720373546E+02 -0.22858285477E+02  0.17560223895E+03  0.19031441886E+03  0.00000000000E+00 0. -1.
<mgrwt>
<rscale>  0 0.15740783E+03</rscale>
<asrwt>0</asrwt>
<pdfrwt beam="1">  1        2 0.81953281E-01 0.16374626E+03</pdfrwt>
<pdfrwt beam="2">  1       -2 0.68760641E-02 0.16374626E+03</pdfrwt>
<totfact> 0.67329263E+03</totfact>
</mgrwt>
</event>
<event>
 7    1  0.6725352E-006  0.1975638E+03  0.7546771E-02  0.1156030E+00
          1   -1    0    0  501    0  0.00000000000E+00  0.00000000000E+00  0.51981347618E+03  0.51981347618E+03  0.00000000000E+00 0. -1.
         -1   -1    0    0    0  501 -0.00000000000E+00 -0.00000000000E+00 -0.85356208305E+02  0.85356208305E+02  0.00000000000E+00 0.  1.
         23    2    1    2    0    0 -0.67899213390E+02  0.13709650873E+03  0.36151493625E+03  0.41197631641E+03  0.12500272105E+03 0.  0.
          5    1    3    3  502    0 -0.68072904173E+02  0.99443720586E+02  0.35307372275E+03  0.37310336041E+03  0.47000000000E+01 0. -1.
         -5    1    3    3    0  502  0.17369078300E+00  0.37652788143E+02  0.84412134943E+01  0.38872956006E+02  0.47000000000E+01 0. -1.
        -11    1    1    2    0    0 -0.54760824543E+01 -0.88694430409E+02  0.51523544293E+02  0.10271983782E+03  0.00000000000E+00 0. -1.
         11    1    1    2    0    0  0.73375295844E+02 -0.48402078321E+02  0.21418787333E+02  0.90473530255E+02  0.00000000000E+00 0.  1.
<mgrwt>
<rscale>  0 0.19272118E+03</rscale>
<asrwt>0</asrwt>
<pdfrwt beam="1">  1        1 0.79971302E-01 0.19756375E+03</pdfrwt>
<pdfrwt beam="2">  1       -1 0.13131725E-01 0.19756375E+03</pdfrwt>
<totfact> 0.16923257E+03</totfact>
</mgrwt>
</event>
<event>
 7    1  0.6419647E-006  0.2386088E+03  0.7546771E-02  0.1123630E+00
         -2   -1    0    0    0  501 -0.00000000000E+00  0.00000000000E+00  0.77913358598E+03  0.77913358598E+03  0.00000000000E+00 0.  1.
          2   -1    0    0  501    0  0.00000000000E+00 -0.00000000000E+00 -0.68119436008E+02  0.68119436008E+02  0.00000000000E+00 0. -1.
         23    2    1    2    0    0 -0.10103205513E+03 -0.17635565654E+03  0.35570641789E+03  0.42832373314E+03  0.12500148352E+03 0.  0.
          5    1    3    3  502    0 -0.10477899096E+03 -0.58154475768E+02  0.19023494652E+03  0.22488220222E+03  0.47000000000E+01 0. -1.
         -5    1    3    3    0  502  0.37469358262E+01 -0.11820118077E+03  0.16547147137E+03  0.20344153091E+03  0.47000000000E+01 0. -1.
        -11    1    1    2    0    0  0.27474623229E+02  0.57778360211E+02  0.20075910384E+03  0.21070693298E+03  0.00000000000E+00 0. -1.
         11    1    1    2    0    0  0.73557431903E+02  0.11857729633E+03  0.15454862824E+03  0.20822235587E+03  0.00000000000E+00 0.  1.
<mgrwt>
<rscale>  0 0.23432824E+03</rscale>
<asrwt>0</asrwt>
<pdfrwt beam="2">  1        2 0.10479914E-01 0.23860881E+03</pdfrwt>
<pdfrwt beam="1">  1       -2 0.11986670E+00 0.23860881E+03</pdfrwt>
<totfact> 0.33639432E+02</totfact>
</mgrwt>
</event>
<event>
 7    1  0.6419647E-006  0.1531119E+03  0.7546771E-02  0.1205153E+00
          3   -1    0    0  501    0  0.00000000000E+00  0.00000000000E+00  0.92306123036E+03  0.92306123036E+03  0.00000000000E+00 0. -1.
         -3   -1    0    0    0  501 -0.00000000000E+00 -0.00000000000E+00 -0.43007933574E+02  0.43007933574E+02  0.00000000000E+00 0.  1.
         23    2    1    2    0    0  0.69675501087E+02  0.54391648876E+02  0.80225479126E+03  0.81673497026E+03  0.12502053683E+03 0.  0.
          5    1    3    3  502    0 -0.33739305292E+02  0.27276709915E+02  0.30411085818E+03  0.30722607911E+03  0.47000000000E+01 0.  1.
         -5    1    3    3    0  502  0.10341480638E+03  0.27114938961E+02  0.49814393308E+03  0.50950889115E+03  0.47000000000E+01 0.  1.
        -11    1    1    2    0    0 -0.57607171977E+02 -0.57667157236E+02  0.12038129760E+02  0.82395411614E+02  0.00000000000E+00 0.  1.
         11    1    1    2    0    0 -0.12068329109E+02  0.32755083599E+01  0.65760375764E+02  0.66938782056E+02  0.00000000000E+00 0. -1.
<mgrwt>
<rscale>  0 0.14625377E+03</rscale>
<asrwt>0</asrwt>
<pdfrwt beam="1">  1        3 0.14200941E+00 0.15311192E+03</pdfrwt>
<pdfrwt beam="2">  1       -3 0.66166059E-02 0.15311192E+03</pdfrwt>
<totfact> 0.13630290E+02</totfact>
</mgrwt>
</event>
<event>
 7    1  0.6419647E-006  0.1315291E+03  0.7546771E-02  0.1235412E+00
         -2   -1    0    0    0  501 -0.00000000000E+00  0.00000000000E+00  0.44358266429E+02  0.44358266429E+02  0.00000000000E+00 0.  1.
          2   -1    0    0  501    0  0.00000000000E+00 -0.00000000000E+00 -0.32263115429E+03  0.32263115429E+03  0.00000000000E+00 0. -1.
         23    2    1    2    0    0  0.33472493456E+01  0.40791181758E+02 -0.13543053099E+03  0.18878912429E+03  0.12499912054E+03 0.  0.
          5    1    3    3  502    0  0.41819987054E+02 -0.14482601141E+02 -0.89160953990E+01  0.45389908682E+02  0.47000000000E+01 0.  1.
         -5    1    3    3    0  502 -0.38472737708E+02  0.55273782898E+02 -0.12651443559E+03  0.14339921560E+03  0.47000000000E+01 0.  1.
        -11    1    1    2    0    0  0.75315715275E+00 -0.26644068556E+02 -0.15611438214E+03  0.15837352665E+03  0.00000000000E+00 0. -1.
         11    1    1    2    0    0 -0.41004064983E+01 -0.14147113201E+02  0.13272025264E+02  0.19826769782E+02  0.00000000000E+00 0.  1.
<mgrwt>
<rscale>  0 0.12478075E+03</rscale>
<asrwt>0</asrwt>
<pdfrwt beam="2">  1        2 0.49635562E-01 0.13152910E+03</pdfrwt>
<pdfrwt beam="1">  1       -2 0.68243487E-02 0.13152910E+03</pdfrwt>
<totfact> 0.11537471E+04</totfact>
</mgrwt>
</event>
<event>
 7    1  0.6419647E-006  0.1631149E+03  0.7546771E-02  0.1192326E+00
          1   -1    0    0  501    0  0.00000000000E+00  0.00000000000E+00  0.92418346519E+03  0.92418346519E+03  0.00000000000E+00 0. -1.
         -1   -1    0    0    0  501 -0.00000000000E+00 -0.00000000000E+00 -0.77302110521E+02  0.77302110521E+02  0.00000000000E+00 0.  1.
         23    2    1    2    0    0 -0.97911404359E+02 -0.37350160916E+02  0.84653023182E+03  0.86210202973E+03  0.12499919461E+03 0.  0.
          5    1    3    3  502    0 -0.62920603148E+02 -0.79835230094E+02  0.42736845786E+03  0.43931600817E+03  0.47000000000E+01 0.  1.
         -5    1    3    3    0  502 -0.34990801211E+02  0.42485069178E+02  0.41916177396E+03  0.42278602156E+03  0.47000000000E+01 0.  1.
        -11    1    1    2    0    0  0.77245993580E+02  0.24394390004E+02 -0.41443607624E+02  0.90992320559E+02  0.00000000000E+00 0.  1.
         11    1    1    2    0    0  0.20665410779E+02  0.12955770912E+02  0.41794730476E+02  0.48391225426E+02  0.00000000000E+00 0. -1.
<mgrwt>
<rscale>  0 0.15682771E+03</rscale>
<asrwt>0</asrwt>
<pdfrwt beam="1">  1        1 0.14218206E+00 0.16311492E+03</pdfrwt>
<pdfrwt beam="2">  1       -1 0.11892633E-01 0.16311492E+03</pdfrwt>
<totfact> 0.85515197E+02</totfact>
</mgrwt>
</event>
<event>
 7    1  0.6419647E-006  0.3585758E+03  0.7546771E-02  0.1060221E+00
          2   -1    0    0  501    0  0.00000000000E+00  0.00000000000E+00  0.14136746483E+04  0.14136746483E+04  0.00000000000E+00 0. -1.
         -2   -1    0    0    0  501 -0.00000000000E+00 -0.00000000000E+00 -0.97898761741E+02  0.97898761741E+02  0.00000000000E+00 0.  1.
         23    2    1    2    0    0  0.23747573015E+02 -0.33524448299E+03  0.90363683747E+03  0.97218111971E+03  0.12499513940E+03 0.  0.
          5    1    3    3  502    0  0.11403677652E+02 -0.24286257099E+03  0.78157964689E+03  0.81853595320E+03  0.47000000000E+01 0. -1.
         -5    1    3    3    0  502  0.12343895363E+02 -0.92381911992E+02  0.12205719058E+03  0.15364516650E+03  0.47000000000E+01 0. -1.
        -11    1    1    2    0    0 -0.47683725274E+02  0.12747103699E+03  0.13019579788E+03  0.18834422931E+03  0.00000000000E+00 0.  1.
         11    1    1    2    0    0  0.23936152259E+02  0.20777344599E+03  0.28194325116E+03  0.35104806098E+03  0.00000000000E+00 0. -1.
<mgrwt>
<rscale>  0 0.35589527E+03</rscale>
<asrwt>0</asrwt>
<pdfrwt beam="1">  1        2 0.21748839E+00 0.35857579E+03</pdfrwt>
<pdfrwt beam="2">  1       -2 0.15061349E-01 0.35857579E+03</pdfrwt>
<totfact> 0.51381083E+02</totfact>
</mgrwt>
</event>
<event>
 7    1  0.6419647E-006  0.1300733E+03  0.7546771E-02  0.1244133E+00
          1   -1    0    0  501    0  0.00000000000E+00  0.00000000000E+00  0.16496487490E+03  0.16496487490E+03  0.00000000000E+00 0. -1.
         -1   -1    0    0    0  501 -0.00000000000E+00 -0.00000000000E+00 -0.90123161977E+02  0.90123161977E+02  0.00000000000E+00 0.  1.
         23    2    1    2    0    0 -0.29354304784E+02  0.20823199247E+02  0.94458399725E+02  0.16075274242E+03  0.12499509623E+03 0.  0.
          5    1    3    3  502    0  0.16376094788E+02  0.60572013695E+02  0.23114739705E+02  0.67033771453E+02  0.47000000000E+01 0.  1.
         -5    1    3    3    0  502 -0.45730399571E+02 -0.39748814448E+02  0.71343660019E+02  0.93718970971E+02  0.47000000000E+01 0.  1.
        -11    1    1    2    0    0  0.10215534085E+02 -0.52673194368E+02 -0.19758365446E+02  0.57177054372E+02  0.00000000000E+00 0. -1.
         11    1    1    2    0    0  0.19138770699E+02  0.31849995121E+02  0.14167864452E+00  0.37158240080E+02  0.00000000000E+00 0.  1.
<mgrwt>
<rscale>  0 0.11937403E+03</rscale>
<asrwt>0</asrwt>
<pdfrwt beam="1">  1        1 0.25379211E-01 0.13007327E+03</pdfrwt>
<pdfrwt beam="2">  1       -1 0.13865102E-01 0.13007327E+03</pdfrwt>
<totfact> 0.64787244E+03</totfact>
</mgrwt>
</event>
<event>
 7    1  0.6419647E-006  0.1368338E+03  0.7546771E-02  0.1229178E+00
         -1   -1    0    0    0  501 -0.00000000000E+00  0.00000000000E+00  0.30677047194E+02  0.30677047194E+02  0.00000000000E+00 0.  1.
          1   -1    0    0  501    0  0.00000000000E+00 -0.00000000000E+00 -0.82084136204E+03  0.82084136204E+03  0.00000000000E+00 0. -1.
         23    2    1    2    0    0 -0.47493548075E+02  0.29032780494E+02 -0.69357547415E+03  0.70694443936E+03  0.12499985022E+03 0.  0.
          5    1    3    3  502    0  0.18353790579E+02  0.60350387468E+02 -0.35250280724E+03  0.35813314564E+03  0.47000000000E+01 0.  1.
         -5    1    3    3    0  502 -0.65847338654E+02 -0.31317606974E+02 -0.34107266691E+03  0.34881129372E+03  0.47000000000E+01 0.  1.
        -11    1    1    2    0    0  0.48584230363E+00  0.21067028387E+02  0.52614995116E+01  0.21719555817E+02  0.00000000000E+00 0.  1.
         11    1    1    2    0    0  0.47007705772E+02 -0.50099808880E+02 -0.10185034020E+03  0.12285441405E+03  0.00000000000E+00 0. -1.
<mgrwt>
<rscale>  0 0.12884640E+03</rscale>
<asrwt>0</asrwt>
<pdfrwt beam="2">  1        1 0.12628327E+00 0.13683385E+03</pdfrwt>
<pdfrwt beam="1">  1       -1 0.47195463E-02 0.13683385E+03</pdfrwt>
<totfact> 0.41461538E+03</totfact>
</mgrwt>
</event>
<event>
 7    1  0.8508923E-006  0.2462843E+03  0.7546771E-02  0.1117849E+00
          2   -1    0    0  501    0  0.00000000000E+00  0.00000000000E+00  0.18538247550E+04  0.18538247550E+04  0.00000000000E+00 0. -1.
         -2   -1    0    0    0  501 -0.00000000000E+00 -0.00000000000E+00 -0.31067905581E+02  0.31067905581E+02  0.00000000000E+00 0.  1.
         23    2    1    2    0    0 -0.20105194991E+03 -0.67895471059E+02  0.97963755657E+03  0.10101216368E+04  0.12499718920E+03 0.  0.
          5    1    3    3  502    0 -0.16907661998E+02 -0.33854513478E+01  0.89145846199E+01  0.19972234077E+02  0.47000000000E+01 0.  1.
         -5    1    3    3    0  502 -0.18414428791E+03 -0.64510019711E+02  0.97072297195E+03  0.99014940271E+03  0.47000000000E+01 0.  1.
        -11    1    1    2    0    0  0.96963744292E+02  0.83456682163E+02  0.46520936227E+03  0.48247977808E+03  0.00000000000E+00 0.  1.
         11    1    1    2    0    0  0.10408820562E+03 -0.15561211104E+02  0.37790993061E+03  0.39229124575E+03  0.00000000000E+00 0. -1.
<mgrwt>
<rscale>  0 0.24294151E+03</rscale>
<asrwt>0</asrwt>
<pdfrwt beam="1">  1        2 0.28520372E+00 0.24628435E+03</pdfrwt>
<pdfrwt beam="2">  1       -2 0.47796792E-02 0.24628435E+03</pdfrwt>
<totfact> 0.18622162E+03</totfact>
</mgrwt>
</event>
<event>
 7    1  0.6419647E-006  0.2753922E+03  0.7546771E-02  0.1099945E+00
          2   -1    0    0  501    0  0.00000000000E+00  0.00000000000E+00  0.77271370320E+03  0.77271370320E+03  0.00000000000E+00 0. -1.
         -2   -1    0    0    0  501 -0.00000000000E+00 -0.00000000000E+00 -0.36485684831E+03  0.36485684831E+03  0.00000000000E+00 0.  1.
         23    2    1    2    0    0  0.24211390837E+03  0.39963895900E+02  0.69520267126E+03  0.74776172122E+03  0.12499832000E+03 0.  0.
          5    1    3    3  502    0 -0.86905585695E+00 -0.23597432555E+02  0.67087458151E+02  0.71277002760E+02  0.47000000000E+01 0.  1.
         -5    1    3    3    0  502  0.24298296422E+03  0.63561328455E+02  0.62811521310E+03  0.67648471846E+03  0.47000000000E+01 0.  1.
        -11    1    1    2    0    0 -0.21540227492E+03 -0.59107830626E+02 -0.27595929569E+03  0.35502874329E+03  0.00000000000E+00 0.  1.
         11    1    1    2    0    0 -0.26711633445E+02  0.19143934726E+02 -0.11386520673E+02  0.34780086991E+02  0.00000000000E+00 0. -1.
<mgrwt>
<rscale>  0 0.27234571E+03</rscale>
<asrwt>0</asrwt>
<pdfrwt beam="1">  1        2 0.11887903E+00 0.27539215E+03</pdfrwt>
<pdfrwt beam="2">  1       -2 0.56131823E-01 0.27539215E+03</pdfrwt>
<totfact> 0.11387131E+02</totfact>
</mgrwt>
</event>
<event>
 6    1  0.6419647E-006  0.2796452E+03  0.7546771E-02  0.1136013E+00
          2   -1    0    0  501    0  0.00000000000E+00  0.00000000000E+00  0.81214705946E+03  0.81214705946E+03  0.00000000000E+00 0. -1.
         -2   -1    0    0    0  501 -0.00000000000E+00 -0.00000000000E+00 -0.85925311085E+02  0.85925311085E+02  0.00000000000E+00 0.  1.
          5    1    1    2  502    0  0.52303369332E+02 -0.58488126519E+02  0.66245039385E+03  0.66709753237E+03  0.47000000000E+01 0. -1.
         -5    1    1    2    0  502 -0.92247947726E+02  0.33630538427E+02  0.81553767334E+02  0.12772550231E+03  0.47000000000E+01 0.  1.
        -11    1    1    2    0    0  0.39770314241E+02 -0.43359015690E+01 -0.47153114057E+02  0.61837643087E+02  0.00000000000E+00 0.  1.
         11    1    1    2    0    0  0.17426415186E+00  0.29193489661E+02  0.29370701252E+02  0.41411692776E+02  0.00000000000E+00 0. -1.
<mgrwt>
<rscale>  0 0.21716646E+03</rscale>
<asrwt>0</asrwt>
<pdfrwt beam="1">  1        2 0.12494570E+00 0.27964525E+03</pdfrwt>
<pdfrwt beam="2">  1       -2 0.13219279E-01 0.27964525E+03</pdfrwt>
<totfact> 0.14686531E+03</totfact>
</mgrwt>
</event>
<event>
 7    1  0.6419647E-006  0.1755109E+03  0.7546771E-02  0.1178365E+00
         -2   -1    0    0    0  501 -0.00000000000E+00  0.00000000000E+00  0.15991468426E+02  0.15991468426E+02  0.00000000000E+00 0. -1.
          2   -1    0    0  501    0  0.00000000000E+00 -0.00000000000E+00 -0.16882841662E+04  0.16882841662E+04  0.00000000000E+00 0.  1.
         23    2    1    2    0    0  0.10258868257E+03 -0.68222553140E+02 -0.85124325569E+03  0.86914851757E+03  0.12500124276E+03 0.  0.
          5    1    3    3  502    0  0.23074462229E+02 -0.76916245463E+02 -0.25084132562E+03  0.26342361371E+03  0.47000000000E+01 0. -1.
         -5    1    3    3    0  502  0.79514220343E+02  0.86936923239E+01 -0.60040193007E+03  0.60572490386E+03  0.47000000000E+01 0. -1.
        -11    1    1    2    0    0 -0.52235514894E+02  0.84872039660E+02 -0.53600516924E+03  0.54519111656E+03  0.00000000000E+00 0.  1.
         11    1    1    2    0    0 -0.50353167678E+02 -0.16649486520E+02 -0.28504427290E+03  0.28993600054E+03  0.00000000000E+00 0. -1.
<mgrwt>
<rscale>  0 0.16950508E+03</rscale>
<asrwt>0</asrwt>
<pdfrwt beam="2">  1        2 0.25973589E+00 0.17551087E+03</pdfrwt>
<pdfrwt beam="1">  1       -2 0.24602272E-02 0.17551087E+03</pdfrwt>
<totfact> 0.61158126E+03</totfact>
</mgrwt>
</event>
<event>
 6    1  0.6419647E-006  0.1588243E+03  0.7546771E-02  0.1212707E+00
          2   -1    0    0  501    0  0.00000000000E+00  0.00000000000E+00  0.88754363896E+03  0.88754363896E+03  0.00000000000E+00 0. -1.
         -2   -1    0    0    0  501 -0.00000000000E+00 -0.00000000000E+00 -0.65301057112E+02  0.65301057112E+02  0.00000000000E+00 0.  1.
          5    1    1    2  502    0 -0.20375619023E+02  0.36543020610E+02  0.78384800560E+03  0.78497792586E+03  0.47000000000E+01 0. -1.
         -5    1    1    2    0  502 -0.95694838171E+00 -0.41147824639E+02  0.55452948515E+02  0.69218340935E+02  0.47000000000E+01 0.  1.
        -11    1    1    2    0    0  0.43124435826E+02 -0.12063855258E+02 -0.42129347388E+02  0.61482806380E+02  0.00000000000E+00 0.  1.
         11    1    1    2    0    0 -0.21791868421E+02  0.16668659286E+02  0.25070975118E+02  0.37165622893E+02  0.00000000000E+00 0. -1.
<mgrwt>
<rscale>  0 0.14046312E+03</rscale>
<asrwt>0</asrwt>
<pdfrwt beam="1">  1        2 0.13654517E+00 0.15882434E+03</pdfrwt>
<pdfrwt beam="2">  1       -2 0.10046317E-01 0.15882434E+03</pdfrwt>
<totfact> 0.20241432E+03</totfact>
</mgrwt>
</event>
<event>
 7    1  0.6419647E-006  0.1779688E+03  0.7546771E-02  0.1175639E+00
          1   -1    0    0  501    0  0.00000000000E+00  0.00000000000E+00  0.11149963741E+03  0.11149963741E+03  0.00000000000E+00 0. -1.
         -1   -1    0    0    0  501 -0.00000000000E+00 -0.00000000000E+00 -0.27511435431E+03  0.27511435431E+03  0.00000000000E+00 0.  1.
         23    2    1    2    0    0  0.51272711350E+02 -0.11584381658E+03 -0.28132886667E+02  0.18017869965E+03  0.12499689487E+03 0.  0.
          5    1    3    3  502    0 -0.13870938632E+02 -0.26952530833E+02  0.40090516826E+02  0.50479514620E+02  0.47000000000E+01 0. -1.
         -5    1    3    3    0  502  0.65143649982E+02 -0.88891285745E+02 -0.68223403493E+02  0.12969918503E+03  0.47000000000E+01 0. -1.
        -11    1    1    2    0    0 -0.30733333539E+02  0.45253100796E+02 -0.11917565143E+03  0.13113053350E+03  0.00000000000E+00 0.  1.
         11    1    1    2    0    0 -0.20539377811E+02  0.70590715783E+02 -0.16306178811E+02  0.75304758568E+02  0.00000000000E+00 0. -1.
<mgrwt>
<rscale>  0 0.17213523E+03</rscale>
<asrwt>0</asrwt>
<pdfrwt beam="1">  1        1 0.17153790E-01 0.17796883E+03</pdfrwt>
<pdfrwt beam="2">  1       -1 0.42325285E-01 0.17796883E+03</pdfrwt>
<totfact> 0.17167632E+03</totfact>
</mgrwt>
</event>
<event>
 7    1  0.6419647E-006  0.1598293E+03  0.7546771E-02  0.1196524E+00
         -2   -1    0    0    0  501 -0.00000000000E+00  0.00000000000E+00  0.61022307201E+02  0.61022307201E+02  0.00000000000E+00 0. -1.
          2   -1    0    0  501    0  0.00000000000E+00 -0.00000000000E+00 -0.35758637961E+03  0.35758637961E+03  0.00000000000E+00 0.  1.
         23    2    1    2    0    0  0.96903302186E+02  0.23194415702E+02 -0.17255842654E+03  0.23520591520E+03  0.12496872041E+03 0.  0.
          5    1    3    3  502    0 -0.12468542082E+02 -0.31384584193E+02 -0.59813610148E+02  0.68849216593E+02  0.47000000000E+01 0.  1.
         -5    1    3    3    0  502  0.10937184427E+03  0.54578999895E+02 -0.11274481639E+03  0.16635669861E+03  0.47000000000E+01 0.  1.
        -11    1    1    2    0    0 -0.54489819271E+02 -0.10213244018E+02 -0.12737778852E+03  0.13891922749E+03  0.00000000000E+00 0.  1.
         11    1    1    2    0    0 -0.42413482915E+02 -0.12981171684E+02  0.33721426544E+01  0.44483544119E+02  0.00000000000E+00 0. -1.
<mgrwt>
<rscale>  0 0.15325953E+03</rscale>
<asrwt>0</asrwt>
<pdfrwt beam="2">  1        2 0.55013289E-01 0.15982932E+03</pdfrwt>
<pdfrwt beam="1">  1       -2 0.93880472E-02 0.15982932E+03</pdfrwt>
<totfact> 0.63977452E+03</totfact>
</mgrwt>
</event>
<event>
 7    1  0.6419647E-006  0.1568230E+03  0.7546771E-02  0.1193022E+00
         -2   -1    0    0    0  501 -0.00000000000E+00  0.00000000000E+00  0.41495500994E+03  0.41495500994E+03  0.00000000000E+00 0. -1.
          2   -1    0    0  501    0  0.00000000000E+00 -0.00000000000E+00 -0.67370147044E+02  0.67370147044E+02  0.00000000000E+00 0.  1.
         23    2    1    2    0    0  0.69442791551E+02 -0.64390520315E+02  0.86828593042E+02  0.17925588168E+03  0.12500010456E+03 0.  0.
          5    1    3    3  502    0  0.10577717148E+03 -0.52152990050E+02  0.68940624671E+02  0.13668812716E+03  0.47000000000E+01 0. -1.
         -5    1    3    3    0  502 -0.36334379928E+02 -0.12237530265E+02  0.17887968372E+02  0.42567754512E+02  0.47000000000E+01 0. -1.
        -11    1    1    2    0    0 -0.10302457005E+03  0.52750556858E+02  0.22279653391E+03  0.25106767774E+03  0.00000000000E+00 0.  1.
         11    1    1    2    0    0  0.33581778503E+02  0.11639963457E+02  0.37959735940E+02  0.52001597566E+02  0.00000000000E+00 0. -1.
<mgrwt>
<rscale>  0 0.15622831E+03</rscale>
<asrwt>0</asrwt>
<pdfrwt beam="2">  1        2 0.10364638E-01 0.15682304E+03</pdfrwt>
<pdfrwt beam="1">  1       -2 0.63839231E-01 0.15682304E+03</pdfrwt>
<totfact> 0.13913823E+03</totfact>
</mgrwt>
</event>
<event>
 6    1  0.6419647E-006  0.1830310E+03  0.7546771E-02  0.1184017E+00
          1   -1    0    0  501    0  0.00000000000E+00  0.00000000000E+00  0.18218807331E+04  0.18218807331E+04  0.00000000000E+00 0. -1.
         -1   -1    0    0    0  501 -0.00000000000E+00 -0.00000000000E+00 -0.63235415630E+02  0.63235415630E+02  0.00000000000E+00 0.  1.
          5    1    1    2  502    0  0.20504448423E+02 -0.32115766066E+02  0.11361644717E+04  0.11368129360E+04  0.47000000000E+01 0. -1.
         -5    1    1    2    0  502  0.22565832872E+01  0.10512601284E+03  0.62083131986E+03  0.62969054977E+03  0.47000000000E+01 0.  1.
        -11    1    1    2    0    0  0.28416137316E+02 -0.18820822908E+02  0.22953321620E+02  0.41092033392E+02  0.00000000000E+00 0. -1.
         11    1    1    2    0    0 -0.51177169026E+02 -0.54189423870E+02 -0.21303795709E+02  0.77520629516E+02  0.00000000000E+00 0.  1.
<mgrwt>
<rscale>  0 0.16421612E+03</rscale>
<asrwt>0</asrwt>
<pdfrwt beam="1">  1        1 0.28028930E+00 0.18303102E+03</pdfrwt>
<pdfrwt beam="2">  1       -1 0.97285269E-02 0.18303102E+03</pdfrwt>
<totfact> 0.28643165E+02</totfact>
</mgrwt>
</event>
<event>
 7    1  0.6419647E-006  0.1301346E+03  0.7546771E-02  0.1241161E+00
          1   -1    0    0  501    0  0.00000000000E+00  0.00000000000E+00  0.97255307760E+02  0.97255307760E+02  0.00000000000E+00 0. -1.
         -1   -1    0    0    0  501 -0.00000000000E+00 -0.00000000000E+00 -0.13392573753E+03  0.13392573753E+03  0.00000000000E+00 0.  1.
         23    2    1    2    0    0 -0.53939428133E+01 -0.35773197829E+02 -0.15365525780E+02  0.13103856529E+03  0.12500475954E+03 0.  0.
          5    1    3    3  502    0  0.37379778760E+02 -0.63732266313E+02 -0.26304809679E+02  0.78568967423E+02  0.47000000000E+01 0.  1.
         -5    1    3    3    0  502 -0.42773721574E+02  0.27959068484E+02  0.10939283899E+02  0.52469597864E+02  0.47000000000E+01 0.  1.
        -11    1    1    2    0    0 -0.11654651177E+02 -0.23573632914E+02 -0.27543101526E+02  0.38081091167E+02  0.00000000000E+00 0.  1.
         11    1    1    2    0    0  0.17048593991E+02  0.59346830743E+02  0.62381975330E+01  0.62061388840E+02  0.00000000000E+00 0. -1.
<mgrwt>
<rscale>  0 0.12118104E+03</rscale>
<asrwt>0</asrwt>
<pdfrwt beam="1">  1        1 0.14962355E-01 0.13013457E+03</pdfrwt>
<pdfrwt beam="2">  1       -1 0.20603960E-01 0.13013457E+03</pdfrwt>
<totfact> 0.67835211E+03</totfact>
</mgrwt>
</event>
<event>
 7    1  0.6419647E-006  0.1305416E+03  0.7546771E-02  0.1241453E+00
          2   -1    0    0  501    0  0.00000000000E+00  0.00000000000E+00  0.18152060992E+03  0.18152060992E+03  0.00000000000E+00 0. -1.
         -2   -1    0    0    0  501 -0.00000000000E+00 -0.00000000000E+00 -0.73256603922E+02  0.73256603922E+02  0.00000000000E+00 0.  1.
         23    2    1    2    0    0  0.37626460803E+02  0.15973964578E+01  0.84570440474E+02  0.15554182693E+03  0.12499119287E+03 0.  0.
          5    1    3    3  502    0  0.14653799307E+02  0.71270699947E+01  0.11527388916E+03  0.11651475650E+03  0.47000000000E+01 0. -1.
         -5    1    3    3    0  502  0.22972661496E+02 -0.55296735369E+01 -0.30703448683E+02  0.39027070434E+02  0.47000000000E+01 0. -1.
        -11    1    1    2    0    0 -0.53396570266E+02  0.29554666098E+02  0.19491899488E+02  0.64067200267E+02  0.00000000000E+00 0.  1.
         11    1    1    2    0    0  0.15770109463E+02 -0.31152062556E+02  0.42016660306E+01  0.35168186637E+02  0.00000000000E+00 0. -1.
<mgrwt>
<rscale>  0 0.12100180E+03</rscale>
<asrwt>0</asrwt>
<pdfrwt beam="1">  1        2 0.27926248E-01 0.13054157E+03</pdfrwt>
<pdfrwt beam="2">  1       -2 0.11270247E-01 0.13054157E+03</pdfrwt>
<totfact> 0.97725270E+03</totfact>
</mgrwt>
</event>
<event>
 7    1  0.6419647E-006  0.2048911E+03  0.7546771E-02  0.1149727E+00
          2   -1    0    0  501    0  0.00000000000E+00  0.00000000000E+00  0.13298690565E+04  0.13298690565E+04  0.00000000000E+00 0. -1.
         -2   -1    0    0    0  501 -0.00000000000E+00 -0.00000000000E+00 -0.48010306154E+02  0.48010306154E+02  0.00000000000E+00 0.  1.
         23    2    1    2    0    0 -0.19170578094E+02  0.16120335659E+03  0.10956367366E+04  0.11146300766E+04  0.12500526366E+03 0.  0.
          5    1    3    3  502    0  0.50899874854E+02  0.56946851796E+02  0.50499710656E+03  0.51076208632E+03  0.47000000000E+01 0.  1.
         -5    1    3    3    0  502 -0.70070452948E+02  0.10425650480E+03  0.59063963000E+03  0.60386799029E+03  0.47000000000E+01 0.  1.
        -11    1    1    2    0    0  0.20512770164E+02 -0.61492802613E+02  0.17305201642E+02  0.67094027431E+02  0.00000000000E+00 0.  1.
         11    1    1    2    0    0 -0.13421920705E+01 -0.99710553978E+02  0.16891681210E+03  0.19615525857E+03  0.00000000000E+00 0. -1.
<mgrwt>
<rscale>  0 0.20001408E+03</rscale>
<asrwt>0</asrwt>
<pdfrwt beam="1">  1        2 0.20459521E+00 0.20489107E+03</pdfrwt>
<pdfrwt beam="2">  1       -2 0.73862019E-02 0.20489107E+03</pdfrwt>
<totfact> 0.18120757E+03</totfact>
</mgrwt>
</event>
<event>
 7    1  0.6419647E-006  0.1333659E+03  0.7546771E-02  0.1233747E+00
         -1   -1    0    0    0  501 -0.00000000000E+00  0.00000000000E+00  0.83593470966E+02  0.83593470966E+02  0.00000000000E+00 0.  1.
          1   -1    0    0  501    0  0.00000000000E+00 -0.00000000000E+00 -0.17449173738E+03  0.17449173738E+03  0.00000000000E+00 0. -1.
         23    2    1    2    0    0  0.42969103288E+02  0.17780102051E+02 -0.68742205459E+02  0.15003981721E+03  0.12499592021E+03 0.  0.
          5    1    3    3  502    0  0.70006268976E+02  0.39080330841E+02 -0.88467082783E+01  0.80799159661E+02  0.47000000000E+01 0. -1.
         -5    1    3    3    0  502 -0.27037165687E+02 -0.21300228789E+02 -0.59895497181E+02  0.69240657546E+02  0.47000000000E+01 0. -1.
        -11    1    1    2    0    0 -0.69550295237E+02 -0.10834980639E+02  0.34712457344E+01  0.70474746682E+02  0.00000000000E+00 0.  1.
         11    1    1    2    0    0  0.26581191948E+02 -0.69451214122E+01 -0.25627306692E+02  0.37570644459E+02  0.00000000000E+00 0. -1.
<mgrwt>
<rscale>  0 0.12584991E+03</rscale>
<asrwt>0</asrwt>
<pdfrwt beam="2">  1        1 0.26844883E-01 0.13336587E+03</pdfrwt>
<pdfrwt beam="1">  1       -1 0.12860534E-01 0.13336587E+03</pdfrwt>
<totfact> 0.67992468E+03</totfact>
</mgrwt>
</event>
<event>
 7    1  0.6419647E-006  0.1566930E+03  0.7546771E-02  0.1200313E+00
         -1   -1    0    0    0  501 -0.00000000000E+00  0.00000000000E+00  0.29471417479E+02  0.29471417479E+02  0.00000000000E+00 0.  1.
          1   -1    0    0  501    0  0.00000000000E+00 -0.00000000000E+00 -0.85749879710E+03  0.85749879710E+03  0.00000000000E+00 0. -1.
         23    2    1    2    0    0 -0.65910033104E+02 -0.76979508621E+02 -0.62826813412E+03  0.64751334785E+03  0.11951029275E+03 0.  0.
          5    1    3    3  502    0 -0.72276214970E+02 -0.10468872212E+03 -0.53239295145E+03  0.54740106370E+03  0.47000000000E+01 0. -1.
         -5    1    3    3    0  502  0.63661818663E+01  0.27709213495E+02 -0.95875182669E+02  0.10011228414E+03  0.47000000000E+01 0.  1.
        -11    1    1    2    0    0  0.64078529209E+02  0.15374605275E+02 -0.71968786151E+02  0.97580441549E+02  0.00000000000E+00 0.  1.
         11    1    1    2    0    0  0.18315038953E+01  0.61604903346E+02 -0.12779045935E+03  0.14187642519E+03  0.00000000000E+00 0. -1.
<mgrwt>
<rscale>  0 0.15013000E+03</rscale>
<asrwt>0</asrwt>
<pdfrwt beam="2">  1        1 0.13192290E+00 0.15669297E+03</pdfrwt>
<pdfrwt beam="1">  1       -1 0.45340641E-02 0.15669297E+03</pdfrwt>
<totfact> 0.41330656E+03</totfact>
</mgrwt>
</event>
<event>
 6    1  0.6419647E-006  0.1591406E+03  0.7546771E-02  0.1210040E+00
         -1   -1    0    0    0  501 -0.00000000000E+00  0.00000000000E+00  0.34204129918E+02  0.34204129918E+02  0.00000000000E+00 0.  1.
          1   -1    0    0  501    0  0.00000000000E+00 -0.00000000000E+00 -0.90729464807E+03  0.90729464807E+03  0.00000000000E+00 0. -1.
          5    1    1    2  502    0 -0.75182762967E+01  0.98783215139E+02 -0.62705904523E+03  0.63485414410E+03  0.47000000000E+01 0. -1.
         -5    1    1    2    0  502  0.30101363704E+01 -0.52533753809E+02 -0.17331944043E+03  0.18119209321E+03  0.47000000000E+01 0.  1.
        -11    1    1    2    0    0 -0.31873680858E+02 -0.77885313181E+01 -0.63831260142E+02  0.71770624373E+02  0.00000000000E+00 0. -1.
         11    1    1    2    0    0  0.36381820785E+02 -0.38460930012E+02 -0.88807723484E+01  0.53681916308E+02  0.00000000000E+00 0.  1.
<mgrwt>
<rscale>  0 0.14247285E+03</rscale>
<asrwt>0</asrwt>
<pdfrwt beam="2">  1        1 0.13958379E+00 0.15914063E+03</pdfrwt>
<pdfrwt beam="1">  1       -1 0.52621741E-02 0.15914063E+03</pdfrwt>
<totfact> 0.30313462E+03</totfact>
</mgrwt>
</event>
<event>
 7    1  0.6419647E-006  0.1273205E+03  0.7546771E-02  0.1246072E+00
          1   -1    0    0  501    0  0.00000000000E+00  0.00000000000E+00  0.14120927126E+03  0.14120927126E+03  0.00000000000E+00 0. -1.
         -1   -1    0    0    0  501 -0.00000000000E+00 -0.00000000000E+00 -0.12693926632E+03  0.12693926632E+03  0.00000000000E+00 0.  1.
         23    2    1    2    0    0 -0.52934232543E+00  0.24192562024E+02  0.82305782311E+02  0.15160720120E+03  0.12499976558E+03 0.  0.
          5    1    3    3  502    0  0.21402222276E+02 -0.32793973954E+02  0.81294656355E+02  0.90357130310E+02  0.47000000000E+01 0.  1.
         -5    1    3    3    0  502 -0.21931564602E+02  0.56986535978E+02  0.10111259559E+01  0.61250070892E+02  0.47000000000E+01 0.  1.
        -11    1    1    2    0    0 -0.44906596614E+02 -0.12732271890E+02 -0.25155121712E+02  0.53023516624E+02  0.00000000000E+00 0. -1.
         11    1    1    2    0    0  0.45435938939E+02 -0.11460290134E+02 -0.42880655651E+02  0.63517819754E+02  0.00000000000E+00 0.  1.
<mgrwt>
<rscale>  0 0.11821425E+03</rscale>
<asrwt>0</asrwt>
<pdfrwt beam="1">  1        1 0.21724503E-01 0.12732047E+03</pdfrwt>
<pdfrwt beam="2">  1       -1 0.19529118E-01 0.12732047E+03</pdfrwt>
<totfact> 0.45838336E+03</totfact>
</mgrwt>
</event>
<event>
 7    1  0.6419647E-006  0.1505403E+03  0.7546771E-02  0.1207850E+00
          2   -1    0    0  501    0  0.00000000000E+00  0.00000000000E+00  0.32986185271E+03  0.32986185271E+03  0.00000000000E+00 0. -1.
         -2   -1    0    0    0  501 -0.00000000000E+00 -0.00000000000E+00 -0.61485805049E+02  0.61485805049E+02  0.00000000000E+00 0.  1.
         23    2    1    2    0    0 -0.83607221179E+02  0.68061476014E+01  0.19027397616E+03  0.24262432644E+03  0.12500354673E+03 0.  0.
          5    1    3    3  502    0  0.31012183785E+02  0.13704171498E+02  0.30736416124E+02  0.46004099119E+02  0.47000000000E+01 0. -1.
         -5    1    3    3    0  502 -0.11461940496E+03 -0.68980238963E+01  0.15953756004E+03  0.19662022732E+03  0.47000000000E+01 0. -1.
        -11    1    1    2    0    0  0.36366939710E+02  0.38525349203E+01 -0.18260720231E+02  0.40876034942E+02  0.00000000000E+00 0.  1.
         11    1    1    2    0    0  0.47240281469E+02 -0.10658682522E+02  0.96362791723E+02  0.10784729637E+03  0.00000000000E+00 0. -1.
<mgrwt>
<rscale>  0 0.14415110E+03</rscale>
<asrwt>0</asrwt>
<pdfrwt beam="1">  1        2 0.50747976E-01 0.15054029E+03</pdfrwt>
<pdfrwt beam="2">  1       -2 0.94593548E-02 0.15054029E+03</pdfrwt>
<totfact> 0.68654202E+03</totfact>
</mgrwt>
</event>
<event>
 7    1  0.6419647E-006  0.1301549E+03  0.7546771E-02  0.1241182E+00
          3   -1    0    0  501    0  0.00000000000E+00  0.00000000000E+00  0.10063473021E+03  0.10063473021E+03  0.00000000000E+00 0. -1.
         -3   -1    0    0    0  501 -0.00000000000E+00 -0.00000000000E+00 -0.15246370601E+03  0.15246370601E+03  0.00000000000E+00 0.  1.
         23    2    1    2    0    0 -0.36166566547E+02 -0.26024898483E+01  0.20136802039E+02  0.13170344280E+03  0.12500205022E+03 0.  0.
          5    1    3    3  502    0  0.68147236982E+00  0.52089483815E+02  0.36268614362E+02  0.63649674912E+02  0.47000000000E+01 0. -1.
         -5    1    3    3    0  502 -0.36848038916E+02 -0.54691973663E+02 -0.16131812323E+02  0.68053767890E+02  0.47000000000E+01 0. -1.
        -11    1    1    2    0    0  0.61229749454E+01 -0.10556564608E+02  0.20181527125E+02  0.23584442236E+02  0.00000000000E+00 0. -1.
         11    1    1    2    0    0  0.30043591601E+02  0.13159054457E+02 -0.92147304960E+02  0.97810551179E+02  0.00000000000E+00 0.  1.
<mgrwt>
<rscale>  0 0.12116843E+03</rscale>
<asrwt>0</asrwt>
<pdfrwt beam="1">  1        3 0.15482266E-01 0.13015493E+03</pdfrwt>
<pdfrwt beam="2">  1       -3 0.23455955E-01 0.13015493E+03</pdfrwt>
<totfact> 0.13538572E+03</totfact>
</mgrwt>
</event>
<event>
 7    1  0.6419647E-006  0.1285092E+03  0.7546771E-02  0.1243268E+00
         -2   -1    0    0    0  501 -0.00000000000E+00  0.00000000000E+00  0.55709727256E+02  0.55709727256E+02  0.00000000000E+00 0.  1.
          2   -1    0    0  501    0  0.00000000000E+00 -0.00000000000E+00 -0.22895927149E+03  0.22895927149E+03  0.00000000000E+00 0. -1.
         23    2    1    2    0    0  0.15021822283E+02  0.26038837430E+02 -0.98744761874E+02  0.16206525920E+03  0.12494376351E+03 0.  0.
          5    1    3    3  502    0 -0.14527142603E+02  0.71929365491E+02 -0.52158966291E+02  0.90152755125E+02  0.47000000000E+01 0.  1.
         -5    1    3    3    0  502  0.29548964886E+02 -0.45890528061E+02 -0.46585795583E+02  0.71912504070E+02  0.47000000000E+01 0.  1.
        -11    1    1    2    0    0 -0.23315341685E+02  0.20223307269E+02 -0.68614334981E+02  0.75236389332E+02  0.00000000000E+00 0. -1.
         11    1    1    2    0    0  0.82935194015E+01 -0.46262144699E+02 -0.58904473748E+01  0.47367350216E+02  0.00000000000E+00 0.  1.
<mgrwt>
<rscale>  0 0.11989632E+03</rscale>
<asrwt>0</asrwt>
<pdfrwt beam="2">  1        2 0.35224504E-01 0.12850922E+03</pdfrwt>
<pdfrwt beam="1">  1       -2 0.85707271E-02 0.12850922E+03</pdfrwt>
<totfact> 0.11672004E+04</totfact>
</mgrwt>
</event>
<event>
 7    1  0.6419647E-006  0.1280168E+03  0.7546771E-02  0.1244156E+00
          3   -1    0    0  501    0  0.00000000000E+00  0.00000000000E+00  0.13646423237E+04  0.13646423237E+04  0.00000000000E+00 0. -1.
         -3   -1    0    0    0  501 -0.00000000000E+00 -0.00000000000E+00 -0.98751983837E+01  0.98751983837E+01  0.00000000000E+00 0.  1.
         23    2    1    2    0    0 -0.26369671509E+02  0.73279162136E+01  0.93636571224E+03  0.94507621946E+03  0.12505700938E+03 0.  0.
          5    1    3    3  502    0  0.17941995291E+02  0.48514068567E+02  0.21588876194E+03  0.22204859282E+03  0.47000000000E+01 0.  1.
         -5    1    3    3    0  502 -0.44311666800E+02 -0.41186152354E+02  0.72047695031E+03  0.72302762664E+03  0.47000000000E+01 0.  1.
        -11    1    1    2    0    0  0.46636776935E+02  0.28653605816E+02  0.21224423072E+03  0.21918857535E+03  0.00000000000E+00 0.  1.
         11    1    1    2    0    0 -0.20267105426E+02 -0.35981522030E+02  0.20615718231E+03  0.21025272723E+03  0.00000000000E+00 0. -1.
<mgrwt>
<rscale>  0 0.11936042E+03</rscale>
<asrwt>0</asrwt>
<pdfrwt beam="1">  1        3 0.20994482E+00 0.12801685E+03</pdfrwt>
<pdfrwt beam="2">  1       -3 0.15192624E-02 0.12801685E+03</pdfrwt>
<totfact> 0.47282867E+02</totfact>
</mgrwt>
</event>
<event>
 7    1  0.6419647E-006  0.1302527E+03  0.7546771E-02  0.1238852E+00
         -1   -1    0    0    0  501 -0.00000000000E+00  0.00000000000E+00  0.28632780921E+02  0.28632780921E+02  0.00000000000E+00 0.  1.
          1   -1    0    0  501    0  0.00000000000E+00 -0.00000000000E+00 -0.49149900973E+03  0.49149900973E+03  0.00000000000E+00 0. -1.
         23    2    1    2    0    0  0.10348730631E+02 -0.35190575329E+02 -0.30953203567E+03  0.33582117065E+03  0.12498121752E+03 0.  0.
          5    1    3    3  502    0  0.88220259858E+01 -0.40890704842E+02 -0.20732983708E+02  0.46923602786E+02  0.47000000000E+01 0. -1.
         -5    1    3    3    0  502  0.15267046451E+01  0.57001295130E+01 -0.28879905197E+03  0.28889756787E+03  0.47000000000E+01 0. -1.
        -11    1    1    2    0    0  0.23152729355E+02  0.28965562209E+02 -0.12072683505E+02  0.38997466042E+02  0.00000000000E+00 0.  1.
         11    1    1    2    0    0 -0.33501459986E+02  0.62250131202E+01 -0.14126150963E+03  0.14531315395E+03  0.00000000000E+00 0. -1.
<mgrwt>
<rscale>  0 0.12261020E+03</rscale>
<asrwt>0</asrwt>
<pdfrwt beam="2">  1        1 0.75615232E-01 0.13025274E+03</pdfrwt>
<pdfrwt beam="1">  1       -1 0.44050432E-02 0.13025274E+03</pdfrwt>
<totfact> 0.93489480E+03</totfact>
</mgrwt>
</event>
<event>
 7    1  0.6419647E-006  0.1470711E+03  0.7546771E-02  0.1212665E+00
          1   -1    0    0  501    0  0.00000000000E+00  0.00000000000E+00  0.11953288143E+04  0.11953288143E+04  0.00000000000E+00 0. -1.
         -1   -1    0    0    0  501 -0.00000000000E+00 -0.00000000000E+00 -0.17201353255E+02  0.17201353255E+02  0.00000000000E+00 0.  1.
         23    2    1    2    0    0  0.11532420583E+02 -0.76631701071E+02  0.84278183514E+03  0.85551804649E+03  0.12499796755E+03 0.  0.
          5    1    3    3  502    0  0.68446296059E+01  0.13942677934E+02  0.51864662826E+03  0.51890043576E+03  0.47000000000E+01 0. -1.
         -5    1    3    3    0  502  0.46877909767E+01 -0.90574379005E+02  0.32413520688E+03  0.33661761073E+03  0.47000000000E+01 0. -1.
        -11    1    1    2    0    0  0.23270174042E+02  0.74612108405E+02  0.28671758004E+03  0.29717913524E+03  0.00000000000E+00 0. -1.
         11    1    1    2    0    0 -0.34802594624E+02  0.20195926662E+01  0.48628045842E+02  0.59832985798E+02  0.00000000000E+00 0.  1.
<mgrwt>
<rscale>  0 0.14049485E+03</rscale>
<asrwt>0</asrwt>
<pdfrwt beam="1">  1        1 0.18389668E+00 0.14707109E+03</pdfrwt>
<pdfrwt beam="2">  1       -1 0.26463630E-02 0.14707109E+03</pdfrwt>
<totfact> 0.51432522E+03</totfact>
</mgrwt>
</event>
<event>
 7    1  0.6419647E-006  0.2899969E+03  0.7546771E-02  0.1092177E+00
         -1   -1    0    0    0  501 -0.00000000000E+00  0.00000000000E+00  0.22106243254E+03  0.22106243254E+03  0.00000000000E+00 0.  1.
          1   -1    0    0  501    0  0.00000000000E+00 -0.00000000000E+00 -0.43296637715E+03  0.43296637715E+03  0.00000000000E+00 0. -1.
         23    2    1    2    0    0 -0.18091022047E+03 -0.18906580639E+03 -0.23974561058E+03  0.37626609417E+03  0.12499531518E+03 0.  0.
          5    1    3    3  502    0 -0.17916958391E+03 -0.20532996595E+03 -0.22052018074E+03  0.35059003812E+03  0.47000000000E+01 0. -1.
         -5    1    3    3    0  502 -0.17406365576E+01  0.16264159561E+02 -0.19225429839E+02  0.25676056052E+02  0.47000000000E+01 0. -1.
        -11    1    1    2    0    0  0.40733611920E+02  0.95515780900E+02 -0.12176576942E+02  0.10455027770E+03  0.00000000000E+00 0.  1.
         11    1    1    2    0    0  0.14017660855E+03  0.93550025490E+02  0.40018242910E+02  0.17321243783E+03  0.00000000000E+00 0. -1.
<mgrwt>
<rscale>  0 0.28652686E+03</rscale>
<asrwt>0</asrwt>
<pdfrwt beam="2">  1        1 0.66610211E-01 0.28999692E+03</pdfrwt>
<pdfrwt beam="1">  1       -1 0.34009605E-01 0.28999692E+03</pdfrwt>
<totfact> 0.45159834E+02</totfact>
</mgrwt>
</event>
<event>
 7    1  0.6419647E-006  0.1269713E+03  0.7546771E-02  0.1246654E+00
          2   -1    0    0  501    0  0.00000000000E+00  0.00000000000E+00  0.16484295382E+04  0.16484295382E+04  0.00000000000E+00 0. -1.
         -2   -1    0    0    0  501 -0.00000000000E+00 -0.00000000000E+00 -0.82289976916E+01  0.82289976916E+01  0.00000000000E+00 0.  1.
         23    2    1    2    0    0 -0.13742833323E+02 -0.17627596450E+02  0.11857290449E+04  0.11925078937E+04  0.12498844329E+03 0.  0.
          5    1    3    3  502    0  0.38512583707E+02 -0.12810731054E+02  0.95358940542E+03  0.95446434091E+03  0.47000000000E+01 0.  1.
         -5    1    3    3    0  502 -0.52255417030E+02 -0.48168653956E+01  0.23213963949E+03  0.23804355278E+03  0.47000000000E+01 0.  1.
        -11    1    1    2    0    0  0.49702980235E+02 -0.63805741315E+01  0.27633215028E+03  0.28083902017E+03  0.00000000000E+00 0. -1.
         11    1    1    2    0    0 -0.35960146912E+02  0.24008170581E+02  0.17813934534E+03  0.18331162205E+03  0.00000000000E+00 0.  1.
<mgrwt>
<rscale>  0 0.11786935E+03</rscale>
<asrwt>0</asrwt>
<pdfrwt beam="1">  1        2 0.25360428E+00 0.12697129E+03</pdfrwt>
<pdfrwt beam="2">  1       -2 0.12660010E-02 0.12697129E+03</pdfrwt>
<totfact> 0.16615139E+04</totfact>
</mgrwt>
</event>
<event>
 7    1  0.6419647E-006  0.1288222E+03  0.7546771E-02  0.1242896E+00
          3   -1    0    0  501    0  0.00000000000E+00  0.00000000000E+00  0.10975963503E+03  0.10975963503E+03  0.00000000000E+00 0. -1.
         -3   -1    0    0    0  501 -0.00000000000E+00 -0.00000000000E+00 -0.28498484167E+03  0.28498484167E+03  0.00000000000E+00 0.  1.
         23    2    1    2    0    0  0.29419303522E+02 -0.92720488783E+01  0.58542852810E+02  0.14150065867E+03  0.12507479554E+03 0.  0.
          5    1    3    3  502    0  0.42751635193E+02 -0.50840103318E+02 -0.21081985934E+01  0.66625467491E+02  0.47000000000E+01 0. -1.
         -5    1    3    3    0  502 -0.13332331672E+02  0.41568054440E+02  0.60651051404E+02  0.74875191179E+02  0.47000000000E+01 0. -1.
        -11    1    1    2    0    0 -0.23880663572E+02  0.41493801114E+02 -0.61691270849E+02  0.78088632479E+02  0.00000000000E+00 0. -1.
         11    1    1    2    0    0 -0.55386399498E+01 -0.32221752235E+02 -0.17207678860E+03  0.17515518555E+03  0.00000000000E+00 0.  1.
<mgrwt>
<rscale>  0 0.12012195E+03</rscale>
<asrwt>0</asrwt>
<pdfrwt beam="1">  1        3 0.16886098E-01 0.12882224E+03</pdfrwt>
<pdfrwt beam="2">  1       -3 0.43843820E-01 0.12882224E+03</pdfrwt>
<totfact> 0.36223013E+02</totfact>
</mgrwt>
</event>
<event>
 7    1  0.6419647E-006  0.1299865E+03  0.7546771E-02  0.1241882E+00
         -2   -1    0    0    0  501 -0.00000000000E+00  0.00000000000E+00  0.16689983174E+02  0.16689983174E+02  0.00000000000E+00 0.  1.
          2   -1    0    0  501    0  0.00000000000E+00 -0.00000000000E+00 -0.96049417500E+03  0.96049417500E+03  0.00000000000E+00 0. -1.
         23    2    1    2    0    0 -0.15802601915E+02  0.31959648682E+02 -0.74297656540E+03  0.75426167338E+03  0.12500141530E+03 0.  0.
          5    1    3    3  502    0 -0.70354191829E+02  0.24047087306E+02 -0.40741713715E+03  0.41417241381E+03  0.47000000000E+01 0.  1.
         -5    1    3    3    0  502  0.54551589915E+02  0.79125613752E+01 -0.33555942825E+03  0.34008925958E+03  0.47000000000E+01 0.  1.
        -11    1    1    2    0    0  0.31375155940E+02  0.16558720852E+02 -0.13552530231E+03  0.14009175284E+03  0.00000000000E+00 0. -1.
         11    1    1    2    0    0 -0.15572554026E+02 -0.48518369534E+02 -0.65302324106E+02  0.82830731946E+02  0.00000000000E+00 0.  1.
<mgrwt>
<rscale>  0 0.12073936E+03</rscale>
<asrwt>0</asrwt>
<pdfrwt beam="2">  1        2 0.14776836E+00 0.12998652E+03</pdfrwt>
<pdfrwt beam="1">  1       -2 0.25676892E-02 0.12998652E+03</pdfrwt>
<totfact> 0.14176333E+04</totfact>
</mgrwt>
</event>
<event>
 7    1  0.6419647E-006  0.1768835E+03  0.7546771E-02  0.1176581E+00
         -2   -1    0    0    0  501 -0.00000000000E+00  0.00000000000E+00  0.53614511343E+02  0.53614511343E+02  0.00000000000E+00 0. -1.
          2   -1    0    0  501    0  0.00000000000E+00 -0.00000000000E+00 -0.64252364420E+03  0.64252364420E+03  0.00000000000E+00 0.  1.
         23    2    1    2    0    0  0.90832492692E+01  0.12483447973E+03 -0.46487342806E+03  0.49738826418E+03  0.12498651319E+03 0.  0.
          5    1    3    3  502    0 -0.88735458186E+01  0.14734434322E+03 -0.38526513132E+03  0.41260199552E+03  0.47000000000E+01 0. -1.
         -5    1    3    3    0  502  0.17956795088E+02 -0.22509863485E+02 -0.79608296738E+02  0.84786268661E+02  0.47000000000E+01 0. -1.
        -11    1    1    2    0    0 -0.25208417814E+02 -0.19543425549E+02 -0.74970942482E+02  0.81474241497E+02  0.00000000000E+00 0.  1.
         11    1    1    2    0    0  0.16125168544E+02 -0.10529105418E+03 -0.49064762320E+02  0.11727564987E+03  0.00000000000E+00 0. -1.
<mgrwt>
<rscale>  0 0.17122027E+03</rscale>
<asrwt>0</asrwt>
<pdfrwt beam="2">  1        2 0.98849789E-01 0.17688352E+03</pdfrwt>
<pdfrwt beam="1">  1       -2 0.82483866E-02 0.17688352E+03</pdfrwt>
<totfact> 0.41164397E+03</totfact>
</mgrwt>
</event>
<event>
 7    1  0.6419647E-006  0.1317184E+03  0.7546771E-02  0.1236597E+00
          2   -1    0    0  501    0  0.00000000000E+00  0.00000000000E+00  0.56063251921E+03  0.56063251921E+03  0.00000000000E+00 0. -1.
         -2   -1    0    0    0  501 -0.00000000000E+00 -0.00000000000E+00 -0.36517385281E+02  0.36517385281E+02  0.00000000000E+00 0.  1.
         23    2    1    2    0    0 -0.27831343081E+02  0.30827186974E+02  0.45242221541E+03  0.47120654527E+03  0.12499939276E+03 0.  0.
          5    1    3    3  502    0 -0.15752412105E+01  0.72317029400E+02  0.35124695614E+03  0.35864850247E+03  0.47000000000E+01 0. -1.
         -5    1    3    3    0  502 -0.26256101871E+02 -0.41489842426E+02  0.10117525927E+03  0.11255804280E+03  0.47000000000E+01 0. -1.
        -11    1    1    2    0    0  0.14817843884E+02  0.14770112268E+02 -0.15941207726E+02  0.26302981153E+02  0.00000000000E+00 0.  1.
         11    1    1    2    0    0  0.13013499197E+02 -0.45597299242E+02  0.87634126243E+02  0.99640378070E+02  0.00000000000E+00 0. -1.
<mgrwt>
<rscale>  0 0.12402770E+03</rscale>
<asrwt>0</asrwt>
<pdfrwt beam="1">  1        2 0.86251151E-01 0.13171844E+03</pdfrwt>
<pdfrwt beam="2">  1       -2 0.56180597E-02 0.13171844E+03</pdfrwt>
<totfact> 0.85395103E+03</totfact>
</mgrwt>
</event>
<event>
 7    1  0.6419647E-006  0.1303985E+03  0.7546771E-02  0.1240931E+00
         -2   -1    0    0    0  501 -0.00000000000E+00  0.00000000000E+00  0.64545611515E+02  0.64545611515E+02  0.00000000000E+00 0.  1.
          2   -1    0    0  501    0  0.00000000000E+00 -0.00000000000E+00 -0.21184217439E+03  0.21184217439E+03  0.00000000000E+00 0. -1.
         23    2    1    2    0    0 -0.36946580219E+02  0.36634742650E+01 -0.11386371986E+03  0.17311472952E+03  0.12500116817E+03 0.  0.
          5    1    3    3  502    0 -0.70947598238E+02 -0.12749624698E+02 -0.11412681778E+03  0.13506715056E+03  0.47000000000E+01 0. -1.
         -5    1    3    3    0  502  0.34001018019E+02  0.16413098963E+02  0.26309791933E+00  0.38047578956E+02  0.47000000000E+01 0. -1.
        -11    1    1    2    0    0  0.30430489683E+02 -0.38970196816E+02  0.61596082628E+01  0.49826014452E+02  0.00000000000E+00 0.  1.
         11    1    1    2    0    0  0.65160905359E+01  0.35306722551E+02 -0.39592451284E+02  0.53447041937E+02  0.00000000000E+00 0. -1.
<mgrwt>
<rscale>  0 0.12132240E+03</rscale>
<asrwt>0</asrwt>
<pdfrwt beam="2">  1        2 0.32591104E-01 0.13039848E+03</pdfrwt>
<pdfrwt beam="1">  1       -2 0.99300940E-02 0.13039848E+03</pdfrwt>
<totfact> 0.10095780E+04</totfact>
</mgrwt>
</event>
<event>
 7    1  0.6419647E-006  0.1258137E+03  0.7546771E-02  0.1248803E+00
         -1   -1    0    0    0  501 -0.00000000000E+00  0.00000000000E+00  0.49928289932E+02  0.49928289932E+02  0.00000000000E+00 0.  1.
          1   -1    0    0  501    0  0.00000000000E+00 -0.00000000000E+00 -0.26079180946E+03  0.26079180946E+03  0.00000000000E+00 0. -1.
         23    2    1    2    0    0  0.52725926868E+01  0.13377525782E+02 -0.16408051471E+03  0.20676433629E+03  0.12498926764E+03 0.  0.
          5    1    3    3  502    0 -0.34619052945E+02  0.13403654404E+02 -0.16229943022E+03  0.16655729293E+03  0.47000000000E+01 0. -1.
         -5    1    3    3    0  502  0.39891645631E+02 -0.26128622424E-01 -0.17810844894E+01  0.40207043361E+02  0.47000000000E+01 0. -1.
        -11    1    1    2    0    0 -0.31039626847E+02 -0.43136627354E+02 -0.31157153161E+02  0.61603532750E+02  0.00000000000E+00 0. -1.
         11    1    1    2    0    0  0.25767034160E+02  0.29759101572E+02 -0.15625851661E+02  0.42352230354E+02  0.00000000000E+00 0.  1.
<mgrwt>
<rscale>  0 0.11660646E+03</rscale>
<asrwt>0</asrwt>
<pdfrwt beam="2">  1        1 0.40121817E-01 0.12581365E+03</pdfrwt>
<pdfrwt beam="1">  1       -1 0.76812752E-02 0.12581365E+03</pdfrwt>
<totfact> 0.90265305E+03</totfact>
</mgrwt>
</event>
<event>
 7    1  0.6419647E-006  0.1354366E+03  0.7546771E-02  0.1227845E+00
         -2   -1    0    0    0  501 -0.00000000000E+00  0.00000000000E+00  0.15502558012E+02  0.15502558012E+02  0.00000000000E+00 0.  1.
          2   -1    0    0  501    0  0.00000000000E+00 -0.00000000000E+00 -0.10601102395E+04  0.10601102395E+04  0.00000000000E+00 0. -1.
         23    2    1    2    0    0 -0.14073113551E+02  0.50172641411E+02 -0.68834928696E+03  0.70154672720E+03  0.12501089199E+03 0.  0.
          5    1    3    3  502    0 -0.79105770994E+01 -0.39394871084E+02 -0.31182352328E+03  0.31443685021E+03  0.47000000000E+01 0. -1.
         -5    1    3    3    0  502 -0.61625364513E+01  0.89567512494E+02 -0.37652576368E+03  0.38710987699E+03  0.47000000000E+01 0. -1.
        -11    1    1    2    0    0  0.37688043977E+01  0.27593172385E+02 -0.43745401302E+02  0.51857951983E+02  0.00000000000E+00 0.  1.
         11    1    1    2    0    0  0.10304309153E+02 -0.77765813795E+02 -0.31251299325E+03  0.32220811836E+03  0.00000000000E+00 0. -1.
<mgrwt>
<rscale>  0 0.12973806E+03</rscale>
<asrwt>0</asrwt>
<pdfrwt beam="2">  1        2 0.16309392E+00 0.13543659E+03</pdfrwt>
<pdfrwt beam="1">  1       -2 0.23850084E-02 0.13543659E+03</pdfrwt>
<totfact> 0.13813582E+04</totfact>
</mgrwt>
</event>
<event>
 7    1  0.6419647E-006  0.1303087E+03  0.7546771E-02  0.1240662E+00
          2   -1    0    0  501    0  0.00000000000E+00  0.00000000000E+00  0.23475242291E+03  0.23475242291E+03  0.00000000000E+00 0. -1.
         -2   -1    0    0    0  501 -0.00000000000E+00 -0.00000000000E+00 -0.58387624481E+02  0.58387624481E+02  0.00000000000E+00 0.  1.
         23    2    1    2    0    0 -0.63841465612E+01 -0.36132744629E+02  0.68920505195E+02  0.14741232630E+03  0.12503609617E+03 0.  0.
          5    1    3    3  502    0 -0.16460529098E+02  0.41613781937E+02  0.48716290312E+02  0.66317590480E+02  0.47000000000E+01 0. -1.
         -5    1    3    3    0  502  0.10076382536E+02 -0.77746526566E+02  0.20204214883E+02  0.81094735816E+02  0.47000000000E+01 0. -1.
        -11    1    1    2    0    0 -0.27108979753E+02 -0.73816729926E+00  0.88287798121E+02  0.92358957180E+02  0.00000000000E+00 0. -1.
         11    1    1    2    0    0  0.33493126314E+02  0.36870911928E+02  0.19156495111E+02  0.53368763913E+02  0.00000000000E+00 0.  1.
<mgrwt>
<rscale>  0 0.12148800E+03</rscale>
<asrwt>0</asrwt>
<pdfrwt beam="1">  1        2 0.36115757E-01 0.13030870E+03</pdfrwt>
<pdfrwt beam="2">  1       -2 0.89827116E-02 0.13030870E+03</pdfrwt>
<totfact> 0.10577530E+04</totfact>
</mgrwt>
</event>
<event>
 7    1  0.6419647E-006  0.1472947E+03  0.7546771E-02  0.1213785E+00
          2   -1    0    0  501    0  0.00000000000E+00  0.00000000000E+00  0.12128308887E+04  0.12128308887E+04  0.00000000000E+00 0. -1.
         -2   -1    0    0    0  501 -0.00000000000E+00 -0.00000000000E+00 -0.22217396193E+02  0.22217396193E+02  0.00000000000E+00 0.  1.
         23    2    1    2    0    0 -0.47955831614E+02 -0.61283892464E+02  0.99654236964E+03  0.10073690559E+04  0.12506095739E+03 0.  0.
          5    1    3    3  502    0 -0.17418520568E+01 -0.78546355162E+02  0.34139486406E+03  0.35034997812E+03  0.47000000000E+01 0. -1.
         -5    1    3    3    0  502 -0.46213979558E+02  0.17262462698E+02  0.65514750558E+03  0.65701907780E+03  0.47000000000E+01 0. -1.
        -11    1    1    2    0    0  0.10004760968E+02  0.64636026026E+02  0.17113826186E+03  0.18321085060E+03  0.00000000000E+00 0. -1.
         11    1    1    2    0    0  0.37951070647E+02 -0.33521335624E+01  0.22932861010E+02  0.44468378391E+02  0.00000000000E+00 0.  1.
<mgrwt>
<rscale>  0 0.13966183E+03</rscale>
<asrwt>0</asrwt>
<pdfrwt beam="1">  1        2 0.18658932E+00 0.14729467E+03</pdfrwt>
<pdfrwt beam="2">  1       -2 0.34180619E-02 0.14729467E+03</pdfrwt>
<totfact> 0.66994726E+03</totfact>
</mgrwt>
</event>
<event>
 7    1  0.6419647E-006  0.1621059E+03  0.7546771E-02  0.1194446E+00
          1   -1    0    0  501    0  0.00000000000E+00  0.00000000000E+00  0.39081791054E+03  0.39081791054E+03  0.00000000000E+00 0. -1.
         -1   -1    0    0    0  501 -0.00000000000E+00 -0.00000000000E+00 -0.57291359690E+02  0.57291359690E+02  0.00000000000E+00 0.  1.
         23    2    1    2    0    0  0.10287833344E+03 -0.82677563422E+01  0.20471230061E+03  0.26112344871E+03  0.12500408857E+03 0.  0.
          5    1    3    3  502    0  0.44595979649E+01  0.10295132936E+02 -0.15179143184E+02  0.19451842175E+02  0.47000000000E+01 0.  1.
         -5    1    3    3    0  502  0.98418735473E+02 -0.18562889279E+02  0.21989144380E+03  0.24167160654E+03  0.47000000000E+01 0.  1.
        -11    1    1    2    0    0 -0.23646974100E+02 -0.21349629307E+01 -0.10827670156E+02  0.26095514783E+02  0.00000000000E+00 0.  1.
         11    1    1    2    0    0 -0.79231359339E+02  0.10402719273E+02  0.13964192039E+03  0.16089030673E+03  0.00000000000E+00 0. -1.
<mgrwt>
<rscale>  0 0.15501172E+03</rscale>
<asrwt>0</asrwt>
<pdfrwt beam="1">  1        1 0.60125831E-01 0.16210592E+03</pdfrwt>
<pdfrwt beam="2">  1       -1 0.88140556E-02 0.16210592E+03</pdfrwt>
<totfact> 0.45010157E+03</totfact>
</mgrwt>
</event>
<event>
 7    1  0.6419647E-006  0.1344918E+03  0.7546771E-02  0.1234754E+00
         -2   -1    0    0    0  501 -0.00000000000E+00  0.00000000000E+00  0.81042921044E+01  0.81042921044E+01  0.00000000000E+00 0.  1.
          2   -1    0    0  501    0  0.00000000000E+00 -0.00000000000E+00 -0.22692039390E+04  0.22692039390E+04  0.00000000000E+00 0. -1.
         23    2    1    2    0    0 -0.36774631722E+02  0.33209653350E+02 -0.18122512101E+04  0.18172348487E+04  0.12503116394E+03 0.  0.
          5    1    3    3  502    0  0.42592738255E+01  0.53049377577E+02 -0.15561566971E+04  0.15570735801E+04  0.47000000000E+01 0.  1.
         -5    1    3    3    0  502 -0.41033905548E+02 -0.19839724228E+02 -0.25609451300E+03  0.26016126855E+03  0.47000000000E+01 0.  1.
        -11    1    1    2    0    0  0.96143460609E+01 -0.60716830066E+02 -0.24519527513E+03  0.25278388408E+03  0.00000000000E+00 0.  1.
         11    1    1    2    0    0  0.27160285661E+02  0.27507176716E+02 -0.20365316159E+03  0.20728949832E+03  0.00000000000E+00 0. -1.
<mgrwt>
<rscale>  0 0.12520184E+03</rscale>
<asrwt>0</asrwt>
<pdfrwt beam="2">  1        2 0.34910832E+00 0.13449181E+03</pdfrwt>
<pdfrwt beam="1">  1       -2 0.12468141E-02 0.13449181E+03</pdfrwt>
<totfact> 0.81822621E+03</totfact>
</mgrwt>
</event>
<event>
 7    1  0.6419647E-006  0.1977359E+03  0.7546771E-02  0.1155815E+00
          1   -1    0    0  501    0  0.00000000000E+00  0.00000000000E+00  0.10089547895E+03  0.10089547895E+03  0.00000000000E+00 0. -1.
         -1   -1    0    0    0  501 -0.00000000000E+00 -0.00000000000E+00 -0.42556329840E+03  0.42556329840E+03  0.00000000000E+00 0.  1.
         23    2    1    2    0    0  0.12509976435E+03  0.88444888026E+02 -0.59775527177E+02  0.20657345834E+03  0.12500812286E+03 0.  0.
          5    1    3    3  502    0 -0.22462450934E+02  0.92316062913E+01  0.77660536684E+01  0.25926547133E+02  0.47000000000E+01 0.  1.
         -5    1    3    3    0  502  0.14756221529E+03  0.79213281735E+02 -0.67541580845E+02  0.18064691120E+03  0.47000000000E+01 0.  1.
        -11    1    1    2    0    0 -0.57798796366E+02 -0.26846922127E+01 -0.15341726910E+03  0.16396574914E+03  0.00000000000E+00 0.  1.
         11    1    1    2    0    0 -0.67300967988E+02 -0.85760195813E+02 -0.11147502318E+03  0.15591956988E+03  0.00000000000E+00 0. -1.
<mgrwt>
<rscale>  0 0.19296405E+03</rscale>
<asrwt>0</asrwt>
<pdfrwt beam="1">  1        1 0.15522382E-01 0.19773588E+03</pdfrwt>
<pdfrwt beam="2">  1       -1 0.65471276E-01 0.19773588E+03</pdfrwt>
<totfact> 0.86946532E+02</totfact>
</mgrwt>
</event>
<event>
 7    1  0.9484043E-006  0.1769775E+03  0.7546771E-02  0.1176384E+00
         -2   -1    0    0    0  501 -0.00000000000E+00  0.00000000000E+00  0.28043572655E+02  0.28043572655E+02  0.00000000000E+00 0.  1.
          2   -1    0    0  501    0  0.00000000000E+00 -0.00000000000E+00 -0.10925279637E+04  0.10925279637E+04  0.00000000000E+00 0. -1.
         23    2    1    2    0    0 -0.12110553924E+03  0.32082945615E+02 -0.73684877022E+03  0.75780416736E+03  0.12500071543E+03 0.  0.
          5    1    3    3  502    0 -0.37320544673E+02 -0.47708577212E+02 -0.27914050614E+03  0.28567541645E+03  0.47000000000E+01 0.  1.
         -5    1    3    3    0  502 -0.83784994570E+02  0.79791522827E+02 -0.45770826407E+03  0.47212875091E+03  0.47000000000E+01 0.  1.
        -11    1    1    2    0    0  0.50171996469E+02  0.20263983393E+02 -0.59089526680E+02  0.80121348066E+02  0.00000000000E+00 0.  1.
         11    1    1    2    0    0  0.70933542773E+02 -0.52346929008E+02 -0.26854609415E+03  0.28264602093E+03  0.00000000000E+00 0. -1.
<mgrwt>
<rscale>  0 0.17141108E+03</rscale>
<asrwt>0</asrwt>
<pdfrwt beam="2">  1        2 0.16808120E+00 0.17697753E+03</pdfrwt>
<pdfrwt beam="1">  1       -2 0.43143963E-02 0.17697753E+03</pdfrwt>
<totfact> 0.55754975E+03</totfact>
</mgrwt>
</event>
<event>
 7    1  0.6419647E-006  0.1490427E+03  0.7546771E-02  0.1211360E+00
          4   -1    0    0  501    0  0.00000000000E+00  0.00000000000E+00  0.10408971930E+03  0.10408971930E+03  0.00000000000E+00 0. -1.
         -4   -1    0    0    0  501 -0.00000000000E+00 -0.00000000000E+00 -0.18832211475E+03  0.18832211475E+03  0.00000000000E+00 0.  1.
         23    2    1    2    0    0 -0.24379171601E+02  0.77387320103E+02 -0.76955329792E+01  0.14924126250E+03  0.12502236554E+03 0.  0.
          5    1    3    3  502    0 -0.24298979689E+02 -0.21831501850E+02 -0.33071274416E+02  0.46721023945E+02  0.47000000000E+01 0.  1.
         -5    1    3    3    0  502 -0.80191911774E-01  0.99218821953E+02  0.25375741437E+02  0.10252023856E+03  0.47000000000E+01 0.  1.
        -11    1    1    2    0    0  0.43222731342E+02 -0.52144328616E+02 -0.86747733959E+02  0.11005637128E+03  0.00000000000E+00 0. -1.
         11    1    1    2    0    0 -0.18843559741E+02 -0.25242991487E+02  0.10210871492E+02  0.33114200271E+02  0.00000000000E+00 0.  1.
<mgrwt>
<rscale>  0 0.14147361E+03</rscale>
<asrwt>0</asrwt>
<pdfrwt beam="1">  1        4 0.16013803E-01 0.14904272E+03</pdfrwt>
<pdfrwt beam="2">  1       -4 0.28972633E-01 0.14904272E+03</pdfrwt>
<totfact> 0.64350038E+02</totfact>
</mgrwt>
</event>
<event>
 7    1  0.6419647E-006  0.1426457E+03  0.7546771E-02  0.1220472E+00
         -1   -1    0    0    0  501 -0.00000000000E+00  0.00000000000E+00  0.15784148668E+02  0.15784148668E+02  0.00000000000E+00 0.  1.
          1   -1    0    0  501    0  0.00000000000E+00 -0.00000000000E+00 -0.10528570397E+04  0.10528570397E+04  0.00000000000E+00 0. -1.
         23    2    1    2    0    0 -0.11883205825E+02 -0.67682947775E+02 -0.63043859423E+03  0.64637497724E+03  0.12500239241E+03 0.  0.
          5    1    3    3  502    0  0.22070802806E+02 -0.11600330086E+02 -0.19734209649E+02  0.32143693395E+02  0.47000000000E+01 0. -1.
         -5    1    3    3    0  502 -0.33954008631E+02 -0.56082617689E+02 -0.61070438458E+03  0.61423128384E+03  0.47000000000E+01 0. -1.
        -11    1    1    2    0    0 -0.17690217695E+02 -0.15774616739E+02 -0.60251079316E+02  0.64745462344E+02  0.00000000000E+00 0.  1.
         11    1    1    2    0    0  0.29573423520E+02  0.83457564514E+02 -0.34638321746E+03  0.35752074876E+03  0.00000000000E+00 0. -1.
<mgrwt>
<rscale>  0 0.13482123E+03</rscale>
<asrwt>0</asrwt>
<pdfrwt beam="2">  1        1 0.16197798E+00 0.14264568E+03</pdfrwt>
<pdfrwt beam="1">  1       -1 0.24283309E-02 0.14264568E+03</pdfrwt>
<totfact> 0.73256980E+03</totfact>
</mgrwt>
</event>
<event>
 7    1  0.6419647E-006  0.1447520E+03  0.7546771E-02  0.1217479E+00
          1   -1    0    0  501    0  0.00000000000E+00  0.00000000000E+00  0.86300322375E+02  0.86300322375E+02  0.00000000000E+00 0. -1.
         -1   -1    0    0    0  501 -0.00000000000E+00 -0.00000000000E+00 -0.20143339995E+03  0.20143339995E+03  0.00000000000E+00 0.  1.
         23    2    1    2    0    0 -0.44335202518E+02 -0.57996764963E+02 -0.85034662454E+02  0.16788098991E+03  0.12499559202E+03 0.  0.
          5    1    3    3  502    0 -0.13530723606E+02 -0.12978986214E+02  0.32729893237E+02  0.38011451903E+02  0.47000000000E+01 0.  1.
         -5    1    3    3    0  502 -0.30804478911E+02 -0.45017778749E+02 -0.11776455569E+03  0.12986953800E+03  0.47000000000E+01 0.  1.
        -11    1    1    2    0    0 -0.22400700211E+02  0.18727448176E+02  0.12172778259E+02  0.31633608958E+02  0.00000000000E+00 0. -1.
         11    1    1    2    0    0  0.66735902729E+02  0.39269316787E+02 -0.42271193379E+02  0.88219123458E+02  0.00000000000E+00 0.  1.
<mgrwt>
<rscale>  0 0.13696008E+03</rscale>
<asrwt>0</asrwt>
<pdfrwt beam="1">  1        1 0.13276973E-01 0.14475197E+03</pdfrwt>
<pdfrwt beam="2">  1       -1 0.30989753E-01 0.14475197E+03</pdfrwt>
<totfact> 0.40740808E+03</totfact>
</mgrwt>
</event>
<event>
 7    1  0.6419647E-006  0.1280539E+03  0.7546771E-02  0.1244750E+00
          2   -1    0    0  501    0  0.00000000000E+00  0.00000000000E+00  0.26342564473E+03  0.26342564473E+03  0.00000000000E+00 0.  1.
         -2   -1    0    0    0  501 -0.00000000000E+00 -0.00000000000E+00 -0.58031825868E+02  0.58031825868E+02  0.00000000000E+00 0. -1.
         23    2    1    2    0    0 -0.21347720395E+02  0.17785007506E+02  0.18300321327E+03  0.22335614999E+03  0.12500304802E+03 0.  0.
          5    1    3    3  502    0 -0.47710025704E+02  0.10389877757E+02  0.12522828205E+02  0.50627140338E+02  0.47000000000E+01 0.  1.
         -5    1    3    3    0  502  0.26362305309E+02  0.73951297489E+01  0.17048038506E+03  0.17272900966E+03  0.47000000000E+01 0.  1.
        -11    1    1    2    0    0 -0.21102675112E+01  0.33369017557E+02  0.25024882282E+02  0.41763492370E+02  0.00000000000E+00 0.  1.
         11    1    1    2    0    0  0.23457987907E+02 -0.51154025063E+02 -0.26342766862E+01  0.56337828236E+02  0.00000000000E+00 0. -1.
<mgrwt>
<rscale>  0 0.11900328E+03</rscale>
<asrwt>0</asrwt>
<pdfrwt beam="1">  1        2 0.40527022E-01 0.12805387E+03</pdfrwt>
<pdfrwt beam="2">  1       -2 0.89279734E-02 0.12805387E+03</pdfrwt>
<totfact> 0.94332513E+03</totfact>
</mgrwt>
</event>
<event>
 7    1  0.6419647E-006  0.1307797E+03  0.7546771E-02  0.1240191E+00
         -1   -1    0    0    0  501 -0.00000000000E+00  0.00000000000E+00  0.13020864795E+03  0.13020864795E+03  0.00000000000E+00 0.  1.
          1   -1    0    0  501    0  0.00000000000E+00 -0.00000000000E+00 -0.10291885104E+03  0.10291885104E+03  0.00000000000E+00 0. -1.
         23    2    1    2    0    0  0.17911340262E+02  0.34010595305E+02 -0.11016345700E+01  0.13078431025E+03  0.12500314198E+03 0.  0.
          5    1    3    3  502    0  0.58121108526E+02 -0.20784703656E+02  0.64472303418E+01  0.62239247597E+02  0.47000000000E+01 0.  1.
         -5    1    3    3    0  502 -0.40209768263E+02  0.54795298961E+02 -0.75488649118E+01  0.68545062649E+02  0.47000000000E+01 0.  1.
        -11    1    1    2    0    0 -0.28421418889E+02  0.25207820511E+02  0.14124076856E+02  0.40530245664E+02  0.00000000000E+00 0.  1.
         11    1    1    2    0    0  0.10510078627E+02 -0.59218415816E+02  0.14267354628E+02  0.61812943083E+02  0.00000000000E+00 0. -1.
<mgrwt>
<rscale>  0 0.12177905E+03</rscale>
<asrwt>0</asrwt>
<pdfrwt beam="2">  1        1 0.15833669E-01 0.13077967E+03</pdfrwt>
<pdfrwt beam="1">  1       -1 0.20032100E-01 0.13077967E+03</pdfrwt>
<totfact> 0.65996572E+03</totfact>
</mgrwt>
</event>
<event>
 7    1  0.6419647E-006  0.1365426E+03  0.7546771E-02  0.1229807E+00
          2   -1    0    0  501    0  0.00000000000E+00  0.00000000000E+00  0.71890120680E+03  0.71890120680E+03  0.00000000000E+00 0. -1.
         -2   -1    0    0    0  501 -0.00000000000E+00 -0.00000000000E+00 -0.30386931724E+02  0.30386931724E+02  0.00000000000E+00 0.  1.
         23    2    1    2    0    0 -0.39171425862E+02 -0.38538651649E+02  0.58422558776E+03  0.59996951403E+03  0.12499700834E+03 0.  0.
          5    1    3    3  502    0 -0.20417869970E+02 -0.68459233514E+02  0.17334704601E+03  0.18754957858E+03  0.47000000000E+01 0. -1.
         -5    1    3    3    0  502 -0.18753555892E+02  0.29920581865E+02  0.41087854176E+03  0.41241993545E+03  0.47000000000E+01 0. -1.
        -11    1    1    2    0    0 -0.18320090529E+02  0.44540460884E+02  0.57103661513E+02  0.74701449323E+02  0.00000000000E+00 0.  1.
         11    1    1    2    0    0  0.57491516391E+02 -0.60018092345E+01  0.47185025802E+02  0.74617175174E+02  0.00000000000E+00 0. -1.
<mgrwt>
<rscale>  0 0.12842779E+03</rscale>
<asrwt>0</asrwt>
<pdfrwt beam="1">  1        2 0.11060017E+00 0.13654260E+03</pdfrwt>
<pdfrwt beam="2">  1       -2 0.46749131E-02 0.13654260E+03</pdfrwt>
<totfact> 0.84639867E+03</totfact>
</mgrwt>
</event>
<event>
 7    1  0.6419647E-006  0.1799475E+03  0.7546771E-02  0.1173364E+00
          2   -1    0    0  501    0  0.00000000000E+00  0.00000000000E+00  0.10611509131E+03  0.10611509131E+03  0.00000000000E+00 0. -1.
         -2   -1    0    0    0  501 -0.00000000000E+00 -0.00000000000E+00 -0.27127716835E+03  0.27127716835E+03  0.00000000000E+00 0.  1.
         23    2    1    2    0    0 -0.12831998215E+03  0.17007186237E+02 -0.75444873314E+02  0.19512308660E+03  0.12500331121E+03 0.  0.
          5    1    3    3  502    0 -0.11407270697E+02 -0.27780812182E+01 -0.75401745096E+02  0.76454932630E+02  0.47000000000E+01 0.  1.
         -5    1    3    3    0  502 -0.11691271145E+03  0.19785267456E+02 -0.43128218010E-01  0.11866815397E+03  0.47000000000E+01 0.  1.
        -11    1    1    2    0    0  0.12959594989E+03 -0.39363828103E+02 -0.70145919504E+02  0.15252891927E+03  0.00000000000E+00 0. -1.
         11    1    1    2    0    0 -0.12759677388E+01  0.22356641865E+02 -0.19571284225E+02  0.29740253788E+02  0.00000000000E+00 0.  1.
<mgrwt>
<rscale>  0 0.17437166E+03</rscale>
<asrwt>0</asrwt>
<pdfrwt beam="1">  1        2 0.16325399E-01 0.17994746E+03</pdfrwt>
<pdfrwt beam="2">  1       -2 0.41734948E-01 0.17994746E+03</pdfrwt>
<totfact> 0.18995512E+03</totfact>
</mgrwt>
</event>
<event>
 7    1  0.6419647E-006  0.1399120E+03  0.7546771E-02  0.1224776E+00
          1   -1    0    0  501    0  0.00000000000E+00  0.00000000000E+00  0.99518853656E+03  0.99518853656E+03  0.00000000000E+00 0. -1.
         -1   -1    0    0    0  501 -0.00000000000E+00 -0.00000000000E+00 -0.17137015236E+02  0.17137015236E+02  0.00000000000E+00 0.  1.
         23    2    1    2    0    0  0.62856815395E+02  0.38921417583E+00  0.68674789034E+03  0.70085520581E+03  0.12499689552E+03 0.  0.
          5    1    3    3  502    0  0.38570619721E+02 -0.54839479850E+02  0.50124947531E+03  0.50573529415E+03  0.47000000000E+01 0. -1.
         -5    1    3    3    0  502  0.24286195674E+02  0.55228694026E+02  0.18549841504E+03  0.19511991166E+03  0.47000000000E+01 0. -1.
        -11    1    1    2    0    0  0.19056734940E+02 -0.15497487704E+02  0.42420977119E+02  0.49019083747E+02  0.00000000000E+00 0. -1.
         11    1    1    2    0    0 -0.81913550334E+02  0.15108273528E+02  0.24888265386E+03  0.26245126224E+03  0.00000000000E+00 0.  1.
<mgrwt>
<rscale>  0 0.13182258E+03</rscale>
<asrwt>0</asrwt>
<pdfrwt beam="1">  1        1 0.15310588E+00 0.13991195E+03</pdfrwt>
<pdfrwt beam="2">  1       -1 0.26364646E-02 0.13991195E+03</pdfrwt>
<totfact> 0.71526860E+03</totfact>
</mgrwt>
</event>
<event>
 7    1  0.6419647E-006  0.2733566E+03  0.7546771E-02  0.1101350E+00
         -3   -1    0    0    0  501 -0.00000000000E+00  0.00000000000E+00  0.12599094191E+04  0.12599094191E+04  0.00000000000E+00 0.  1.
          3   -1    0    0  501    0  0.00000000000E+00 -0.00000000000E+00 -0.60349492940E+02  0.60349492940E+02  0.00000000000E+00 0. -1.
         23    2    1    2    0    0 -0.23958096843E+03 -0.41268221172E+02  0.44494613474E+03  0.52220771554E+03  0.12498691467E+03 0.  0.
          5    1    3    3  502    0 -0.39627648030E+02  0.40774808787E+02  0.99370047309E+02  0.11458373280E+03  0.47000000000E+01 0.  1.
         -5    1    3    3    0  502 -0.19995332039E+03 -0.82043029959E+02  0.34557608743E+03  0.40762398274E+03  0.47000000000E+01 0.  1.
        -11    1    1    2    0    0  0.18436915426E+03  0.68850596058E+02  0.54029024552E+03  0.57501820756E+03  0.00000000000E+00 0. -1.
         11    1    1    2    0    0  0.55211814163E+02 -0.27582374886E+02  0.21432354586E+03  0.22303298890E+03  0.00000000000E+00 0.  1.
<mgrwt>
<rscale>  0 0.26987639E+03</rscale>
<asrwt>0</asrwt>
<pdfrwt beam="2">  1        3 0.92845383E-02 0.27335661E+03</pdfrwt>
<pdfrwt beam="1">  1       -3 0.19383220E+00 0.27335661E+03</pdfrwt>
<totfact> 0.36197215E+01</totfact>
</mgrwt>
</event>
<event>
 7    1  0.6419647E-006  0.1955610E+03  0.7546771E-02  0.1158173E+00
          1   -1    0    0  501    0  0.00000000000E+00  0.00000000000E+00  0.51960991127E+03  0.51960991127E+03  0.00000000000E+00 0. -1.
         -1   -1    0    0    0  501 -0.00000000000E+00 -0.00000000000E+00 -0.67474956895E+02  0.67474956895E+02  0.00000000000E+00 0.  1.
         23    2    1    2    0    0 -0.13604018395E+03  0.64122009409E+02  0.27810969540E+03  0.33998395620E+03  0.12500209623E+03 0.  0.
          5    1    3    3  502    0 -0.11821735175E+02  0.21954425756E+02  0.16431025964E+03  0.16625793712E+03  0.47000000000E+01 0. -1.
         -5    1    3    3    0  502 -0.12421844877E+03  0.42167583653E+02  0.11379943576E+03  0.17372601908E+03  0.47000000000E+01 0. -1.
        -11    1    1    2    0    0  0.11253852305E+03 -0.13935186312E+02  0.82979527006E+02  0.14051587273E+03  0.00000000000E+00 0. -1.
         11    1    1    2    0    0  0.23501660902E+02 -0.50186823097E+02  0.91045731970E+02  0.10658503923E+03  0.00000000000E+00 0.  1.
<mgrwt>
<rscale>  0 0.19032013E+03</rscale>
<asrwt>0</asrwt>
<pdfrwt beam="1">  1        1 0.79939984E-01 0.19556096E+03</pdfrwt>
<pdfrwt beam="2">  1       -1 0.10380763E-01 0.19556096E+03</pdfrwt>
<totfact> 0.24396299E+03</totfact>
</mgrwt>
</event>
<event>
 7    1  0.6419647E-006  0.1508208E+03  0.7546771E-02  0.1208660E+00
          1   -1    0    0  501    0  0.00000000000E+00  0.00000000000E+00  0.23682631770E+03  0.23682631770E+03  0.00000000000E+00 0. -1.
         -1   -1    0    0    0  501 -0.00000000000E+00 -0.00000000000E+00 -0.83068468013E+02  0.83068468013E+02  0.00000000000E+00 0.  1.
         23    2    1    2    0    0 -0.83187581017E+02 -0.14037795933E+02  0.11690817421E+03  0.19082563023E+03  0.12501866503E+03 0.  0.
          5    1    3    3  502    0 -0.11119216066E+03  0.11869155258E+02  0.80347239975E+02  0.13777642182E+03  0.47000000000E+01 0.  1.
         -5    1    3    3    0  502  0.28004579642E+02 -0.25906951191E+02  0.36560934231E+02  0.53049208408E+02  0.47000000000E+01 0.  1.
        -11    1    1    2    0    0  0.31736656770E+02 -0.36903599229E+02  0.27932871966E+02  0.56118948272E+02  0.00000000000E+00 0.  1.
         11    1    1    2    0    0  0.51450924247E+02  0.50941395162E+02  0.89168035137E+01  0.72950207209E+02  0.00000000000E+00 0. -1.
<mgrwt>
<rscale>  0 0.14352767E+03</rscale>
<asrwt>0</asrwt>
<pdfrwt beam="1">  1        1 0.36434818E-01 0.15082075E+03</pdfrwt>
<pdfrwt beam="2">  1       -1 0.12779764E-01 0.15082075E+03</pdfrwt>
<totfact> 0.47310041E+03</totfact>
</mgrwt>
</event>
<event>
 7    1  0.6419647E-006  0.1314811E+03  0.7546771E-02  0.1239322E+00
          1   -1    0    0  501    0  0.00000000000E+00  0.00000000000E+00  0.23603585236E+03  0.23603585236E+03  0.00000000000E+00 0. -1.
         -1   -1    0    0    0  501 -0.00000000000E+00 -0.00000000000E+00 -0.56116946842E+02  0.56116946842E+02  0.00000000000E+00 0.  1.
         23    2    1    2    0    0  0.24067859669E+02 -0.32931859250E+02  0.96613892850E+02  0.16316106332E+03  0.12499407614E+03 0.  0.
          5    1    3    3  502    0 -0.26468900493E+02  0.75663939954E+01 -0.16715899282E+02  0.32547877046E+02  0.47000000000E+01 0.  1.
         -5    1    3    3    0  502  0.50536760162E+02 -0.40498253246E+02  0.11332979213E+03  0.13061318627E+03  0.47000000000E+01 0.  1.
        -11    1    1    2    0    0 -0.16508954696E+02 -0.10906739960E+01 -0.16445550164E+02  0.23327907645E+02  0.00000000000E+00 0.  1.
         11    1    1    2    0    0 -0.75589049729E+01  0.34022533246E+02  0.99750562828E+02  0.10566382824E+03  0.00000000000E+00 0. -1.
<mgrwt>
<rscale>  0 0.12231768E+03</rscale>
<asrwt>0</asrwt>
<pdfrwt beam="1">  1        1 0.36313207E-01 0.13148113E+03</pdfrwt>
<pdfrwt beam="2">  1       -1 0.86333766E-02 0.13148113E+03</pdfrwt>
<totfact> 0.85890778E+03</totfact>
</mgrwt>
</event>
<event>
 6    1  0.6419647E-006  0.4681149E+03  0.7546771E-02  0.1072624E+00
         -2   -1    0    0    0  501 -0.00000000000E+00  0.00000000000E+00  0.41481728795E+02  0.41481728795E+02  0.00000000000E+00 0.  1.
          2   -1    0    0  501    0  0.00000000000E+00 -0.00000000000E+00 -0.36915957727E+04  0.36915957727E+04  0.00000000000E+00 0. -1.
          5    1    1    2  502    0  0.97829959810E+02 -0.11091395187E+03 -0.33454586480E+04  0.33487293502E+04  0.47000000000E+01 0. -1.
         -5    1    1    2    0  502 -0.33715089198E+02  0.10611061056E+03 -0.21302216662E+03  0.24040944736E+03  0.47000000000E+01 0.  1.
        -11    1    1    2    0    0 -0.66879204246E+02 -0.28259770772E+02 -0.40936277930E+02  0.83349993734E+02  0.00000000000E+00 0.  1.
         11    1    1    2    0    0  0.27643336343E+01  0.33063112087E+02 -0.50696951428E+02  0.60588710214E+02  0.00000000000E+00 0. -1.
<mgrwt>
<rscale>  0 0.32666170E+03</rscale>
<asrwt>0</asrwt>
<pdfrwt beam="2">  1        2 0.56793777E+00 0.46811494E+03</pdfrwt>
<pdfrwt beam="1">  1       -2 0.63818048E-02 0.46811494E+03</pdfrwt>
<totfact> 0.95299041E+01</totfact>
</mgrwt>
</event>
<event>
 7    1  0.6419647E-006  0.1382280E+03  0.7546771E-02  0.1226442E+00
         -2   -1    0    0    0  501 -0.00000000000E+00  0.00000000000E+00  0.74894827326E+02  0.74894827326E+02  0.00000000000E+00 0. -1.
          2   -1    0    0  501    0  0.00000000000E+00 -0.00000000000E+00 -0.21353762591E+03  0.21353762591E+03  0.00000000000E+00 0.  1.
         23    2    1    2    0    0  0.58647932875E+02 -0.65784531981E+01 -0.10300677397E+03  0.17238725340E+03  0.12499645424E+03 0.  0.
          5    1    3    3  502    0  0.34108698418E+02  0.52038149974E+01  0.24077366568E+02  0.42335476603E+02  0.47000000000E+01 0. -1.
         -5    1    3    3    0  502  0.24539234457E+02 -0.11782268195E+02 -0.12708414054E+03  0.13005177680E+03  0.47000000000E+01 0. -1.
        -11    1    1    2    0    0 -0.31886822900E+02  0.12148991112E+02 -0.66544683701E+02  0.74783436592E+02  0.00000000000E+00 0.  1.
         11    1    1    2    0    0 -0.26761109975E+02 -0.55705379137E+01  0.30908659085E+02  0.41261763246E+02  0.00000000000E+00 0. -1.
<mgrwt>
<rscale>  0 0.13068526E+03</rscale>
<asrwt>0</asrwt>
<pdfrwt beam="2">  1        2 0.32851942E-01 0.13822796E+03</pdfrwt>
<pdfrwt beam="1">  1       -2 0.11522281E-01 0.13822796E+03</pdfrwt>
<totfact> 0.79480667E+03</totfact>
</mgrwt>
</event>
<event>
 7    1  0.6419647E-006  0.1255733E+03  0.7546771E-02  0.1248373E+00
         -2   -1    0    0    0  501 -0.00000000000E+00  0.00000000000E+00  0.18282434162E+02  0.18282434162E+02  0.00000000000E+00 0.  1.
          2   -1    0    0  501    0  0.00000000000E+00 -0.00000000000E+00 -0.69893116442E+03  0.69893116442E+03  0.00000000000E+00 0. -1.
         23    2    1    2    0    0 -0.34417064594E+01 -0.11430171737E+02 -0.46973529735E+03  0.48623029613E+03  0.12500462844E+03 0.  0.
          5    1    3    3  502    0 -0.41693389002E+02 -0.36753999949E+02 -0.39120218361E+03  0.39515874489E+03  0.47000000000E+01 0. -1.
         -5    1    3    3    0  502  0.38251682543E+02  0.25323828211E+02 -0.78533113740E+02  0.91071551246E+02  0.47000000000E+01 0. -1.
        -11    1    1    2    0    0 -0.30553349701E+02  0.18503760137E+02 -0.29644666240E+02  0.46418773720E+02  0.00000000000E+00 0.  1.
         11    1    1    2    0    0  0.33995056160E+02 -0.70735883997E+01 -0.18126876667E+03  0.18456452873E+03  0.00000000000E+00 0. -1.
<mgrwt>
<rscale>  0 0.11685737E+03</rscale>
<asrwt>0</asrwt>
<pdfrwt beam="2">  1        2 0.10752789E+00 0.12557329E+03</pdfrwt>
<pdfrwt beam="1">  1       -2 0.28126817E-02 0.12557329E+03</pdfrwt>
<totfact> 0.18449426E+04</totfact>
</mgrwt>
</event>
<event>
 7    1  0.6419647E-006  0.1346409E+03  0.7546771E-02  0.1233496E+00
          1   -1    0    0  501    0  0.00000000000E+00  0.00000000000E+00  0.36794726413E+02  0.36794726413E+02  0.00000000000E+00 0. -1.
         -1   -1    0    0    0  501 -0.00000000000E+00 -0.00000000000E+00 -0.40015938766E+03  0.40015938766E+03  0.00000000000E+00 0.  1.
         23    2    1    2    0    0  0.34508461406E+02 -0.36239080094E+02 -0.16208578493E+03  0.21071298693E+03  0.12499622535E+03 0.  0.
          5    1    3    3  502    0  0.72049713003E+02  0.11796129138E+02 -0.95653190278E+02  0.12042397028E+03  0.47000000000E+01 0. -1.
         -5    1    3    3    0  502 -0.37541251597E+02 -0.48035209232E+02 -0.66432594648E+02  0.90289016658E+02  0.47000000000E+01 0. -1.
        -11    1    1    2    0    0 -0.19632183266E+02 -0.29145517758E+02 -0.85598363037E+02  0.92530879061E+02  0.00000000000E+00 0. -1.
         11    1    1    2    0    0 -0.14876278140E+02  0.65384597852E+02 -0.11568051328E+03  0.13371024808E+03  0.00000000000E+00 0.  1.
<mgrwt>
<rscale>  0 0.12601223E+03</rscale>
<asrwt>0</asrwt>
<pdfrwt beam="1">  1        1 0.56607270E-02 0.13464086E+03</pdfrwt>
<pdfrwt beam="2">  1       -1 0.61562984E-01 0.13464086E+03</pdfrwt>
<totfact> 0.37151794E+03</totfact>
</mgrwt>
</event>
<event>
 7    1  0.6419647E-006  0.1322355E+03  0.7546771E-02  0.1236336E+00
         -2   -1    0    0    0  501 -0.00000000000E+00  0.00000000000E+00  0.20841798806E+03  0.20841798806E+03  0.00000000000E+00 0.  1.
          2   -1    0    0  501    0  0.00000000000E+00 -0.00000000000E+00 -0.17499433807E+03  0.17499433807E+03  0.00000000000E+00 0. -1.
         23    2    1    2    0    0  0.41214135621E+02  0.12895331308E+02 -0.13313113876E+03  0.18764364166E+03  0.12498536556E+03 0.  0.
          5    1    3    3  502    0 -0.41653651936E+02  0.22676591509E+02 -0.59714932556E+02  0.76401686449E+02  0.47000000000E+01 0. -1.
         -5    1    3    3    0  502  0.82867787557E+02 -0.97812602012E+01 -0.73416206204E+02  0.11124195521E+03  0.47000000000E+01 0. -1.
        -11    1    1    2    0    0  0.19583576327E+02  0.20992601028E+02  0.78116677987E+02  0.83225123246E+02  0.00000000000E+00 0.  1.
         11    1    1    2    0    0 -0.60797711948E+02 -0.33887932336E+02  0.88438110764E+02  0.11254356122E+03  0.00000000000E+00 0. -1.
<mgrwt>
<rscale>  0 0.12419293E+03</rscale>
<asrwt>0</asrwt>
<pdfrwt beam="2">  1        2 0.26922206E-01 0.13223553E+03</pdfrwt>
<pdfrwt beam="1">  1       -2 0.32064306E-01 0.13223553E+03</pdfrwt>
<totfact> 0.17445930E+03</totfact>
</mgrwt>
</event>
<event>
 7    1  0.6419647E-006  0.1491932E+03  0.7546771E-02  0.1210689E+00
          1   -1    0    0  501    0  0.00000000000E+00  0.00000000000E+00  0.18498190536E+04  0.18498190536E+04  0.00000000000E+00 0. -1.
         -1   -1    0    0    0  501 -0.00000000000E+00 -0.00000000000E+00 -0.11559545723E+02  0.11559545723E+02  0.00000000000E+00 0.  1.
         23    2    1    2    0    0 -0.56078022358E+02  0.59068267439E+02  0.13414536876E+04  0.13497246380E+04  0.12499919050E+03 0.  0.
          5    1    3    3  502    0  0.32036030686E+01 -0.18089850671E+02  0.75477907116E+03  0.75501724618E+03  0.47000000000E+01 0.  1.
         -5    1    3    3    0  502 -0.59281625426E+02  0.77158118110E+02  0.58667461647E+03  0.59470739185E+03  0.47000000000E+01 0.  1.
        -11    1    1    2    0    0  0.78564310029E+02 -0.61448881556E+02  0.40796945197E+03  0.41998498735E+03  0.00000000000E+00 0.  1.
         11    1    1    2    0    0 -0.22486287672E+02  0.23806141162E+01  0.88836368249E+02  0.91668973925E+02  0.00000000000E+00 0. -1.
<mgrwt>
<rscale>  0 0.14198028E+03</rscale>
<asrwt>0</asrwt>
<pdfrwt beam="1">  1        1 0.28458731E+00 0.14919317E+03</pdfrwt>
<pdfrwt beam="2">  1       -1 0.17783931E-02 0.14919317E+03</pdfrwt>
<totfact> 0.34192885E+03</totfact>
</mgrwt>
</event>
<event>
 7    1  0.6419647E-006  0.1309561E+03  0.7546771E-02  0.1239763E+00
         -2   -1    0    0    0  501 -0.00000000000E+00  0.00000000000E+00  0.36616661489E+02  0.36616661489E+02  0.00000000000E+00 0.  1.
          2   -1    0    0  501    0  0.00000000000E+00 -0.00000000000E+00 -0.73085100548E+03  0.73085100548E+03  0.00000000000E+00 0. -1.
         23    2    1    2    0    0 -0.37444837049E+02  0.11175512541E+02 -0.64297640398E+03  0.65617691619E+03  0.12498992502E+03 0.  0.
          5    1    3    3  502    0 -0.70144492844E+02 -0.28621683062E+02 -0.30710245989E+03  0.31634389750E+03  0.47000000000E+01 0.  1.
         -5    1    3    3    0  502  0.32699655795E+02  0.39797195602E+02 -0.33587394410E+03  0.33983301869E+03  0.47000000000E+01 0.  1.
        -11    1    1    2    0    0  0.53151222800E+02 -0.32470108308E+02 -0.11201458621E+02  0.63283750631E+02  0.00000000000E+00 0.  1.
         11    1    1    2    0    0 -0.15706385751E+02  0.21294595768E+02 -0.40056481383E+02  0.48007000146E+02  0.00000000000E+00 0. -1.
<mgrwt>
<rscale>  0 0.12204380E+03</rscale>
<asrwt>0</asrwt>
<pdfrwt beam="2">  1        2 0.11243861E+00 0.13095606E+03</pdfrwt>
<pdfrwt beam="1">  1       -2 0.56333330E-02 0.13095606E+03</pdfrwt>
<totfact> 0.62556322E+03</totfact>
</mgrwt>
</event>
<event>
 7    1  0.6419647E-006  0.2007405E+03  0.7546771E-02  0.1153174E+00
          1   -1    0    0  501    0  0.00000000000E+00  0.00000000000E+00  0.94297138028E+02  0.94297138028E+02  0.00000000000E+00 0. -1.
         -1   -1    0    0    0  501 -0.00000000000E+00 -0.00000000000E+00 -0.70520350364E+03  0.70520350364E+03  0.00000000000E+00 0.  1.
         23    2    1    2    0    0 -0.14423603455E+03  0.65149013659E+02 -0.46078897283E+02  0.20596119284E+03  0.12348409022E+03 0.  0.
          5    1    3    3  502    0 -0.13580213060E+03  0.95434664590E+02 -0.25249557218E+02  0.16795720890E+03  0.47000000000E+01 0. -1.
         -5    1    3    3    0  502 -0.84339039530E+01 -0.30285650932E+02 -0.20829340065E+02  0.38003983946E+02  0.47000000000E+01 0.  1.
        -11    1    1    2    0    0  0.86934447758E+02 -0.71442837723E+02 -0.46348635971E+03  0.47694997946E+03  0.00000000000E+00 0.  1.
         11    1    1    2    0    0  0.57301586796E+02  0.62938240640E+01 -0.10134110862E+03  0.11658946937E+03  0.00000000000E+00 0. -1.
<mgrwt>
<rscale>  0 0.19598143E+03</rscale>
<asrwt>0</asrwt>
<pdfrwt beam="1">  1        1 0.14507252E-01 0.20074050E+03</pdfrwt>
<pdfrwt beam="2">  1       -1 0.10849284E+00 0.20074050E+03</pdfrwt>
<totfact> 0.32798154E+02</totfact>
</mgrwt>
</event>
<event>
 7    1  0.6419647E-006  0.1293791E+03  0.7546771E-02  0.1246351E+00
         -2   -1    0    0    0  501 -0.00000000000E+00  0.00000000000E+00  0.85778296651E+03  0.85778296651E+03  0.00000000000E+00 0.  1.
          2   -1    0    0  501    0  0.00000000000E+00 -0.00000000000E+00 -0.16612445582E+02  0.16612445582E+02  0.00000000000E+00 0. -1.
         23    2    1    2    0    0 -0.14392544489E+02  0.30121899432E+02  0.31330668335E+03  0.33896908390E+03  0.12499795136E+03 0.  0.
          5    1    3    3  502    0 -0.49200365381E+02 -0.30379405281E+02  0.16717041014E+03  0.17695089783E+03  0.47000000000E+01 0. -1.
         -5    1    3    3    0  502  0.34807820893E+02  0.60501304713E+02  0.14613627322E+03  0.16201818607E+03  0.47000000000E+01 0. -1.
        -11    1    1    2    0    0  0.48348803045E+02 -0.76949064239E+01  0.28247309716E+03  0.28668426703E+03  0.00000000000E+00 0.  1.
         11    1    1    2    0    0 -0.33956258556E+02 -0.22426993008E+02  0.24539074042E+03  0.24874206116E+03  0.00000000000E+00 0. -1.
<mgrwt>
<rscale>  0 0.11804913E+03</rscale>
<asrwt>0</asrwt>
<pdfrwt beam="2">  1        2 0.25557615E-02 0.12937914E+03</pdfrwt>
<pdfrwt beam="1">  1       -2 0.13196658E+00 0.12937914E+03</pdfrwt>
<totfact> 0.16412664E+03</totfact>
</mgrwt>
</event>
<event>
 7    1  0.6419647E-006  0.1275079E+03  0.7546771E-02  0.1244715E+00
         -2   -1    0    0    0  501 -0.00000000000E+00  0.00000000000E+00  0.10801512118E+03  0.10801512118E+03  0.00000000000E+00 0. -1.
          2   -1    0    0  501    0  0.00000000000E+00 -0.00000000000E+00 -0.12393640519E+03  0.12393640519E+03  0.00000000000E+00 0.  1.
         23    2    1    2    0    0  0.24955871049E+02  0.33052606877E+01 -0.37208542469E+02  0.13282600646E+03  0.12499820843E+03 0.  0.
          5    1    3    3  502    0 -0.46404274147E+02 -0.22027491945E+02 -0.17017365059E+02  0.54316183353E+02  0.47000000000E+01 0. -1.
         -5    1    3    3    0  502  0.71360145196E+02  0.25332752633E+02 -0.20191177410E+02  0.78509823102E+02  0.47000000000E+01 0. -1.
        -11    1    1    2    0    0 -0.39790325999E+02  0.17019532585E+02  0.46487239295E+02  0.63513761893E+02  0.00000000000E+00 0. -1.
         11    1    1    2    0    0  0.14834454950E+02 -0.20324793273E+02 -0.25199980839E+02  0.35611758024E+02  0.00000000000E+00 0.  1.
<mgrwt>
<rscale>  0 0.11902443E+03</rscale>
<asrwt>0</asrwt>
<pdfrwt beam="2">  1        2 0.19067139E-01 0.12750793E+03</pdfrwt>
<pdfrwt beam="1">  1       -2 0.16617711E-01 0.12750793E+03</pdfrwt>
<totfact> 0.79565259E+03</totfact>
</mgrwt>
</event>
<event>
 6    1  0.6419647E-006  0.1607732E+03  0.7546771E-02  0.1223486E+00
         -2   -1    0    0    0  501 -0.00000000000E+00  0.00000000000E+00  0.10014270696E+03  0.10014270696E+03  0.00000000000E+00 0.  1.
          2   -1    0    0  501    0  0.00000000000E+00 -0.00000000000E+00 -0.14326563000E+03  0.14326563000E+03  0.00000000000E+00 0. -1.
          5    1    1    2  502    0 -0.22176867100E+02  0.80597521149E+02 -0.39617235848E+02  0.92624992448E+02  0.47000000000E+01 0. -1.
         -5    1    1    2    0  502  0.22443782398E+02 -0.71472690593E+02 -0.10583877130E+02  0.75803544271E+02  0.47000000000E+01 0.  1.
        -11    1    1    2    0    0 -0.30626767168E+02  0.10752896188E+02 -0.11213630469E+02  0.34341944498E+02  0.00000000000E+00 0. -1.
         11    1    1    2    0    0  0.30359851870E+02 -0.19877726745E+02  0.18291820405E+02  0.40637855748E+02  0.00000000000E+00 0.  1.
<mgrwt>
<rscale>  0 0.13271205E+03</rscale>
<asrwt>0</asrwt>
<pdfrwt beam="2">  1        2 0.22040866E-01 0.16077320E+03</pdfrwt>
<pdfrwt beam="1">  1       -2 0.15406570E-01 0.16077320E+03</pdfrwt>
<totfact> 0.77840384E+03</totfact>
</mgrwt>
</event>
<event>
 7    1  0.6419647E-006  0.1321621E+03  0.7546771E-02  0.1237927E+00
         -2   -1    0    0    0  501 -0.00000000000E+00  0.00000000000E+00  0.73619175695E+02  0.73619175695E+02  0.00000000000E+00 0.  1.
          2   -1    0    0  501    0  0.00000000000E+00 -0.00000000000E+00 -0.22010652750E+03  0.22010652750E+03  0.00000000000E+00 0. -1.
         23    2    1    2    0    0 -0.27679097718E+02  0.32771215330E+02 -0.14181855327E+03  0.19385383809E+03  0.12500689376E+03 0.  0.
          5    1    3    3  502    0 -0.52178717465E+02  0.45946538477E+02 -0.25563393610E+02  0.74224524567E+02  0.47000000000E+01 0. -1.
         -5    1    3    3    0  502  0.24499619746E+02 -0.13175323147E+02 -0.11625515966E+03  0.11962931353E+03  0.47000000000E+01 0. -1.
        -11    1    1    2    0    0  0.27610638920E+02 -0.53677104766E-01 -0.41980943952E+02  0.50246889634E+02  0.00000000000E+00 0. -1.
         11    1    1    2    0    0  0.68458798252E-01 -0.32717538225E+02  0.37312145418E+02  0.49624975464E+02  0.00000000000E+00 0.  1.
<mgrwt>
<rscale>  0 0.12318905E+03</rscale>
<asrwt>0</asrwt>
<pdfrwt beam="2">  1        2 0.33862542E-01 0.13216205E+03</pdfrwt>
<pdfrwt beam="1">  1       -2 0.11326027E-01 0.13216205E+03</pdfrwt>
<totfact> 0.78815876E+03</totfact>
</mgrwt>
</event>
<event>
 7    1  0.6419647E-006  0.1416421E+03  0.7546771E-02  0.1226059E+00
         -2   -1    0    0    0  501 -0.00000000000E+00  0.00000000000E+00  0.43478399912E+02  0.43478399912E+02  0.00000000000E+00 0.  1.
          2   -1    0    0  501    0  0.00000000000E+00 -0.00000000000E+00 -0.40448772470E+03  0.40448772470E+03  0.00000000000E+00 0. -1.
         23    2    1    2    0    0  0.48855129471E+02  0.45275547250E+02 -0.28920443987E+03  0.32202748663E+03  0.12500318097E+03 0.  0.
          5    1    3    3  502    0 -0.27815461773E+02  0.18988405648E+01 -0.11283315325E+02  0.30441890774E+02  0.47000000000E+01 0. -1.
         -5    1    3    3    0  502  0.76670591244E+02  0.43376706685E+02 -0.27792112454E+03  0.29158559586E+03  0.47000000000E+01 0. -1.
        -11    1    1    2    0    0 -0.12874564216E+02 -0.28929407524E+02  0.11537380150E+02  0.33701278376E+02  0.00000000000E+00 0.  1.
         11    1    1    2    0    0 -0.35980565254E+02 -0.16346139726E+02 -0.83342265071E+02  0.92237359606E+02  0.00000000000E+00 0. -1.
<mgrwt>
<rscale>  0 0.13094552E+03</rscale>
<asrwt>0</asrwt>
<pdfrwt beam="2">  1        2 0.62228883E-01 0.14164213E+03</pdfrwt>
<pdfrwt beam="1">  1       -2 0.66889844E-02 0.14164213E+03</pdfrwt>
<totfact> 0.94027709E+03</totfact>
</mgrwt>
</event>
<event>
 7    1  0.6419647E-006  0.1338002E+03  0.7546771E-02  0.1234060E+00
          1   -1    0    0  501    0  0.00000000000E+00  0.00000000000E+00  0.12995282533E+04  0.12995282533E+04  0.00000000000E+00 0. -1.
         -1   -1    0    0    0  501 -0.00000000000E+00 -0.00000000000E+00 -0.15391693589E+02  0.15391693589E+02  0.00000000000E+00 0.  1.
         23    2    1    2    0    0 -0.29078092188E+02  0.38254671219E+02  0.10526962686E+04  0.10611653655E+04  0.12487411085E+03 0.  0.
          5    1    3    3  502    0 -0.57343507622E+02  0.70259053553E+02  0.72536662858E+03  0.73102903385E+03  0.47000000000E+01 0. -1.
         -5    1    3    3    0  502  0.28265415434E+02 -0.32004382334E+02  0.32732964007E+03  0.33013633163E+03  0.47000000000E+01 0.  1.
        -11    1    1    2    0    0 -0.60629772716E+01  0.22529353408E+02  0.11845689288E+03  0.12073262579E+03  0.00000000000E+00 0. -1.
         11    1    1    2    0    0  0.35141069460E+02 -0.60784024626E+02  0.11298339820E+03  0.13302195564E+03  0.00000000000E+00 0.  1.
<mgrwt>
<rscale>  0 0.12564784E+03</rscale>
<asrwt>0</asrwt>
<pdfrwt beam="1">  1        1 0.19992734E+00 0.13380022E+03</pdfrwt>
<pdfrwt beam="2">  1       -1 0.23679539E-02 0.13380022E+03</pdfrwt>
<totfact> 0.51204768E+03</totfact>
</mgrwt>
</event>
<event>
 7    1  0.6419647E-006  0.1335735E+03  0.7546771E-02  0.1233364E+00
         -1   -1    0    0    0  501 -0.00000000000E+00  0.00000000000E+00  0.15724670715E+03  0.15724670715E+03  0.00000000000E+00 0.  1.
          1   -1    0    0  501    0  0.00000000000E+00 -0.00000000000E+00 -0.95433167690E+02  0.95433167690E+02  0.00000000000E+00 0. -1.
         23    2    1    2    0    0 -0.36199475522E+02  0.30101669491E+02  0.82297059174E+01  0.13382674170E+03  0.12500142479E+03 0.  0.
          5    1    3    3  502    0 -0.66877685689E+02 -0.18964482664E+02  0.23955732353E+02  0.73676614733E+02  0.47000000000E+01 0.  1.
         -5    1    3    3    0  502  0.30678210167E+02  0.49066152155E+02 -0.15726026436E+02  0.60150126965E+02  0.47000000000E+01 0.  1.
        -11    1    1    2    0    0  0.24725596581E+02 -0.40212651963E+02  0.77335046221E+02  0.90604204528E+02  0.00000000000E+00 0.  1.
         11    1    1    2    0    0  0.11473878941E+02  0.10110982472E+02 -0.23751212675E+02  0.28248928617E+02  0.00000000000E+00 0. -1.
<mgrwt>
<rscale>  0 0.12609781E+03</rscale>
<asrwt>0</asrwt>
<pdfrwt beam="2">  1        1 0.14682026E-01 0.13357346E+03</pdfrwt>
<pdfrwt beam="1">  1       -1 0.24191801E-01 0.13357346E+03</pdfrwt>
<totfact> 0.53679136E+03</totfact>
</mgrwt>
</event>
<event>
 7    1  0.6419647E-006  0.1702051E+03  0.7546771E-02  0.1184250E+00
          2   -1    0    0  501    0  0.00000000000E+00  0.00000000000E+00  0.12486254565E+03  0.12486254565E+03  0.00000000000E+00 0.  1.
         -2   -1    0    0    0  501 -0.00000000000E+00 -0.00000000000E+00 -0.20705864214E+03  0.20705864214E+03  0.00000000000E+00 0. -1.
         23    2    1    2    0    0  0.99896873783E+02 -0.58001840472E+02 -0.15985153400E+02  0.17095408689E+03  0.12500470314E+03 0.  0.
          5    1    3    3  502    0  0.12607416971E+03 -0.27487410765E+02 -0.59901323002E+01  0.12926030212E+03  0.47000000000E+01 0. -1.
         -5    1    3    3    0  502 -0.26177295926E+02 -0.30514429707E+02 -0.99950210993E+01  0.41693784778E+02  0.47000000000E+01 0. -1.
        -11    1    1    2    0    0 -0.22054857579E+02  0.53860457131E+02 -0.58686454864E+02  0.82652680354E+02  0.00000000000E+00 0. -1.
         11    1    1    2    0    0 -0.77842016204E+02  0.41413833412E+01 -0.75244882255E+01  0.78314420547E+02  0.00000000000E+00 0.  1.
<mgrwt>
<rscale>  0 0.16400276E+03</rscale>
<asrwt>0</asrwt>
<pdfrwt beam="1">  1        2 0.19209622E-01 0.17020510E+03</pdfrwt>
<pdfrwt beam="2">  1       -2 0.31855176E-01 0.17020510E+03</pdfrwt>
<totfact> 0.26023621E+03</totfact>
</mgrwt>
</event>
<event>
 7    1  0.6419647E-006  0.1452730E+03  0.7546771E-02  0.1216610E+00
         -2   -1    0    0    0  501 -0.00000000000E+00  0.00000000000E+00  0.77154769857E+02  0.77154769857E+02  0.00000000000E+00 0.  1.
          2   -1    0    0  501    0  0.00000000000E+00 -0.00000000000E+00 -0.22272062827E+03  0.22272062827E+03  0.00000000000E+00 0. -1.
         23    2    1    2    0    0  0.68560260894E+02  0.28048851465E+02 -0.79309553601E+02  0.16551212253E+03  0.12496803580E+03 0.  0.
          5    1    3    3  502    0 -0.30017165722E+02  0.32754804236E+02 -0.37098023050E+02  0.58071169721E+02  0.47000000000E+01 0.  1.
         -5    1    3    3    0  502  0.98577426616E+02 -0.47059527715E+01 -0.42211530551E+02  0.10744095281E+03  0.47000000000E+01 0.  1.
        -11    1    1    2    0    0 -0.39233334921E+02  0.38472294172E+00 -0.81748438740E+02  0.90676401656E+02  0.00000000000E+00 0. -1.
         11    1    1    2    0    0 -0.29326925972E+02 -0.28433574406E+02  0.15492133931E+02  0.43686873935E+02  0.00000000000E+00 0.  1.
<mgrwt>
<rscale>  0 0.13758921E+03</rscale>
<asrwt>0</asrwt>
<pdfrwt beam="2">  1        2 0.34264712E-01 0.14527304E+03</pdfrwt>
<pdfrwt beam="1">  1       -2 0.11869965E-01 0.14527304E+03</pdfrwt>
<totfact> 0.72693236E+03</totfact>
</mgrwt>
</event>
<event>
 7    1  0.6419647E-006  0.1374607E+03  0.7546771E-02  0.1227758E+00
         -2   -1    0    0    0  501 -0.00000000000E+00  0.00000000000E+00  0.84252982653E+02  0.84252982653E+02  0.00000000000E+00 0.  1.
          2   -1    0    0  501    0  0.00000000000E+00 -0.00000000000E+00 -0.18956037488E+03  0.18956037488E+03  0.00000000000E+00 0. -1.
         23    2    1    2    0    0  0.57179992538E+02  0.49476123672E+00 -0.87901531000E+02  0.16316289723E+03  0.12500262216E+03 0.  0.
          5    1    3    3  502    0 -0.90648969232E+01  0.15158616447E+02  0.25234513685E+02  0.31158091882E+02  0.47000000000E+01 0.  1.
         -5    1    3    3    0  502  0.66244889461E+02 -0.14663855210E+02 -0.11313604468E+03  0.13200480535E+03  0.47000000000E+01 0.  1.
        -11    1    1    2    0    0  0.58360341253E+01  0.16880313155E+02 -0.38105620371E+02  0.42083756609E+02  0.00000000000E+00 0. -1.
         11    1    1    2    0    0 -0.63016026663E+02 -0.17375074392E+02  0.20699759142E+02  0.68566703691E+02  0.00000000000E+00 0.  1.
<mgrwt>
<rscale>  0 0.12979623E+03</rscale>
<asrwt>0</asrwt>
<pdfrwt beam="2">  1        2 0.29163134E-01 0.13746073E+03</pdfrwt>
<pdfrwt beam="1">  1       -2 0.12961997E-01 0.13746073E+03</pdfrwt>
<totfact> 0.74849258E+03</totfact>
</mgrwt>
</event>
<event>
 7    1  0.6419647E-006  0.1302164E+03  0.7546771E-02  0.1250798E+00
          2   -1    0    0  501    0  0.00000000000E+00  0.00000000000E+00  0.86732297346E+02  0.86732297346E+02  0.00000000000E+00 0. -1.
         -2   -1    0    0    0  501 -0.00000000000E+00 -0.00000000000E+00 -0.13985527780E+03  0.13985527780E+03  0.00000000000E+00 0.  1.
         23    2    1    2    0    0 -0.15368458014E+02  0.33103754447E+02 -0.77503298861E-01  0.13021644737E+03  0.12499707636E+03 0.  0.
          5    1    3    3  502    0 -0.54748576300E+02  0.32416046447E+02  0.38803659804E+02  0.74672757337E+02  0.47000000000E+01 0.  1.
         -5    1    3    3    0  502  0.39380118286E+02  0.68770799986E+00 -0.38881163102E+02  0.55543690035E+02  0.47000000000E+01 0.  1.
        -11    1    1    2    0    0  0.73961778192E+01 -0.10483419021E+02  0.17591696653E+02  0.21773224654E+02  0.00000000000E+00 0. -1.
         11    1    1    2    0    0  0.79722801951E+01 -0.22620335426E+02 -0.70637173810E+02  0.74597903122E+02  0.00000000000E+00 0.  1.
<mgrwt>
<rscale>  0 0.11544957E+03</rscale>
<asrwt>0</asrwt>
<pdfrwt beam="1">  1        2 0.13343431E-01 0.13021642E+03</pdfrwt>
<pdfrwt beam="2">  1       -2 0.21516196E-01 0.13021642E+03</pdfrwt>
<totfact> 0.78172682E+03</totfact>
</mgrwt>
</event>
<event>
 6    1  0.6419647E-006  0.1399814E+03  0.7546771E-02  0.1228492E+00
         -1   -1    0    0    0  501 -0.00000000000E+00  0.00000000000E+00  0.17976191039E+03  0.17976191039E+03  0.00000000000E+00 0.  1.
          1   -1    0    0  501    0  0.00000000000E+00 -0.00000000000E+00 -0.70307274238E+03  0.70307274238E+03  0.00000000000E+00 0. -1.
          5    1    1    2  502    0  0.57185287058E+02  0.32764318420E+01 -0.57108028560E+03  0.57396487232E+03  0.47000000000E+01 0. -1.
         -5    1    1    2    0  502 -0.42443209088E+02  0.28279626376E+02 -0.10983182816E+03  0.12118697844E+03  0.47000000000E+01 0.  1.
        -11    1    1    2    0    0  0.63951730158E+00 -0.63659330729E+02  0.79479322244E+02  0.10183261774E+03  0.00000000000E+00 0. -1.
         11    1    1    2    0    0 -0.15381595272E+02  0.32103272510E+02  0.78121959529E+02  0.85850184273E+02  0.00000000000E+00 0.  1.
<mgrwt>
<rscale>  0 0.12930409E+03</rscale>
<asrwt>0</asrwt>
<pdfrwt beam="2">  1        1 0.10816504E+00 0.13998139E+03</pdfrwt>
<pdfrwt beam="1">  1       -1 0.27655678E-01 0.13998139E+03</pdfrwt>
<totfact> 0.33695166E+02</totfact>
</mgrwt>
</event>
<event>
 7    1  0.6419647E-006  0.1480440E+03  0.7546771E-02  0.1215891E+00
          1   -1    0    0  501    0  0.00000000000E+00  0.00000000000E+00  0.10353983485E+04  0.10353983485E+04  0.00000000000E+00 0. -1.
         -1   -1    0    0    0  501 -0.00000000000E+00 -0.00000000000E+00 -0.23039863277E+02  0.23039863277E+02  0.00000000000E+00 0.  1.
         23    2    1    2    0    0 -0.76772737977E+02 -0.19925859288E+02  0.83906618307E+03  0.85202646689E+03  0.12500379008E+03 0.  0.
          5    1    3    3  502    0  0.13695924292E+02 -0.47560631005E+02  0.20598105121E+03  0.21189590705E+03  0.47000000000E+01 0. -1.
         -5    1    3    3    0  502 -0.90468662270E+02  0.27634771718E+02  0.63308513186E+03  0.64013055984E+03  0.47000000000E+01 0. -1.
        -11    1    1    2    0    0  0.66284810659E+02 -0.95186855950E+01  0.63602975713E+02  0.92355941980E+02  0.00000000000E+00 0.  1.
         11    1    1    2    0    0  0.10487927318E+02  0.29444544883E+02  0.10968932643E+03  0.11405580290E+03  0.00000000000E+00 0. -1.
<mgrwt>
<rscale>  0 0.13811290E+03</rscale>
<asrwt>0</asrwt>
<pdfrwt beam="1">  1        1 0.15929202E+00 0.14804405E+03</pdfrwt>
<pdfrwt beam="2">  1       -1 0.35445951E-02 0.14804405E+03</pdfrwt>
<totfact> 0.43510580E+03</totfact>
</mgrwt>
</event>
<event>
 7    1  0.6419647E-006  0.1412141E+03  0.7546771E-02  0.1222689E+00
         -2   -1    0    0    0  501 -0.00000000000E+00  0.00000000000E+00  0.42142941537E+02  0.42142941537E+02  0.00000000000E+00 0.  1.
          2   -1    0    0  501    0  0.00000000000E+00 -0.00000000000E+00 -0.46528208449E+03  0.46528208449E+03  0.00000000000E+00 0. -1.
         23    2    1    2    0    0  0.59544107253E+02  0.27762563152E+02 -0.33931244468E+03  0.36752462770E+03  0.12500062490E+03 0.  0.
          5    1    3    3  502    0  0.93205624792E+02  0.35351240233E+02 -0.29334247546E+03  0.30985302417E+03  0.47000000000E+01 0. -1.
         -5    1    3    3    0  502 -0.33661517538E+02 -0.75886770813E+01 -0.45969969220E+02  0.57671603523E+02  0.47000000000E+01 0. -1.
        -11    1    1    2    0    0 -0.44397388407E+01  0.29224333697E+02 -0.38654645800E+02  0.48661633788E+02  0.00000000000E+00 0.  1.
         11    1    1    2    0    0 -0.55104368412E+02 -0.56986896850E+02 -0.45172052468E+02  0.91238764540E+02  0.00000000000E+00 0. -1.
<mgrwt>
<rscale>  0 0.13326565E+03</rscale>
<asrwt>0</asrwt>
<pdfrwt beam="2">  1        2 0.71581859E-01 0.14121408E+03</pdfrwt>
<pdfrwt beam="1">  1       -2 0.64835295E-02 0.14121408E+03</pdfrwt>
<totfact> 0.84767776E+03</totfact>
</mgrwt>
</event>
<event>
 7    1  0.6419647E-006  0.1366606E+03  0.7546771E-02  0.1230547E+00
         -1   -1    0    0    0  501 -0.00000000000E+00  0.00000000000E+00  0.36527916213E+03  0.36527916213E+03  0.00000000000E+00 0.  1.
          1   -1    0    0  501    0  0.00000000000E+00 -0.00000000000E+00 -0.40025916609E+02  0.40025916609E+02  0.00000000000E+00 0. -1.
         23    2    1    2    0    0  0.16679790498E+02  0.52667178759E+02  0.17578629880E+03  0.22265878007E+03  0.12499624940E+03 0.  0.
          5    1    3    3  502    0  0.47240608660E+01 -0.21051195141E+01  0.16527981349E+03  0.16542749175E+03  0.47000000000E+01 0. -1.
         -5    1    3    3    0  502  0.11955729632E+02  0.54772298273E+02  0.10506485316E+02  0.57231288321E+02  0.47000000000E+01 0. -1.
        -11    1    1    2    0    0 -0.35261657770E+02  0.98463583614E+01  0.33629551503E+02  0.49711990666E+02  0.00000000000E+00 0. -1.
         11    1    1    2    0    0  0.18581867272E+02 -0.62513537121E+02  0.11583739521E+03  0.13293430800E+03  0.00000000000E+00 0.  1.
<mgrwt>
<rscale>  0 0.12793862E+03</rscale>
<asrwt>0</asrwt>
<pdfrwt beam="2">  1        1 0.61578336E-02 0.13666056E+03</pdfrwt>
<pdfrwt beam="1">  1       -1 0.56196792E-01 0.13666056E+03</pdfrwt>
<totfact> 0.39409382E+03</totfact>
</mgrwt>
</event>
<event>
 7    1  0.8172400E-006  0.2136926E+03  0.7546771E-02  0.1142346E+00
         -1   -1    0    0    0  501 -0.00000000000E+00  0.00000000000E+00  0.36915329195E+02  0.36915329195E+02  0.00000000000E+00 0.  1.
          1   -1    0    0  501    0  0.00000000000E+00 -0.00000000000E+00 -0.12925934667E+04  0.12925934667E+04  0.00000000000E+00 0. -1.
         23    2    1    2    0    0 -0.15208668226E+03 -0.83117914344E+02 -0.88449617180E+03  0.90994395669E+03  0.12500231913E+03 0.  0.
          5    1    3    3  502    0 -0.14577159251E+03 -0.11060520916E+03 -0.80233487849E+03  0.82294970485E+03  0.47000000000E+01 0. -1.
         -5    1    3    3    0  502 -0.63150897451E+01  0.27487294816E+02 -0.82161293315E+02  0.86994251844E+02  0.47000000000E+01 0. -1.
        -11    1    1    2    0    0  0.59344068281E+02  0.53383550022E+02 -0.25891731645E+03  0.27094224220E+03  0.00000000000E+00 0.  1.
         11    1    1    2    0    0  0.92742613978E+02  0.29734364322E+02 -0.11226464930E+03  0.14862259704E+03  0.00000000000E+00 0. -1.
<mgrwt>
<rscale>  0 0.20901779E+03</rscale>
<asrwt>0</asrwt>
<pdfrwt beam="2">  1        1 0.19886053E+00 0.21369260E+03</pdfrwt>
<pdfrwt beam="1">  1       -1 0.56792816E-02 0.21369260E+03</pdfrwt>
<totfact> 0.14361151E+03</totfact>
</mgrwt>
</event>
<event>
 7    1  0.6419647E-006  0.1646236E+03  0.7546771E-02  0.1191072E+00
         -2   -1    0    0    0  501 -0.00000000000E+00  0.00000000000E+00  0.13235293611E+03  0.13235293611E+03  0.00000000000E+00 0.  1.
          2   -1    0    0  501    0  0.00000000000E+00 -0.00000000000E+00 -0.17972709441E+03  0.17972709441E+03  0.00000000000E+00 0. -1.
         23    2    1    2    0    0 -0.10618331868E+03 -0.13379445411E+02 -0.51940171770E+02  0.17262304757E+03  0.12508808251E+03 0.  0.
          5    1    3    3  502    0  0.20055843518E+02  0.71132147864E+01  0.16648113057E+02  0.27424156363E+02  0.47000000000E+01 0.  1.
         -5    1    3    3    0  502 -0.12623916219E+03 -0.20492660198E+02 -0.68588284827E+02  0.14519889121E+03  0.47000000000E+01 0.  1.
        -11    1    1    2    0    0  0.25597975208E+02  0.45814865125E+02  0.24599205261E+00  0.52481603570E+02  0.00000000000E+00 0.  1.
         11    1    1    2    0    0  0.80585343468E+02 -0.32435419713E+02  0.43200214149E+01  0.86975379383E+02  0.00000000000E+00 0. -1.
<mgrwt>
<rscale>  0 0.15791411E+03</rscale>
<asrwt>0</asrwt>
<pdfrwt beam="2">  1        2 0.27650322E-01 0.16462362E+03</pdfrwt>
<pdfrwt beam="1">  1       -2 0.20361990E-01 0.16462362E+03</pdfrwt>
<totfact> 0.38001782E+03</totfact>
</mgrwt>
</event>
<event>
 7    1  0.6419647E-006  0.1156575E+03  0.7546771E-02  0.1260419E+00
          2   -1    0    0  501    0  0.00000000000E+00  0.00000000000E+00  0.34621740150E+03  0.34621740150E+03  0.00000000000E+00 0. -1.
         -2   -1    0    0    0  501 -0.00000000000E+00 -0.00000000000E+00 -0.33114625601E+02  0.33114625601E+02  0.00000000000E+00 0.  1.
         23    2    1    2    0    0 -0.56752558546E+01 -0.22164244018E+02  0.20581360817E+03  0.23608451093E+03  0.11337192223E+03 0.  0.
          5    1    3    3  502    0 -0.13753602103E+02 -0.16138828043E+02  0.21829227261E+03  0.21937007459E+03  0.47000000000E+01 0. -1.
         -5    1    3    3    0  502  0.80783462488E+01 -0.60254159754E+01 -0.12478664444E+02  0.16714436338E+02  0.47000000000E+01 0.  1.
        -11    1    1    2    0    0  0.31454838131E+02 -0.24153796531E+02  0.30937760154E+02  0.50298685191E+02  0.00000000000E+00 0. -1.
         11    1    1    2    0    0 -0.25779582276E+02  0.46318040549E+02  0.76351407578E+02  0.92948830986E+02  0.00000000000E+00 0.  1.
<mgrwt>
<rscale>  0 0.11008147E+03</rscale>
<asrwt>0</asrwt>
<pdfrwt beam="1">  1        2 0.53264213E-01 0.11565749E+03</pdfrwt>
<pdfrwt beam="2">  1       -2 0.50945580E-02 0.11565749E+03</pdfrwt>
<totfact> 0.16475353E+04</totfact>
</mgrwt>
</event>
<event>
 7    1  0.6419647E-006  0.1942737E+03  0.7546771E-02  0.1159152E+00
         -2   -1    0    0    0  501 -0.00000000000E+00  0.00000000000E+00  0.14452441525E+02  0.14452441525E+02  0.00000000000E+00 0.  1.
          2   -1    0    0  501    0  0.00000000000E+00 -0.00000000000E+00 -0.27789684915E+04  0.27789684915E+04  0.00000000000E+00 0. -1.
         23    2    1    2    0    0  0.82873095338E+02  0.12350711736E+03 -0.19871224589E+04  0.19965965838E+04  0.12498117304E+03 0.  0.
          5    1    3    3  502    0  0.24643387645E+02 -0.15828478202E+02 -0.70146555386E+03  0.70209248004E+03  0.47000000000E+01 0. -1.
         -5    1    3    3    0  502  0.58229707694E+02  0.13933559556E+03 -0.12856569051E+04  0.12945041038E+04  0.47000000000E+01 0. -1.
        -11    1    1    2    0    0 -0.92482701047E+02 -0.12816053370E+03 -0.76115606239E+03  0.77739097223E+03  0.00000000000E+00 0.  1.
         11    1    1    2    0    0  0.96096057089E+01  0.46534163341E+01 -0.16237528674E+02  0.19433377033E+02  0.00000000000E+00 0. -1.
<mgrwt>
<rscale>  0 0.18923643E+03</rscale>
<asrwt>0</asrwt>
<pdfrwt beam="2">  1        2 0.42753307E+00 0.19427365E+03</pdfrwt>
<pdfrwt beam="1">  1       -2 0.22234554E-02 0.19427365E+03</pdfrwt>
<totfact> 0.18704770E+03</totfact>
</mgrwt>
</event>
<event>
 7    1  0.6419647E-006  0.1484779E+03  0.7546771E-02  0.1211647E+00
         -1   -1    0    0    0  501 -0.00000000000E+00  0.00000000000E+00  0.94534796109E+02  0.94534796109E+02  0.00000000000E+00 0.  1.
          1   -1    0    0  501    0  0.00000000000E+00 -0.00000000000E+00 -0.26549279078E+03  0.26549279078E+03  0.00000000000E+00 0. -1.
         23    2    1    2    0    0  0.34572023022E+02 -0.72296233325E+02 -0.18541295220E+03  0.23753662783E+03  0.12499486625E+03 0.  0.
          5    1    3    3  502    0  0.48347761560E+01 -0.65185030138E+02 -0.19454185848E+03  0.20528294600E+03  0.47000000000E+01 0. -1.
         -5    1    3    3    0  502  0.29737246866E+02 -0.71112031869E+01  0.91289062859E+01  0.32253681835E+02  0.47000000000E+01 0. -1.
        -11    1    1    2    0    0 -0.47730356178E+02  0.10134145083E+01 -0.33196577683E+01  0.47856389725E+02  0.00000000000E+00 0. -1.
         11    1    1    2    0    0  0.13158333156E+02  0.71282818817E+02  0.17774615298E+02  0.74634569329E+02  0.00000000000E+00 0.  1.
<mgrwt>
<rscale>  0 0.14125735E+03</rscale>
<asrwt>0</asrwt>
<pdfrwt beam="2">  1        1 0.40845045E-01 0.14847790E+03</pdfrwt>
<pdfrwt beam="1">  1       -1 0.14543815E-01 0.14847790E+03</pdfrwt>
<totfact> 0.33531322E+03</totfact>
</mgrwt>
</event>
<event>
 7    1  0.6419647E-006  0.1496156E+03  0.7546771E-02  0.1209998E+00
          2   -1    0    0  501    0  0.00000000000E+00  0.00000000000E+00  0.23922530126E+03  0.23922530126E+03  0.00000000000E+00 0.  1.
         -2   -1    0    0    0  501 -0.00000000000E+00 -0.00000000000E+00 -0.15778290531E+03  0.15778290531E+03  0.00000000000E+00 0. -1.
         23    2    1    2    0    0 -0.68490588388E+02 -0.45487627533E+02  0.18372074434E+03  0.23693489300E+03  0.12499898664E+03 0.  0.
          5    1    3    3  502    0 -0.38803675496E+01 -0.25386520354E+02  0.16432812936E+03  0.16638917263E+03  0.47000000000E+01 0. -1.
         -5    1    3    3    0  502 -0.64610220838E+02 -0.20101107179E+02  0.19392614982E+02  0.70545720369E+02  0.47000000000E+01 0. -1.
        -11    1    1    2    0    0  0.54323428134E+02  0.18656426143E+02 -0.44069574436E+01  0.57606582563E+02  0.00000000000E+00 0.  1.
         11    1    1    2    0    0  0.14167160254E+02  0.26831201390E+02 -0.97871390953E+02  0.10246673101E+03  0.00000000000E+00 0. -1.
<mgrwt>
<rscale>  0 0.14250477E+03</rscale>
<asrwt>0</asrwt>
<pdfrwt beam="1">  1        2 0.36803892E-01 0.14961561E+03</pdfrwt>
<pdfrwt beam="2">  1       -2 0.24274293E-01 0.14961561E+03</pdfrwt>
<totfact> 0.20509438E+03</totfact>
</mgrwt>
</event>
<event>
 7    1  0.6419647E-006  0.1274082E+03  0.7546771E-02  0.1246369E+00
          1   -1    0    0  501    0  0.00000000000E+00  0.00000000000E+00  0.39152761036E+03  0.39152761036E+03  0.00000000000E+00 0. -1.
         -1   -1    0    0    0  501 -0.00000000000E+00 -0.00000000000E+00 -0.31443422638E+02  0.31443422638E+02  0.00000000000E+00 0.  1.
         23    2    1    2    0    0 -0.13269317379E+02  0.20759515899E+02  0.22300729382E+03  0.25683673705E+03  0.12500329643E+03 0.  0.
          5    1    3    3  502    0 -0.39942212124E+02  0.22101598693E+02  0.16823218376E+02  0.48877107634E+02  0.47000000000E+01 0. -1.
         -5    1    3    3    0  502  0.26672894745E+02 -0.13420827942E+01  0.20618407545E+03  0.20795962942E+03  0.47000000000E+01 0. -1.
        -11    1    1    2    0    0  0.46201680430E+02  0.10707788611E+02  0.81298745013E+02  0.94120868845E+02  0.00000000000E+00 0. -1.
         11    1    1    2    0    0 -0.32932363051E+02 -0.31467304510E+02  0.55778148884E+02  0.72013427096E+02  0.00000000000E+00 0.  1.
<mgrwt>
<rscale>  0 0.11803841E+03</rscale>
<asrwt>0</asrwt>
<pdfrwt beam="1">  1        1 0.60235014E-01 0.12740823E+03</pdfrwt>
<pdfrwt beam="2">  1       -1 0.48374499E-02 0.12740823E+03</pdfrwt>
<totfact> 0.10863928E+04</totfact>
</mgrwt>
</event>
<event>
 7    1  0.6419647E-006  0.1280120E+03  0.7546771E-02  0.1244356E+00
          2   -1    0    0  501    0  0.00000000000E+00  0.00000000000E+00  0.17780375657E+03  0.17780375657E+03  0.00000000000E+00 0. -1.
         -2   -1    0    0    0  501 -0.00000000000E+00 -0.00000000000E+00 -0.82456591938E+02  0.82456591938E+02  0.00000000000E+00 0.  1.
         23    2    1    2    0    0  0.76522814097E+01 -0.26534988643E+02  0.10197358357E+03  0.16366333470E+03  0.12499764936E+03 0.  0.
          5    1    3    3  502    0  0.45177217653E+02 -0.57572199629E+02  0.36454124364E+02  0.81893420665E+02  0.47000000000E+01 0.  1.
         -5    1    3    3    0  502 -0.37524936243E+02  0.31037210986E+02  0.65519459206E+02  0.81769914031E+02  0.47000000000E+01 0.  1.
        -11    1    1    2    0    0  0.16885470392E+02 -0.12003285088E+02  0.31085228326E+02  0.37356249589E+02  0.00000000000E+00 0. -1.
         11    1    1    2    0    0 -0.24537751802E+02  0.38538273731E+02 -0.37711647268E+02  0.59240764220E+02  0.00000000000E+00 0.  1.
<mgrwt>
<rscale>  0 0.11924026E+03</rscale>
<asrwt>0</asrwt>
<pdfrwt beam="1">  1        2 0.27354424E-01 0.12801201E+03</pdfrwt>
<pdfrwt beam="2">  1       -2 0.12685630E-01 0.12801201E+03</pdfrwt>
<totfact> 0.82644699E+03</totfact>
</mgrwt>
</event>
<event>
 7    1  0.6419647E-006  0.2018817E+03  0.7546771E-02  0.1151955E+00
         -1   -1    0    0    0  501 -0.00000000000E+00  0.00000000000E+00  0.42829434305E+02  0.42829434305E+02  0.00000000000E+00 0.  1.
          1   -1    0    0  501    0  0.00000000000E+00 -0.00000000000E+00 -0.89723402317E+03  0.89723402317E+03  0.00000000000E+00 0. -1.
         23    2    1    2    0    0  0.12325484764E+03 -0.99696993641E+02 -0.52528439584E+03  0.56274319843E+03  0.12499985142E+03 0.  0.
          5    1    3    3  502    0  0.90279337015E+02  0.31911491516E+01 -0.29031171605E+03  0.30407815541E+03  0.47000000000E+01 0.  1.
         -5    1    3    3    0  502  0.32975510625E+02 -0.10288814279E+03 -0.23497267980E+03  0.25866504302E+03  0.47000000000E+01 0.  1.
        -11    1    1    2    0    0  0.13477651417E+02  0.19674563709E+02 -0.25904777375E+02  0.35210694905E+02  0.00000000000E+00 0.  1.
         11    1    1    2    0    0 -0.13673249906E+03  0.80022429932E+02 -0.30321541565E+03  0.34210956414E+03  0.00000000000E+00 0. -1.
<mgrwt>
<rscale>  0 0.19739588E+03</rscale>
<asrwt>0</asrwt>
<pdfrwt beam="2">  1        1 0.13803600E+00 0.20188168E+03</pdfrwt>
<pdfrwt beam="1">  1       -1 0.65891440E-02 0.20188168E+03</pdfrwt>
<totfact> 0.22138062E+03</totfact>
</mgrwt>
</event>
<event>
 7    1  0.6419647E-006  0.1467682E+03  0.7546771E-02  0.1215539E+00
         -2   -1    0    0    0  501 -0.00000000000E+00  0.00000000000E+00  0.10370010312E+03  0.10370010312E+03  0.00000000000E+00 0.  1.
          2   -1    0    0  501    0  0.00000000000E+00 -0.00000000000E+00 -0.16640695031E+03  0.16640695031E+03  0.00000000000E+00 0. -1.
         23    2    1    2    0    0 -0.74041522794E+01  0.76561093362E+02 -0.33981545645E+02  0.15065079515E+03  0.12499797658E+03 0.  0.
          5    1    3    3  502    0  0.19565665663E+02  0.34072837552E+02  0.43077799052E+02  0.58494104855E+02  0.47000000000E+01 0.  1.
         -5    1    3    3    0  502 -0.26969817943E+02  0.42488255810E+02 -0.77059344697E+02  0.92156690298E+02  0.47000000000E+01 0.  1.
        -11    1    1    2    0    0  0.33250536002E+02 -0.68026725389E+01  0.10274872155E+02  0.35460506142E+02  0.00000000000E+00 0.  1.
         11    1    1    2    0    0 -0.25846383722E+02 -0.69758420823E+02 -0.39000173704E+02  0.83995752132E+02  0.00000000000E+00 0. -1.
<mgrwt>
<rscale>  0 0.13837027E+03</rscale>
<asrwt>0</asrwt>
<pdfrwt beam="2">  1        2 0.25601069E-01 0.14676824E+03</pdfrwt>
<pdfrwt beam="1">  1       -2 0.15953862E-01 0.14676824E+03</pdfrwt>
<totfact> 0.61822283E+03</totfact>
</mgrwt>
</event>
<event>
 6    1  0.6419647E-006  0.2011762E+03  0.7546771E-02  0.1168577E+00
         -1   -1    0    0    0  501 -0.00000000000E+00  0.00000000000E+00  0.24031344219E+02  0.24031344219E+02  0.00000000000E+00 0.  1.
          1   -1    0    0  501    0  0.00000000000E+00 -0.00000000000E+00 -0.11359373413E+04  0.11359373413E+04  0.00000000000E+00 0. -1.
          5    1    1    2  502    0  0.85885669782E+02 -0.53393305546E+02 -0.37919626412E+03  0.39247813961E+03  0.47000000000E+01 0. -1.
         -5    1    1    2    0  502 -0.10121502417E+02  0.99311516266E+02 -0.37194600127E+03  0.38513781941E+03  0.47000000000E+01 0.  1.
        -11    1    1    2    0    0 -0.98934620632E+01  0.26684761310E+02 -0.73151772760E+02  0.78492922838E+02  0.00000000000E+00 0.  1.
         11    1    1    2    0    0 -0.65870705302E+02 -0.72602972029E+02 -0.28761195896E+03  0.30385980369E+03  0.00000000000E+00 0. -1.
<mgrwt>
<rscale>  0 0.17920234E+03</rscale>
<asrwt>0</asrwt>
<pdfrwt beam="2">  1        1 0.17475955E+00 0.20117623E+03</pdfrwt>
<pdfrwt beam="1">  1       -1 0.36971308E-02 0.20117623E+03</pdfrwt>
<totfact> 0.34945438E+03</totfact>
</mgrwt>
</event>
<event>
 7    1  0.6419647E-006  0.1535790E+03  0.7546771E-02  0.1215891E+00
          1   -1    0    0  501    0  0.00000000000E+00  0.00000000000E+00  0.18592144648E+03  0.18592144648E+03  0.00000000000E+00 0. -1.
         -1   -1    0    0    0  501 -0.00000000000E+00 -0.00000000000E+00 -0.88054320314E+02  0.88054320314E+02  0.00000000000E+00 0.  1.
         23    2    1    2    0    0  0.82107169962E+02 -0.34936642318E+02  0.75204617087E+02  0.17100363695E+03  0.12499741230E+03 0.  0.
          5    1    3    3  502    0  0.21339404373E+02 -0.75850631380E+02  0.49761259391E+02  0.93311100068E+02  0.47000000000E+01 0. -1.
         -5    1    3    3    0  502  0.60767765589E+02  0.40913989062E+02  0.25443357696E+02  0.77692536878E+02  0.47000000000E+01 0. -1.
        -11    1    1    2    0    0 -0.50020868854E+02  0.10218579557E+02  0.33475821404E+02  0.61050285075E+02  0.00000000000E+00 0. -1.
         11    1    1    2    0    0 -0.32086301108E+02  0.24718062760E+02 -0.10813312328E+02  0.41921844770E+02  0.00000000000E+00 0.  1.
<mgrwt>
<rscale>  0 0.13811266E+03</rscale>
<asrwt>0</asrwt>
<pdfrwt beam="1">  1        1 0.28603299E-01 0.15357900E+03</pdfrwt>
<pdfrwt beam="2">  1       -1 0.13546819E-01 0.15357900E+03</pdfrwt>
<totfact> 0.58465597E+03</totfact>
</mgrwt>
</event>
<event>
 7    1  0.6419647E-006  0.1297211E+03  0.7546771E-02  0.1240784E+00
          1   -1    0    0  501    0  0.00000000000E+00  0.00000000000E+00  0.17602268954E+03  0.17602268954E+03  0.00000000000E+00 0. -1.
         -1   -1    0    0    0  501 -0.00000000000E+00 -0.00000000000E+00 -0.78714423365E+02  0.78714423365E+02  0.00000000000E+00 0.  1.
         23    2    1    2    0    0 -0.16719508873E+02 -0.30407542162E+02  0.83413545793E+02  0.15422506699E+03  0.12499356411E+03 0.  0.
          5    1    3    3  502    0  0.54421429924E+02 -0.13923474450E+02  0.32355882464E+02  0.64996525337E+02  0.47000000000E+01 0.  1.
         -5    1    3    3    0  502 -0.71140938798E+02 -0.16484067712E+02  0.51057663329E+02  0.89228541655E+02  0.47000000000E+01 0.  1.
        -11    1    1    2    0    0 -0.24673328541E+02  0.46889980284E+02 -0.24829768492E+01  0.53043459223E+02  0.00000000000E+00 0. -1.
         11    1    1    2    0    0  0.41392837414E+02 -0.16482438123E+02  0.16377697228E+02  0.47468586688E+02  0.00000000000E+00 0.  1.
<mgrwt>
<rscale>  0 0.12141292E+03</rscale>
<asrwt>0</asrwt>
<pdfrwt beam="1">  1        1 0.27080414E-01 0.12972105E+03</pdfrwt>
<pdfrwt beam="2">  1       -1 0.12109911E-01 0.12972105E+03</pdfrwt>
<totfact> 0.73658507E+03</totfact>
</mgrwt>
</event>
<event>
 7    1  0.6419647E-006  0.1471874E+03  0.7546771E-02  0.1212337E+00
          3   -1    0    0  501    0  0.00000000000E+00  0.00000000000E+00  0.75487595031E+02  0.75487595031E+02  0.00000000000E+00 0. -1.
         -3   -1    0    0    0  501 -0.00000000000E+00 -0.00000000000E+00 -0.28326057390E+03  0.28326057390E+03  0.00000000000E+00 0.  1.
         23    2    1    2    0    0  0.41206037837E+02 -0.65907808679E+02 -0.43454749063E+02  0.15346803923E+03  0.12498938775E+03 0.  0.
          5    1    3    3  502    0  0.25075649814E+02 -0.39544009003E+02 -0.87561123990E+02  0.99406022433E+02  0.47000000000E+01 0. -1.
         -5    1    3    3    0  502  0.16130388023E+02 -0.26363799676E+02  0.44106374927E+02  0.54062016798E+02  0.47000000000E+01 0. -1.
        -11    1    1    2    0    0 -0.10248054112E+02  0.43220192737E+02 -0.16070326233E+03  0.16672896028E+03  0.00000000000E+00 0.  1.
         11    1    1    2    0    0 -0.30957983725E+02  0.22687615942E+02 -0.36149674747E+01  0.38551169415E+02  0.00000000000E+00 0. -1.
<mgrwt>
<rscale>  0 0.14073972E+03</rscale>
<asrwt>0</asrwt>
<pdfrwt beam="1">  1        3 0.11613476E-01 0.14718738E+03</pdfrwt>
<pdfrwt beam="2">  1       -3 0.43578549E-01 0.14718738E+03</pdfrwt>
<totfact> 0.70589801E+02</totfact>
</mgrwt>
</event>
<event>
 7    1  0.1040929E-005  0.1382977E+03  0.7546771E-02  0.1226770E+00
          1   -1    0    0  501    0  0.00000000000E+00  0.00000000000E+00  0.10513281103E+04  0.10513281103E+04  0.00000000000E+00 0. -1.
         -1   -1    0    0    0  501 -0.00000000000E+00 -0.00000000000E+00 -0.14672702881E+02  0.14672702881E+02  0.00000000000E+00 0.  1.
         23    2    1    2    0    0 -0.47334331342E+01  0.58979747502E+02  0.61440215917E+03  0.62977478492E+03  0.12500100206E+03 0.  0.
          5    1    3    3  502    0 -0.35535746386E+02  0.21957980518E+02  0.59972463646E+02  0.73237480674E+02  0.47000000000E+01 0. -1.
         -5    1    3    3    0  502  0.30802313252E+02  0.37021766984E+02  0.55442969553E+03  0.55653730424E+03  0.47000000000E+01 0. -1.
        -11    1    1    2    0    0 -0.43608005794E+02 -0.29819960889E+02  0.18975173546E+03  0.19696854913E+03  0.00000000000E+00 0.  1.
         11    1    1    2    0    0  0.48341438928E+02 -0.29159786613E+02  0.23250151275E+03  0.23925747910E+03  0.00000000000E+00 0. -1.
<mgrwt>
<rscale>  0 0.13046316E+03</rscale>
<asrwt>0</asrwt>
<pdfrwt beam="1">  1        1 0.16174273E+00 0.13829775E+03</pdfrwt>
<pdfrwt beam="2">  1       -1 0.22573397E-02 0.13829775E+03</pdfrwt>
<totfact> 0.81513115E+03</totfact>
</mgrwt>
</event>
<event>
 7    1  0.6419647E-006  0.1531777E+03  0.7546771E-02  0.1207245E+00
          1   -1    0    0  501    0  0.00000000000E+00  0.00000000000E+00  0.16587094716E+03  0.16587094716E+03  0.00000000000E+00 0. -1.
         -1   -1    0    0    0  501 -0.00000000000E+00 -0.00000000000E+00 -0.12275966740E+03  0.12275966740E+03  0.00000000000E+00 0.  1.
         23    2    1    2    0    0  0.21792855846E+02  0.85810831105E+02  0.62408280394E+02  0.16540311634E+03  0.12499988053E+03 0.  0.
          5    1    3    3  502    0  0.29116937815E+02  0.56349937777E+02  0.98972839787E+02  0.11764703384E+03  0.47000000000E+01 0. -1.
         -5    1    3    3    0  502 -0.73240819689E+01  0.29460893328E+02 -0.36564559394E+02  0.47756082503E+02  0.47000000000E+01 0. -1.
        -11    1    1    2    0    0  0.21386240059E+02 -0.56669791770E+02 -0.33521077997E+02  0.69227879017E+02  0.00000000000E+00 0.  1.
         11    1    1    2    0    0 -0.43179095905E+02 -0.29141039335E+02  0.14224077361E+02  0.53999619197E+02  0.00000000000E+00 0. -1.
<mgrwt>
<rscale>  0 0.14461910E+03</rscale>
<asrwt>0</asrwt>
<pdfrwt beam="1">  1        1 0.25518607E-01 0.15317767E+03</pdfrwt>
<pdfrwt beam="2">  1       -1 0.18886103E-01 0.15317767E+03</pdfrwt>
<totfact> 0.39901163E+03</totfact>
</mgrwt>
</event>
<event>
 7    1  0.6419647E-006  0.3809094E+03  0.7546771E-02  0.1051492E+00
          2   -1    0    0  501    0  0.00000000000E+00  0.00000000000E+00  0.10371262494E+04  0.10371262494E+04  0.00000000000E+00 0. -1.
         -2   -1    0    0    0  501 -0.00000000000E+00 -0.00000000000E+00 -0.19049337690E+03  0.19049337690E+03  0.00000000000E+00 0.  1.
         23    2    1    2    0    0 -0.35698559501E+03  0.45038711982E+02  0.75423242795E+03  0.84496068040E+03  0.12499918166E+03 0.  0.
          5    1    3    3  502    0 -0.20310354885E+03  0.54314378656E+00  0.54340706386E+03  0.58014194264E+03  0.47000000000E+01 0.  1.
         -5    1    3    3    0  502 -0.15388204616E+03  0.44495568196E+02  0.21082536410E+03  0.26481873776E+03  0.47000000000E+01 0.  1.
        -11    1    1    2    0    0  0.22302531541E+03 -0.50895159134E+02  0.18378423861E+02  0.22949591500E+03  0.00000000000E+00 0.  1.
         11    1    1    2    0    0  0.13396027960E+03  0.58564471512E+01  0.74022020650E+02  0.15316303087E+03  0.00000000000E+00 0. -1.
<mgrwt>
<rscale>  0 0.37849304E+03</rscale>
<asrwt>0</asrwt>
<pdfrwt beam="1">  1        2 0.15955788E+00 0.38090943E+03</pdfrwt>
<pdfrwt beam="2">  1       -2 0.29306674E-01 0.38090943E+03</pdfrwt>
<totfact> 0.26475430E+02</totfact>
</mgrwt>
</event>
<event>
 7    1  0.6419647E-006  0.1592902E+03  0.7546771E-02  0.1197338E+00
         -1   -1    0    0    0  501 -0.00000000000E+00  0.00000000000E+00  0.58658786907E+02  0.58658786907E+02  0.00000000000E+00 0.  1.
          1   -1    0    0  501    0  0.00000000000E+00 -0.00000000000E+00 -0.41224836242E+03  0.41224836242E+03  0.00000000000E+00 0. -1.
         23    2    1    2    0    0 -0.74135368372E+02 -0.65204160854E+02 -0.26817555175E+03  0.31191587025E+03  0.12500299246E+03 0.  0.
          5    1    3    3  502    0  0.29840131468E+02  0.73766541297E+01 -0.38193326310E+02  0.49251077621E+02  0.47000000000E+01 0.  1.
         -5    1    3    3    0  502 -0.10397549984E+03 -0.72580814983E+02 -0.22998222544E+03  0.26266479263E+03  0.47000000000E+01 0.  1.
        -11    1    1    2    0    0 -0.37850633327E+01  0.15035296599E+02  0.15539026316E+02  0.21951040684E+02  0.00000000000E+00 0.  1.
         11    1    1    2    0    0  0.77920431704E+02  0.50168864255E+02 -0.10095305008E+03  0.13704023839E+03  0.00000000000E+00 0. -1.
<mgrwt>
<rscale>  0 0.15258037E+03</rscale>
<asrwt>0</asrwt>
<pdfrwt beam="2">  1        1 0.63422824E-01 0.15929025E+03</pdfrwt>
<pdfrwt beam="1">  1       -1 0.90244288E-02 0.15929025E+03</pdfrwt>
<totfact> 0.40545567E+03</totfact>
</mgrwt>
</event>
<event>
 7    1  0.6419647E-006  0.1263608E+03  0.7546771E-02  0.1249389E+00
         -2   -1    0    0    0  501 -0.00000000000E+00  0.00000000000E+00  0.24444855868E+03  0.24444855868E+03  0.00000000000E+00 0.  1.
          2   -1    0    0  501    0  0.00000000000E+00 -0.00000000000E+00 -0.67240660264E+02  0.67240660264E+02  0.00000000000E+00 0. -1.
         23    2    1    2    0    0 -0.91203642498E+00  0.18516531530E+02  0.16788970454E+02  0.12747124515E+03  0.12499342007E+03 0.  0.
          5    1    3    3  502    0  0.33148751769E+02 -0.35302985456E+02  0.36287191730E+02  0.60695887913E+02  0.47000000000E+01 0. -1.
         -5    1    3    3    0  502 -0.34060788194E+02  0.53819516986E+02 -0.19498221276E+02  0.66775357235E+02  0.47000000000E+01 0. -1.
        -11    1    1    2    0    0  0.32161252851E+02  0.22146288025E+02  0.62859357120E+02  0.74000696184E+02  0.00000000000E+00 0.  1.
         11    1    1    2    0    0 -0.31249216426E+02 -0.40662819555E+02  0.97559570840E+02  0.11021727761E+03  0.00000000000E+00 0. -1.
<mgrwt>
<rscale>  0 0.11626511E+03</rscale>
<asrwt>0</asrwt>
<pdfrwt beam="2">  1        2 0.10344717E-01 0.12636079E+03</pdfrwt>
<pdfrwt beam="1">  1       -2 0.37607470E-01 0.12636079E+03</pdfrwt>
<totfact> 0.39154900E+03</totfact>
</mgrwt>
</event>
<event>
 7    1  0.1101674E-005  0.2107703E+03  0.7546771E-02  0.1144755E+00
          1   -1    0    0  501    0  0.00000000000E+00  0.00000000000E+00  0.70701749431E+03  0.70701749431E+03  0.00000000000E+00 0. -1.
         -1   -1    0    0    0  501 -0.00000000000E+00 -0.00000000000E+00 -0.60705381974E+02  0.60705381974E+02  0.00000000000E+00 0.  1.
         23    2    1    2    0    0  0.15521584245E+03 -0.68611472079E+02  0.42549287253E+03  0.47483501636E+03  0.12499846535E+03 0.  0.
          5    1    3    3  502    0  0.15976639809E+02 -0.29776960672E+02  0.11020854601E+02  0.35853446732E+02  0.47000000000E+01 0.  1.
         -5    1    3    3    0  502  0.13923920264E+03 -0.38834511408E+02  0.41447201792E+03  0.43898156962E+03  0.47000000000E+01 0.  1.
        -11    1    1    2    0    0 -0.10172270841E+03  0.28897784840E+02  0.19423629264E+03  0.22115679676E+03  0.00000000000E+00 0. -1.
         11    1    1    2    0    0 -0.53493134032E+02  0.39713687240E+02  0.26582947174E+02  0.71731063168E+02  0.00000000000E+00 0.  1.
<mgrwt>
<rscale>  0 0.20602254E+03</rscale>
<asrwt>0</asrwt>
<pdfrwt beam="1">  1        1 0.10877192E+00 0.21077027E+03</pdfrwt>
<pdfrwt beam="2">  1       -1 0.93392900E-02 0.21077027E+03</pdfrwt>
<totfact> 0.18750655E+03</totfact>
</mgrwt>
</event>
<event>
 7    1  0.6419647E-006  0.1423902E+03  0.7546771E-02  0.1220353E+00
         -1   -1    0    0    0  501 -0.00000000000E+00  0.00000000000E+00  0.30024957535E+02  0.30024957535E+02  0.00000000000E+00 0.  1.
          1   -1    0    0  501    0  0.00000000000E+00 -0.00000000000E+00 -0.56030417022E+03  0.56030417022E+03  0.00000000000E+00 0. -1.
         23    2    1    2    0    0 -0.39497936007E+02  0.55597315497E+02 -0.33204155643E+03  0.36128460414E+03  0.12499528610E+03 0.  0.
          5    1    3    3  502    0 -0.49203244672E+02  0.22447867144E+01 -0.38373744239E+02  0.62614955087E+02  0.47000000000E+01 0.  1.
         -5    1    3    3    0  502  0.97053086641E+01  0.53352528782E+02 -0.29366781219E+03  0.29866964905E+03  0.47000000000E+01 0.  1.
        -11    1    1    2    0    0 -0.53119736593E+01 -0.40622369552E+02 -0.21833419765E+02  0.46422970508E+02  0.00000000000E+00 0.  1.
         11    1    1    2    0    0  0.44809909667E+02 -0.14974945944E+02 -0.17640423649E+03  0.18262155311E+03  0.00000000000E+00 0. -1.
<mgrwt>
<rscale>  0 0.13490572E+03</rscale>
<asrwt>0</asrwt>
<pdfrwt beam="2">  1        1 0.86200638E-01 0.14239020E+03</pdfrwt>
<pdfrwt beam="1">  1       -1 0.46192244E-02 0.14239020E+03</pdfrwt>
<totfact> 0.73767182E+03</totfact>
</mgrwt>
</event>
<event>
 7    1  0.6419647E-006  0.1301077E+03  0.7546771E-02  0.1242686E+00
          1   -1    0    0  501    0  0.00000000000E+00  0.00000000000E+00  0.21638814713E+03  0.21638814713E+03  0.00000000000E+00 0. -1.
         -1   -1    0    0    0  501 -0.00000000000E+00 -0.00000000000E+00 -0.61712380587E+02  0.61712380587E+02  0.00000000000E+00 0.  1.
         23    2    1    2    0    0 -0.10492865286E+02 -0.34487525493E+02  0.12010294452E+03  0.17706701266E+03  0.12501407942E+03 0.  0.
          5    1    3    3  502    0 -0.31733822343E+02  0.39051374303E+01 -0.14496006929E+02  0.35419059780E+02  0.47000000000E+01 0.  1.
         -5    1    3    3    0  502  0.21240957057E+02 -0.38392662924E+02  0.13459895145E+03  0.14164795288E+03  0.47000000000E+01 0.  1.
        -11    1    1    2    0    0  0.43572223761E+02  0.32539324869E+02  0.17754203292E+01  0.54410462815E+02  0.00000000000E+00 0.  1.
         11    1    1    2    0    0 -0.33079358475E+02  0.19482006246E+01  0.32797401695E+02  0.46623052246E+02  0.00000000000E+00 0. -1.
<mgrwt>
<rscale>  0 0.12024937E+03</rscale>
<asrwt>0</asrwt>
<pdfrwt beam="1">  1        1 0.33290484E-01 0.13010768E+03</pdfrwt>
<pdfrwt beam="2">  1       -1 0.94942125E-02 0.13010768E+03</pdfrwt>
<totfact> 0.82736350E+03</totfact>
</mgrwt>
</event>
<event>
 7    1  0.6419647E-006  0.1562756E+03  0.7546771E-02  0.1200945E+00
         -1   -1    0    0    0  501 -0.00000000000E+00  0.00000000000E+00  0.27302737702E+02  0.27302737702E+02  0.00000000000E+00 0.  1.
          1   -1    0    0  501    0  0.00000000000E+00 -0.00000000000E+00 -0.79505265331E+03  0.79505265331E+03  0.00000000000E+00 0. -1.
         23    2    1    2    0    0  0.21113815815E+02 -0.91367205904E+02 -0.50501675422E+03  0.52864352467E+03  0.12501317773E+03 0.  0.
          5    1    3    3  502    0 -0.28172870748E+00 -0.95310256948E+02 -0.18786612398E+03  0.21071282588E+03  0.47000000000E+01 0.  1.
         -5    1    3    3    0  502  0.21395544522E+02  0.39430510441E+01 -0.31715063024E+03  0.31793069880E+03  0.47000000000E+01 0.  1.
        -11    1    1    2    0    0 -0.57744154367E+00  0.57426972231E+02 -0.24244721874E+03  0.24915626513E+03  0.00000000000E+00 0. -1.
         11    1    1    2    0    0 -0.20536374271E+02  0.33940233673E+02 -0.20285942654E+02  0.44555601212E+02  0.00000000000E+00 0.  1.
<mgrwt>
<rscale>  0 0.14961633E+03</rscale>
<asrwt>0</asrwt>
<pdfrwt beam="2">  1        1 0.12231578E+00 0.15627557E+03</pdfrwt>
<pdfrwt beam="1">  1       -1 0.42004216E-02 0.15627557E+03</pdfrwt>
<totfact> 0.51968996E+03</totfact>
</mgrwt>
</event>
<event>
 7    1  0.6419647E-006  0.1354099E+03  0.7546771E-02  0.1231848E+00
          2   -1    0    0  501    0  0.00000000000E+00  0.00000000000E+00  0.20960331707E+03  0.20960331707E+03  0.00000000000E+00 0. -1.
         -2   -1    0    0    0  501 -0.00000000000E+00 -0.00000000000E+00 -0.81129798484E+02  0.81129798484E+02  0.00000000000E+00 0.  1.
         23    2    1    2    0    0  0.41153882652E+02  0.31878996334E+02  0.12703379861E+03  0.18567023905E+03  0.12500375679E+03 0.  0.
          5    1    3    3  502    0  0.62378567041E+02 -0.14008534989E+02  0.11772590711E+03  0.13404776717E+03  0.47000000000E+01 0.  1.
         -5    1    3    3    0  502 -0.21224684389E+02  0.45887531322E+02  0.93078915057E+01  0.51622471876E+02  0.47000000000E+01 0.  1.
        -11    1    1    2    0    0  0.16617691124E+02 -0.42816291142E+02  0.47436815849E+01  0.46172339776E+02  0.00000000000E+00 0. -1.
         11    1    1    2    0    0 -0.57771573776E+02  0.10937294808E+02 -0.33039616125E+01  0.58890536732E+02  0.00000000000E+00 0.  1.
<mgrwt>
<rscale>  0 0.12708375E+03</rscale>
<asrwt>0</asrwt>
<pdfrwt beam="1">  1        2 0.32246664E-01 0.13540994E+03</pdfrwt>
<pdfrwt beam="2">  1       -2 0.12481508E-01 0.13540994E+03</pdfrwt>
<totfact> 0.71266013E+03</totfact>
</mgrwt>
</event>
<event>
 7    1  0.6419647E-006  0.1149855E+03  0.7546771E-02  0.1259798E+00
          2   -1    0    0  501    0  0.00000000000E+00  0.00000000000E+00  0.12466843651E+03  0.12466843651E+03  0.00000000000E+00 0. -1.
         -2   -1    0    0    0  501 -0.00000000000E+00 -0.00000000000E+00 -0.91863882270E+02  0.91863882270E+02  0.00000000000E+00 0.  1.
         23    2    1    2    0    0 -0.12356277131E+02 -0.29423796078E+02  0.29458474061E+02  0.11869903281E+03  0.11046819151E+03 0.  0.
          5    1    3    3  502    0 -0.44056016277E+02 -0.57349299483E+02  0.17866692724E+02  0.74640360599E+02  0.47000000000E+01 0. -1.
         -5    1    3    3    0  502  0.31699739147E+02  0.27925503405E+02  0.11591781337E+02  0.44058672210E+02  0.47000000000E+01 0.  1.
        -11    1    1    2    0    0 -0.23309411920E+02 -0.24034148012E+02  0.23288021280E+01  0.33561768041E+02  0.00000000000E+00 0. -1.
         11    1    1    2    0    0  0.35665689051E+02  0.53457944089E+02  0.10172780462E+01  0.64271517925E+02  0.00000000000E+00 0.  1.
<mgrwt>
<rscale>  0 0.11041812E+03</rscale>
<asrwt>0</asrwt>
<pdfrwt beam="1">  1        2 0.19179759E-01 0.11498547E+03</pdfrwt>
<pdfrwt beam="2">  1       -2 0.14132905E-01 0.11498547E+03</pdfrwt>
<totfact> 0.10210796E+04</totfact>
</mgrwt>
</event>
<event>
 6    1  0.6419647E-006  0.1410257E+03  0.7546771E-02  0.1223891E+00
         -1   -1    0    0    0  501 -0.00000000000E+00  0.00000000000E+00  0.27792601923E+02  0.27792601923E+02  0.00000000000E+00 0.  1.
          1   -1    0    0  501    0  0.00000000000E+00 -0.00000000000E+00 -0.82218587919E+03  0.82218587919E+03  0.00000000000E+00 0. -1.
          5    1    1    2  502    0  0.11509896798E+00 -0.13174381987E+02 -0.60213162191E+03  0.60229407908E+03  0.47000000000E+01 0. -1.
         -5    1    1    2    0  502  0.44965264151E+01 -0.45587887188E+02 -0.65487113923E+02  0.80057019043E+02  0.47000000000E+01 0.  1.
        -11    1    1    2    0    0 -0.10618839860E+02 -0.22101213109E+02 -0.51265287662E+02  0.56827397442E+02  0.00000000000E+00 0.  1.
         11    1    1    2    0    0  0.60072144764E+01  0.80863482285E+02 -0.75509253773E+02  0.11079998555E+03  0.00000000000E+00 0. -1.
<mgrwt>
<rscale>  0 0.13243233E+03</rscale>
<asrwt>0</asrwt>
<pdfrwt beam="2">  1        1 0.12649014E+00 0.14102569E+03</pdfrwt>
<pdfrwt beam="1">  1       -1 0.42757846E-02 0.14102569E+03</pdfrwt>
<totfact> 0.47899313E+03</totfact>
</mgrwt>
</event>
<event>
 7    1  0.6419647E-006  0.1185051E+03  0.7546771E-02  0.1250528E+00
         -2   -1    0    0    0  501 -0.00000000000E+00  0.00000000000E+00  0.11554562149E+03  0.11554562149E+03  0.00000000000E+00 0.  1.
          2   -1    0    0  501    0  0.00000000000E+00 -0.00000000000E+00 -0.30464412593E+04  0.30464412593E+04  0.00000000000E+00 0. -1.
         23    2    1    2    0    0  0.19780558985E+02 -0.19133500783E+02 -0.30201040956E+04  0.30224281968E+04  0.11526532688E+03 0.  0.
          5    1    3    3  502    0 -0.39022962763E+02  0.22849982947E+02 -0.13207708356E+04  0.13215531028E+04  0.47000000000E+01 0. -1.
         -5    1    3    3    0  502  0.58803521748E+02 -0.41983483730E+02 -0.16993332599E+04  0.17008750940E+04  0.47000000000E+01 0.  1.
        -11    1    1    2    0    0 -0.61756768945E+02  0.14779594209E+02  0.65168114172E+02  0.90990208376E+02  0.00000000000E+00 0.  1.
         11    1    1    2    0    0  0.41976209961E+02  0.43539065733E+01  0.24040343553E+02  0.48568475612E+02  0.00000000000E+00 0. -1.
<mgrwt>
<rscale>  0 0.11560514E+03</rscale>
<asrwt>0</asrwt>
<pdfrwt beam="2">  1        2 0.46868333E+00 0.11850509E+03</pdfrwt>
<pdfrwt beam="1">  1       -2 0.17776247E-01 0.11850509E+03</pdfrwt>
<totfact> 0.55771639E+01</totfact>
</mgrwt>
</event>
<event>
 7    1  0.6419647E-006  0.3303084E+03  0.7546771E-02  0.1072364E+00
         -1   -1    0    0    0  501 -0.00000000000E+00  0.00000000000E+00  0.41873445423E+03  0.41873445423E+03  0.00000000000E+00 0.  1.
          1   -1    0    0  501    0  0.00000000000E+00 -0.00000000000E+00 -0.25143523443E+03  0.25143523443E+03  0.00000000000E+00 0. -1.
         23    2    1    2    0    0 -0.15891074399E+03  0.26119938875E+03  0.72998181346E+02  0.33827850819E+03  0.12500347749E+03 0.  0.
          5    1    3    3  502    0 -0.82131338065E+01  0.11603765188E+03 -0.59170989280E+00  0.11642436318E+03  0.47000000000E+01 0.  1.
         -5    1    3    3    0  502 -0.15069761018E+03  0.14516173687E+03  0.73589891239E+02  0.22185414501E+03  0.47000000000E+01 0.  1.
        -11    1    1    2    0    0  0.83204893435E+01 -0.87503938815E+02  0.33837833883E+02  0.94186882595E+02  0.00000000000E+00 0.  1.
         11    1    1    2    0    0  0.15059025465E+03 -0.17369544993E+03  0.60463204577E+02  0.23770429788E+03  0.00000000000E+00 0. -1.
<mgrwt>
<rscale>  0 0.32724191E+03</rscale>
<asrwt>0</asrwt>
<pdfrwt beam="2">  1        1 0.38682344E-01 0.33030836E+03</pdfrwt>
<pdfrwt beam="1">  1       -1 0.64420685E-01 0.33030836E+03</pdfrwt>
<totfact> 0.27800512E+02</totfact>
</mgrwt>
</event>
<event>
 7    1  0.6419647E-006  0.1525637E+03  0.7546771E-02  0.1205198E+00
         -2   -1    0    0    0  501 -0.00000000000E+00  0.00000000000E+00  0.43906420337E+02  0.43906420337E+02  0.00000000000E+00 0.  1.
          2   -1    0    0  501    0  0.00000000000E+00 -0.00000000000E+00 -0.48209808076E+03  0.48209808076E+03  0.00000000000E+00 0. -1.
         23    2    1    2    0    0 -0.47205327870E+02  0.73642372078E+02 -0.30353932173E+03  0.33972310886E+03  0.12499651560E+03 0.  0.
          5    1    3    3  502    0 -0.16635816024E+02  0.78700774369E+02 -0.29696338786E+03  0.30770100096E+03  0.47000000000E+01 0. -1.
         -5    1    3    3    0  502 -0.30569511846E+02 -0.50584022902E+01 -0.65759338681E+01  0.32022107902E+02  0.47000000000E+01 0. -1.
        -11    1    1    2    0    0  0.62011296281E+02 -0.19156236316E+02 -0.40516439291E+02  0.76511071807E+02  0.00000000000E+00 0.  1.
         11    1    1    2    0    0 -0.14805968410E+02 -0.54486135762E+02 -0.94135899408E+02  0.10977032043E+03  0.00000000000E+00 0. -1.
<mgrwt>
<rscale>  0 0.14621840E+03</rscale>
<asrwt>0</asrwt>
<pdfrwt beam="2">  1        2 0.74168933E-01 0.15256366E+03</pdfrwt>
<pdfrwt beam="1">  1       -2 0.67548341E-02 0.15256366E+03</pdfrwt>
<totfact> 0.76962352E+03</totfact>
</mgrwt>
</event>
<event>
 7    1  0.6419647E-006  0.1410109E+03  0.7546771E-02  0.1222514E+00
         -1   -1    0    0    0  501 -0.00000000000E+00  0.00000000000E+00  0.37168790563E+03  0.37168790563E+03  0.00000000000E+00 0.  1.
          1   -1    0    0  501    0  0.00000000000E+00 -0.00000000000E+00 -0.60190143958E+02  0.60190143958E+02  0.00000000000E+00 0. -1.
         23    2    1    2    0    0 -0.28884246879E+02  0.58534588114E+02  0.54505469354E+02  0.15117839201E+03  0.12499384904E+03 0.  0.
          5    1    3    3  502    0  0.69961822525E+01 -0.34937571767E+02  0.32725584917E+02  0.48606937727E+02  0.47000000000E+01 0. -1.
         -5    1    3    3    0  502 -0.35880429131E+02  0.93472159881E+02  0.21779884437E+02  0.10257145428E+03  0.47000000000E+01 0. -1.
        -11    1    1    2    0    0  0.41732004206E+02 -0.39643164881E+02  0.25038678665E+03  0.25691765923E+03  0.00000000000E+00 0.  1.
         11    1    1    2    0    0 -0.12847757327E+02 -0.18891423234E+02  0.66055056678E+01  0.23781998344E+02  0.00000000000E+00 0. -1.
<mgrwt>
<rscale>  0 0.13338792E+03</rscale>
<asrwt>0</asrwt>
<pdfrwt beam="2">  1        1 0.92600223E-02 0.14101085E+03</pdfrwt>
<pdfrwt beam="1">  1       -1 0.57182754E-01 0.14101085E+03</pdfrwt>
<totfact> 0.22069704E+03</totfact>
</mgrwt>
</event>
<event>
 7    1  0.6419647E-006  0.1194931E+03  0.7546771E-02  0.1256092E+00
         -1   -1    0    0    0  501 -0.00000000000E+00  0.00000000000E+00  0.15740448063E+02  0.15740448063E+02  0.00000000000E+00 0.  1.
          1   -1    0    0  501    0  0.00000000000E+00 -0.00000000000E+00 -0.74079655472E+03  0.74079655472E+03  0.00000000000E+00 0. -1.
         23    2    1    2    0    0  0.95414318105E+01 -0.22142698628E+02 -0.46493492064E+03  0.48004487303E+03  0.11703530097E+03 0.  0.
          5    1    3    3  502    0  0.11560921359E+02 -0.80939231225E+01 -0.46485560464E+03  0.46509352787E+03  0.47000000000E+01 0. -1.
         -5    1    3    3    0  502 -0.20194895484E+01 -0.14048775506E+02 -0.79315993860E-01  0.14951345166E+02  0.47000000000E+01 0.  1.
        -11    1    1    2    0    0 -0.25111041262E+01 -0.29237174886E+02 -0.17001148854E+03  0.17252543080E+03  0.00000000000E+00 0. -1.
         11    1    1    2    0    0 -0.70303276843E+01  0.51379873515E+02 -0.90109697479E+02  0.10396669894E+03  0.00000000000E+00 0.  1.
<mgrwt>
<rscale>  0 0.11245377E+03</rscale>
<asrwt>0</asrwt>
<pdfrwt beam="2">  1        1 0.11396873E+00 0.11949309E+03</pdfrwt>
<pdfrwt beam="1">  1       -1 0.24216068E-02 0.11949309E+03</pdfrwt>
<totfact> 0.12689855E+04</totfact>
</mgrwt>
</event>
<event>
 7    1  0.6419647E-006  0.1634792E+03  0.7546771E-02  0.1191104E+00
         -1   -1    0    0    0  501 -0.00000000000E+00  0.00000000000E+00  0.40976161603E+02  0.40976161603E+02  0.00000000000E+00 0.  1.
          1   -1    0    0  501    0  0.00000000000E+00 -0.00000000000E+00 -0.77601816628E+03  0.77601816628E+03  0.00000000000E+00 0. -1.
         23    2    1    2    0    0  0.42562409241E+02  0.96372029257E+02 -0.59629504564E+03  0.61829866746E+03  0.12500533597E+03 0.  0.
          5    1    3    3  502    0  0.79578650521E+02  0.97420620527E+02 -0.47435066476E+03  0.49076897017E+03  0.47000000000E+01 0. -1.
         -5    1    3    3    0  502 -0.37016241279E+02 -0.10485912705E+01 -0.12194438088E+03  0.12752969729E+03  0.47000000000E+01 0. -1.
        -11    1    1    2    0    0 -0.10207749824E+02  0.10252358244E+02 -0.61336672914E+02  0.63019809982E+02  0.00000000000E+00 0. -1.
         11    1    1    2    0    0 -0.32354659417E+02 -0.10662438750E+03 -0.77410286119E+02  0.13567585044E+03  0.00000000000E+00 0.  1.
<mgrwt>
<rscale>  0 0.15788629E+03</rscale>
<asrwt>0</asrwt>
<pdfrwt beam="2">  1        1 0.11938741E+00 0.16347924E+03</pdfrwt>
<pdfrwt beam="1">  1       -1 0.63040249E-02 0.16347924E+03</pdfrwt>
<totfact> 0.29513813E+03</totfact>
</mgrwt>
</event>
<event>
 7    1  0.6419647E-006  0.1265363E+03  0.7546771E-02  0.1247065E+00
          1   -1    0    0  501    0  0.00000000000E+00  0.00000000000E+00  0.20354527044E+03  0.20354527044E+03  0.00000000000E+00 0. -1.
         -1   -1    0    0    0  501 -0.00000000000E+00 -0.00000000000E+00 -0.60689463730E+02  0.60689463730E+02  0.00000000000E+00 0.  1.
         23    2    1    2    0    0 -0.15142562746E+02 -0.12547464240E+02  0.95591484470E+02  0.15858485587E+03  0.12499875416E+03 0.  0.
          5    1    3    3  502    0  0.17457484223E+02 -0.51560223364E+02  0.92502982677E+02  0.10743422263E+03  0.47000000000E+01 0.  1.
         -5    1    3    3    0  502 -0.32600046968E+02  0.39012759125E+02  0.30885017935E+01  0.51150633234E+02  0.47000000000E+01 0.  1.
        -11    1    1    2    0    0  0.14781288085E+02 -0.39636410704E+02  0.21186567388E+02  0.47311755079E+02  0.00000000000E+00 0.  1.
         11    1    1    2    0    0  0.36127466105E+00  0.52183874943E+02  0.26077754856E+02  0.58338123229E+02  0.00000000000E+00 0. -1.
<mgrwt>
<rscale>  0 0.11762656E+03</rscale>
<asrwt>0</asrwt>
<pdfrwt beam="1">  1        1 0.31314657E-01 0.12653626E+03</pdfrwt>
<pdfrwt beam="2">  1       -1 0.93368407E-02 0.12653626E+03</pdfrwt>
<totfact> 0.91349263E+03</totfact>
</mgrwt>
</event>
<event>
 7    1  0.6419647E-006  0.1330751E+03  0.7546771E-02  0.1235356E+00
         -1   -1    0    0    0  501 -0.00000000000E+00  0.00000000000E+00  0.15792425316E+02  0.15792425316E+02  0.00000000000E+00 0.  1.
          1   -1    0    0  501    0  0.00000000000E+00 -0.00000000000E+00 -0.92360798187E+03  0.92360798187E+03  0.00000000000E+00 0. -1.
         23    2    1    2    0    0 -0.35290733812E+02  0.28948667668E+02 -0.60785512758E+03  0.62225142518E+03  0.12500207504E+03 0.  0.
          5    1    3    3  502    0 -0.40809237052E+02  0.75311069199E+02 -0.37046102099E+03  0.38026386765E+03  0.47000000000E+01 0.  1.
         -5    1    3    3    0  502  0.55185032402E+01 -0.46362401531E+02 -0.23739410659E+03  0.24198755753E+03  0.47000000000E+01 0.  1.
        -11    1    1    2    0    0  0.50532402766E+02 -0.18214770332E+02 -0.29196439992E+03  0.29686446808E+03  0.00000000000E+00 0. -1.
         11    1    1    2    0    0 -0.15241668955E+02 -0.10733897336E+02 -0.79960290582E+01  0.20284513927E+02  0.00000000000E+00 0.  1.
<mgrwt>
<rscale>  0 0.12481672E+03</rscale>
<asrwt>0</asrwt>
<pdfrwt beam="2">  1        1 0.14209353E+00 0.13307509E+03</pdfrwt>
<pdfrwt beam="1">  1       -1 0.24296040E-02 0.13307509E+03</pdfrwt>
<totfact> 0.90817715E+03</totfact>
</mgrwt>
</event>
<event>
 7    1  0.6419647E-006  0.1722271E+03  0.7546771E-02  0.1182109E+00
          2   -1    0    0  501    0  0.00000000000E+00  0.00000000000E+00  0.58510136699E+03  0.58510136699E+03  0.00000000000E+00 0.  1.
         -2   -1    0    0    0  501 -0.00000000000E+00 -0.00000000000E+00 -0.92716757801E+02  0.92716757801E+02  0.00000000000E+00 0. -1.
         23    2    1    2    0    0  0.10443066632E+03  0.55960524311E+02  0.50023798763E+03  0.52905596077E+03  0.12499928404E+03 0.  0.
          5    1    3    3  502    0  0.73274809552E+02  0.86926300711E+02  0.43924863195E+03  0.45374754009E+03  0.47000000000E+01 0. -1.
         -5    1    3    3    0  502  0.31155856769E+02 -0.30965776400E+02  0.60989355681E+02  0.75308420681E+02  0.47000000000E+01 0. -1.
        -11    1    1    2    0    0 -0.73257619992E+02 -0.71159062759E+02 -0.31395748828E+02  0.10684560891E+03  0.00000000000E+00 0. -1.
         11    1    1    2    0    0 -0.31173046329E+02  0.15198538448E+02  0.23542370389E+02  0.41916555106E+02  0.00000000000E+00 0.  1.
<mgrwt>
<rscale>  0 0.16597691E+03</rscale>
<asrwt>0</asrwt>
<pdfrwt beam="1">  1        2 0.90015593E-01 0.17222707E+03</pdfrwt>
<pdfrwt beam="2">  1       -2 0.14264117E-01 0.17222707E+03</pdfrwt>
<totfact> 0.19152258E+03</totfact>
</mgrwt>
</event>
<event>
 7    1  0.6419647E-006  0.1286637E+03  0.7546771E-02  0.1244325E+00
          2   -1    0    0  501    0  0.00000000000E+00  0.00000000000E+00  0.10505229786E+03  0.10505229786E+03  0.00000000000E+00 0. -1.
         -2   -1    0    0    0  501 -0.00000000000E+00 -0.00000000000E+00 -0.21155342910E+03  0.21155342910E+03  0.00000000000E+00 0.  1.
         23    2    1    2    0    0 -0.30390400444E+02 -0.24119128305E+01  0.46262197241E+02  0.13672799146E+03  0.12499983597E+03 0.  0.
          5    1    3    3  502    0 -0.65215482854E+02 -0.57614651142E+01  0.68608136207E+02  0.94949565760E+02  0.47000000000E+01 0.  1.
         -5    1    3    3    0  502  0.34825082410E+02  0.33495522837E+01 -0.22345938967E+02  0.41778425697E+02  0.47000000000E+01 0.  1.
        -11    1    1    2    0    0 -0.18320794927E+02  0.77109838187E+01 -0.45582269416E+00  0.19882619861E+02  0.00000000000E+00 0. -1.
         11    1    1    2    0    0  0.48711195371E+02 -0.52990709882E+01 -0.15230750579E+03  0.15999511564E+03  0.00000000000E+00 0.  1.
<mgrwt>
<rscale>  0 0.11925843E+03</rscale>
<asrwt>0</asrwt>
<pdfrwt beam="1">  1        2 0.16161892E-01 0.12866372E+03</pdfrwt>
<pdfrwt beam="2">  1       -2 0.32546681E-01 0.12866372E+03</pdfrwt>
<totfact> 0.30100126E+03</totfact>
</mgrwt>
</event>
<event>
 7    1  0.6419647E-006  0.1336727E+03  0.7546771E-02  0.1234602E+00
          2   -1    0    0  501    0  0.00000000000E+00  0.00000000000E+00  0.54488861593E+02  0.54488861593E+02  0.00000000000E+00 0. -1.
         -2   -1    0    0    0  501 -0.00000000000E+00 -0.00000000000E+00 -0.26614782299E+03  0.26614782299E+03  0.00000000000E+00 0.  1.
         23    2    1    2    0    0 -0.11124472866E+02 -0.46040098062E+02 -0.90210109478E+02  0.16126458416E+03  0.12499983091E+03 0.  0.
          5    1    3    3  502    0 -0.46960791646E+02 -0.54466065654E+02 -0.99640967120E+02  0.12297268228E+03  0.47000000000E+01 0.  1.
         -5    1    3    3    0  502  0.35836318781E+02  0.84259675916E+01  0.94308576419E+01  0.38291901878E+02  0.47000000000E+01 0.  1.
        -11    1    1    2    0    0 -0.36965237607E+02  0.38735314665E+02 -0.52456485918E+02  0.74956896337E+02  0.00000000000E+00 0. -1.
         11    1    1    2    0    0  0.48089710473E+02  0.73047833971E+01 -0.68992365996E+02  0.84415204078E+02  0.00000000000E+00 0.  1.
<mgrwt>
<rscale>  0 0.12529941E+03</rscale>
<asrwt>0</asrwt>
<pdfrwt beam="1">  1        2 0.83829016E-02 0.13367274E+03</pdfrwt>
<pdfrwt beam="2">  1       -2 0.40945820E-01 0.13367274E+03</pdfrwt>
<totfact> 0.43414041E+03</totfact>
</mgrwt>
</event>
<event>
 7    1  0.6419647E-006  0.2289543E+03  0.7546771E-02  0.1130475E+00
         -2   -1    0    0    0  501 -0.00000000000E+00  0.00000000000E+00  0.10685481824E+03  0.10685481824E+03  0.00000000000E+00 0.  1.
          2   -1    0    0  501    0  0.00000000000E+00 -0.00000000000E+00 -0.51780764789E+03  0.51780764789E+03  0.00000000000E+00 0. -1.
         23    2    1    2    0    0  0.74360869920E+01 -0.19167656811E+03 -0.32085765780E+03  0.39416962207E+03  0.12499940897E+03 0.  0.
          5    1    3    3  502    0  0.34740584814E+02  0.18860113140E+00 -0.51879043450E+02  0.62613648295E+02  0.47000000000E+01 0. -1.
         -5    1    3    3    0  502 -0.27304497822E+02 -0.19186516924E+03 -0.26897861435E+03  0.33155597378E+03  0.47000000000E+01 0. -1.
        -11    1    1    2    0    0  0.31146869466E+02  0.23791992356E+02 -0.96014436329E+01  0.40353117570E+02  0.00000000000E+00 0. -1.
         11    1    1    2    0    0 -0.38582956458E+02  0.16788457576E+03 -0.80493728220E+02  0.19013972649E+03  0.00000000000E+00 0.  1.
<mgrwt>
<rscale>  0 0.22463372E+03</rscale>
<asrwt>0</asrwt>
<pdfrwt beam="2">  1        2 0.79662713E-01 0.22895426E+03</pdfrwt>
<pdfrwt beam="1">  1       -2 0.16439203E-01 0.22895426E+03</pdfrwt>
<totfact> 0.17497669E+03</totfact>
</mgrwt>
</event>
<event>
 7    1  0.6419647E-006  0.1446170E+03  0.7546771E-02  0.1216543E+00
          2   -1    0    0  501    0  0.00000000000E+00  0.00000000000E+00  0.92203656247E+02  0.92203656247E+02  0.00000000000E+00 0. -1.
         -2   -1    0    0    0  501 -0.00000000000E+00 -0.00000000000E+00 -0.23691452914E+03  0.23691452914E+03  0.00000000000E+00 0.  1.
         23    2    1    2    0    0 -0.72216690459E+02 -0.86330219054E+01 -0.34823016606E+01  0.14465889413E+03  0.12499715908E+03 0.  0.
          5    1    3    3  502    0 -0.15293150001E+02  0.32218288824E+02  0.46262565809E+02  0.58602163501E+02  0.47000000000E+01 0. -1.
         -5    1    3    3    0  502 -0.56923540458E+02 -0.40851310729E+02 -0.49744867470E+02  0.86056730627E+02  0.47000000000E+01 0. -1.
        -11    1    1    2    0    0  0.58692816459E+02 -0.35969698055E+02 -0.10442246160E+03  0.12507084540E+03  0.00000000000E+00 0.  1.
         11    1    1    2    0    0  0.13523873999E+02  0.44602719961E+02 -0.36806109639E+02  0.59388445868E+02  0.00000000000E+00 0. -1.
<mgrwt>
<rscale>  0 0.13763811E+03</rscale>
<asrwt>0</asrwt>
<pdfrwt beam="1">  1        2 0.14185178E-01 0.14461697E+03</pdfrwt>
<pdfrwt beam="2">  1       -2 0.36448389E-01 0.14461697E+03</pdfrwt>
<totfact> 0.28645482E+03</totfact>
</mgrwt>
</event>
<event>
 7    1  0.6419647E-006  0.1295985E+03  0.7546771E-02  0.1241744E+00
          1   -1    0    0  501    0  0.00000000000E+00  0.00000000000E+00  0.77112042806E+02  0.77112042806E+02  0.00000000000E+00 0. -1.
         -1   -1    0    0    0  501 -0.00000000000E+00 -0.00000000000E+00 -0.17196774644E+03  0.17196774644E+03  0.00000000000E+00 0.  1.
         23    2    1    2    0    0 -0.29931933800E+02  0.16440599456E+02 -0.34680271172E+02  0.13415843580E+03  0.12501820154E+03 0.  0.
          5    1    3    3  502    0 -0.31591505936E+02 -0.24209822409E+02 -0.69615329017E+02  0.80327596643E+02  0.47000000000E+01 0. -1.
         -5    1    3    3    0  502  0.16595721362E+01  0.40650421865E+02  0.34935057845E+02  0.53830839155E+02  0.47000000000E+01 0. -1.
        -11    1    1    2    0    0  0.51485506565E+02  0.19947065660E+02 -0.28894801181E+02  0.62318154257E+02  0.00000000000E+00 0. -1.
         11    1    1    2    0    0 -0.21553572765E+02 -0.36387665116E+02 -0.31280631276E+02  0.52603199186E+02  0.00000000000E+00 0.  1.
<mgrwt>
<rscale>  0 0.12082413E+03</rscale>
<asrwt>0</asrwt>
<pdfrwt beam="1">  1        1 0.11863391E-01 0.12959847E+03</pdfrwt>
<pdfrwt beam="2">  1       -1 0.26456576E-01 0.12959847E+03</pdfrwt>
<totfact> 0.61048897E+03</totfact>
</mgrwt>
</event>
<event>
 7    1  0.6419647E-006  0.2656413E+03  0.7546771E-02  0.1107732E+00
          2   -1    0    0  501    0  0.00000000000E+00  0.00000000000E+00  0.42041471871E+03  0.42041471871E+03  0.00000000000E+00 0. -1.
         -2   -1    0    0    0  501 -0.00000000000E+00 -0.00000000000E+00 -0.16152567773E+03  0.16152567773E+03  0.00000000000E+00 0.  1.
         23    2    1    2    0    0  0.19085999791E+03  0.13606145171E+03  0.20572196708E+03  0.33598636563E+03  0.12500021082E+03 0.  0.
          5    1    3    3  502    0  0.14078138958E+03  0.27226762870E+02  0.90039627634E+02  0.16938099307E+03  0.47000000000E+01 0. -1.
         -5    1    3    3    0  502  0.50078608335E+02  0.10883468884E+03  0.11568233945E+03  0.16660537256E+03  0.47000000000E+01 0. -1.
        -11    1    1    2    0    0 -0.18772282060E+03 -0.11850709225E+03  0.45884508322E+02  0.22669180927E+03  0.00000000000E+00 0.  1.
         11    1    1    2    0    0 -0.31371773174E+01 -0.17554359462E+02  0.72825655732E+01  0.19262221548E+02  0.00000000000E+00 0. -1.
<mgrwt>
<rscale>  0 0.25902239E+03</rscale>
<asrwt>0</asrwt>
<pdfrwt beam="1">  1        2 0.64679187E-01 0.26564132E+03</pdfrwt>
<pdfrwt beam="2">  1       -2 0.24850104E-01 0.26564132E+03</pdfrwt>
<totfact> 0.10867475E+03</totfact>
</mgrwt>
</event>
<event>
 7    1  0.6419647E-006  0.1999917E+03  0.7546771E-02  0.1154107E+00
          1   -1    0    0  501    0  0.00000000000E+00  0.00000000000E+00  0.12006661791E+04  0.12006661791E+04  0.00000000000E+00 0. -1.
         -1   -1    0    0    0  501 -0.00000000000E+00 -0.00000000000E+00 -0.41373319681E+02  0.41373319681E+02  0.00000000000E+00 0.  1.
         23    2    1    2    0    0 -0.67120195526E+02  0.14094569616E+03  0.92475657201E+03  0.94613498763E+03  0.12500354965E+03 0.  0.
          5    1    3    3  502    0 -0.78422450570E+02  0.85925913030E+02  0.80954770579E+03  0.81787708198E+03  0.47000000000E+01 0. -1.
         -5    1    3    3    0  502  0.11302255044E+02  0.55019783130E+02  0.11520886623E+03  0.12825790565E+03  0.47000000000E+01 0. -1.
        -11    1    1    2    0    0 -0.80637528535E+01 -0.78810561038E+02  0.76095137297E+02  0.10984807036E+03  0.00000000000E+00 0.  1.
         11    1    1    2    0    0  0.75183948379E+02 -0.62135135121E+02  0.15844115007E+03  0.18605644075E+03  0.00000000000E+00 0. -1.
<mgrwt>
<rscale>  0 0.19490887E+03</rscale>
<asrwt>0</asrwt>
<pdfrwt beam="1">  1        1 0.18471785E+00 0.19999174E+03</pdfrwt>
<pdfrwt beam="2">  1       -1 0.63651270E-02 0.19999174E+03</pdfrwt>
<totfact> 0.13992443E+03</totfact>
</mgrwt>
</event>
<event>
 7    1  0.6419647E-006  0.1338883E+03  0.7546771E-02  0.1235909E+00
         -2   -1    0    0    0  501 -0.00000000000E+00  0.00000000000E+00  0.62217400873E+02  0.62217400873E+02  0.00000000000E+00 0.  1.
          2   -1    0    0  501    0  0.00000000000E+00 -0.00000000000E+00 -0.21978640580E+03  0.21978640580E+03  0.00000000000E+00 0. -1.
         23    2    1    2    0    0 -0.46980100191E+02 -0.96155978832E+01 -0.90390717108E+02  0.16154427622E+03  0.12500592748E+03 0.  0.
          5    1    3    3  502    0  0.28250460176E+02 -0.34543746888E+02 -0.63434294643E+02  0.77700441994E+02  0.47000000000E+01 0.  1.
         -5    1    3    3    0  502 -0.75230560367E+02  0.24928149005E+02 -0.26956422465E+02  0.83843834229E+02  0.47000000000E+01 0.  1.
        -11    1    1    2    0    0  0.25307121069E+02 -0.34754046578E+02 -0.54615665935E+02  0.69506583112E+02  0.00000000000E+00 0. -1.
         11    1    1    2    0    0  0.21672979122E+02  0.44369644461E+02 -0.12562621879E+02  0.50952947334E+02  0.00000000000E+00 0.  1.
<mgrwt>
<rscale>  0 0.12446400E+03</rscale>
<asrwt>0</asrwt>
<pdfrwt beam="2">  1        2 0.33813293E-01 0.13388828E+03</pdfrwt>
<pdfrwt beam="1">  1       -2 0.95719079E-02 0.13388828E+03</pdfrwt>
<totfact> 0.10300895E+04</totfact>
</mgrwt>
</event>
<event>
 7    1  0.6419647E-006  0.1258301E+03  0.7546771E-02  0.1247391E+00
         -2   -1    0    0    0  501 -0.00000000000E+00  0.00000000000E+00  0.10669387025E+03  0.10669387025E+03  0.00000000000E+00 0.  1.
          2   -1    0    0  501    0  0.00000000000E+00 -0.00000000000E+00 -0.19731633118E+03  0.19731633118E+03  0.00000000000E+00 0. -1.
         23    2    1    2    0    0  0.30162201665E+02 -0.58185156151E+01 -0.14672004665E+03  0.19328734306E+03  0.12202299523E+03 0.  0.
          5    1    3    3  502    0  0.23984616047E+02 -0.62827276286E+02 -0.90463890842E+02  0.11281991845E+03  0.47000000000E+01 0. -1.
         -5    1    3    3    0  502  0.61775856179E+01  0.57008760671E+02 -0.56256155803E+02  0.80467424608E+02  0.47000000000E+01 0.  1.
        -11    1    1    2    0    0  0.23666167241E+02  0.28352159773E+02  0.18510102645E+02  0.41310486993E+02  0.00000000000E+00 0.  1.
         11    1    1    2    0    0 -0.53828368906E+02 -0.22533644158E+02  0.37587483072E+02  0.69412371389E+02  0.00000000000E+00 0. -1.
<mgrwt>
<rscale>  0 0.11743401E+03</rscale>
<asrwt>0</asrwt>
<pdfrwt beam="2">  1        2 0.30356358E-01 0.12583014E+03</pdfrwt>
<pdfrwt beam="1">  1       -2 0.16414442E-01 0.12583014E+03</pdfrwt>
<totfact> 0.48507650E+03</totfact>
</mgrwt>
</event>
<event>
 7    1  0.6419647E-006  0.1766846E+03  0.7546771E-02  0.1176869E+00
         -4   -1    0    0    0  501 -0.00000000000E+00  0.00000000000E+00  0.44661855826E+02  0.44661855826E+02  0.00000000000E+00 0.  1.
          4   -1    0    0  501    0  0.00000000000E+00 -0.00000000000E+00 -0.78381316213E+03  0.78381316213E+03  0.00000000000E+00 0. -1.
         23    2    1    2    0    0 -0.10317114904E+03  0.70346878150E+02 -0.58056517529E+03  0.60685531183E+03  0.12499790990E+03 0.  0.
          5    1    3    3  502    0 -0.53216494648E+02  0.71242838987E+02 -0.52282861012E+03  0.53035778770E+03  0.47000000000E+01 0.  1.
         -5    1    3    3    0  502 -0.49954654388E+02 -0.89596083776E+00 -0.57736565163E+02  0.76497524128E+02  0.47000000000E+01 0.  1.
        -11    1    1    2    0    0 -0.16223499014E+02 -0.16627846651E+01 -0.24198719293E+02  0.29181240353E+02  0.00000000000E+00 0. -1.
         11    1    1    2    0    0  0.11939464805E+03 -0.68684093485E+02 -0.13438741173E+03  0.19243846578E+03  0.00000000000E+00 0.  1.
<mgrwt>
<rscale>  0 0.17094164E+03</rscale>
<asrwt>0</asrwt>
<pdfrwt beam="2">  1        4 0.12058665E+00 0.17668460E+03</pdfrwt>
<pdfrwt beam="1">  1       -4 0.68710543E-02 0.17668460E+03</pdfrwt>
<totfact> 0.13608797E+02</totfact>
</mgrwt>
</event>
<event>
 7    1  0.6419647E-006  0.1787790E+03  0.7546771E-02  0.1174564E+00
         -1   -1    0    0    0  501 -0.00000000000E+00  0.00000000000E+00  0.59766869269E+03  0.59766869269E+03  0.00000000000E+00 0.  1.
          1   -1    0    0  501    0  0.00000000000E+00 -0.00000000000E+00 -0.51992953074E+02  0.51992953074E+02  0.00000000000E+00 0. -1.
         23    2    1    2    0    0 -0.82563470607E+01 -0.12753287539E+03  0.19102258957E+03  0.26163250616E+03  0.12501654683E+03 0.  0.
          5    1    3    3  502    0 -0.59473104963E+02 -0.81338307004E+02  0.71796285586E+02  0.12381343636E+03  0.47000000000E+01 0. -1.
         -5    1    3    3    0  502  0.51216757902E+02 -0.46194568391E+02  0.11922630398E+03  0.13781906980E+03  0.47000000000E+01 0. -1.
        -11    1    1    2    0    0  0.22582574337E+02  0.78647088237E+02  0.30891170282E+03  0.31956498132E+03  0.00000000000E+00 0.  1.
         11    1    1    2    0    0 -0.14326227276E+02  0.48885787158E+02  0.45741447232E+02  0.68464158279E+02  0.00000000000E+00 0. -1.
<mgrwt>
<rscale>  0 0.17318771E+03</rscale>
<asrwt>0</asrwt>
<pdfrwt beam="2">  1        1 0.79989162E-02 0.17877902E+03</pdfrwt>
<pdfrwt beam="1">  1       -1 0.91949025E-01 0.17877902E+03</pdfrwt>
<totfact> 0.10450928E+03</totfact>
</mgrwt>
</event>
<event>
 7    1  0.6419647E-006  0.1587686E+03  0.7546771E-02  0.1198445E+00
          1   -1    0    0  501    0  0.00000000000E+00  0.00000000000E+00  0.34991858332E+03  0.34991858332E+03  0.00000000000E+00 0. -1.
         -1   -1    0    0    0  501 -0.00000000000E+00 -0.00000000000E+00 -0.64832486029E+02  0.64832486029E+02  0.00000000000E+00 0.  1.
         23    2    1    2    0    0 -0.81071580117E+02  0.54856854051E+02  0.20817404698E+03  0.26180892331E+03  0.12500241178E+03 0.  0.
          5    1    3    3  502    0 -0.35664792191E+02 -0.28893902832E+02  0.13171603980E+03  0.13956374946E+03  0.47000000000E+01 0.  1.
         -5    1    3    3    0  502 -0.45406787926E+02  0.83750756882E+02  0.76458007177E+02  0.12224517385E+03  0.47000000000E+01 0.  1.
        -11    1    1    2    0    0 -0.16338865852E+02  0.16713270301E+01  0.22515437084E+02  0.27869280193E+02  0.00000000000E+00 0. -1.
         11    1    1    2    0    0  0.97410445968E+02 -0.56528181081E+02  0.54396613230E+02  0.12507286585E+03  0.00000000000E+00 0.  1.
<mgrwt>
<rscale>  0 0.15166252E+03</rscale>
<asrwt>0</asrwt>
<pdfrwt beam="1">  1        1 0.53833627E-01 0.15876863E+03</pdfrwt>
<pdfrwt beam="2">  1       -1 0.99742288E-02 0.15876863E+03</pdfrwt>
<totfact> 0.42785895E+03</totfact>
</mgrwt>
</event>
<event>
 7    1  0.6419647E-006  0.1258282E+03  0.7546771E-02  0.1248284E+00
          1   -1    0    0  501    0  0.00000000000E+00  0.00000000000E+00  0.20736126549E+03  0.20736126549E+03  0.00000000000E+00 0. -1.
         -1   -1    0    0    0  501 -0.00000000000E+00 -0.00000000000E+00 -0.58385225174E+02  0.58385225174E+02  0.00000000000E+00 0.  1.
         23    2    1    2    0    0 -0.13629609379E+02 -0.47899462279E+01  0.93840358419E+02  0.15696735632E+03  0.12499611292E+03 0.  0.
          5    1    3    3  502    0 -0.68581625667E+02 -0.52896915742E+01  0.64874720839E+02  0.94669105942E+02  0.47000000000E+01 0.  1.
         -5    1    3    3    0  502  0.54952016287E+02  0.49974534629E+00  0.28965637580E+02  0.62298250376E+02  0.47000000000E+01 0.  1.
        -11    1    1    2    0    0  0.24478360823E+02 -0.39194655776E+02  0.39690336481E+02  0.60915794339E+02  0.00000000000E+00 0. -1.
         11    1    1    2    0    0 -0.10848751444E+02  0.43984602004E+02  0.15445345412E+02  0.47863340003E+02  0.00000000000E+00 0.  1.
<mgrwt>
<rscale>  0 0.11690965E+03</rscale>
<asrwt>0</asrwt>
<pdfrwt beam="1">  1        1 0.31901733E-01 0.12582821E+03</pdfrwt>
<pdfrwt beam="2">  1       -1 0.89823424E-02 0.12582821E+03</pdfrwt>
<totfact> 0.94625022E+03</totfact>
</mgrwt>
</event>
<event>
 6    1  0.6419647E-006  0.3976312E+03  0.7546771E-02  0.1044603E+00
         -2   -1    0    0    0  501 -0.00000000000E+00  0.00000000000E+00  0.34713663799E+02  0.34713663799E+02  0.00000000000E+00 0.  1.
          2   -1    0    0  501    0  0.00000000000E+00 -0.00000000000E+00 -0.11386768305E+04  0.11386768305E+04  0.00000000000E+00 0. -1.
          5    1    1    2  502    0 -0.80386149916E+02  0.48957473804E+02 -0.91660141630E+03  0.92143313034E+03  0.47000000000E+01 0. -1.
         -5    1    1    2    0  502  0.10116770995E+01  0.25489595664E+02 -0.24840282569E+02  0.35914796613E+02  0.47000000000E+01 0.  1.
        -11    1    1    2    0    0  0.84394327369E+02 -0.21270324032E+02 -0.83127720496E+02  0.12035384120E+03  0.00000000000E+00 0.  1.
         11    1    1    2    0    0 -0.50198545524E+01 -0.53176745436E+02 -0.79393747365E+02  0.95688726168E+02  0.00000000000E+00 0. -1.
<mgrwt>
<rscale>  0 0.39763121E+03</rscale>
<asrwt>0</asrwt>
<pdfrwt beam="2">  1        2 0.17518106E+00 0.39763121E+03</pdfrwt>
<pdfrwt beam="1">  1       -2 0.53405633E-02 0.39763121E+03</pdfrwt>
<totfact> 0.38518787E+03</totfact>
</mgrwt>
</event>
<event>
 7    1  0.6419647E-006  0.1324891E+03  0.7546771E-02  0.1236803E+00
         -1   -1    0    0    0  501 -0.00000000000E+00  0.00000000000E+00  0.53435461298E+02  0.53435461298E+02  0.00000000000E+00 0.  1.
          1   -1    0    0  501    0  0.00000000000E+00 -0.00000000000E+00 -0.26781144677E+03  0.26781144677E+03  0.00000000000E+00 0. -1.
         23    2    1    2    0    0 -0.11327063142E+02  0.42244534022E+02 -0.15461205348E+03  0.20361295754E+03  0.12506177026E+03 0.  0.
          5    1    3    3  502    0  0.26848105840E+02  0.74173323317E+02 -0.71193489936E+02  0.10636308424E+03  0.47000000000E+01 0.  1.
         -5    1    3    3    0  502 -0.38175168982E+02 -0.31928789295E+02 -0.83418563546E+02  0.97249873300E+02  0.47000000000E+01 0.  1.
        -11    1    1    2    0    0  0.35723868598E+02 -0.32892744348E+02  0.39995809417E+01  0.48724984003E+02  0.00000000000E+00 0.  1.
         11    1    1    2    0    0 -0.24396805456E+02 -0.93517896731E+01 -0.63763512932E+02  0.68908966529E+02  0.00000000000E+00 0. -1.
<mgrwt>
<rscale>  0 0.12389685E+03</rscale>
<asrwt>0</asrwt>
<pdfrwt beam="2">  1        1 0.41201761E-01 0.13248905E+03</pdfrwt>
<pdfrwt beam="1">  1       -1 0.82208401E-02 0.13248905E+03</pdfrwt>
<totfact> 0.79171373E+03</totfact>
</mgrwt>
</event>
<event>
 7    1  0.6419647E-006  0.1745573E+03  0.7546771E-02  0.1179270E+00
         -2   -1    0    0    0  501 -0.00000000000E+00  0.00000000000E+00  0.44897294777E+02  0.44897294777E+02  0.00000000000E+00 0.  1.
          2   -1    0    0  501    0  0.00000000000E+00 -0.00000000000E+00 -0.60357309819E+03  0.60357309819E+03  0.00000000000E+00 0. -1.
         23    2    1    2    0    0 -0.12169516619E+03 -0.59911758013E+01 -0.33882335668E+03  0.38114499225E+03  0.12499852169E+03 0.  0.
          5    1    3    3  502    0 -0.13802596468E+03 -0.82851855598E+01 -0.33651000551E+03  0.36384184069E+03  0.47000000000E+01 0.  1.
         -5    1    3    3    0  502  0.16330798493E+02  0.22940097585E+01 -0.23133511626E+01  0.17303151557E+02  0.47000000000E+01 0.  1.
        -11    1    1    2    0    0  0.48923374590E+02  0.20832082717E+01 -0.17090473793E+02  0.51864444781E+02  0.00000000000E+00 0.  1.
         11    1    1    2    0    0  0.72771791596E+02  0.39079675296E+01 -0.20276197294E+03  0.21546095594E+03  0.00000000000E+00 0. -1.
<mgrwt>
<rscale>  0 0.16864372E+03</rscale>
<asrwt>0</asrwt>
<pdfrwt beam="2">  1        2 0.92857393E-01 0.17455726E+03</pdfrwt>
<pdfrwt beam="1">  1       -2 0.69072766E-02 0.17455726E+03</pdfrwt>
<totfact> 0.58220646E+03</totfact>
</mgrwt>
</event>
<event>
 7    1  0.6419647E-006  0.1281106E+03  0.7546771E-02  0.1244549E+00
         -3   -1    0    0    0  501 -0.00000000000E+00  0.00000000000E+00  0.64940515568E+02  0.64940515568E+02  0.00000000000E+00 0.  1.
          3   -1    0    0  501    0  0.00000000000E+00 -0.00000000000E+00 -0.23651855472E+03  0.23651855472E+03  0.00000000000E+00 0. -1.
         23    2    1    2    0    0 -0.15274068927E+02 -0.23506794051E+02 -0.16003053477E+03  0.20499291133E+03  0.12500582022E+03 0.  0.
          5    1    3    3  502    0  0.49259515376E+02 -0.37069906492E+02 -0.72048635970E+02  0.94940896180E+02  0.47000000000E+01 0. -1.
         -5    1    3    3    0  502 -0.64533584303E+02  0.13563112441E+02 -0.87981898801E+02  0.11005201515E+03  0.47000000000E+01 0. -1.
        -11    1    1    2    0    0 -0.11941308102E+02 -0.21850625791E+02 -0.31305225499E+02  0.40000772870E+02  0.00000000000E+00 0. -1.
         11    1    1    2    0    0  0.27215377029E+02  0.45357419842E+02  0.19757721122E+02  0.56465386083E+02  0.00000000000E+00 0.  1.
<mgrwt>
<rscale>  0 0.11912392E+03</rscale>
<asrwt>0</asrwt>
<pdfrwt beam="2">  1        3 0.36387470E-01 0.12811058E+03</pdfrwt>
<pdfrwt beam="1">  1       -3 0.99908486E-02 0.12811058E+03</pdfrwt>
<totfact> 0.12559406E+03</totfact>
</mgrwt>
</event>
<event>
 7    1  0.6419647E-006  0.1201210E+03  0.7546771E-02  0.1252738E+00
          1   -1    0    0  501    0  0.00000000000E+00  0.00000000000E+00  0.20054047155E+03  0.20054047155E+03  0.00000000000E+00 0. -1.
         -1   -1    0    0    0  501 -0.00000000000E+00 -0.00000000000E+00 -0.72639514462E+02  0.72639514462E+02  0.00000000000E+00 0.  1.
         23    2    1    2    0    0  0.15355703786E+02 -0.30388622254E+02  0.12665790033E+03  0.17456026819E+03  0.11519460714E+03 0.  0.
          5    1    3    3  502    0  0.23539358399E+02 -0.27291826871E+02  0.14726525487E+03  0.15168418012E+03  0.47000000000E+01 0. -1.
         -5    1    3    3    0  502 -0.81836546133E+01 -0.30967953826E+01 -0.20607354535E+02  0.22876088071E+02  0.47000000000E+01 0.  1.
        -11    1    1    2    0    0  0.12328576935E+02  0.39768804576E+02 -0.33339195961E+02  0.53339043992E+02  0.00000000000E+00 0.  1.
         11    1    1    2    0    0 -0.27684280721E+02 -0.93801823215E+01  0.34582252720E+02  0.45280673831E+02  0.00000000000E+00 0. -1.
<mgrwt>
<rscale>  0 0.11433959E+03</rscale>
<asrwt>0</asrwt>
<pdfrwt beam="1">  1        1 0.30852380E-01 0.12012104E+03</pdfrwt>
<pdfrwt beam="2">  1       -1 0.11175310E-01 0.12012104E+03</pdfrwt>
<totfact> 0.70471936E+03</totfact>
</mgrwt>
</event>
<event>
 7    1  0.6419647E-006  0.1537680E+03  0.7546771E-02  0.1202483E+00
          1   -1    0    0  501    0  0.00000000000E+00  0.00000000000E+00  0.35719129445E+03  0.35719129445E+03  0.00000000000E+00 0. -1.
         -1   -1    0    0    0  501 -0.00000000000E+00 -0.00000000000E+00 -0.58525230376E+02  0.58525230376E+02  0.00000000000E+00 0.  1.
         23    2    1    2    0    0 -0.70630221032E+02 -0.55041802709E+02  0.18472184149E+03  0.24034714160E+03  0.12500544622E+03 0.  0.
          5    1    3    3  502    0 -0.84529033514E+02  0.85519816156E+01  0.12897444705E+03  0.15451469797E+03  0.47000000000E+01 0. -1.
         -5    1    3    3    0  502  0.13898812482E+02 -0.63593784325E+02  0.55747394432E+02  0.85832443628E+02  0.47000000000E+01 0. -1.
        -11    1    1    2    0    0  0.38156258515E+02 -0.23001850088E+02  0.19536071632E+02  0.48648157890E+02  0.00000000000E+00 0.  1.
         11    1    1    2    0    0  0.32473962517E+02  0.78043652797E+02  0.94408150952E+02  0.12672122533E+03  0.00000000000E+00 0. -1.
<mgrwt>
<rscale>  0 0.14837605E+03</rscale>
<asrwt>0</asrwt>
<pdfrwt beam="1">  1        1 0.54952506E-01 0.15376797E+03</pdfrwt>
<pdfrwt beam="2">  1       -1 0.90038818E-02 0.15376797E+03</pdfrwt>
<totfact> 0.48670098E+03</totfact>
</mgrwt>
</event>
<event>
 7    1  0.6419647E-006  0.2666998E+03  0.7546771E-02  0.1105271E+00
          1   -1    0    0  501    0  0.00000000000E+00  0.00000000000E+00  0.14588281365E+03  0.14588281365E+03  0.00000000000E+00 0. -1.
         -1   -1    0    0    0  501 -0.00000000000E+00 -0.00000000000E+00 -0.47564714981E+03  0.47564714981E+03  0.00000000000E+00 0.  1.
         23    2    1    2    0    0 -0.70990561545E+02  0.22464667376E+03 -0.22104566313E+03  0.34639571771E+03  0.12499208056E+03 0.  0.
          5    1    3    3  502    0 -0.11034810572E+02  0.11264320115E+02 -0.84361449563E+02  0.85951126371E+02  0.47000000000E+01 0.  1.
         -5    1    3    3    0  502 -0.59955750973E+02  0.21338235364E+03 -0.13668421357E+03  0.26044459134E+03  0.47000000000E+01 0.  1.
        -11    1    1    2    0    0 -0.17519035900E+02 -0.89455381777E+02 -0.38925478290E+02  0.99117984281E+02  0.00000000000E+00 0.  1.
         11    1    1    2    0    0  0.88509597445E+02 -0.13519129198E+03 -0.69793194741E+02  0.17601626146E+03  0.00000000000E+00 0. -1.
<mgrwt>
<rscale>  0 0.26314003E+03</rscale>
<asrwt>0</asrwt>
<pdfrwt beam="1">  1        1 0.22443510E-01 0.26669985E+03</pdfrwt>
<pdfrwt beam="2">  1       -1 0.73176485E-01 0.26669985E+03</pdfrwt>
<totfact> 0.43247657E+02</totfact>
</mgrwt>
</event>
<event>
 7    1  0.6419647E-006  0.1382176E+03  0.7546771E-02  0.1226564E+00
         -1   -1    0    0    0  501 -0.00000000000E+00  0.00000000000E+00  0.81756828076E+02  0.81756828076E+02  0.00000000000E+00 0.  1.
          1   -1    0    0  501    0  0.00000000000E+00 -0.00000000000E+00 -0.18870880541E+03  0.18870880541E+03  0.00000000000E+00 0. -1.
         23    2    1    2    0    0  0.50413376321E+02 -0.30634261212E+02 -0.57870006493E+02  0.14984336042E+03  0.12499651410E+03 0.  0.
          5    1    3    3  502    0  0.33202043642E+02 -0.73466222247E+02 -0.71062553519E+01  0.81069417035E+02  0.47000000000E+01 0.  1.
         -5    1    3    3    0  502  0.17211332679E+02  0.42831961035E+02 -0.50763751141E+02  0.68773943385E+02  0.47000000000E+01 0.  1.
        -11    1    1    2    0    0 -0.51848188520E+02  0.41080216234E+02 -0.70545764244E+02  0.96708446743E+02  0.00000000000E+00 0. -1.
         11    1    1    2    0    0  0.14348121991E+01 -0.10445955021E+02  0.21463793401E+02  0.23913826326E+02  0.00000000000E+00 0.  1.
<mgrwt>
<rscale>  0 0.13060291E+03</rscale>
<asrwt>0</asrwt>
<pdfrwt beam="2">  1        1 0.29032124E-01 0.13821756E+03</pdfrwt>
<pdfrwt beam="1">  1       -1 0.12577974E-01 0.13821756E+03</pdfrwt>
<totfact> 0.63972301E+03</totfact>
</mgrwt>
</event>
<event>
 7    1  0.6419647E-006  0.2162452E+03  0.7546771E-02  0.1140719E+00
         -2   -1    0    0    0  501 -0.00000000000E+00  0.00000000000E+00  0.31780127536E+02  0.31780127536E+02  0.00000000000E+00 0.  1.
          2   -1    0    0  501    0  0.00000000000E+00 -0.00000000000E+00 -0.15136145013E+04  0.15136145013E+04  0.00000000000E+00 0. -1.
         23    2    1    2    0    0 -0.15897378957E+03  0.76581201813E+02 -0.10349778790E+04  0.10573273826E+04  0.12499855114E+03 0.  0.
          5    1    3    3  502    0 -0.14516450563E+03  0.40038097400E+02 -0.96794576572E+03  0.97960036664E+03  0.47000000000E+01 0.  1.
         -5    1    3    3    0  502 -0.13809283940E+02  0.36543104413E+02 -0.67032113249E+02  0.77727015958E+02  0.47000000000E+01 0.  1.
        -11    1    1    2    0    0  0.89529569006E+02 -0.29131757776E+02 -0.13177456026E+03  0.16195288750E+03  0.00000000000E+00 0.  1.
         11    1    1    2    0    0  0.69444220564E+02 -0.47449444037E+02 -0.31508193458E+03  0.32611435879E+03  0.00000000000E+00 0. -1.
<mgrwt>
<rscale>  0 0.21107325E+03</rscale>
<asrwt>0</asrwt>
<pdfrwt beam="2">  1        2 0.23286377E+00 0.21624519E+03</pdfrwt>
<pdfrwt beam="1">  1       -2 0.48892503E-02 0.21624519E+03</pdfrwt>
<totfact> 0.27174057E+03</totfact>
</mgrwt>
</event>
<event>
 7    1  0.6419647E-006  0.2207633E+03  0.7546771E-02  0.1136427E+00
          1   -1    0    0  501    0  0.00000000000E+00  0.00000000000E+00  0.35398774635E+02  0.35398774635E+02  0.00000000000E+00 0. -1.
         -1   -1    0    0    0  501 -0.00000000000E+00 -0.00000000000E+00 -0.12781693965E+04  0.12781693965E+04  0.00000000000E+00 0.  1.
         23    2    1    2    0    0 -0.13511353238E+03  0.12188217538E+03 -0.64615923076E+03  0.68283099608E+03  0.12500194560E+03 0.  0.
          5    1    3    3  502    0 -0.13378266785E+03  0.67819944645E+02 -0.33643000310E+03  0.36838103112E+03  0.47000000000E+01 0.  1.
         -5    1    3    3    0  502 -0.13308645324E+01  0.54062230735E+02 -0.30972922767E+03  0.31444996496E+03  0.47000000000E+01 0.  1.
        -11    1    1    2    0    0 -0.14358407626E+02 -0.82732133539E+01 -0.39280127925E+02  0.42632597605E+02  0.00000000000E+00 0.  1.
         11    1    1    2    0    0  0.14947194001E+03 -0.11360896203E+03 -0.55733126320E+03  0.58810457747E+03  0.00000000000E+00 0. -1.
<mgrwt>
<rscale>  0 0.21662143E+03</rscale>
<asrwt>0</asrwt>
<pdfrwt beam="1">  1        1 0.54459660E-02 0.22076326E+03</pdfrwt>
<pdfrwt beam="2">  1       -1 0.19664142E+00 0.22076326E+03</pdfrwt>
<totfact> 0.26060168E+02</totfact>
</mgrwt>
</event>
<event>
 7    1  0.6419647E-006  0.1444094E+03  0.7546771E-02  0.1217966E+00
          1   -1    0    0  501    0  0.00000000000E+00  0.00000000000E+00  0.11629928004E+03  0.11629928004E+03  0.00000000000E+00 0. -1.
         -1   -1    0    0    0  501 -0.00000000000E+00 -0.00000000000E+00 -0.14627816402E+03  0.14627816402E+03  0.00000000000E+00 0.  1.
         23    2    1    2    0    0  0.19920038538E+02 -0.69517989176E+02 -0.63955646690E+01  0.14455090809E+03  0.12499801209E+03 0.  0.
          5    1    3    3  502    0  0.48385071848E+02 -0.12111109098E+02 -0.46879009297E+02  0.68611410523E+02  0.47000000000E+01 0. -1.
         -5    1    3    3    0  502 -0.28465033309E+02 -0.57406880079E+02  0.40483444628E+02  0.75939497566E+02  0.47000000000E+01 0. -1.
        -11    1    1    2    0    0  0.11415427950E+02 -0.14065932927E+02  0.12217566486E+02  0.21850203552E+02  0.00000000000E+00 0. -1.
         11    1    1    2    0    0 -0.31335466489E+02  0.83583922104E+02 -0.35800885797E+02  0.96176332422E+02  0.00000000000E+00 0.  1.
<mgrwt>
<rscale>  0 0.13660907E+03</rscale>
<asrwt>0</asrwt>
<pdfrwt beam="1">  1        1 0.17892197E-01 0.14440935E+03</pdfrwt>
<pdfrwt beam="2">  1       -1 0.22504333E-01 0.14440935E+03</pdfrwt>
<totfact> 0.47037174E+03</totfact>
</mgrwt>
</event>
<event>
 7    1  0.6419647E-006  0.2001588E+03  0.7546771E-02  0.1154250E+00
          1   -1    0    0  501    0  0.00000000000E+00  0.00000000000E+00  0.11823115682E+03  0.11823115682E+03  0.00000000000E+00 0.  1.
         -1   -1    0    0    0  501 -0.00000000000E+00 -0.00000000000E+00 -0.34515714704E+03  0.34515714704E+03  0.00000000000E+00 0. -1.
         23    2    1    2    0    0  0.72412635791E+02  0.13853532473E+03 -0.39602990197E+02  0.20403909911E+03  0.12501172390E+03 0.  0.
          5    1    3    3  502    0  0.47439355049E+02  0.93395992480E+02  0.37318495096E+02  0.11130167966E+03  0.47000000000E+01 0.  1.
         -5    1    3    3    0  502  0.24973280742E+02  0.45139332247E+02 -0.76921485293E+02  0.92737419451E+02  0.47000000000E+01 0.  1.
        -11    1    1    2    0    0 -0.10979498912E+02  0.39611800977E+01 -0.52510634800E+02  0.53792258841E+02  0.00000000000E+00 0. -1.
         11    1    1    2    0    0 -0.61433136879E+02 -0.14249650482E+03 -0.13481236522E+03  0.20555694591E+03  0.00000000000E+00 0.  1.
<mgrwt>
<rscale>  0 0.19474486E+03</rscale>
<asrwt>0</asrwt>
<pdfrwt beam="1">  1        1 0.18189409E-01 0.20015883E+03</pdfrwt>
<pdfrwt beam="2">  1       -1 0.53101100E-01 0.20015883E+03</pdfrwt>
<totfact> 0.10557636E+03</totfact>
</mgrwt>
</event>
<event>
 7    1  0.6419647E-006  0.1253340E+03  0.7546771E-02  0.1249407E+00
          3   -1    0    0  501    0  0.00000000000E+00  0.00000000000E+00  0.95598776081E+02  0.95598776081E+02  0.00000000000E+00 0. -1.
         -3   -1    0    0    0  501 -0.00000000000E+00 -0.00000000000E+00 -0.18053097993E+03  0.18053097993E+03  0.00000000000E+00 0.  1.
         23    2    1    2    0    0  0.91324112917E+01  0.53871707090E+00  0.29554561641E+02  0.12877141645E+03  0.12499965771E+03 0.  0.
          5    1    3    3  502    0  0.27707503248E+02  0.56425730348E+02  0.74559900278E+00  0.63041372918E+02  0.47000000000E+01 0. -1.
         -5    1    3    3    0  502 -0.18575091956E+02 -0.55887013277E+02  0.28808962639E+02  0.65730043531E+02  0.47000000000E+01 0. -1.
        -11    1    1    2    0    0 -0.12227304800E+01 -0.27535029454E+02 -0.11595806577E+03  0.11918869885E+03  0.00000000000E+00 0.  1.
         11    1    1    2    0    0 -0.79096808117E+01  0.26996312383E+02  0.14713002854E+01  0.28169640704E+02  0.00000000000E+00 0. -1.
<mgrwt>
<rscale>  0 0.11625449E+03</rscale>
<asrwt>0</asrwt>
<pdfrwt beam="1">  1        3 0.14707504E-01 0.12533398E+03</pdfrwt>
<pdfrwt beam="2">  1       -3 0.27773996E-01 0.12533398E+03</pdfrwt>
<totfact> 0.10818484E+03</totfact>
</mgrwt>
</event>
<event>
 7    1  0.6419647E-006  0.1850660E+03  0.7546771E-02  0.1165439E+00
          1   -1    0    0  501    0  0.00000000000E+00  0.00000000000E+00  0.14905427835E+04  0.14905427835E+04  0.00000000000E+00 0. -1.
         -1   -1    0    0    0  501 -0.00000000000E+00 -0.00000000000E+00 -0.27337896725E+02  0.27337896725E+02  0.00000000000E+00 0.  1.
         23    2    1    2    0    0 -0.14357195348E+03 -0.36387440408E+02  0.10916866521E+04  0.11072620082E+04  0.11096150947E+03 0.  0.
          5    1    3    3  502    0 -0.96939817224E+01  0.39086010933E+01  0.46545256541E+03  0.46559363300E+03  0.47000000000E+01 0. -1.
         -5    1    3    3    0  502 -0.13387797176E+03 -0.40296041501E+02  0.62623408674E+03  0.64166837516E+03  0.47000000000E+01 0.  1.
        -11    1    1    2    0    0  0.17403075112E+02  0.25368262374E+02  0.16887047861E+03  0.17164980136E+03  0.00000000000E+00 0. -1.
         11    1    1    2    0    0  0.12616887837E+03  0.11019178033E+02  0.20264775605E+03  0.23896887074E+03  0.00000000000E+00 0.  1.
<mgrwt>
<rscale>  0 0.18246432E+03</rscale>
<asrwt>0</asrwt>
<pdfrwt beam="1">  1        1 0.22931421E+00 0.18506596E+03</pdfrwt>
<pdfrwt beam="2">  1       -1 0.42058314E-02 0.18506596E+03</pdfrwt>
<totfact> 0.16595068E+03</totfact>
</mgrwt>
</event>
<event>
 6    1  0.6419647E-006  0.4508361E+03  0.7546771E-02  0.1027473E+00
         -2   -1    0    0    0  501 -0.00000000000E+00  0.00000000000E+00  0.48401037966E+03  0.48401037966E+03  0.00000000000E+00 0.  1.
          2   -1    0    0  501    0  0.00000000000E+00 -0.00000000000E+00 -0.10498391400E+03  0.10498391400E+03  0.00000000000E+00 0. -1.
          5    1    1    2  502    0 -0.97829709677E+02  0.46065214626E+02 -0.57534636141E+02  0.12257642697E+03  0.47000000000E+01 0. -1.
         -5    1    1    2    0  502  0.99354851788E+01  0.18352492712E+02  0.51356463740E+02  0.55633660875E+02  0.47000000000E+01 0.  1.
        -11    1    1    2    0    0  0.90380268189E+02 -0.13848680671E+02  0.26586730023E+03  0.28115084948E+03  0.00000000000E+00 0. -1.
         11    1    1    2    0    0 -0.24860436903E+01 -0.50569026667E+02  0.11933733783E+03  0.12963335632E+03  0.00000000000E+00 0.  1.
<mgrwt>
<rscale>  0 0.45083613E+03</rscale>
<asrwt>0</asrwt>
<pdfrwt beam="2">  1        2 0.16151372E-01 0.45083613E+03</pdfrwt>
<pdfrwt beam="1">  1       -2 0.74463134E-01 0.45083613E+03</pdfrwt>
<totfact> 0.59880357E+02</totfact>
</mgrwt>
</event>
<event>
 7    1  0.6419647E-006  0.1299341E+03  0.7546771E-02  0.1242349E+00
          1   -1    0    0  501    0  0.00000000000E+00  0.00000000000E+00  0.55148944902E+02  0.55148944902E+02  0.00000000000E+00 0. -1.
         -1   -1    0    0    0  501 -0.00000000000E+00 -0.00000000000E+00 -0.32489454001E+03  0.32489454001E+03  0.00000000000E+00 0.  1.
         23    2    1    2    0    0  0.17187729885E+02 -0.31034236936E+02 -0.48165722977E+02  0.13857419200E+03  0.12499731156E+03 0.  0.
          5    1    3    3  502    0 -0.23674744105E+02  0.33575248849E+02  0.98296379256E+01  0.42502971960E+02  0.47000000000E+01 0. -1.
         -5    1    3    3    0  502  0.40862473990E+02 -0.64609485785E+02 -0.57995360903E+02  0.96071220041E+02  0.47000000000E+01 0. -1.
        -11    1    1    2    0    0 -0.30022019397E+02  0.56840670775E+02 -0.17770852749E+03  0.18897752312E+03  0.00000000000E+00 0. -1.
         11    1    1    2    0    0  0.12834289512E+02 -0.25806433839E+02 -0.43871344641E+02  0.52491769787E+02  0.00000000000E+00 0.  1.
<mgrwt>
<rscale>  0 0.12045463E+03</rscale>
<asrwt>0</asrwt>
<pdfrwt beam="1">  1        1 0.84844530E-02 0.12993410E+03</pdfrwt>
<pdfrwt beam="2">  1       -1 0.49983775E-01 0.12993410E+03</pdfrwt>
<totfact> 0.31683980E+03</totfact>
</mgrwt>
</event>
<event>
 7    1  0.6419647E-006  0.1600215E+03  0.7546771E-02  0.1195368E+00
          2   -1    0    0  501    0  0.00000000000E+00  0.00000000000E+00  0.15004603425E+03  0.15004603425E+03  0.00000000000E+00 0. -1.
         -2   -1    0    0    0  501 -0.00000000000E+00 -0.00000000000E+00 -0.26315464794E+03  0.26315464794E+03  0.00000000000E+00 0.  1.
         23    2    1    2    0    0 -0.89298594987E+02  0.44835091050E+02  0.77522746314E+02  0.17781076526E+03  0.12498986995E+03 0.  0.
          5    1    3    3  502    0 -0.11105740363E+03  0.64909566731E+02  0.53497002764E+02  0.13939518664E+03  0.47000000000E+01 0.  1.
         -5    1    3    3    0  502  0.21758808644E+02 -0.20074475681E+02  0.24025743551E+02  0.38415578619E+02  0.47000000000E+01 0.  1.
        -11    1    1    2    0    0  0.85955934046E+02 -0.27698375729E+02 -0.19707319709E+03  0.21677976757E+03  0.00000000000E+00 0.  1.
         11    1    1    2    0    0  0.33426609419E+01 -0.17136715321E+02  0.64418370882E+01  0.18610149361E+02  0.00000000000E+00 0. -1.
<mgrwt>
<rscale>  0 0.15423120E+03</rscale>
<asrwt>0</asrwt>
<pdfrwt beam="1">  1        2 0.23084006E-01 0.16002154E+03</pdfrwt>
<pdfrwt beam="2">  1       -2 0.40485330E-01 0.16002154E+03</pdfrwt>
<totfact> 0.13496221E+03</totfact>
</mgrwt>
</event>
<event>
 7    1  0.6419647E-006  0.1600290E+03  0.7546771E-02  0.1196507E+00
          2   -1    0    0  501    0  0.00000000000E+00  0.00000000000E+00  0.19984752530E+04  0.19984752530E+04  0.00000000000E+00 0. -1.
         -2   -1    0    0    0  501 -0.00000000000E+00 -0.00000000000E+00 -0.13967164669E+02  0.13967164669E+02  0.00000000000E+00 0.  1.
         23    2    1    2    0    0  0.99608406554E+02 -0.80107217568E+01  0.15315553260E+04  0.15398931816E+04  0.12499315192E+03 0.  0.
          5    1    3    3  502    0  0.90225629956E+02  0.47945792679E+02  0.90724381585E+03  0.91299117999E+03  0.47000000000E+01 0. -1.
         -5    1    3    3    0  502  0.93827765986E+01 -0.55956514436E+02  0.62431151010E+03  0.62690200163E+03  0.47000000000E+01 0. -1.
        -11    1    1    2    0    0 -0.10342586941E+03  0.30783856981E+02  0.40778676001E+03  0.42182294621E+03  0.00000000000E+00 0. -1.
         11    1    1    2    0    0  0.38174628516E+01 -0.22773135224E+02  0.45166002380E+02  0.50726289846E+02  0.00000000000E+00 0.  1.
<mgrwt>
<rscale>  0 0.15327401E+03</rscale>
<asrwt>0</asrwt>
<pdfrwt beam="1">  1        2 0.30745750E+00 0.16002904E+03</pdfrwt>
<pdfrwt beam="2">  1       -2 0.21487962E-02 0.16002904E+03</pdfrwt>
<totfact> 0.51513110E+03</totfact>
</mgrwt>
</event>
<event>
 6    1  0.6419647E-006  0.1304291E+03  0.7546771E-02  0.1299680E+00
         -4   -1    0    0    0  501 -0.00000000000E+00  0.00000000000E+00  0.21760212112E+03  0.21760212112E+03  0.00000000000E+00 0. -1.
          4   -1    0    0  501    0  0.00000000000E+00 -0.00000000000E+00 -0.35271478073E+02  0.35271478073E+02  0.00000000000E+00 0.  1.
          5    1    1    2  502    0  0.21833340476E+02  0.21497392837E+02  0.11124322618E+03  0.11548150513E+03  0.47000000000E+01 0. -1.
         -5    1    1    2    0  502 -0.38076710358E+02 -0.26146264185E+02 -0.12532563789E+02  0.48089688683E+02  0.47000000000E+01 0.  1.
        -11    1    1    2    0    0  0.13036089603E+02 -0.97516807211E+01  0.50116958914E+02  0.52694824032E+02  0.00000000000E+00 0.  1.
         11    1    1    2    0    0  0.32072802796E+01  0.14400552068E+02  0.33503021740E+02  0.36607581351E+02  0.00000000000E+00 0. -1.
<mgrwt>
<rscale>  0 0.91322732E+02</rscale>
<asrwt>0</asrwt>
<pdfrwt beam="2">  1        4 0.54263814E-02 0.13042906E+03</pdfrwt>
<pdfrwt beam="1">  1       -4 0.33477249E-01 0.13042906E+03</pdfrwt>
<totfact> 0.29279461E+03</totfact>
</mgrwt>
</event>
<event>
 7    1  0.6419647E-006  0.1407198E+03  0.7546771E-02  0.1223435E+00
          2   -1    0    0  501    0  0.00000000000E+00  0.00000000000E+00  0.36226010126E+03  0.36226010126E+03  0.00000000000E+00 0.  1.
         -2   -1    0    0    0  501 -0.00000000000E+00 -0.00000000000E+00 -0.45232415429E+02  0.45232415429E+02  0.00000000000E+00 0. -1.
         23    2    1    2    0    0 -0.63238698710E+02  0.13353227480E+02  0.21136266172E+03  0.25392173335E+03  0.12499852079E+03 0.  0.
          5    1    3    3  502    0 -0.16946593164E+02 -0.29432233214E+02  0.18022547953E+03  0.18345777946E+03  0.47000000000E+01 0.  1.
         -5    1    3    3    0  502 -0.46292105546E+02  0.42785460694E+02  0.31137182183E+02  0.70463953884E+02  0.47000000000E+01 0.  1.
        -11    1    1    2    0    0  0.55804310457E+02  0.25592163750E+02  0.93944858401E+02  0.11222618380E+03  0.00000000000E+00 0.  1.
         11    1    1    2    0    0  0.74343882527E+01 -0.38945391230E+02  0.11720165713E+02  0.41344599540E+02  0.00000000000E+00 0. -1.
<mgrwt>
<rscale>  0 0.13274765E+03</rscale>
<asrwt>0</asrwt>
<pdfrwt beam="1">  1        2 0.55732321E-01 0.14071983E+03</pdfrwt>
<pdfrwt beam="2">  1       -2 0.69588334E-02 0.14071983E+03</pdfrwt>
<totfact> 0.99517936E+03</totfact>
</mgrwt>
</event>
<event>
 7    1  0.6419647E-006  0.1250138E+03  0.7546771E-02  0.1250513E+00
         -2   -1    0    0    0  501 -0.00000000000E+00  0.00000000000E+00  0.19700738267E+02  0.19700738267E+02  0.00000000000E+00 0.  1.
          2   -1    0    0  501    0  0.00000000000E+00 -0.00000000000E+00 -0.66012218512E+03  0.66012218512E+03  0.00000000000E+00 0. -1.
         23    2    1    2    0    0  0.63096372372E+00 -0.16691162567E+01 -0.47086592159E+03  0.48717877485E+03  0.12500103394E+03 0.  0.
          5    1    3    3  502    0 -0.16160433404E+02 -0.56735862284E+02 -0.15182107412E+03  0.16294737256E+03  0.47000000000E+01 0. -1.
         -5    1    3    3    0  502  0.16791397128E+02  0.55066746027E+02 -0.31904484748E+03  0.32423140230E+03  0.47000000000E+01 0. -1.
        -11    1    1    2    0    0 -0.12355861522E+01  0.45972653423E+02 -0.71086479376E+02  0.84665808246E+02  0.00000000000E+00 0.  1.
         11    1    1    2    0    0  0.60462242844E+00 -0.44303537166E+02 -0.98469045887E+02  0.10797834029E+03  0.00000000000E+00 0. -1.
<mgrwt>
<rscale>  0 0.11561433E+03</rscale>
<asrwt>0</asrwt>
<pdfrwt beam="2">  1        2 0.10155726E+00 0.12501377E+03</pdfrwt>
<pdfrwt beam="1">  1       -2 0.30308828E-02 0.12501377E+03</pdfrwt>
<totfact> 0.17675325E+04</totfact>
</mgrwt>
</event>
<event>
 7    1  0.6419647E-006  0.1531136E+03  0.7546771E-02  0.1205593E+00
         -2   -1    0    0    0  501 -0.00000000000E+00  0.00000000000E+00  0.21673747252E+02  0.21673747252E+02  0.00000000000E+00 0.  1.
          2   -1    0    0  501    0  0.00000000000E+00 -0.00000000000E+00 -0.97086315042E+03  0.97086315042E+03  0.00000000000E+00 0. -1.
         23    2    1    2    0    0  0.85905783679E+02  0.20959240075E+02 -0.65010587984E+03  0.66789327950E+03  0.12499873749E+03 0.  0.
          5    1    3    3  502    0  0.36905726643E+02 -0.52667062059E+02 -0.28359513015E+03  0.29083352614E+03  0.47000000000E+01 0. -1.
         -5    1    3    3    0  502  0.49000057035E+02  0.73626302134E+02 -0.36651074970E+03  0.37705975335E+03  0.47000000000E+01 0. -1.
        -11    1    1    2    0    0 -0.76695324439E+02  0.78883167046E+01 -0.27599994671E+03  0.28656651744E+03  0.00000000000E+00 0. -1.
         11    1    1    2    0    0 -0.92104592395E+01 -0.28847556779E+02 -0.23083576613E+02  0.38077100740E+02  0.00000000000E+00 0.  1.
<mgrwt>
<rscale>  0 0.14590830E+03</rscale>
<asrwt>0</asrwt>
<pdfrwt beam="2">  1        2 0.14936363E+00 0.15311361E+03</pdfrwt>
<pdfrwt beam="1">  1       -2 0.33344212E-02 0.15311361E+03</pdfrwt>
<totfact> 0.96080902E+03</totfact>
</mgrwt>
</event>
<event>
 7    1  0.6419647E-006  0.3364494E+03  0.7546771E-02  0.1068361E+00
          2   -1    0    0  501    0  0.00000000000E+00  0.00000000000E+00  0.76587587372E+03  0.76587587372E+03  0.00000000000E+00 0. -1.
         -2   -1    0    0    0  501 -0.00000000000E+00 -0.00000000000E+00 -0.15410068140E+03  0.15410068140E+03  0.00000000000E+00 0.  1.
         23    2    1    2    0    0 -0.31572281707E+03  0.31715055422E+02  0.40031455457E+03  0.52292440262E+03  0.11185457656E+03 0.  0.
          5    1    3    3  502    0 -0.18193884473E+03 -0.28783153119E+02  0.17615543116E+03  0.25491771036E+03  0.47000000000E+01 0. -1.
         -5    1    3    3    0  502 -0.13378397234E+03  0.60498208541E+02  0.22415912341E+03  0.26800669226E+03  0.47000000000E+01 0.  1.
        -11    1    1    2    0    0  0.16908235467E+03 -0.21541839906E+02  0.47702398677E+02  0.17699834001E+03  0.00000000000E+00 0.  1.
         11    1    1    2    0    0  0.14664046240E+03 -0.10173215516E+02  0.16375823907E+03  0.22005381249E+03  0.00000000000E+00 0. -1.
<mgrwt>
<rscale>  0 0.33635143E+03</rscale>
<asrwt>0</asrwt>
<pdfrwt beam="1">  1        2 0.11782706E+00 0.33644938E+03</pdfrwt>
<pdfrwt beam="2">  1       -2 0.23707798E-01 0.33644938E+03</pdfrwt>
<totfact> 0.58657610E+02</totfact>
</mgrwt>
</event>
<event>
 7    1  0.6419647E-006  0.1799771E+03  0.7546771E-02  0.1173551E+00
         -1   -1    0    0    0  501 -0.00000000000E+00  0.00000000000E+00  0.59208361021E+03  0.59208361021E+03  0.00000000000E+00 0.  1.
          1   -1    0    0  501    0  0.00000000000E+00 -0.00000000000E+00 -0.50243547389E+02  0.50243547389E+02  0.00000000000E+00 0. -1.
         23    2    1    2    0    0  0.12642982213E+03 -0.27902986073E+02  0.22334409131E+03  0.28683503856E+03  0.12501471780E+03 0.  0.
          5    1    3    3  502    0  0.68673993695E+02  0.35938147665E+02  0.47595658401E+02  0.91077464646E+02  0.47000000000E+01 0. -1.
         -5    1    3    3    0  502  0.57755828436E+02 -0.63841133738E+02  0.17574843291E+03  0.19575757391E+03  0.47000000000E+01 0. -1.
        -11    1    1    2    0    0 -0.89247955627E+02  0.60987072110E+02  0.22189392386E+03  0.24682287981E+03  0.00000000000E+00 0. -1.
         11    1    1    2    0    0 -0.37181866504E+02 -0.33084086036E+02  0.96602047647E+02  0.10866923923E+03  0.00000000000E+00 0.  1.
<mgrwt>
<rscale>  0 0.17418631E+03</rscale>
<asrwt>0</asrwt>
<pdfrwt beam="2">  1        1 0.77297770E-02 0.17997710E+03</pdfrwt>
<pdfrwt beam="1">  1       -1 0.91089781E-01 0.17997710E+03</pdfrwt>
<totfact> 0.11170810E+03</totfact>
</mgrwt>
</event>
<event>
 7    1  0.6419647E-006  0.1524642E+03  0.7546771E-02  0.1206254E+00
          2   -1    0    0  501    0  0.00000000000E+00  0.00000000000E+00  0.45249271150E+03  0.45249271150E+03  0.00000000000E+00 0. -1.
         -2   -1    0    0    0  501 -0.00000000000E+00 -0.00000000000E+00 -0.58464249036E+02  0.58464249036E+02  0.00000000000E+00 0.  1.
         23    2    1    2    0    0  0.76492623706E+02 -0.41997810362E+02  0.34222505473E+03  0.37465093315E+03  0.12502158243E+03 0.  0.
          5    1    3    3  502    0  0.58311815945E+02 -0.25691873285E+02  0.34384232978E+03  0.34972843462E+03  0.47000000000E+01 0.  1.
         -5    1    3    3    0  502  0.18180807761E+02 -0.16305937077E+02 -0.16172750521E+01  0.24922498538E+02  0.47000000000E+01 0.  1.
        -11    1    1    2    0    0 -0.96628657061E+02  0.33923374915E+02  0.51451217080E+02  0.11460855321E+03  0.00000000000E+00 0. -1.
         11    1    1    2    0    0  0.20136033355E+02  0.80744354467E+01  0.35219066029E+00  0.21697474169E+02  0.00000000000E+00 0.  1.
<mgrwt>
<rscale>  0 0.14539049E+03</rscale>
<asrwt>0</asrwt>
<pdfrwt beam="1">  1        2 0.69614261E-01 0.15246420E+03</pdfrwt>
<pdfrwt beam="2">  1       -2 0.89945002E-02 0.15246420E+03</pdfrwt>
<totfact> 0.52968923E+03</totfact>
</mgrwt>
</event>
<event>
 7    1  0.6419647E-006  0.1367234E+03  0.7546771E-02  0.1229951E+00
         -1   -1    0    0    0  501 -0.00000000000E+00  0.00000000000E+00  0.48075865253E+03  0.48075865253E+03  0.00000000000E+00 0.  1.
          1   -1    0    0  501    0  0.00000000000E+00 -0.00000000000E+00 -0.30992815589E+02  0.30992815589E+02  0.00000000000E+00 0. -1.
         23    2    1    2    0    0 -0.87526246872E+01  0.54694171956E+02  0.22693993440E+03  0.26494343490E+03  0.12500091595E+03 0.  0.
          5    1    3    3  502    0 -0.26335310285E+02 -0.32890070980E+02  0.42897700903E+02  0.60312586412E+02  0.47000000000E+01 0. -1.
         -5    1    3    3    0  502  0.17582685598E+02  0.87584242936E+02  0.18404223350E+03  0.20463084849E+03  0.47000000000E+01 0. -1.
        -11    1    1    2    0    0 -0.24967316125E+02 -0.18310359135E+02  0.17562607428E+03  0.17833438842E+03  0.00000000000E+00 0.  1.
         11    1    1    2    0    0  0.33719940813E+02 -0.36383812821E+02  0.47199828262E+02  0.68473644797E+02  0.00000000000E+00 0. -1.
<mgrwt>
<rscale>  0 0.12833291E+03</rscale>
<asrwt>0</asrwt>
<pdfrwt beam="2">  1        1 0.47681258E-02 0.13672341E+03</pdfrwt>
<pdfrwt beam="1">  1       -1 0.73962864E-01 0.13672341E+03</pdfrwt>
<totfact> 0.32830831E+03</totfact>
</mgrwt>
</event>
<event>
 7    1  0.6419647E-006  0.1473391E+03  0.7546771E-02  0.1212619E+00
          1   -1    0    0  501    0  0.00000000000E+00  0.00000000000E+00  0.17197221626E+03  0.17197221626E+03  0.00000000000E+00 0. -1.
         -1   -1    0    0    0  501 -0.00000000000E+00 -0.00000000000E+00 -0.10860107818E+03  0.10860107818E+03  0.00000000000E+00 0.  1.
         23    2    1    2    0    0  0.74029811428E+02 -0.24529637426E+02  0.58557157532E+02  0.15854886528E+03  0.12500674339E+03 0.  0.
          5    1    3    3  502    0  0.10605213161E+03 -0.21592441210E+02  0.63663141810E+02  0.12565179570E+03  0.47000000000E+01 0. -1.
         -5    1    3    3    0  502 -0.32022320186E+02 -0.29371962153E+01 -0.51059842775E+01  0.32897069583E+02  0.47000000000E+01 0. -1.
        -11    1    1    2    0    0 -0.81120837063E+02  0.49776156726E+02 -0.92934521337E+00  0.95179407788E+02  0.00000000000E+00 0.  1.
         11    1    1    2    0    0  0.70910256347E+01 -0.25246519301E+02  0.57433257599E+01  0.26845021366E+02  0.00000000000E+00 0. -1.
<mgrwt>
<rscale>  0 0.14052888E+03</rscale>
<asrwt>0</asrwt>
<pdfrwt beam="1">  1        1 0.26457264E-01 0.14733907E+03</pdfrwt>
<pdfrwt beam="2">  1       -1 0.16707858E-01 0.14733907E+03</pdfrwt>
<totfact> 0.46247724E+03</totfact>
</mgrwt>
</event>
<event>
 7    1  0.6419647E-006  0.1553705E+03  0.7546771E-02  0.1202472E+00
         -1   -1    0    0    0  501 -0.00000000000E+00  0.00000000000E+00  0.99572754789E+02  0.99572754789E+02  0.00000000000E+00 0.  1.
          1   -1    0    0  501    0  0.00000000000E+00 -0.00000000000E+00 -0.36768493359E+03  0.36768493359E+03  0.00000000000E+00 0. -1.
         23    2    1    2    0    0 -0.48037983959E+02  0.78781863552E+02 -0.29666307998E+03  0.33488653067E+03  0.12500310185E+03 0.  0.
          5    1    3    3  502    0 -0.75535178076E+02  0.38164109009E+02 -0.95108268932E+02  0.12739597781E+03  0.47000000000E+01 0. -1.
         -5    1    3    3    0  502  0.27497194117E+02  0.40617754543E+02 -0.20155481105E+03  0.20749055286E+03  0.47000000000E+01 0. -1.
        -11    1    1    2    0    0  0.64821903584E+02 -0.22932496379E+02  0.33450345798E+01  0.68840161466E+02  0.00000000000E+00 0.  1.
         11    1    1    2    0    0 -0.16783919625E+02 -0.55849367173E+02  0.25205866605E+02  0.63530996237E+02  0.00000000000E+00 0. -1.
<mgrwt>
<rscale>  0 0.14838456E+03</rscale>
<asrwt>0</asrwt>
<pdfrwt beam="2">  1        1 0.56566913E-01 0.15537054E+03</pdfrwt>
<pdfrwt beam="1">  1       -1 0.15318885E-01 0.15537054E+03</pdfrwt>
<totfact> 0.20637482E+03</totfact>
</mgrwt>
</event>
<event>
 7    1  0.6419647E-006  0.1674187E+03  0.7546771E-02  0.1186457E+00
          2   -1    0    0  501    0  0.00000000000E+00  0.00000000000E+00  0.25293368441E+03  0.25293368441E+03  0.00000000000E+00 0. -1.
         -2   -1    0    0    0  501 -0.00000000000E+00 -0.00000000000E+00 -0.11584107759E+03  0.11584107759E+03  0.00000000000E+00 0.  1.
         23    2    1    2    0    0 -0.11130610011E+03 -0.38382421892E+01  0.14543348702E+03  0.22176545063E+03  0.12500094368E+03 0.  0.
          5    1    3    3  502    0 -0.61575381463E+02 -0.85151918129E+01  0.15816306158E+03  0.17000494152E+03  0.47000000000E+01 0.  1.
         -5    1    3    3    0  502 -0.49730718648E+02  0.46769496236E+01 -0.12729574553E+02  0.51760509110E+02  0.47000000000E+01 0.  1.
        -11    1    1    2    0    0  0.71046913942E+02 -0.39678112284E+02  0.15982507161E+02  0.82930435368E+02  0.00000000000E+00 0. -1.
         11    1    1    2    0    0  0.40259186168E+02  0.43516354473E+02 -0.24323387366E+02  0.64078876008E+02  0.00000000000E+00 0.  1.
<mgrwt>
<rscale>  0 0.16199967E+03</rscale>
<asrwt>0</asrwt>
<pdfrwt beam="1">  1        2 0.38912874E-01 0.16741868E+03</pdfrwt>
<pdfrwt beam="2">  1       -2 0.17821704E-01 0.16741868E+03</pdfrwt>
<totfact> 0.32898366E+03</totfact>
</mgrwt>
</event>
<event>
 7    1  0.6419647E-006  0.1293797E+03  0.7546771E-02  0.1241278E+00
         -2   -1    0    0    0  501 -0.00000000000E+00  0.00000000000E+00  0.88735022019E+02  0.88735022019E+02  0.00000000000E+00 0. -1.
          2   -1    0    0  501    0  0.00000000000E+00 -0.00000000000E+00 -0.40697982703E+03  0.40697982703E+03  0.00000000000E+00 0.  1.
         23    2    1    2    0    0 -0.17217037789E+02  0.28600254628E+02 -0.36402699573E+03  0.38633505022E+03  0.12499886582E+03 0.  0.
          5    1    3    3  502    0 -0.14479257697E+02 -0.13023710883E+02 -0.33429434144E+03  0.33489410665E+03  0.47000000000E+01 0. -1.
         -5    1    3    3    0  502 -0.27377800925E+01  0.41623965511E+02 -0.29732654289E+02  0.51440943574E+02  0.47000000000E+01 0. -1.
        -11    1    1    2    0    0  0.21766336012E+02  0.27372132430E+02 -0.28560182829E+01  0.35087944618E+02  0.00000000000E+00 0. -1.
         11    1    1    2    0    0 -0.45492982222E+01 -0.55972387058E+02  0.48638208999E+02  0.74291854210E+02  0.00000000000E+00 0.  1.
<mgrwt>
<rscale>  0 0.12110943E+03</rscale>
<asrwt>0</asrwt>
<pdfrwt beam="2">  1        2 0.62612281E-01 0.12937974E+03</pdfrwt>
<pdfrwt beam="1">  1       -2 0.13651542E-01 0.12937974E+03</pdfrwt>
<totfact> 0.30382399E+03</totfact>
</mgrwt>
</event>
<event>
 7    1  0.6419647E-006  0.1579678E+03  0.7546771E-02  0.1198830E+00
          2   -1    0    0  501    0  0.00000000000E+00  0.00000000000E+00  0.76075004480E+03  0.76075004480E+03  0.00000000000E+00 0. -1.
         -2   -1    0    0    0  501 -0.00000000000E+00 -0.00000000000E+00 -0.39279929618E+02  0.39279929618E+02  0.00000000000E+00 0.  1.
         23    2    1    2    0    0 -0.65449600698E+01 -0.96367741743E+02  0.59789292284E+03  0.61840905630E+03  0.12499694231E+03 0.  0.
          5    1    3    3  502    0 -0.29432666003E+02 -0.44454345374E+02  0.51544486768E+03  0.51821614435E+03  0.47000000000E+01 0.  1.
         -5    1    3    3    0  502  0.22887705934E+02 -0.51913396369E+02  0.82448055154E+02  0.10019291195E+03  0.47000000000E+01 0.  1.
        -11    1    1    2    0    0  0.36102880018E+02  0.91665274525E+01  0.17492230018E+02  0.41151200251E+02  0.00000000000E+00 0.  1.
         11    1    1    2    0    0 -0.29557919948E+02  0.87201214290E+02  0.10608496233E+03  0.14046971787E+03  0.00000000000E+00 0. -1.
<mgrwt>
<rscale>  0 0.15134514E+03</rscale>
<asrwt>0</asrwt>
<pdfrwt beam="1">  1        2 0.11703846E+00 0.15796776E+03</pdfrwt>
<pdfrwt beam="2">  1       -2 0.60430667E-02 0.15796776E+03</pdfrwt>
<totfact> 0.54040452E+03</totfact>
</mgrwt>
</event>
<event>
 7    1  0.6419647E-006  0.2189866E+03  0.7546771E-02  0.1138249E+00
         -1   -1    0    0    0  501 -0.00000000000E+00  0.00000000000E+00  0.55199598027E+03  0.55199598027E+03  0.00000000000E+00 0.  1.
          1   -1    0    0  501    0  0.00000000000E+00 -0.00000000000E+00 -0.19591316924E+03  0.19591316924E+03  0.00000000000E+00 0. -1.
         23    2    1    2    0    0  0.15002209617E+03  0.99113916825E+02 -0.10663581713E+03  0.24356996583E+03  0.12499973165E+03 0.  0.
          5    1    3    3  502    0  0.14885178520E+03  0.73354075979E+02 -0.38289267403E+02  0.17036969337E+03  0.47000000000E+01 0.  1.
         -5    1    3    3    0  502  0.11703109655E+01  0.25759840846E+02 -0.68346549731E+02  0.73200272461E+02  0.47000000000E+01 0.  1.
        -11    1    1    2    0    0 -0.99285819258E+02 -0.52051197256E+02  0.38153338517E+03  0.39766157099E+03  0.00000000000E+00 0.  1.
         11    1    1    2    0    0 -0.50736276909E+02 -0.47062719569E+02  0.81185242997E+02  0.10667761269E+03  0.00000000000E+00 0. -1.
<mgrwt>
<rscale>  0 0.21424377E+03</rscale>
<asrwt>0</asrwt>
<pdfrwt beam="2">  1        1 0.30140488E-01 0.21898660E+03</pdfrwt>
<pdfrwt beam="1">  1       -1 0.84922458E-01 0.21898660E+03</pdfrwt>
<totfact> 0.21907923E+02</totfact>
</mgrwt>
</event>
<event>
 7    1  0.6419647E-006  0.1377018E+03  0.7546771E-02  0.1227793E+00
          1   -1    0    0  501    0  0.00000000000E+00  0.00000000000E+00  0.29175890656E+02  0.29175890656E+02  0.00000000000E+00 0. -1.
         -1   -1    0    0    0  501 -0.00000000000E+00 -0.00000000000E+00 -0.52309362896E+03  0.52309362896E+03  0.00000000000E+00 0.  1.
         23    2    1    2    0    0  0.11955179786E+02 -0.56504741351E+02 -0.25453296855E+03  0.28939387049E+03  0.12500427225E+03 0.  0.
          5    1    3    3  502    0 -0.10665566351E+02 -0.89613214670E+02 -0.12881307318E+03  0.15735050165E+03  0.47000000000E+01 0.  1.
         -5    1    3    3    0  502  0.22620746137E+02  0.33108473319E+02 -0.12571989538E+03  0.13204336884E+03  0.47000000000E+01 0.  1.
        -11    1    1    2    0    0  0.56308667991E+01 -0.21796956272E+02 -0.23436099135E+02  0.32497149202E+02  0.00000000000E+00 0.  1.
         11    1    1    2    0    0 -0.17586046585E+02  0.78301697623E+02 -0.21594867062E+03  0.23037849992E+03  0.00000000000E+00 0. -1.
<mgrwt>
<rscale>  0 0.12977266E+03</rscale>
<asrwt>0</asrwt>
<pdfrwt beam="1">  1        1 0.44885984E-02 0.13770178E+03</pdfrwt>
<pdfrwt beam="2">  1       -1 0.80475946E-01 0.13770178E+03</pdfrwt>
<totfact> 0.30071642E+03</totfact>
</mgrwt>
</event>
<event>
 7    1  0.6419647E-006  0.1419497E+03  0.7546771E-02  0.1222171E+00
          1   -1    0    0  501    0  0.00000000000E+00  0.00000000000E+00  0.86941686300E+03  0.86941686300E+03  0.00000000000E+00 0. -1.
         -1   -1    0    0    0  501 -0.00000000000E+00 -0.00000000000E+00 -0.18492798795E+02  0.18492798795E+02  0.00000000000E+00 0.  1.
         23    2    1    2    0    0  0.60070284388E+02  0.30303623628E+02  0.46018692135E+03  0.48158250835E+03  0.12499184413E+03 0.  0.
          5    1    3    3  502    0 -0.21805430282E+02 -0.30710805829E+02  0.16107976636E+03  0.16549142430E+03  0.47000000000E+01 0.  1.
         -5    1    3    3    0  502  0.81875714670E+02  0.61014429457E+02  0.29910715498E+03  0.31609108405E+03  0.47000000000E+01 0.  1.
        -11    1    1    2    0    0 -0.57526172018E+02  0.19976104841E+02  0.20074919384E+03  0.20978213474E+03  0.00000000000E+00 0.  1.
         11    1    1    2    0    0 -0.25441123707E+01 -0.50279728469E+02  0.18998794902E+03  0.19654501870E+03  0.00000000000E+00 0. -1.
<mgrwt>
<rscale>  0 0.13362671E+03</rscale>
<asrwt>0</asrwt>
<pdfrwt beam="1">  1        1 0.13375641E+00 0.14194967E+03</pdfrwt>
<pdfrwt beam="2">  1       -1 0.28450466E-02 0.14194967E+03</pdfrwt>
<totfact> 0.79789374E+03</totfact>
</mgrwt>
</event>
<event>
 7    1  0.6419647E-006  0.1375407E+03  0.7546771E-02  0.1228803E+00
         -2   -1    0    0    0  501 -0.00000000000E+00  0.00000000000E+00  0.14057673740E+03  0.14057673740E+03  0.00000000000E+00 0. -1.
          2   -1    0    0  501    0  0.00000000000E+00 -0.00000000000E+00 -0.10646484702E+03  0.10646484702E+03  0.00000000000E+00 0.  1.
         23    2    1    2    0    0  0.57109610718E+02 -0.45740686333E+01  0.12315138257E+02  0.13809095870E+03  0.12504007559E+03 0.  0.
          5    1    3    3  502    0 -0.30847102764E+02 -0.70738837925E+01  0.34674823252E+02  0.47180684060E+02  0.47000000000E+01 0. -1.
         -5    1    3    3    0  502  0.87956713481E+02  0.24998151592E+01 -0.22359684996E+02  0.90910274641E+02  0.47000000000E+01 0. -1.
        -11    1    1    2    0    0  0.20183670610E+01  0.34680622653E+02 -0.88717558453E+01  0.35854252816E+02  0.00000000000E+00 0.  1.
         11    1    1    2    0    0 -0.59127977779E+02 -0.30106554020E+02  0.30668507963E+02  0.73096372905E+02  0.00000000000E+00 0. -1.
<mgrwt>
<rscale>  0 0.12909619E+03</rscale>
<asrwt>0</asrwt>
<pdfrwt beam="2">  1        2 0.16379207E-01 0.13754072E+03</pdfrwt>
<pdfrwt beam="1">  1       -2 0.21627191E-01 0.13754072E+03</pdfrwt>
<totfact> 0.61183850E+03</totfact>
</mgrwt>
</event>
<event>
 7    1  0.6419647E-006  0.1342510E+03  0.7546771E-02  0.1233937E+00
          2   -1    0    0  501    0  0.00000000000E+00  0.00000000000E+00  0.86412230643E+02  0.86412230643E+02  0.00000000000E+00 0. -1.
         -2   -1    0    0    0  501 -0.00000000000E+00 -0.00000000000E+00 -0.16447063701E+03  0.16447063701E+03  0.00000000000E+00 0.  1.
         23    2    1    2    0    0 -0.19374637983E+02 -0.44986853961E+02 -0.33213592368E+02  0.13829850531E+03  0.12499656086E+03 0.  0.
          5    1    3    3  502    0  0.50554122276E+02 -0.37211583503E+02 -0.82161601654E+01  0.63482411058E+02  0.47000000000E+01 0. -1.
         -5    1    3    3    0  502 -0.69928760259E+02 -0.77752704579E+01 -0.24997432203E+02  0.74816094249E+02  0.47000000000E+01 0. -1.
        -11    1    1    2    0    0  0.26109456109E+02  0.57862765115E+02  0.20257242409E+01  0.63513044674E+02  0.00000000000E+00 0. -1.
         11    1    1    2    0    0 -0.67348181259E+01 -0.12875911154E+02 -0.46870538242E+02  0.49071317674E+02  0.00000000000E+00 0.  1.
<mgrwt>
<rscale>  0 0.12572716E+03</rscale>
<asrwt>0</asrwt>
<pdfrwt beam="1">  1        2 0.13294189E-01 0.13425101E+03</pdfrwt>
<pdfrwt beam="2">  1       -2 0.25303175E-01 0.13425101E+03</pdfrwt>
<totfact> 0.59471389E+03</totfact>
</mgrwt>
</event>
<event>
 7    1  0.6419647E-006  0.2461113E+03  0.7546771E-02  0.1118440E+00
          4   -1    0    0  501    0  0.00000000000E+00  0.00000000000E+00  0.11713050850E+03  0.11713050850E+03  0.00000000000E+00 0. -1.
         -4   -1    0    0    0  501 -0.00000000000E+00 -0.00000000000E+00 -0.57793742107E+03  0.57793742107E+03  0.00000000000E+00 0.  1.
         23    2    1    2    0    0 -0.20605451472E+03  0.49865824512E+02 -0.97010731766E+02  0.26454083620E+03  0.12500283376E+03 0.  0.
          5    1    3    3  502    0 -0.27902559029E+02  0.50767766280E+02  0.64380154361E+01  0.58476122787E+02  0.47000000000E+01 0. -1.
         -5    1    3    3    0  502 -0.17815195570E+03 -0.90194176844E+00 -0.10344874720E+03  0.20606471342E+03  0.47000000000E+01 0. -1.
        -11    1    1    2    0    0  0.13359260540E+03 -0.23679818183E+02 -0.14507322617E+03  0.19863020656E+03  0.00000000000E+00 0. -1.
         11    1    1    2    0    0  0.72461909322E+02 -0.26186006329E+02 -0.21872295462E+03  0.23189688680E+03  0.00000000000E+00 0.  1.
<mgrwt>
<rscale>  0 0.24204115E+03</rscale>
<asrwt>0</asrwt>
<pdfrwt beam="1">  1        4 0.18020078E-01 0.24611130E+03</pdfrwt>
<pdfrwt beam="2">  1       -4 0.88913448E-01 0.24611130E+03</pdfrwt>
<totfact> 0.55497171E+01</totfact>
</mgrwt>
</event>
<event>
 7    1  0.6419647E-006  0.1430737E+03  0.7546771E-02  0.1218154E+00
          2   -1    0    0  501    0  0.00000000000E+00  0.00000000000E+00  0.10424885380E+03  0.10424885380E+03  0.00000000000E+00 0. -1.
         -2   -1    0    0    0  501 -0.00000000000E+00 -0.00000000000E+00 -0.16485411505E+03  0.16485411505E+03  0.00000000000E+00 0.  1.
         23    2    1    2    0    0  0.53282251598E+02  0.44789114977E+02 -0.23572713994E+02  0.14500263369E+03  0.12500011110E+03 0.  0.
          5    1    3    3  502    0  0.38500703112E+02  0.49433120484E+02  0.43228340077E+02  0.76267404091E+02  0.47000000000E+01 0. -1.
         -5    1    3    3    0  502  0.14781548486E+02 -0.46440055074E+01 -0.66801054071E+02  0.68735229598E+02  0.47000000000E+01 0. -1.
        -11    1    1    2    0    0 -0.74778023010E+02 -0.56234855189E+02 -0.34043880289E+02  0.99564539111E+02  0.00000000000E+00 0.  1.
         11    1    1    2    0    0  0.21495771412E+02  0.11445740212E+02 -0.29886669645E+01  0.24535796050E+02  0.00000000000E+00 0. -1.
<mgrwt>
<rscale>  0 0.13647406E+03</rscale>
<asrwt>0</asrwt>
<pdfrwt beam="1">  1        2 0.16038285E-01 0.14307373E+03</pdfrwt>
<pdfrwt beam="2">  1       -2 0.25362171E-01 0.14307373E+03</pdfrwt>
<totfact> 0.47710439E+03</totfact>
</mgrwt>
</event>
<event>
 7    1  0.6419647E-006  0.1425360E+03  0.7546771E-02  0.1232080E+00
         -2   -1    0    0    0  501 -0.00000000000E+00  0.00000000000E+00  0.76655243899E+02  0.76655243899E+02  0.00000000000E+00 0.  1.
          2   -1    0    0  501    0  0.00000000000E+00 -0.00000000000E+00 -0.25919362988E+03  0.25919362988E+03  0.00000000000E+00 0. -1.
         23    2    1    2    0    0  0.68491836944E+02 -0.71725095164E+00 -0.19892582075E+03  0.24472023957E+03  0.12499946928E+03 0.  0.
          5    1    3    3  502    0  0.77742137456E+02  0.48011311269E+02 -0.14358095103E+03  0.17025423767E+03  0.47000000000E+01 0.  1.
         -5    1    3    3    0  502 -0.92503005121E+01 -0.48728562221E+02 -0.55344869715E+02  0.74466001903E+02  0.47000000000E+01 0.  1.
        -11    1    1    2    0    0 -0.39820489718E+02 -0.94692275168E+01 -0.18430556257E+02  0.44889008399E+02  0.00000000000E+00 0. -1.
         11    1    1    2    0    0 -0.28671347226E+02  0.10186478468E+02  0.34817991025E+02  0.46239625802E+02  0.00000000000E+00 0.  1.
<mgrwt>
<rscale>  0 0.12693244E+03</rscale>
<asrwt>0</asrwt>
<pdfrwt beam="2">  1        2 0.39875943E-01 0.14253601E+03</pdfrwt>
<pdfrwt beam="1">  1       -2 0.11793114E-01 0.14253601E+03</pdfrwt>
<totfact> 0.62372829E+03</totfact>
</mgrwt>
</event>
<event>
 7    1  0.6419647E-006  0.1767729E+03  0.7546771E-02  0.1177079E+00
          2   -1    0    0  501    0  0.00000000000E+00  0.00000000000E+00  0.86886435580E+03  0.86886435580E+03  0.00000000000E+00 0. -1.
         -2   -1    0    0    0  501 -0.00000000000E+00 -0.00000000000E+00 -0.33496951511E+02  0.33496951511E+02  0.00000000000E+00 0.  1.
         23    2    1    2    0    0  0.96857896326E+02  0.79001638808E+02  0.55611720005E+03  0.58353664154E+03  0.12500384318E+03 0.  0.
          5    1    3    3  502    0  0.12715153376E+03  0.63057079624E+02  0.45821638272E+03  0.47971663638E+03  0.47000000000E+01 0. -1.
         -5    1    3    3    0  502 -0.30293637433E+02  0.15944559184E+02  0.97900817336E+02  0.10382000516E+03  0.47000000000E+01 0. -1.
        -11    1    1    2    0    0 -0.91236745002E+02 -0.19173759787E+02  0.15675306047E+03  0.18238228716E+03  0.00000000000E+00 0.  1.
         11    1    1    2    0    0 -0.56211513235E+01 -0.59827879021E+02  0.12249714377E+03  0.13644237861E+03  0.00000000000E+00 0. -1.
<mgrwt>
<rscale>  0 0.17073917E+03</rscale>
<asrwt>0</asrwt>
<pdfrwt beam="1">  1        2 0.13367142E+00 0.17677294E+03</pdfrwt>
<pdfrwt beam="2">  1       -2 0.51533778E-02 0.17677294E+03</pdfrwt>
<totfact> 0.58451861E+03</totfact>
</mgrwt>
</event>
<event>
 7    1  0.6419647E-006  0.1856877E+03  0.7546771E-02  0.1164873E+00
          2   -1    0    0  501    0  0.00000000000E+00  0.00000000000E+00  0.50579872588E+03  0.50579872588E+03  0.00000000000E+00 0. -1.
         -2   -1    0    0    0  501 -0.00000000000E+00 -0.00000000000E+00 -0.79764320802E+02  0.79764320802E+02  0.00000000000E+00 0.  1.
         23    2    1    2    0    0 -0.13102727531E+03  0.41069327447E+02  0.34618739042E+03  0.39284302389E+03  0.12500038239E+03 0.  0.
          5    1    3    3  502    0 -0.34514436373E+02 -0.42315993882E+02  0.14003922979E+03  0.15038273018E+03  0.47000000000E+01 0.  1.
         -5    1    3    3    0  502 -0.96512838937E+02  0.83385321329E+02  0.20614816063E+03  0.24246029370E+03  0.47000000000E+01 0.  1.
        -11    1    1    2    0    0  0.59820101435E+02 -0.59508640858E+01 -0.21617115608E+02  0.63883933867E+02  0.00000000000E+00 0.  1.
         11    1    1    2    0    0  0.71207173874E+02 -0.35118463361E+02  0.10146413027E+03  0.12883608893E+03  0.00000000000E+00 0. -1.
<mgrwt>
<rscale>  0 0.18306079E+03</rscale>
<asrwt>0</asrwt>
<pdfrwt beam="1">  1        2 0.77815187E-01 0.18568773E+03</pdfrwt>
<pdfrwt beam="2">  1       -2 0.12271434E-01 0.18568773E+03</pdfrwt>
<totfact> 0.28867650E+03</totfact>
</mgrwt>
</event>
<event>
 7    1  0.6419647E-006  0.1294549E+03  0.7546771E-02  0.1236908E+00
         -1   -1    0    0    0  501 -0.00000000000E+00  0.00000000000E+00  0.20410731790E+02  0.20410731790E+02  0.00000000000E+00 0.  1.
          1   -1    0    0  501    0  0.00000000000E+00 -0.00000000000E+00 -0.69403168231E+03  0.69403168231E+03  0.00000000000E+00 0. -1.
         23    2    1    2    0    0  0.22498768739E+02 -0.25035694564E+02 -0.38126985972E+03  0.40264783916E+03  0.12500238340E+03 0.  0.
          5    1    3    3  502    0 -0.13951026941E+02 -0.29996320882E+02 -0.18907246307E+02  0.38392504244E+02  0.47000000000E+01 0.  1.
         -5    1    3    3    0  502  0.36449795681E+02  0.49606263177E+01 -0.36236261341E+03  0.36425533492E+03  0.47000000000E+01 0.  1.
        -11    1    1    2    0    0  0.26212978444E+02  0.29417990980E+02 -0.22575884313E+03  0.22917153768E+03  0.00000000000E+00 0. -1.
         11    1    1    2    0    0 -0.48711747184E+02 -0.43822964159E+01 -0.66592247676E+02  0.82623037260E+02  0.00000000000E+00 0.  1.
<mgrwt>
<rscale>  0 0.12383072E+03</rscale>
<asrwt>0</asrwt>
<pdfrwt beam="2">  1        1 0.10677411E+00 0.12945492E+03</pdfrwt>
<pdfrwt beam="1">  1       -1 0.31401124E-02 0.12945492E+03</pdfrwt>
<totfact> 0.96156946E+03</totfact>
</mgrwt>
</event>
<event>
 7    1  0.6419647E-006  0.1585331E+03  0.7546771E-02  0.1198429E+00
          2   -1    0    0  501    0  0.00000000000E+00  0.00000000000E+00  0.66923547702E+03  0.66923547702E+03  0.00000000000E+00 0. -1.
         -2   -1    0    0    0  501 -0.00000000000E+00 -0.00000000000E+00 -0.33217093203E+02  0.33217093203E+02  0.00000000000E+00 0.  1.
         23    2    1    2    0    0 -0.96501196982E+02  0.13897076185E+02  0.41926017283E+03  0.44823189573E+03  0.12500852003E+03 0.  0.
          5    1    3    3  502    0 -0.28810017530E+02  0.11801354372E+02  0.34941602137E+03  0.35083177602E+03  0.47000000000E+01 0. -1.
         -5    1    3    3    0  502 -0.67691179453E+02  0.20957218128E+01  0.69844151461E+02  0.97400119707E+02  0.47000000000E+01 0. -1.
        -11    1    1    2    0    0  0.47156297837E+02 -0.81495133254E+01  0.21005266828E+02  0.52262340434E+02  0.00000000000E+00 0.  1.
         11    1    1    2    0    0  0.49344899145E+02 -0.57475628597E+01  0.19575294416E+03  0.20195833406E+03  0.00000000000E+00 0. -1.
<mgrwt>
<rscale>  0 0.15167523E+03</rscale>
<asrwt>0</asrwt>
<pdfrwt beam="1">  1        2 0.10295929E+00 0.15853309E+03</pdfrwt>
<pdfrwt beam="2">  1       -2 0.51103225E-02 0.15853309E+03</pdfrwt>
<totfact> 0.81296927E+03</totfact>
</mgrwt>
</event>
<event>
 7    1  0.6419647E-006  0.1324780E+03  0.7546771E-02  0.1238105E+00
          2   -1    0    0  501    0  0.00000000000E+00  0.00000000000E+00  0.26030289894E+03  0.26030289894E+03  0.00000000000E+00 0. -1.
         -2   -1    0    0    0  501 -0.00000000000E+00 -0.00000000000E+00 -0.52190325817E+02  0.52190325817E+02  0.00000000000E+00 0.  1.
         23    2    1    2    0    0  0.38202400122E+02 -0.21570928797E+02  0.13892296807E+03  0.19196357760E+03  0.12500278286E+03 0.  0.
          5    1    3    3  502    0  0.22788645516E+02  0.21858193196E+02 -0.11989419627E+02  0.34101893748E+02  0.47000000000E+01 0.  1.
         -5    1    3    3    0  502  0.15413754607E+02 -0.43429121993E+02  0.15091238770E+03  0.15786168385E+03  0.47000000000E+01 0.  1.
        -11    1    1    2    0    0 -0.52144280260E+02  0.13777980802E+02  0.83287768466E+02  0.99225556662E+02  0.00000000000E+00 0. -1.
         11    1    1    2    0    0  0.13941880138E+02  0.77929479951E+01 -0.14098163412E+02  0.21304090495E+02  0.00000000000E+00 0.  1.
<mgrwt>
<rscale>  0 0.12307754E+03</rscale>
<asrwt>0</asrwt>
<pdfrwt beam="1">  1        2 0.40046599E-01 0.13247801E+03</pdfrwt>
<pdfrwt beam="2">  1       -2 0.80292811E-02 0.13247801E+03</pdfrwt>
<totfact> 0.11289999E+04</totfact>
</mgrwt>
</event>
<event>
 7    1  0.6419647E-006  0.1317331E+03  0.7546771E-02  0.1231059E+00
          3   -1    0    0  501    0  0.00000000000E+00  0.00000000000E+00  0.44250304662E+02  0.44250304662E+02  0.00000000000E+00 0. -1.
         -3   -1    0    0    0  501 -0.00000000000E+00 -0.00000000000E+00 -0.34743560480E+03  0.34743560480E+03  0.00000000000E+00 0.  1.
         23    2    1    2    0    0  0.30965497469E+02  0.27750540026E+02 -0.15186230740E+03  0.20103670652E+03  0.12499856980E+03 0.  0.
          5    1    3    3  502    0 -0.46081998452E+02 -0.41759749506E+00 -0.77099106598E+02  0.89944912070E+02  0.47000000000E+01 0.  1.
         -5    1    3    3    0  502  0.77047495921E+02  0.28168137521E+02 -0.74763200802E+02  0.11109179445E+03  0.47000000000E+01 0.  1.
        -11    1    1    2    0    0  0.25854023439E+02 -0.40914037687E+02 -0.32541761531E+02  0.58321138975E+02  0.00000000000E+00 0. -1.
         11    1    1    2    0    0 -0.56819520909E+02  0.13163497662E+02 -0.11878123121E+03  0.13232806397E+03  0.00000000000E+00 0.  1.
<mgrwt>
<rscale>  0 0.12760132E+03</rscale>
<asrwt>0</asrwt>
<pdfrwt beam="1">  1        3 0.68077391E-02 0.13173305E+03</pdfrwt>
<pdfrwt beam="2">  1       -3 0.53451632E-01 0.13173305E+03</pdfrwt>
<totfact> 0.11110892E+03</totfact>
</mgrwt>
</event>
<event>
 7    1  0.6419647E-006  0.1284641E+03  0.7546771E-02  0.1244275E+00
         -2   -1    0    0    0  501 -0.00000000000E+00  0.00000000000E+00  0.78271164159E+02  0.78271164159E+02  0.00000000000E+00 0.  1.
          2   -1    0    0  501    0  0.00000000000E+00 -0.00000000000E+00 -0.17738042668E+03  0.17738042668E+03  0.00000000000E+00 0. -1.
         23    2    1    2    0    0 -0.29547309488E+02 -0.26723427188E+01 -0.95499441103E+02  0.16007242409E+03  0.12499141086E+03 0.  0.
          5    1    3    3  502    0  0.88315285234E+01 -0.22506261774E+01  0.28444674041E+02  0.30236578767E+02  0.47000000000E+01 0. -1.
         -5    1    3    3    0  502 -0.38378838012E+02 -0.42171654141E+00 -0.12394411514E+03  0.12983584532E+03  0.47000000000E+01 0. -1.
        -11    1    1    2    0    0 -0.29818136141E+02 -0.57557087547E+01  0.13486850133E+02  0.33228670643E+02  0.00000000000E+00 0.  1.
         11    1    1    2    0    0  0.59365445630E+02  0.84280514735E+01 -0.17096671550E+02  0.62350496105E+02  0.00000000000E+00 0. -1.
<mgrwt>
<rscale>  0 0.11928883E+03</rscale>
<asrwt>0</asrwt>
<pdfrwt beam="2">  1        2 0.27289296E-01 0.12846415E+03</pdfrwt>
<pdfrwt beam="1">  1       -2 0.12041718E-01 0.12846415E+03</pdfrwt>
<totfact> 0.90081523E+03</totfact>
</mgrwt>
</event>
<event>
 7    1  0.6419647E-006  0.2221212E+03  0.7546771E-02  0.1135655E+00
         -2   -1    0    0    0  501 -0.00000000000E+00  0.00000000000E+00  0.51546822378E+03  0.51546822378E+03  0.00000000000E+00 0.  1.
          2   -1    0    0  501    0  0.00000000000E+00 -0.00000000000E+00 -0.90531502105E+02  0.90531502105E+02  0.00000000000E+00 0. -1.
         23    2    1    2    0    0  0.13796106723E+03 -0.12115878262E+03  0.17410445475E+03  0.28222364547E+03  0.12500047289E+03 0.  0.
          5    1    3    3  502    0  0.12367221534E+03 -0.46251033552E+02  0.15461073179E+03  0.20337291692E+03  0.47000000000E+01 0.  1.
         -5    1    3    3    0  502  0.14288851892E+02 -0.74907749064E+02  0.19493722959E+02  0.78850728551E+02  0.47000000000E+01 0.  1.
        -11    1    1    2    0    0 -0.95674829940E+02  0.23816475344E+02  0.12186445130E+03  0.15675408152E+03  0.00000000000E+00 0. -1.
         11    1    1    2    0    0 -0.42286237288E+02  0.97342307272E+02  0.12896781563E+03  0.16702199890E+03  0.00000000000E+00 0.  1.
<mgrwt>
<rscale>  0 0.21763941E+03</rscale>
<asrwt>0</asrwt>
<pdfrwt beam="2">  1        2 0.13927924E-01 0.22212119E+03</pdfrwt>
<pdfrwt beam="1">  1       -2 0.79302802E-01 0.22212119E+03</pdfrwt>
<totfact> 0.61712868E+02</totfact>
</mgrwt>
</event>
<event>
 7    1  0.6419647E-006  0.1714288E+03  0.7546771E-02  0.1182782E+00
         -2   -1    0    0    0  501 -0.00000000000E+00  0.00000000000E+00  0.87831492142E+02  0.87831492142E+02  0.00000000000E+00 0.  1.
          2   -1    0    0  501    0  0.00000000000E+00 -0.00000000000E+00 -0.40597850595E+03  0.40597850595E+03  0.00000000000E+00 0. -1.
         23    2    1    2    0    0 -0.10779312111E+03  0.46312740008E+02 -0.29836784299E+03  0.34410930812E+03  0.12499447732E+03 0.  0.
          5    1    3    3  502    0 -0.12273013965E+03  0.60887948783E+02 -0.29067007143E+03  0.32137394094E+03  0.47000000000E+01 0. -1.
         -5    1    3    3    0  502  0.14937018546E+02 -0.14575208776E+02 -0.76977715519E+01  0.22735367179E+02  0.47000000000E+01 0. -1.
        -11    1    1    2    0    0  0.74096414382E+02 -0.70780970285E+02  0.24418079675E+01  0.10249969173E+03  0.00000000000E+00 0. -1.
         11    1    1    2    0    0  0.33696706724E+02  0.24468230277E+02 -0.22220978787E+02  0.47200998243E+02  0.00000000000E+00 0.  1.
<mgrwt>
<rscale>  0 0.16535328E+03</rscale>
<asrwt>0</asrwt>
<pdfrwt beam="2">  1        2 0.62458231E-01 0.17142884E+03</pdfrwt>
<pdfrwt beam="1">  1       -2 0.13512537E-01 0.17142884E+03</pdfrwt>
<totfact> 0.31328513E+03</totfact>
</mgrwt>
</event>
<event>
 7    1  0.6419647E-006  0.1259701E+03  0.7546771E-02  0.1249119E+00
          2   -1    0    0  501    0  0.00000000000E+00  0.00000000000E+00  0.34301380304E+03  0.34301380304E+03  0.00000000000E+00 0. -1.
         -2   -1    0    0    0  501 -0.00000000000E+00 -0.00000000000E+00 -0.44695927063E+02  0.44695927063E+02  0.00000000000E+00 0.  1.
         23    2    1    2    0    0  0.69399552754E+00  0.15586572040E+02  0.25848052222E+03  0.28754242154E+03  0.12500016385E+03 0.  0.
          5    1    3    3  502    0 -0.12722489371E+01 -0.13053399910E+02 -0.10215783164E+02  0.17276055459E+02  0.47000000000E+01 0. -1.
         -5    1    3    3    0  502  0.19662444646E+01  0.28639971950E+02  0.26869630538E+03  0.27026636608E+03  0.47000000000E+01 0. -1.
        -11    1    1    2    0    0 -0.17681167654E+01  0.30461158269E+02  0.44408654340E+02  0.53880766330E+02  0.00000000000E+00 0. -1.
         11    1    1    2    0    0  0.10741212379E+01 -0.46047730308E+02 -0.45713005770E+01  0.46286542234E+02  0.00000000000E+00 0.  1.
<mgrwt>
<rscale>  0 0.11642199E+03</rscale>
<asrwt>0</asrwt>
<pdfrwt beam="1">  1        2 0.52771353E-01 0.12597009E+03</pdfrwt>
<pdfrwt beam="2">  1       -2 0.68762967E-02 0.12597009E+03</pdfrwt>
<totfact> 0.10652073E+04</totfact>
</mgrwt>
</event>
<event>
 7    1  0.6419647E-006  0.1285984E+03  0.7546771E-02  0.1243597E+00
          2   -1    0    0  501    0  0.00000000000E+00  0.00000000000E+00  0.47018959408E+03  0.47018959408E+03  0.00000000000E+00 0. -1.
         -2   -1    0    0    0  501 -0.00000000000E+00 -0.00000000000E+00 -0.28814725282E+02  0.28814725282E+02  0.00000000000E+00 0.  1.
         23    2    1    2    0    0  0.24768318702E+02  0.17299915123E+02  0.31301921447E+03  0.33840592470E+03  0.12499913829E+03 0.  0.
          5    1    3    3  502    0  0.24507365037E+02 -0.50694387563E+02  0.10137956187E+03  0.11606221365E+03  0.47000000000E+01 0. -1.
         -5    1    3    3    0  502  0.26095366466E+00  0.67994302686E+02  0.21163965260E+03  0.22234371105E+03  0.47000000000E+01 0. -1.
        -11    1    1    2    0    0 -0.15117538133E+02  0.34432358386E+02  0.83015007536E+02  0.91135167413E+02  0.00000000000E+00 0. -1.
         11    1    1    2    0    0 -0.96507805689E+01 -0.51732273509E+02  0.45340646795E+02  0.69463227248E+02  0.00000000000E+00 0.  1.
<mgrwt>
<rscale>  0 0.11969726E+03</rscale>
<asrwt>0</asrwt>
<pdfrwt beam="1">  1        2 0.72336855E-01 0.12859837E+03</pdfrwt>
<pdfrwt beam="2">  1       -2 0.44330350E-02 0.12859837E+03</pdfrwt>
<totfact> 0.14761973E+04</totfact>
</mgrwt>
</event>
<event>
 7    1  0.6419647E-006  0.1259770E+03  0.7546771E-02  0.1248446E+00
         -1   -1    0    0    0  501 -0.00000000000E+00  0.00000000000E+00  0.23621606151E+03  0.23621606151E+03  0.00000000000E+00 0.  1.
          1   -1    0    0  501    0  0.00000000000E+00 -0.00000000000E+00 -0.51003670603E+02  0.51003670603E+02  0.00000000000E+00 0. -1.
         23    2    1    2    0    0  0.14460505753E+02 -0.26040300606E+01  0.97735393222E+02  0.15944409088E+03  0.12511724034E+03 0.  0.
          5    1    3    3  502    0  0.66132767610E+02 -0.22652683009E+02  0.59826916741E+02  0.92130543068E+02  0.47000000000E+01 0. -1.
         -5    1    3    3    0  502 -0.51672261857E+02  0.20048652949E+02  0.37908476482E+02  0.67313547817E+02  0.47000000000E+01 0. -1.
        -11    1    1    2    0    0 -0.13399702074E+02  0.46373940083E+02  0.55523178462E+02  0.73572533469E+02  0.00000000000E+00 0.  1.
         11    1    1    2    0    0 -0.10608036789E+01 -0.43769910023E+02  0.31953819220E+02  0.54203107757E+02  0.00000000000E+00 0. -1.
<mgrwt>
<rscale>  0 0.11681494E+03</rscale>
<asrwt>0</asrwt>
<pdfrwt beam="2">  1        1 0.78467187E-02 0.12597703E+03</pdfrwt>
<pdfrwt beam="1">  1       -1 0.36340932E-01 0.12597703E+03</pdfrwt>
<totfact> 0.61719623E+03</totfact>
</mgrwt>
</event>
<event>
 7    1  0.6419647E-006  0.1449720E+03  0.7546771E-02  0.1216918E+00
          1   -1    0    0  501    0  0.00000000000E+00  0.00000000000E+00  0.32122419362E+03  0.32122419362E+03  0.00000000000E+00 0. -1.
         -1   -1    0    0    0  501 -0.00000000000E+00 -0.00000000000E+00 -0.56817082209E+02  0.56817082209E+02  0.00000000000E+00 0.  1.
         23    2    1    2    0    0  0.21396220714E+02 -0.70241527720E+02  0.19194360202E+03  0.24053946452E+03  0.12500086863E+03 0.  0.
          5    1    3    3  502    0  0.34425239743E+01 -0.61441970049E+01  0.17012129208E+03  0.17033187061E+03  0.47000000000E+01 0. -1.
         -5    1    3    3    0  502  0.17953696740E+02 -0.64097330715E+02  0.21822309942E+02  0.70207593910E+02  0.47000000000E+01 0. -1.
        -11    1    1    2    0    0 -0.33566377646E+02  0.66782519276E+01  0.63541049929E+02  0.72171779687E+02  0.00000000000E+00 0. -1.
         11    1    1    2    0    0  0.12170156932E+02  0.63563275792E+02  0.89224594673E+01  0.65330031625E+02  0.00000000000E+00 0.  1.
<mgrwt>
<rscale>  0 0.13736552E+03</rscale>
<asrwt>0</asrwt>
<pdfrwt beam="1">  1        1 0.49419105E-01 0.14497202E+03</pdfrwt>
<pdfrwt beam="2">  1       -1 0.87410898E-02 0.14497202E+03</pdfrwt>
<totfact> 0.57934747E+03</totfact>
</mgrwt>
</event>
<event>
 7    1  0.7719255E-006  0.2843507E+03  0.7546771E-02  0.1095121E+00
         -2   -1    0    0    0  501 -0.00000000000E+00  0.00000000000E+00  0.10684406898E+03  0.10684406898E+03  0.00000000000E+00 0.  1.
          2   -1    0    0  501    0  0.00000000000E+00 -0.00000000000E+00 -0.81879603386E+03  0.81879603386E+03  0.00000000000E+00 0. -1.
         23    2    1    2    0    0 -0.15147053151E+03 -0.20563871448E+03 -0.52197384932E+03  0.59440057211E+03  0.12499895172E+03 0.  0.
          5    1    3    3  502    0 -0.13024536716E+03 -0.10344817181E+03 -0.40336924638E+03  0.43634186006E+03  0.47000000000E+01 0. -1.
         -5    1    3    3    0  502 -0.21225164353E+02 -0.10219054267E+03 -0.11860460294E+03  0.15805871204E+03  0.47000000000E+01 0. -1.
        -11    1    1    2    0    0  0.13774915658E+03  0.11495967433E+03 -0.13192164914E+03  0.22269683062E+03  0.00000000000E+00 0.  1.
         11    1    1    2    0    0  0.13721374936E+02  0.90679040154E+02 -0.58056466422E+02  0.10854270011E+03  0.00000000000E+00 0. -1.
<mgrwt>
<rscale>  0 0.28104192E+03</rscale>
<asrwt>0</asrwt>
<pdfrwt beam="2">  1        2 0.12596862E+00 0.28435074E+03</pdfrwt>
<pdfrwt beam="1">  1       -2 0.16437549E-01 0.28435074E+03</pdfrwt>
<totfact> 0.10126826E+03</totfact>
</mgrwt>
</event>
<event>
 7    1  0.6419647E-006  0.1763710E+03  0.7546771E-02  0.1173040E+00
          1   -1    0    0  501    0  0.00000000000E+00  0.00000000000E+00  0.25865008314E+03  0.25865008314E+03  0.00000000000E+00 0. -1.
         -1   -1    0    0    0  501 -0.00000000000E+00 -0.00000000000E+00 -0.11752626059E+03  0.11752626059E+03  0.00000000000E+00 0.  1.
         23    2    1    2    0    0  0.97512456727E+02  0.77282047857E+02  0.94699557967E+02  0.20018674316E+03  0.12500212686E+03 0.  0.
          5    1    3    3  502    0  0.28050723614E+02  0.46604217478E+01  0.95320135948E+02  0.99582031227E+02  0.47000000000E+01 0. -1.
         -5    1    3    3    0  502  0.69461733113E+02  0.72621626109E+02 -0.62057798066E+00  0.10060471193E+03  0.47000000000E+01 0. -1.
        -11    1    1    2    0    0 -0.44723601936E+02 -0.55086522688E+02 -0.32853461327E+02  0.78192553822E+02  0.00000000000E+00 0.  1.
         11    1    1    2    0    0 -0.52788854790E+02 -0.22195525169E+02  0.79277725912E+02  0.97797046752E+02  0.00000000000E+00 0. -1.
<mgrwt>
<rscale>  0 0.17469348E+03</rscale>
<asrwt>0</asrwt>
<pdfrwt beam="1">  1        1 0.39792320E-01 0.17637099E+03</pdfrwt>
<pdfrwt beam="2">  1       -1 0.18080963E-01 0.17637099E+03</pdfrwt>
<totfact> 0.24709687E+03</totfact>
</mgrwt>
</event>
<event>
 7    1  0.6419647E-006  0.1373053E+03  0.7546771E-02  0.1228547E+00
          1   -1    0    0  501    0  0.00000000000E+00  0.00000000000E+00  0.37459129063E+02  0.37459129063E+02  0.00000000000E+00 0. -1.
         -1   -1    0    0    0  501 -0.00000000000E+00 -0.00000000000E+00 -0.40163727214E+03  0.40163727214E+03  0.00000000000E+00 0.  1.
         23    2    1    2    0    0  0.54185627119E+02  0.18039937494E+02 -0.19649806876E+03  0.23971697083E+03  0.12486478105E+03 0.  0.
          5    1    3    3  502    0  0.86835507688E+02  0.34895106282E+02 -0.10351290070E+03  0.13962479883E+03  0.47000000000E+01 0. -1.
         -5    1    3    3    0  502 -0.32649880568E+02 -0.16855168788E+02 -0.92985168059E+02  0.10009217200E+03  0.47000000000E+01 0.  1.
        -11    1    1    2    0    0 -0.27161218331E+02 -0.37963108001E+02 -0.15753555894E+03  0.16430575669E+03  0.00000000000E+00 0.  1.
         11    1    1    2    0    0 -0.27024408789E+02  0.19923170507E+02 -0.10144515376E+02  0.35073673683E+02  0.00000000000E+00 0. -1.
<mgrwt>
<rscale>  0 0.12926732E+03</rscale>
<asrwt>0</asrwt>
<pdfrwt beam="1">  1        1 0.57629434E-02 0.13730526E+03</pdfrwt>
<pdfrwt beam="2">  1       -1 0.61790345E-01 0.13730526E+03</pdfrwt>
<totfact> 0.36045500E+03</totfact>
</mgrwt>
</event>
<event>
 7    1  0.6419647E-006  0.1449059E+03  0.7546771E-02  0.1216132E+00
          1   -1    0    0  501    0  0.00000000000E+00  0.00000000000E+00  0.35139556221E+02  0.35139556221E+02  0.00000000000E+00 0. -1.
         -1   -1    0    0    0  501 -0.00000000000E+00 -0.00000000000E+00 -0.54616815667E+03  0.54616815667E+03  0.00000000000E+00 0.  1.
         23    2    1    2    0    0  0.67000449115E+01 -0.72985757143E+02 -0.19007609583E+03  0.23901183052E+03  0.12500368625E+03 0.  0.
          5    1    3    3  502    0 -0.41611280506E+02  0.71424320959E+01 -0.10172488845E+03  0.11023863176E+03  0.47000000000E+01 0.  1.
         -5    1    3    3    0  502  0.48311325417E+02 -0.80128189239E+02 -0.88351207382E+02  0.12877319877E+03  0.47000000000E+01 0.  1.
        -11    1    1    2    0    0  0.97771627077E+00  0.15835392201E+02  0.34060931445E+00  0.15869202562E+02  0.00000000000E+00 0. -1.
         11    1    1    2    0    0 -0.76777611822E+01  0.57150364943E+02 -0.32129311393E+03  0.32642667980E+03  0.00000000000E+00 0.  1.
<mgrwt>
<rscale>  0 0.13793741E+03</rscale>
<asrwt>0</asrwt>
<pdfrwt beam="1">  1        1 0.54060853E-02 0.14490595E+03</pdfrwt>
<pdfrwt beam="2">  1       -1 0.84025875E-01 0.14490595E+03</pdfrwt>
<totfact> 0.21379340E+03</totfact>
</mgrwt>
</event>
<event>
 7    1  0.6419647E-006  0.1340767E+03  0.7546771E-02  0.1233993E+00
          2   -1    0    0  501    0  0.00000000000E+00  0.00000000000E+00  0.17199194160E+03  0.17199194160E+03  0.00000000000E+00 0.  1.
         -2   -1    0    0    0  501 -0.00000000000E+00 -0.00000000000E+00 -0.97180550490E+02  0.97180550490E+02  0.00000000000E+00 0. -1.
         23    2    1    2    0    0 -0.43916006081E+02  0.20576341364E+02  0.94146944440E+02  0.16382977947E+03  0.12499819231E+03 0.  0.
          5    1    3    3  502    0 -0.58703214598E+02 -0.40229264094E+02  0.49579161844E+02  0.86859912404E+02  0.47000000000E+01 0.  1.
         -5    1    3    3    0  502  0.14787208517E+02  0.60805605458E+02  0.44567782596E+02  0.76969867068E+02  0.47000000000E+01 0.  1.
        -11    1    1    2    0    0 -0.97901754893E+01 -0.24458568515E+02  0.24448753601E+02  0.35941767661E+02  0.00000000000E+00 0.  1.
         11    1    1    2    0    0  0.53706181570E+02  0.38822271511E+01 -0.43784306935E+02  0.69400944953E+02  0.00000000000E+00 0. -1.
<mgrwt>
<rscale>  0 0.12569139E+03</rscale>
<asrwt>0</asrwt>
<pdfrwt beam="1">  1        2 0.26460299E-01 0.13407666E+03</pdfrwt>
<pdfrwt beam="2">  1       -2 0.14950854E-01 0.13407666E+03</pdfrwt>
<totfact> 0.65921785E+03</totfact>
</mgrwt>
</event>
<event>
 7    1  0.6419647E-006  0.1434931E+03  0.7546771E-02  0.1217647E+00
         -1   -1    0    0    0  501 -0.00000000000E+00  0.00000000000E+00  0.63818510876E+02  0.63818510876E+02  0.00000000000E+00 0.  1.
          1   -1    0    0  501    0  0.00000000000E+00 -0.00000000000E+00 -0.38467075033E+03  0.38467075033E+03  0.00000000000E+00 0. -1.
         23    2    1    2    0    0 -0.60641266875E+02 -0.35867693925E+02 -0.29351104004E+03  0.32670935855E+03  0.12500567836E+03 0.  0.
          5    1    3    3  502    0 -0.83343549674E+02 -0.33828322438E+02 -0.11205482732E+03  0.14376674510E+03  0.47000000000E+01 0. -1.
         -5    1    3    3    0  502  0.22702282799E+02 -0.20393714869E+01 -0.18145621272E+03  0.18294261345E+03  0.47000000000E+01 0. -1.
        -11    1    1    2    0    0  0.26797072243E+02  0.47233521449E+02 -0.54488565375E+02  0.76929138731E+02  0.00000000000E+00 0. -1.
         11    1    1    2    0    0  0.33844194632E+02 -0.11365827525E+02  0.27147365965E+02  0.44850763923E+02  0.00000000000E+00 0.  1.
<mgrwt>
<rscale>  0 0.13683886E+03</rscale>
<asrwt>0</asrwt>
<pdfrwt beam="2">  1        1 0.59180116E-01 0.14349312E+03</pdfrwt>
<pdfrwt beam="1">  1       -1 0.98182324E-02 0.14349312E+03</pdfrwt>
<totfact> 0.38725014E+03</totfact>
</mgrwt>
</event>
<event>
 7    1  0.7134704E-006  0.2873405E+03  0.7546771E-02  0.1093265E+00
          1   -1    0    0  501    0  0.00000000000E+00  0.00000000000E+00  0.12615378102E+04  0.12615378102E+04  0.00000000000E+00 0. -1.
         -1   -1    0    0    0  501 -0.00000000000E+00 -0.00000000000E+00 -0.70467907026E+02  0.70467907026E+02  0.00000000000E+00 0.  1.
         23    2    1    2    0    0 -0.15020689573E+03 -0.21066157428E+03  0.82424734158E+03  0.87289647799E+03  0.12499668311E+03 0.  0.
          5    1    3    3  502    0  0.19276922476E+02 -0.49250964938E+02  0.16355597347E+03  0.17195901763E+03  0.47000000000E+01 0. -1.
         -5    1    3    3    0  502 -0.16948381821E+03 -0.16141060934E+03  0.66069136810E+03  0.70093746035E+03  0.47000000000E+01 0. -1.
        -11    1    1    2    0    0  0.11907479060E+03  0.18639278036E+03  0.35434597256E+03  0.41771059670E+03  0.00000000000E+00 0. -1.
         11    1    1    2    0    0  0.31132105138E+02  0.24268793914E+02  0.12476589015E+02  0.41398642511E+02  0.00000000000E+00 0.  1.
<mgrwt>
<rscale>  0 0.28448415E+03</rscale>
<asrwt>0</asrwt>
<pdfrwt beam="1">  1        1 0.19408272E+00 0.28734053E+03</pdfrwt>
<pdfrwt beam="2">  1       -1 0.10841217E-01 0.28734053E+03</pdfrwt>
<totfact> 0.55813813E+02</totfact>
</mgrwt>
</event>
<event>
 7    1  0.8336476E-006  0.1609358E+03  0.7546771E-02  0.1195144E+00
         -4   -1    0    0    0  501 -0.00000000000E+00  0.00000000000E+00  0.11461689776E+04  0.11461689776E+04  0.00000000000E+00 0. -1.
          4   -1    0    0  501    0  0.00000000000E+00 -0.00000000000E+00 -0.19496228141E+02  0.19496228141E+02  0.00000000000E+00 0.  1.
         23    2    1    2    0    0  0.17565225081E+02 -0.99830415034E+02  0.54889290128E+03  0.57199979212E+03  0.12500278482E+03 0.  0.
          5    1    3    3  502    0 -0.30324222989E+02 -0.10297884848E+03  0.43958323969E+03  0.45252592893E+03  0.47000000000E+01 0.  1.
         -5    1    3    3    0  502  0.47889448070E+02  0.31484334507E+01  0.10930966159E+03  0.11947386319E+03  0.47000000000E+01 0.  1.
        -11    1    1    2    0    0 -0.43874365538E+02  0.76674912734E+02  0.50750016921E+03  0.51513146278E+03  0.00000000000E+00 0. -1.
         11    1    1    2    0    0  0.26309140457E+02  0.23155502300E+02  0.70279678934E+02  0.78533950807E+02  0.00000000000E+00 0.  1.
<mgrwt>
<rscale>  0 0.15442058E+03</rscale>
<asrwt>0</asrwt>
<pdfrwt beam="2">  1        4 0.29994206E-02 0.16093584E+03</pdfrwt>
<pdfrwt beam="1">  1       -4 0.17633364E+00 0.16093584E+03</pdfrwt>
<totfact> 0.19291958E+02</totfact>
</mgrwt>
</event>
<event>
 7    1  0.6419647E-006  0.1301986E+03  0.7546771E-02  0.1240226E+00
          2   -1    0    0  501    0  0.00000000000E+00  0.00000000000E+00  0.74500511671E+03  0.74500511671E+03  0.00000000000E+00 0. -1.
         -2   -1    0    0    0  501 -0.00000000000E+00 -0.00000000000E+00 -0.17718837494E+02  0.17718837494E+02  0.00000000000E+00 0.  1.
         23    2    1    2    0    0 -0.24251270491E+02  0.27156247840E+02  0.41605382796E+03  0.43595005884E+03  0.12500432043E+03 0.  0.
          5    1    3    3  502    0 -0.39799164070E+02  0.71366360218E+02  0.23397229973E+03  0.24787548865E+03  0.47000000000E+01 0.  1.
         -5    1    3    3    0  502  0.15547893579E+02 -0.44210112378E+02  0.18208152822E+03  0.18807457019E+03  0.47000000000E+01 0.  1.
        -11    1    1    2    0    0 -0.11641850324E+02 -0.48625483866E+02  0.23039244839E+03  0.23575548909E+03  0.00000000000E+00 0. -1.
         11    1    1    2    0    0  0.35893120815E+02  0.21469236025E+02  0.80840002872E+02  0.91018406280E+02  0.00000000000E+00 0.  1.
<mgrwt>
<rscale>  0 0.12175707E+03</rscale>
<asrwt>0</asrwt>
<pdfrwt beam="1">  1        2 0.11461615E+00 0.13019856E+03</pdfrwt>
<pdfrwt beam="2">  1       -2 0.27259756E-02 0.13019856E+03</pdfrwt>
<totfact> 0.17946967E+04</totfact>
</mgrwt>
</event>
<event>
 6    1  0.6419647E-006  0.5862866E+03  0.7546771E-02  0.9934273E-01
         -2   -1    0    0    0  501 -0.00000000000E+00  0.00000000000E+00  0.51335474261E+02  0.51335474261E+02  0.00000000000E+00 0.  1.
          2   -1    0    0  501    0  0.00000000000E+00 -0.00000000000E+00 -0.16739494537E+04  0.16739494537E+04  0.00000000000E+00 0. -1.
          5    1    1    2  502    0 -0.14685568572E+03 -0.18122021784E+03 -0.94398783041E+03  0.97239008312E+03  0.47000000000E+01 0. -1.
         -5    1    1    2    0  502  0.14499749533E+02  0.10988761389E+01 -0.25659289168E+03  0.25704756822E+03  0.47000000000E+01 0.  1.
        -11    1    1    2    0    0  0.87201861677E+02  0.12909907851E+03 -0.15313517965E+03  0.21845164224E+03  0.00000000000E+00 0.  1.
         11    1    1    2    0    0  0.45154074513E+02  0.51022263189E+02 -0.26889807773E+03  0.27739563441E+03  0.00000000000E+00 0. -1.
<mgrwt>
<rscale>  0 0.58628658E+03</rscale>
<asrwt>0</asrwt>
<pdfrwt beam="2">  1        2 0.25753071E+00 0.58628658E+03</pdfrwt>
<pdfrwt beam="1">  1       -2 0.78977645E-02 0.58628658E+03</pdfrwt>
<totfact> 0.10427115E+03</totfact>
</mgrwt>
</event>
<event>
 7    1  0.6419647E-006  0.1333789E+03  0.7546771E-02  0.1235350E+00
          1   -1    0    0  501    0  0.00000000000E+00  0.00000000000E+00  0.86995298791E+03  0.86995298791E+03  0.00000000000E+00 0. -1.
         -1   -1    0    0    0  501 -0.00000000000E+00 -0.00000000000E+00 -0.17401735058E+02  0.17401735058E+02  0.00000000000E+00 0.  1.
         23    2    1    2    0    0 -0.39995452991E+02  0.23797242117E+02  0.60442228781E+03  0.61896382994E+03  0.12499590301E+03 0.  0.
          5    1    3    3  502    0 -0.56353603825E+02  0.42711187860E+01  0.10904702639E+03  0.12291181833E+03  0.47000000000E+01 0.  1.
         -5    1    3    3    0  502  0.16358150833E+02  0.19526123331E+02  0.49537526142E+03  0.49605201161E+03  0.47000000000E+01 0.  1.
        -11    1    1    2    0    0  0.66696680122E+02 -0.27685516961E+02  0.20668144125E+03  0.21893412970E+03  0.00000000000E+00 0. -1.
         11    1    1    2    0    0 -0.26701227131E+02  0.38882748436E+01  0.41447523787E+02  0.49456763335E+02  0.00000000000E+00 0.  1.
<mgrwt>
<rscale>  0 0.12482059E+03</rscale>
<asrwt>0</asrwt>
<pdfrwt beam="1">  1        1 0.13383889E+00 0.13337886E+03</pdfrwt>
<pdfrwt beam="2">  1       -1 0.26771907E-02 0.13337886E+03</pdfrwt>
<totfact> 0.86780028E+03</totfact>
</mgrwt>
</event>
<event>
 7    1  0.6419647E-006  0.1499602E+03  0.7546771E-02  0.1209524E+00
         -4   -1    0    0    0  501 -0.00000000000E+00  0.00000000000E+00  0.47630341147E+03  0.47630341147E+03  0.00000000000E+00 0.  1.
          4   -1    0    0  501    0  0.00000000000E+00 -0.00000000000E+00 -0.42619715425E+02  0.42619715425E+02  0.00000000000E+00 0. -1.
         23    2    1    2    0    0 -0.64584192193E+02  0.51877432358E+02  0.30867136975E+03  0.34317062122E+03  0.12500269955E+03 0.  0.
          5    1    3    3  502    0  0.73755487689E+01 -0.31811608490E+02  0.12081852564E+03  0.12524209872E+03  0.47000000000E+01 0.  1.
         -5    1    3    3    0  502 -0.71959740962E+02  0.83689040848E+02  0.18785284412E+03  0.21792852250E+03  0.47000000000E+01 0.  1.
        -11    1    1    2    0    0  0.53960083801E+02 -0.15182001265E+02  0.13192133290E+02  0.57586597286E+02  0.00000000000E+00 0. -1.
         11    1    1    2    0    0  0.10624108392E+02 -0.36695431093E+02  0.11182019301E+03  0.11816590839E+03  0.00000000000E+00 0.  1.
<mgrwt>
<rscale>  0 0.14286616E+03</rscale>
<asrwt>0</asrwt>
<pdfrwt beam="2">  1        4 0.65568797E-02 0.14996020E+03</pdfrwt>
<pdfrwt beam="1">  1       -4 0.73277444E-01 0.14996020E+03</pdfrwt>
<totfact> 0.44845594E+02</totfact>
</mgrwt>
</event>
<event>
 7    1  0.6419647E-006  0.1281493E+03  0.7546771E-02  0.1242919E+00
         -1   -1    0    0    0  501 -0.00000000000E+00  0.00000000000E+00  0.38808522218E+02  0.38808522218E+02  0.00000000000E+00 0.  1.
          1   -1    0    0  501    0  0.00000000000E+00 -0.00000000000E+00 -0.33464192388E+03  0.33464192388E+03  0.00000000000E+00 0. -1.
         23    2    1    2    0    0 -0.27809738398E+02  0.50320123096E+01 -0.15053274965E+03  0.19769255557E+03  0.12499414032E+03 0.  0.
          5    1    3    3  502    0 -0.61090748392E+02  0.13352790750E+02 -0.25062573924E+02  0.67532208402E+02  0.47000000000E+01 0.  1.
         -5    1    3    3    0  502  0.33281009995E+02 -0.83207784403E+01 -0.12547017572E+03  0.13016034717E+03  0.47000000000E+01 0.  1.
        -11    1    1    2    0    0 -0.27226261862E+02 -0.14370751900E+02 -0.97568836252E+02  0.10231063314E+03  0.00000000000E+00 0. -1.
         11    1    1    2    0    0  0.55036000260E+02  0.93387395906E+01 -0.47731815765E+02  0.73447257389E+02  0.00000000000E+00 0.  1.
<mgrwt>
<rscale>  0 0.12010787E+03</rscale>
<asrwt>0</asrwt>
<pdfrwt beam="2">  1        1 0.51483372E-01 0.12814928E+03</pdfrwt>
<pdfrwt beam="1">  1       -1 0.59705420E-02 0.12814928E+03</pdfrwt>
<totfact> 0.96807208E+03</totfact>
</mgrwt>
</event>
<event>
 7    1  0.6419647E-006  0.1523510E+03  0.7546771E-02  0.1205974E+00
         -2   -1    0    0    0  501 -0.00000000000E+00  0.00000000000E+00  0.16788572310E+03  0.16788572310E+03  0.00000000000E+00 0. -1.
          2   -1    0    0  501    0  0.00000000000E+00 -0.00000000000E+00 -0.11636531334E+03  0.11636531334E+03  0.00000000000E+00 0.  1.
         23    2    1    2    0    0 -0.51384335254E+02 -0.70320294140E+02  0.31196858008E+02  0.15551224522E+03  0.12500208313E+03 0.  0.
          5    1    3    3  502    0 -0.44641520718E+01 -0.36829367619E+02 -0.45853623442E+02  0.59169043897E+02  0.47000000000E+01 0. -1.
         -5    1    3    3    0  502 -0.46920183183E+02 -0.33490926521E+02  0.77050481450E+02  0.96343201321E+02  0.47000000000E+01 0. -1.
        -11    1    1    2    0    0  0.55679848849E+02  0.11977101540E+02 -0.16889381355E+02  0.59404947031E+02  0.00000000000E+00 0.  1.
         11    1    1    2    0    0 -0.42955135948E+01  0.58343192600E+02  0.37212933112E+02  0.69333844193E+02  0.00000000000E+00 0. -1.
<mgrwt>
<rscale>  0 0.14560999E+03</rscale>
<asrwt>0</asrwt>
<pdfrwt beam="2">  1        2 0.17902356E-01 0.15235096E+03</pdfrwt>
<pdfrwt beam="1">  1       -2 0.25828573E-01 0.15235096E+03</pdfrwt>
<totfact> 0.40846927E+03</totfact>
</mgrwt>
</event>
<event>
 7    1  0.6419647E-006  0.1434617E+03  0.7546771E-02  0.1219597E+00
         -1   -1    0    0    0  501 -0.00000000000E+00  0.00000000000E+00  0.13477948628E+03  0.13477948628E+03  0.00000000000E+00 0.  1.
          1   -1    0    0  501    0  0.00000000000E+00 -0.00000000000E+00 -0.12989574804E+03  0.12989574804E+03  0.00000000000E+00 0. -1.
         23    2    1    2    0    0  0.10182935460E+02 -0.69654815813E+02 -0.27753006694E+02  0.14612147527E+03  0.12500308242E+03 0.  0.
          5    1    3    3  502    0  0.56293208241E+02 -0.77883494425E+02 -0.15232618272E+02  0.97410916520E+02  0.47000000000E+01 0.  1.
         -5    1    3    3    0  502 -0.46110272781E+02  0.82286786121E+01 -0.12520388422E+02  0.48710558751E+02  0.47000000000E+01 0.  1.
        -11    1    1    2    0    0 -0.31111589638E+02  0.81510843353E+02  0.14532983319E+02  0.88448607666E+02  0.00000000000E+00 0.  1.
         11    1    1    2    0    0  0.20928654177E+02 -0.11856027540E+02  0.18103761618E+02  0.30105151377E+02  0.00000000000E+00 0. -1.
<mgrwt>
<rscale>  0 0.13544171E+03</rscale>
<asrwt>0</asrwt>
<pdfrwt beam="2">  1        1 0.19983961E-01 0.14346169E+03</pdfrwt>
<pdfrwt beam="1">  1       -1 0.20735306E-01 0.14346169E+03</pdfrwt>
<totfact> 0.46614095E+03</totfact>
</mgrwt>
</event>
<event>
 7    1  0.6419647E-006  0.1350164E+03  0.7546771E-02  0.1231045E+00
         -2   -1    0    0    0  501 -0.00000000000E+00  0.00000000000E+00  0.26754548986E+02  0.26754548986E+02  0.00000000000E+00 0.  1.
          2   -1    0    0  501    0  0.00000000000E+00 -0.00000000000E+00 -0.78910395162E+03  0.78910395162E+03  0.00000000000E+00 0. -1.
         23    2    1    2    0    0 -0.29125642064E+02 -0.41904124886E+02 -0.63430594908E+03  0.64851636198E+03  0.12500070404E+03 0.  0.
          5    1    3    3  502    0  0.19302824158E+02  0.16094408662E+02 -0.42792933252E+03  0.42869246861E+03  0.47000000000E+01 0. -1.
         -5    1    3    3    0  502 -0.48428466221E+02 -0.57998533548E+02 -0.20637661656E+03  0.21982389337E+03  0.47000000000E+01 0. -1.
        -11    1    1    2    0    0 -0.31278228997E+02 -0.42642043805E+01 -0.33661222396E+02  0.46147469501E+02  0.00000000000E+00 0.  1.
         11    1    1    2    0    0  0.60403871060E+02  0.46168329266E+02 -0.94382231163E+02  0.12119466913E+03  0.00000000000E+00 0. -1.
<mgrwt>
<rscale>  0 0.12761034E+03</rscale>
<asrwt>0</asrwt>
<pdfrwt beam="2">  1        2 0.12140061E+00 0.13501642E+03</pdfrwt>
<pdfrwt beam="1">  1       -2 0.41160845E-02 0.13501642E+03</pdfrwt>
<totfact> 0.91319899E+03</totfact>
</mgrwt>
</event>
<event>
 7    1  0.6419647E-006  0.1358746E+03  0.7546771E-02  0.1229683E+00
         -1   -1    0    0    0  501 -0.00000000000E+00  0.00000000000E+00  0.83505036321E+02  0.83505036321E+02  0.00000000000E+00 0.  1.
          1   -1    0    0  501    0  0.00000000000E+00 -0.00000000000E+00 -0.18053217771E+03  0.18053217771E+03  0.00000000000E+00 0. -1.
         23    2    1    2    0    0 -0.50318149438E+02  0.17498625904E+02 -0.65453445509E+02  0.15081793146E+03  0.12499510730E+03 0.  0.
          5    1    3    3  502    0 -0.60290738256E+02 -0.22323495260E+02 -0.83702005065E+02  0.10564765597E+03  0.47000000000E+01 0. -1.
         -5    1    3    3    0  502  0.99725888174E+01  0.39822121164E+02  0.18248559556E+02  0.45170275487E+02  0.47000000000E+01 0. -1.
        -11    1    1    2    0    0  0.53441899550E+01 -0.27711813295E+02  0.26735927219E+02  0.38875632041E+02  0.00000000000E+00 0.  1.
         11    1    1    2    0    0  0.44973959483E+02  0.10213187390E+02 -0.58309623095E+02  0.74343650527E+02  0.00000000000E+00 0. -1.
<mgrwt>
<rscale>  0 0.12851050E+03</rscale>
<asrwt>0</asrwt>
<pdfrwt beam="2">  1        1 0.27774181E-01 0.13587456E+03</pdfrwt>
<pdfrwt beam="1">  1       -1 0.12846929E-01 0.13587456E+03</pdfrwt>
<totfact> 0.65351785E+03</totfact>
</mgrwt>
</event>
<event>
 7    1  0.6419647E-006  0.5207963E+03  0.7546771E-02  0.1008489E+00
         -2   -1    0    0    0  501 -0.00000000000E+00  0.00000000000E+00  0.11976016093E+03  0.11976016093E+03  0.00000000000E+00 0.  1.
          2   -1    0    0  501    0  0.00000000000E+00 -0.00000000000E+00 -0.56619168384E+03  0.56619168384E+03  0.00000000000E+00 0. -1.
         23    2    1    2    0    0 -0.11257201620E+03 -0.14076046359E+03 -0.10445845259E+03  0.23729044114E+03  0.11361874053E+03 0.  0.
          5    1    3    3  502    0 -0.11884946014E+03 -0.10833862045E+03 -0.41676285219E+02  0.16619703249E+03  0.47000000000E+01 0. -1.
         -5    1    3    3    0  502  0.62774439400E+01 -0.32421843132E+02 -0.62782167368E+02  0.71093408653E+02  0.47000000000E+01 0.  1.
        -11    1    1    2    0    0  0.15175963965E+03  0.10790300353E+03 -0.12151819527E+03  0.22235268871E+03  0.00000000000E+00 0.  1.
         11    1    1    2    0    0 -0.39187623443E+02  0.32857460058E+02 -0.22045487505E+03  0.22630871491E+03  0.00000000000E+00 0. -1.
<mgrwt>
<rscale>  0 0.52079634E+03</rscale>
<asrwt>0</asrwt>
<pdfrwt beam="2">  1        2 0.87106413E-01 0.52079634E+03</pdfrwt>
<pdfrwt beam="1">  1       -2 0.18424640E-01 0.52079634E+03</pdfrwt>
<totfact> 0.13109674E+03</totfact>
</mgrwt>
</event>
<event>
 7    1  0.6419647E-006  0.2282589E+03  0.7546771E-02  0.1130807E+00
          2   -1    0    0  501    0  0.00000000000E+00  0.00000000000E+00  0.14168462272E+04  0.14168462272E+04  0.00000000000E+00 0. -1.
         -2   -1    0    0    0  501 -0.00000000000E+00 -0.00000000000E+00 -0.37477533053E+02  0.37477533053E+02  0.00000000000E+00 0.  1.
         23    2    1    2    0    0  0.19027993064E+03  0.16425058367E+02  0.92546405681E+03  0.95319770511E+03  0.12500364007E+03 0.  0.
          5    1    3    3  502    0 -0.35771988705E+00  0.91186233037E+01  0.27815245952E+03  0.27834180066E+03  0.47000000000E+01 0. -1.
         -5    1    3    3    0  502  0.19063765052E+03  0.73064350634E+01  0.64731159729E+03  0.67485590445E+03  0.47000000000E+01 0. -1.
        -11    1    1    2    0    0 -0.86105978567E+02 -0.42890878544E+01  0.10012178306E+03  0.13212496835E+03  0.00000000000E+00 0.  1.
         11    1    1    2    0    0 -0.10417395207E+03 -0.12135970513E+02  0.35378285425E+03  0.36900108676E+03  0.00000000000E+00 0. -1.
<mgrwt>
<rscale>  0 0.22417666E+03</rscale>
<asrwt>0</asrwt>
<pdfrwt beam="1">  1        2 0.21797630E+00 0.22825894E+03</pdfrwt>
<pdfrwt beam="2">  1       -2 0.57657754E-02 0.22825894E+03</pdfrwt>
<totfact> 0.23811309E+03</totfact>
</mgrwt>
</event>
<event>
 7    1  0.6419647E-006  0.1134243E+03  0.7546771E-02  0.1264881E+00
          2   -1    0    0  501    0  0.00000000000E+00  0.00000000000E+00  0.71925762343E+03  0.71925762343E+03  0.00000000000E+00 0. -1.
         -2   -1    0    0    0  501 -0.00000000000E+00 -0.00000000000E+00 -0.23116488365E+02  0.23116488365E+02  0.00000000000E+00 0.  1.
         23    2    1    2    0    0  0.15417268964E+02  0.20650317690E+01  0.59412627065E+03  0.60485626164E+03  0.11235263786E+03 0.  0.
          5    1    3    3  502    0  0.73410923251E+01 -0.41629648499E+02  0.48605123717E+03  0.48790861278E+03  0.47000000000E+01 0. -1.
         -5    1    3    3    0  502  0.80761766393E+01  0.43694680268E+02  0.10807503347E+03  0.11694764886E+03  0.47000000000E+01 0.  1.
        -11    1    1    2    0    0 -0.30374393728E+02 -0.26738694387E+02  0.10850155200E+02  0.41896150656E+02  0.00000000000E+00 0. -1.
         11    1    1    2    0    0  0.14957124764E+02  0.24673662618E+02  0.91164709215E+02  0.95621699495E+02  0.00000000000E+00 0.  1.
<mgrwt>
<rscale>  0 0.10770436E+03</rscale>
<asrwt>0</asrwt>
<pdfrwt beam="1">  1        2 0.11065500E+00 0.11342430E+03</pdfrwt>
<pdfrwt beam="2">  1       -2 0.35563834E-02 0.11342430E+03</pdfrwt>
<totfact> 0.12539516E+04</totfact>
</mgrwt>
</event>
<event>
 7    1  0.6419647E-006  0.1772906E+03  0.7546771E-02  0.1175760E+00
          2   -1    0    0  501    0  0.00000000000E+00  0.00000000000E+00  0.11842062885E+04  0.11842062885E+04  0.00000000000E+00 0. -1.
         -2   -1    0    0    0  501 -0.00000000000E+00 -0.00000000000E+00 -0.26436457360E+02  0.26436457360E+02  0.00000000000E+00 0.  1.
         23    2    1    2    0    0 -0.48277544802E+02 -0.11610218652E+03  0.80771163758E+03  0.82694018074E+03  0.12498613521E+03 0.  0.
          5    1    3    3  502    0 -0.64119126982E+02 -0.97506302940E+02  0.78373531142E+03  0.79238997339E+03  0.47000000000E+01 0. -1.
         -5    1    3    3    0  502  0.15841582180E+02 -0.18595883580E+02  0.23976326163E+02  0.34550207356E+02  0.47000000000E+01 0. -1.
        -11    1    1    2    0    0 -0.84601746211E+01  0.11427293112E+02  0.28604157507E+00  0.14221090052E+02  0.00000000000E+00 0.  1.
         11    1    1    2    0    0  0.56737719423E+02  0.10467489341E+03  0.34977215201E+03  0.36948147510E+03  0.00000000000E+00 0. -1.
<mgrwt>
<rscale>  0 0.17201754E+03</rscale>
<asrwt>0</asrwt>
<pdfrwt beam="1">  1        2 0.18218554E+00 0.17729065E+03</pdfrwt>
<pdfrwt beam="2">  1       -2 0.40671482E-02 0.17729065E+03</pdfrwt>
<totfact> 0.53994018E+03</totfact>
</mgrwt>
</event>
<event>
 7    1  0.6419647E-006  0.1474473E+03  0.7546771E-02  0.1219420E+00
         -1   -1    0    0    0  501 -0.00000000000E+00  0.00000000000E+00  0.20110828450E+03  0.20110828450E+03  0.00000000000E+00 0. -1.
          1   -1    0    0  501    0  0.00000000000E+00 -0.00000000000E+00 -0.91202010018E+02  0.91202010018E+02  0.00000000000E+00 0.  1.
         23    2    1    2    0    0 -0.73264677837E+02 -0.27336067736E+02  0.11106187901E+02  0.14786495334E+03  0.12500289356E+03 0.  0.
          5    1    3    3  502    0 -0.23877279402E+02 -0.66992997615E+02 -0.24108579262E+02  0.75242938507E+02  0.47000000000E+01 0. -1.
         -5    1    3    3    0  502 -0.49387398435E+02  0.39656929879E+02  0.35214767163E+02  0.72622014830E+02  0.47000000000E+01 0. -1.
        -11    1    1    2    0    0  0.56802270109E+02  0.42465761082E+02  0.39743988604E+02  0.81298360279E+02  0.00000000000E+00 0.  1.
         11    1    1    2    0    0  0.16462407728E+02 -0.15129693346E+02  0.59056097978E+02  0.63146980904E+02  0.00000000000E+00 0. -1.
<mgrwt>
<rscale>  0 0.13556812E+03</rscale>
<asrwt>0</asrwt>
<pdfrwt beam="2">  1        1 0.14031079E-01 0.14744727E+03</pdfrwt>
<pdfrwt beam="1">  1       -1 0.30939736E-01 0.14744727E+03</pdfrwt>
<totfact> 0.38051180E+03</totfact>
</mgrwt>
</event>
<event>
 7    1  0.6419647E-006  0.1816542E+03  0.7546771E-02  0.1171323E+00
         -1   -1    0    0    0  501 -0.00000000000E+00  0.00000000000E+00  0.97653857824E+02  0.97653857824E+02  0.00000000000E+00 0.  1.
          1   -1    0    0  501    0  0.00000000000E+00 -0.00000000000E+00 -0.36453899575E+03  0.36453899575E+03  0.00000000000E+00 0. -1.
         23    2    1    2    0    0  0.12472898848E+03 -0.42616372209E+02 -0.23580696384E+03  0.29766286529E+03  0.12499912570E+03 0.  0.
          5    1    3    3  502    0  0.37210804175E+02 -0.73376416794E+02 -0.15031954416E+03  0.17142577941E+03  0.47000000000E+01 0. -1.
         -5    1    3    3    0  502  0.87518184309E+02  0.30760044584E+02 -0.85487419684E+02  0.12623708588E+03  0.47000000000E+01 0. -1.
        -11    1    1    2    0    0 -0.12227779444E+03  0.10657139754E+02 -0.43402591770E+02  0.13018916473E+03  0.00000000000E+00 0. -1.
         11    1    1    2    0    0 -0.24511940430E+01  0.31959232455E+02  0.12324417685E+02  0.34340823558E+02  0.00000000000E+00 0.  1.
<mgrwt>
<rscale>  0 0.17640994E+03</rscale>
<asrwt>0</asrwt>
<pdfrwt beam="2">  1        1 0.56082921E-01 0.18165422E+03</pdfrwt>
<pdfrwt beam="1">  1       -1 0.15023671E-01 0.18165422E+03</pdfrwt>
<totfact> 0.21612100E+03</totfact>
</mgrwt>
</event>
<event>
 7    1  0.6419647E-006  0.1429896E+03  0.7546771E-02  0.1219897E+00
         -2   -1    0    0    0  501 -0.00000000000E+00  0.00000000000E+00  0.78134654661E+03  0.78134654661E+03  0.00000000000E+00 0.  1.
          2   -1    0    0  501    0  0.00000000000E+00 -0.00000000000E+00 -0.22982641628E+02  0.22982641628E+02  0.00000000000E+00 0. -1.
         23    2    1    2    0    0  0.10128087238E+02 -0.68694267160E+02  0.30651472993E+03  0.33822669964E+03  0.12499816078E+03 0.  0.
          5    1    3    3  502    0 -0.26469923621E+02 -0.42465558561E+02  0.28258627114E+03  0.28702102912E+03  0.47000000000E+01 0.  1.
         -5    1    3    3    0  502  0.36598010859E+02 -0.26228708599E+02  0.23928458785E+02  0.51205670521E+02  0.47000000000E+01 0.  1.
        -11    1    1    2    0    0  0.33163737940E+02  0.57324844112E+02  0.32244649864E+03  0.32917733177E+03  0.00000000000E+00 0.  1.
         11    1    1    2    0    0 -0.43291825178E+02  0.11369423048E+02  0.12940267642E+03  0.13692515682E+03  0.00000000000E+00 0. -1.
<mgrwt>
<rscale>  0 0.13522913E+03</rscale>
<asrwt>0</asrwt>
<pdfrwt beam="2">  1        2 0.35357916E-02 0.14298958E+03</pdfrwt>
<pdfrwt beam="1">  1       -2 0.12020714E+00 0.14298958E+03</pdfrwt>
<totfact> 0.13401375E+03</totfact>
</mgrwt>
</event>
<event>
 7    1  0.6419647E-006  0.1369411E+03  0.7546771E-02  0.1223948E+00
         -2   -1    0    0    0  501 -0.00000000000E+00  0.00000000000E+00  0.28443540366E+02  0.28443540366E+02  0.00000000000E+00 0.  1.
          2   -1    0    0  501    0  0.00000000000E+00 -0.00000000000E+00 -0.65626673163E+03  0.65626673163E+03  0.00000000000E+00 0. -1.
         23    2    1    2    0    0  0.67269323641E+02 -0.38620217460E+02 -0.45011059636E+03  0.47048105251E+03  0.11285472394E+03 0.  0.
          5    1    3    3  502    0 -0.31089318726E+01  0.11431941849E+02 -0.27382676714E+03  0.27412322622E+03  0.47000000000E+01 0. -1.
         -5    1    3    3    0  502  0.70378255513E+02 -0.50052159309E+02 -0.17628382922E+03  0.19635782629E+03  0.47000000000E+01 0.  1.
        -11    1    1    2    0    0 -0.67925668423E+02  0.50489166946E+02 -0.18268992535E+03  0.20134214967E+03  0.00000000000E+00 0. -1.
         11    1    1    2    0    0  0.65634478205E+00 -0.11868949486E+02  0.49773304357E+01  0.12887069824E+02  0.00000000000E+00 0.  1.
<mgrwt>
<rscale>  0 0.13239282E+03</rscale>
<asrwt>0</asrwt>
<pdfrwt beam="2">  1        2 0.10096412E+00 0.13694113E+03</pdfrwt>
<pdfrwt beam="1">  1       -2 0.43759288E-02 0.13694113E+03</pdfrwt>
<totfact> 0.10406437E+04</totfact>
</mgrwt>
</event>
<event>
 7    1  0.6419647E-006  0.1508892E+03  0.7546771E-02  0.1208479E+00
          2   -1    0    0  501    0  0.00000000000E+00  0.00000000000E+00  0.11125966269E+04  0.11125966269E+04  0.00000000000E+00 0. -1.
         -2   -1    0    0    0  501 -0.00000000000E+00 -0.00000000000E+00 -0.17342580510E+02  0.17342580510E+02  0.00000000000E+00 0.  1.
         23    2    1    2    0    0  0.64376225491E+02 -0.54782756362E+02  0.51875495776E+03  0.54025388018E+03  0.12498839961E+03 0.  0.
          5    1    3    3  502    0  0.41053990638E+02  0.54396181024E+01  0.42172404849E+02  0.59292675123E+02  0.47000000000E+01 0.  1.
         -5    1    3    3    0  502  0.23322234853E+02 -0.60222374464E+02  0.47658255291E+03  0.48096120505E+03  0.47000000000E+01 0.  1.
        -11    1    1    2    0    0 -0.52294227263E+02  0.75534145033E+02  0.52350277075E+03  0.53150281678E+03  0.00000000000E+00 0. -1.
         11    1    1    2    0    0 -0.12081998228E+02 -0.20751388671E+02  0.52996317852E+02  0.58182510421E+02  0.00000000000E+00 0.  1.
<mgrwt>
<rscale>  0 0.14366621E+03</rscale>
<asrwt>0</asrwt>
<pdfrwt beam="1">  1        2 0.17116866E+00 0.15088919E+03</pdfrwt>
<pdfrwt beam="2">  1       -2 0.26680902E-02 0.15088919E+03</pdfrwt>
<totfact> 0.11000722E+04</totfact>
</mgrwt>
</event>
<event>
 7    1  0.6419647E-006  0.1753656E+03  0.7546771E-02  0.1178408E+00
          1   -1    0    0  501    0  0.00000000000E+00  0.00000000000E+00  0.13476604213E+04  0.13476604213E+04  0.00000000000E+00 0. -1.
         -1   -1    0    0    0  501 -0.00000000000E+00 -0.00000000000E+00 -0.21600999903E+02  0.21600999903E+02  0.00000000000E+00 0.  1.
         23    2    1    2    0    0 -0.92319530613E+02  0.81259161507E+02  0.89138369698E+03  0.90847012976E+03  0.12500853716E+03 0.  0.
          5    1    3    3  502    0 -0.98078309634E+02  0.93493409028E+02  0.87943054537E+03  0.88982051363E+03  0.47000000000E+01 0. -1.
         -5    1    3    3    0  502  0.57587790209E+01 -0.12234247521E+02  0.11953151606E+02  0.18649616123E+02  0.47000000000E+01 0. -1.
        -11    1    1    2    0    0  0.11859431966E+02 -0.92639222234E+01  0.24035600374E+01  0.15239536816E+02  0.00000000000E+00 0.  1.
         11    1    1    2    0    0  0.80460098647E+02 -0.71995239284E+02  0.43227216437E+03  0.44555175461E+03  0.00000000000E+00 0. -1.
<mgrwt>
<rscale>  0 0.16946377E+03</rscale>
<asrwt>0</asrwt>
<pdfrwt beam="1">  1        1 0.20733231E+00 0.17536557E+03</pdfrwt>
<pdfrwt beam="2">  1       -1 0.33232318E-02 0.17536557E+03</pdfrwt>
<totfact> 0.29199152E+03</totfact>
</mgrwt>
</event>
<event>
 7    1  0.6419647E-006  0.1271582E+03  0.7546771E-02  0.1246556E+00
         -1   -1    0    0    0  501 -0.00000000000E+00  0.00000000000E+00  0.27439836703E+02  0.27439836703E+02  0.00000000000E+00 0.  1.
          1   -1    0    0  501    0  0.00000000000E+00 -0.00000000000E+00 -0.45389882189E+03  0.45389882189E+03  0.00000000000E+00 0. -1.
         23    2    1    2    0    0 -0.21324897024E+02  0.94534522632E+01 -0.27620472633E+03  0.30406950569E+03  0.12500037782E+03 0.  0.
          5    1    3    3  502    0 -0.70898435785E+02  0.24440754898E+02 -0.16558540543E+03  0.18183661674E+03  0.47000000000E+01 0.  1.
         -5    1    3    3    0  502  0.49573538761E+02 -0.14987302634E+02 -0.11061932090E+03  0.12223288896E+03  0.47000000000E+01 0.  1.
        -11    1    1    2    0    0  0.12321793425E+02 -0.49400531497E+02 -0.10185322407E+03  0.11386974295E+03  0.00000000000E+00 0.  1.
         11    1    1    2    0    0  0.90031035992E+01  0.39947079234E+02 -0.48401034788E+02  0.63399409952E+02  0.00000000000E+00 0. -1.
<mgrwt>
<rscale>  0 0.11792721E+03</rscale>
<asrwt>0</asrwt>
<pdfrwt beam="2">  1        1 0.69830588E-01 0.12715822E+03</pdfrwt>
<pdfrwt beam="1">  1       -1 0.42215133E-02 0.12715822E+03</pdfrwt>
<totfact> 0.11007401E+04</totfact>
</mgrwt>
</event>
<event>
 7    1  0.6419647E-006  0.1405876E+03  0.7546771E-02  0.1222657E+00
          1   -1    0    0  501    0  0.00000000000E+00  0.00000000000E+00  0.40836434331E+03  0.40836434331E+03  0.00000000000E+00 0. -1.
         -1   -1    0    0    0  501 -0.00000000000E+00 -0.00000000000E+00 -0.41738211433E+02  0.41738211433E+02  0.00000000000E+00 0.  1.
         23    2    1    2    0    0 -0.39016138715E+02  0.51168939365E+02  0.25301511908E+03  0.28945038502E+03  0.12499742185E+03 0.  0.
          5    1    3    3  502    0  0.17871601317E+01 -0.40007446713E+02  0.80945132175E+02  0.90432262808E+02  0.47000000000E+01 0.  1.
         -5    1    3    3    0  502 -0.40803298847E+02  0.91176386078E+02  0.17206998691E+03  0.19901812221E+03  0.47000000000E+01 0.  1.
        -11    1    1    2    0    0  0.52091135092E+02 -0.13017898032E+02  0.10709330439E+03  0.11979953201E+03  0.00000000000E+00 0. -1.
         11    1    1    2    0    0 -0.13074996377E+02 -0.38151041333E+02  0.65177084027E+01  0.40852637710E+02  0.00000000000E+00 0.  1.
<mgrwt>
<rscale>  0 0.13328797E+03</rscale>
<asrwt>0</asrwt>
<pdfrwt beam="1">  1        1 0.62825281E-01 0.14058761E+03</pdfrwt>
<pdfrwt beam="2">  1       -1 0.64212636E-02 0.14058761E+03</pdfrwt>
<totfact> 0.68117190E+03</totfact>
</mgrwt>
</event>
<event>
 7    1  0.6419647E-006  0.1703196E+03  0.7546771E-02  0.1183582E+00
          1   -1    0    0  501    0  0.00000000000E+00  0.00000000000E+00  0.89807271240E+02  0.89807271240E+02  0.00000000000E+00 0. -1.
         -1   -1    0    0    0  501 -0.00000000000E+00 -0.00000000000E+00 -0.28347676913E+03  0.28347676913E+03  0.00000000000E+00 0.  1.
         23    2    1    2    0    0  0.39004758830E+02 -0.10892135389E+03 -0.10948532761E+03  0.20247418504E+03  0.12499410426E+03 0.  0.
          5    1    3    3  502    0  0.37594107699E+02 -0.22298798385E+02  0.18628934340E+02  0.47746000228E+02  0.47000000000E+01 0.  1.
         -5    1    3    3    0  502  0.14106511306E+01 -0.86622555508E+02 -0.12811426195E+03  0.15472818481E+03  0.47000000000E+01 0.  1.
        -11    1    1    2    0    0 -0.68412840919E+02  0.58770882904E+02 -0.56415315430E+02  0.10638148944E+03  0.00000000000E+00 0.  1.
         11    1    1    2    0    0  0.29408082089E+02  0.50150470989E+02 -0.27768854855E+02  0.64428365900E+02  0.00000000000E+00 0. -1.
<mgrwt>
<rscale>  0 0.16461542E+03</rscale>
<asrwt>0</asrwt>
<pdfrwt beam="1">  1        1 0.13816503E-01 0.17031958E+03</pdfrwt>
<pdfrwt beam="2">  1       -1 0.43611810E-01 0.17031958E+03</pdfrwt>
<totfact> 0.21533378E+03</totfact>
</mgrwt>
</event>
<event>
 7    1  0.6419647E-006  0.1752487E+03  0.7546771E-02  0.1176224E+00
         -1   -1    0    0    0  501 -0.00000000000E+00  0.00000000000E+00  0.48713990326E+02  0.48713990326E+02  0.00000000000E+00 0.  1.
          1   -1    0    0  501    0  0.00000000000E+00 -0.00000000000E+00 -0.59593267564E+03  0.59593267564E+03  0.00000000000E+00 0. -1.
         23    2    1    2    0    0  0.26990657476E+02  0.11983151489E+03 -0.33729850459E+03  0.38010838362E+03  0.12499605812E+03 0.  0.
          5    1    3    3  502    0  0.56860222352E+02  0.66766041016E+01 -0.12716435363E+03  0.13953682224E+03  0.47000000000E+01 0. -1.
         -5    1    3    3    0  502 -0.29869564875E+02  0.11315491079E+03 -0.21013415096E+03  0.24057156137E+03  0.47000000000E+01 0. -1.
        -11    1    1    2    0    0 -0.35821711363E+02 -0.13545627094E+03 -0.16684413520E+03  0.21787281104E+03  0.00000000000E+00 0. -1.
         11    1    1    2    0    0  0.88310538866E+01  0.15624756044E+02 -0.43076045526E+02  0.46665471307E+02  0.00000000000E+00 0.  1.
<mgrwt>
<rscale>  0 0.17156667E+03</rscale>
<asrwt>0</asrwt>
<pdfrwt beam="2">  1        1 0.91681948E-01 0.17524869E+03</pdfrwt>
<pdfrwt beam="1">  1       -1 0.74944602E-02 0.17524869E+03</pdfrwt>
<totfact> 0.33240656E+03</totfact>
</mgrwt>
</event>
<event>
 6    1  0.6419647E-006  0.2078548E+03  0.7546771E-02  0.1173845E+00
          1   -1    0    0  501    0  0.00000000000E+00  0.00000000000E+00  0.42605469487E+03  0.42605469487E+03  0.00000000000E+00 0. -1.
         -1   -1    0    0    0  501 -0.00000000000E+00 -0.00000000000E+00 -0.12536559451E+03  0.12536559451E+03  0.00000000000E+00 0.  1.
          5    1    1    2  502    0 -0.75132248333E+02 -0.76334520280E+02  0.27093786851E+03  0.29137816033E+03  0.47000000000E+01 0. -1.
         -5    1    1    2    0  502  0.79128640963E+02  0.41030754975E+02  0.10173347662E+03  0.13533903701E+03  0.47000000000E+01 0.  1.
        -11    1    1    2    0    0 -0.13297534448E+02 -0.30275362097E+02 -0.11505035231E+02  0.35011252594E+02  0.00000000000E+00 0. -1.
         11    1    1    2    0    0  0.93011418186E+01  0.65579127403E+02 -0.60477209536E+02  0.89691839446E+02  0.00000000000E+00 0.  1.
<mgrwt>
<rscale>  0 0.17389592E+03</rscale>
<asrwt>0</asrwt>
<pdfrwt beam="1">  1        1 0.65546875E-01 0.20785484E+03</pdfrwt>
<pdfrwt beam="2">  1       -1 0.19287015E-01 0.20785484E+03</pdfrwt>
<totfact> 0.11920760E+03</totfact>
</mgrwt>
</event>
<event>
 7    1  0.6419647E-006  0.1315037E+03  0.7546771E-02  0.1237943E+00
          2   -1    0    0  501    0  0.00000000000E+00  0.00000000000E+00  0.91124909045E+03  0.91124909045E+03  0.00000000000E+00 0. -1.
         -2   -1    0    0    0  501 -0.00000000000E+00 -0.00000000000E+00 -0.20093914119E+02  0.20093914119E+02  0.00000000000E+00 0.  1.
         23    2    1    2    0    0  0.32090953249E+01  0.40731857008E+02  0.72458779749E+03  0.73642426191E+03  0.12499533904E+03 0.  0.
          5    1    3    3  502    0 -0.32343294542E+02  0.25878061732E+02  0.65821965875E+03  0.65953845373E+03  0.47000000000E+01 0.  1.
         -5    1    3    3    0  502  0.35552389867E+02  0.14853795275E+02  0.66368138743E+02  0.76885808180E+02  0.47000000000E+01 0.  1.
        -11    1    1    2    0    0 -0.45314880078E+01 -0.69108594450E+02  0.13917927209E+03  0.15545868258E+03  0.00000000000E+00 0. -1.
         11    1    1    2    0    0  0.13223926829E+01  0.28376737443E+02  0.27388106748E+02  0.39460060081E+02  0.00000000000E+00 0.  1.
<mgrwt>
<rscale>  0 0.12317899E+03</rscale>
<asrwt>0</asrwt>
<pdfrwt beam="1">  1        2 0.14019214E+00 0.13150368E+03</pdfrwt>
<pdfrwt beam="2">  1       -2 0.30913721E-02 0.13150368E+03</pdfrwt>
<totfact> 0.11591707E+04</totfact>
</mgrwt>
</event>
<event>
 7    1  0.6419647E-006  0.1329134E+03  0.7546771E-02  0.1237067E+00
         -1   -1    0    0    0  501 -0.00000000000E+00  0.00000000000E+00  0.59785873644E+02  0.59785873644E+02  0.00000000000E+00 0.  1.
          1   -1    0    0  501    0  0.00000000000E+00 -0.00000000000E+00 -0.31696701039E+03  0.31696701039E+03  0.00000000000E+00 0. -1.
         23    2    1    2    0    0 -0.19128189198E+02  0.40912107223E+02 -0.24157465225E+03  0.27572501047E+03  0.12500512248E+03 0.  0.
          5    1    3    3  502    0 -0.42364814928E+02 -0.33860426060E+02 -0.95846330216E+02  0.11022665291E+03  0.47000000000E+01 0. -1.
         -5    1    3    3    0  502  0.23236625730E+02  0.74772533283E+02 -0.14572832204E+03  0.16549835755E+03  0.47000000000E+01 0. -1.
        -11    1    1    2    0    0 -0.12872807494E+02 -0.58023976615E+02  0.43857763185E+01  0.59596359527E+02  0.00000000000E+00 0.  1.
         11    1    1    2    0    0  0.32000996692E+02  0.17111869393E+02 -0.19992260813E+02  0.41431514042E+02  0.00000000000E+00 0. -1.
<mgrwt>
<rscale>  0 0.12373019E+03</rscale>
<asrwt>0</asrwt>
<pdfrwt beam="2">  1        1 0.48764155E-01 0.13291339E+03</pdfrwt>
<pdfrwt beam="1">  1       -1 0.91978268E-02 0.13291339E+03</pdfrwt>
<totfact> 0.54243756E+03</totfact>
</mgrwt>
</event>
<event>
 7    1  0.6419647E-006  0.1385766E+03  0.7546771E-02  0.1221861E+00
         -1   -1    0    0    0  501 -0.00000000000E+00  0.00000000000E+00  0.24452079290E+02  0.24452079290E+02  0.00000000000E+00 0.  1.
          1   -1    0    0  501    0  0.00000000000E+00 -0.00000000000E+00 -0.75463543979E+03  0.75463543979E+03  0.00000000000E+00 0. -1.
         23    2    1    2    0    0  0.19540477501E+02  0.78061265352E+02 -0.50473054278E+03  0.52340844491E+03  0.11281882814E+03 0.  0.
          5    1    3    3  502    0 -0.17008325761E+02  0.62237178345E+01 -0.33427966765E+03  0.33480293310E+03  0.47000000000E+01 0. -1.
         -5    1    3    3    0  502  0.36548803262E+02  0.71837547517E+02 -0.17045087513E+03  0.18860551181E+03  0.47000000000E+01 0.  1.
        -11    1    1    2    0    0  0.99797348685E+01  0.86821812188E+01 -0.10258081084E+01  0.13267541635E+02  0.00000000000E+00 0. -1.
         11    1    1    2    0    0 -0.29520212370E+02 -0.86743446571E+02 -0.22442700962E+03  0.24241153254E+03  0.00000000000E+00 0.  1.
<mgrwt>
<rscale>  0 0.13384389E+03</rscale>
<asrwt>0</asrwt>
<pdfrwt beam="2">  1        1 0.11609777E+00 0.13857662E+03</pdfrwt>
<pdfrwt beam="1">  1       -1 0.37618579E-02 0.13857662E+03</pdfrwt>
<totfact> 0.65689724E+03</totfact>
</mgrwt>
</event>
<event>
 7    1  0.6419647E-006  0.1300197E+03  0.7546771E-02  0.1241418E+00
          2   -1    0    0  501    0  0.00000000000E+00  0.00000000000E+00  0.20236593968E+03  0.20236593968E+03  0.00000000000E+00 0. -1.
         -2   -1    0    0    0  501 -0.00000000000E+00 -0.00000000000E+00 -0.10210429717E+03  0.10210429717E+03  0.00000000000E+00 0.  1.
         23    2    1    2    0    0 -0.25478621112E+02  0.25185062551E+02  0.14700533464E+03  0.19625412083E+03  0.12498665537E+03 0.  0.
          5    1    3    3  502    0 -0.77708471654E+00  0.57183463939E+02  0.16730485201E+02  0.59770825189E+02  0.47000000000E+01 0.  1.
         -5    1    3    3    0  502 -0.24701536395E+02 -0.31998401388E+02  0.13027484944E+03  0.13648329564E+03  0.47000000000E+01 0.  1.
        -11    1    1    2    0    0  0.26996188891E+02  0.28481197504E+02 -0.37238948305E+01  0.39418780025E+02  0.00000000000E+00 0. -1.
         11    1    1    2    0    0 -0.15175677796E+01 -0.53666260055E+02 -0.43019797299E+02  0.68797335994E+02  0.00000000000E+00 0.  1.
<mgrwt>
<rscale>  0 0.12102336E+03</rscale>
<asrwt>0</asrwt>
<pdfrwt beam="1">  1        2 0.31133221E-01 0.13001966E+03</pdfrwt>
<pdfrwt beam="2">  1       -2 0.15708353E-01 0.13001966E+03</pdfrwt>
<totfact> 0.50847169E+03</totfact>
</mgrwt>
</event>
<event>
 7    1  0.6419647E-006  0.1259607E+03  0.7546771E-02  0.1247883E+00
          2   -1    0    0  501    0  0.00000000000E+00  0.00000000000E+00  0.24714424521E+02  0.24714424521E+02  0.00000000000E+00 0. -1.
         -2   -1    0    0    0  501 -0.00000000000E+00 -0.00000000000E+00 -0.53379794151E+03  0.53379794151E+03  0.00000000000E+00 0.  1.
         23    2    1    2    0    0 -0.65963914787E+01 -0.14142444249E+02 -0.20941955613E+03  0.24438217818E+03  0.12499030927E+03 0.  0.
          5    1    3    3  502    0  0.27945872623E+02 -0.45113640484E+02 -0.18340320589E+03  0.19098439278E+03  0.47000000000E+01 0. -1.
         -5    1    3    3    0  502 -0.34542264102E+02  0.30971196236E+02 -0.26016350236E+02  0.53397785396E+02  0.47000000000E+01 0. -1.
        -11    1    1    2    0    0  0.11955022568E+02  0.47654271726E+02 -0.24430744156E+03  0.24919867211E+03  0.00000000000E+00 0.  1.
         11    1    1    2    0    0 -0.53586310889E+01 -0.33511827477E+02 -0.55356519296E+02  0.64931515742E+02  0.00000000000E+00 0. -1.
<mgrwt>
<rscale>  0 0.11714495E+03</rscale>
<asrwt>0</asrwt>
<pdfrwt beam="1">  1        2 0.38022194E-02 0.12596070E+03</pdfrwt>
<pdfrwt beam="2">  1       -2 0.82122755E-01 0.12596070E+03</pdfrwt>
<totfact> 0.28959614E+03</totfact>
</mgrwt>
</event>
<event>
 7    1  0.6419647E-006  0.2596071E+03  0.7546771E-02  0.1109688E+00
          1   -1    0    0  501    0  0.00000000000E+00  0.00000000000E+00  0.12003653298E+04  0.12003653298E+04  0.00000000000E+00 0. -1.
         -1   -1    0    0    0  501 -0.00000000000E+00 -0.00000000000E+00 -0.69095742628E+02  0.69095742628E+02  0.00000000000E+00 0.  1.
         23    2    1    2    0    0 -0.19586404320E+03  0.11579424142E+03  0.88487239750E+03  0.92216865050E+03  0.12499932141E+03 0.  0.
          5    1    3    3  502    0 -0.76516868599E+02  0.79603076626E+02  0.61480512190E+03  0.62465903411E+03  0.47000000000E+01 0. -1.
         -5    1    3    3    0  502 -0.11934717460E+03  0.36191164793E+02  0.27006727560E+03  0.29750961639E+03  0.47000000000E+01 0. -1.
        -11    1    1    2    0    0  0.39906559364E+02 -0.68991252385E+02  0.10365796643E+03  0.13075664568E+03  0.00000000000E+00 0.  1.
         11    1    1    2    0    0  0.15595748383E+03 -0.46802989035E+02  0.14273922329E+03  0.21653577628E+03  0.00000000000E+00 0. -1.
<mgrwt>
<rscale>  0 0.25580924E+03</rscale>
<asrwt>0</asrwt>
<pdfrwt beam="1">  1        1 0.18467157E+00 0.25960713E+03</pdfrwt>
<pdfrwt beam="2">  1       -1 0.10630115E-01 0.25960713E+03</pdfrwt>
<totfact> 0.63643927E+02</totfact>
</mgrwt>
</event>
<event>
 7    1  0.6419647E-006  0.1292697E+03  0.7546771E-02  0.1242453E+00
          1   -1    0    0  501    0  0.00000000000E+00  0.00000000000E+00  0.85627215005E+02  0.85627215005E+02  0.00000000000E+00 0. -1.
         -1   -1    0    0    0  501 -0.00000000000E+00 -0.00000000000E+00 -0.15597166010E+03  0.15597166010E+03  0.00000000000E+00 0.  1.
         23    2    1    2    0    0  0.22724613588E+02 -0.23879173594E+02 -0.16168013586E+02  0.13027683233E+03  0.12499610148E+03 0.  0.
          5    1    3    3  502    0  0.32060850152E+02  0.31067900059E+01  0.49082918242E+02  0.58896291223E+02  0.47000000000E+01 0. -1.
         -5    1    3    3    0  502 -0.93362365639E+01 -0.26985963600E+02 -0.65250931828E+02  0.71380541109E+02  0.47000000000E+01 0. -1.
        -11    1    1    2    0    0 -0.50362561630E+02  0.12446633771E+02 -0.61570628775E+02  0.80512412918E+02  0.00000000000E+00 0.  1.
         11    1    1    2    0    0  0.27637948042E+02  0.11432539823E+02  0.73941972641E+01  0.30809629858E+02  0.00000000000E+00 0. -1.
<mgrwt>
<rscale>  0 0.12039116E+03</rscale>
<asrwt>0</asrwt>
<pdfrwt beam="1">  1        1 0.13173418E-01 0.12926967E+03</pdfrwt>
<pdfrwt beam="2">  1       -1 0.23995640E-01 0.12926967E+03</pdfrwt>
<totfact> 0.62483641E+03</totfact>
</mgrwt>
</event>
<event>
 7    1  0.6419647E-006  0.1365386E+03  0.7546771E-02  0.1253072E+00
          1   -1    0    0  501    0  0.00000000000E+00  0.00000000000E+00  0.93424028447E+03  0.93424028447E+03  0.00000000000E+00 0. -1.
         -1   -1    0    0    0  501 -0.00000000000E+00 -0.00000000000E+00 -0.12713225963E+02  0.12713225963E+02  0.00000000000E+00 0.  1.
         23    2    1    2    0    0 -0.38871645757E+02  0.38800234529E+02  0.76047630545E+03  0.77263639886E+03  0.12500532251E+03 0.  0.
          5    1    3    3  502    0 -0.76837060591E+02  0.51343569349E+02  0.43877580341E+03  0.44842657331E+03  0.47000000000E+01 0. -1.
         -5    1    3    3    0  502  0.37965414835E+02 -0.12543334820E+02  0.32170050204E+03  0.32420982555E+03  0.47000000000E+01 0. -1.
        -11    1    1    2    0    0  0.19709678065E+02 -0.72580464625E+01  0.21854352308E+02  0.30311109558E+02  0.00000000000E+00 0.  1.
         11    1    1    2    0    0  0.19161967692E+02 -0.31542188067E+02  0.13919640075E+03  0.14400600202E+03  0.00000000000E+00 0. -1.
<mgrwt>
<rscale>  0 0.11414996E+03</rscale>
<asrwt>0</asrwt>
<pdfrwt beam="1">  1        1 0.14372922E+00 0.13653862E+03</pdfrwt>
<pdfrwt beam="2">  1       -1 0.19558816E-02 0.13653862E+03</pdfrwt>
<totfact> 0.12215186E+04</totfact>
</mgrwt>
</event>
<event>
 7    1  0.6419647E-006  0.1261192E+03  0.7546771E-02  0.1246715E+00
          1   -1    0    0  501    0  0.00000000000E+00  0.00000000000E+00  0.39703712625E+03  0.39703712625E+03  0.00000000000E+00 0. -1.
         -1   -1    0    0    0  501 -0.00000000000E+00 -0.00000000000E+00 -0.31168887286E+02  0.31168887286E+02  0.00000000000E+00 0.  1.
         23    2    1    2    0    0 -0.15069453179E+02  0.73620741703E+01  0.19716626263E+03  0.23405254377E+03  0.12499907828E+03 0.  0.
          5    1    3    3  502    0 -0.24405432906E+02 -0.47952758762E+02  0.15375154590E+03  0.16296232723E+03  0.47000000000E+01 0. -1.
         -5    1    3    3    0  502  0.93359797271E+01  0.55314832932E+02  0.43414716732E+02  0.71090216547E+02  0.47000000000E+01 0. -1.
        -11    1    1    2    0    0 -0.49378791693E+01  0.20188532044E+02 -0.12529813420E+01  0.20821369768E+02  0.00000000000E+00 0.  1.
         11    1    1    2    0    0  0.20007332348E+02 -0.27550606215E+02  0.16995495768E+03  0.17333210000E+03  0.00000000000E+00 0. -1.
<mgrwt>
<rscale>  0 0.11783297E+03</rscale>
<asrwt>0</asrwt>
<pdfrwt beam="1">  1        1 0.61082631E-01 0.12611922E+03</pdfrwt>
<pdfrwt beam="2">  1       -1 0.47952137E-02 0.12611922E+03</pdfrwt>
<totfact> 0.10805375E+04</totfact>
</mgrwt>
</event>
<event>
 7    1  0.6419647E-006  0.1287666E+03  0.7546771E-02  0.1236654E+00
          1   -1    0    0  501    0  0.00000000000E+00  0.00000000000E+00  0.22120645594E+02  0.22120645594E+02  0.00000000000E+00 0. -1.
         -1   -1    0    0    0  501 -0.00000000000E+00 -0.00000000000E+00 -0.65536349811E+03  0.65536349811E+03  0.00000000000E+00 0.  1.
         23    2    1    2    0    0 -0.14277083823E+02 -0.27422866864E+02 -0.30467680829E+03  0.33077000866E+03  0.12499996947E+03 0.  0.
          5    1    3    3  502    0 -0.91096601309E+01 -0.59664088741E+02 -0.28705521553E+03  0.29336935108E+03  0.47000000000E+01 0.  1.
         -5    1    3    3    0  502 -0.51674236920E+01  0.32241221877E+02 -0.17621592766E+02  0.37400657579E+02  0.47000000000E+01 0.  1.
        -11    1    1    2    0    0  0.41105512171E+02 -0.15945095467E+02 -0.66877544406E+02  0.80103153160E+02  0.00000000000E+00 0. -1.
         11    1    1    2    0    0 -0.26828428348E+02  0.43367962331E+02 -0.26168849981E+03  0.26661098188E+03  0.00000000000E+00 0.  1.
<mgrwt>
<rscale>  0 0.12399148E+03</rscale>
<asrwt>0</asrwt>
<pdfrwt beam="1">  1        1 0.34031768E-02 0.12876661E+03</pdfrwt>
<pdfrwt beam="2">  1       -1 0.10082514E+00 0.12876661E+03</pdfrwt>
<totfact> 0.27170612E+03</totfact>
</mgrwt>
</event>
<event>
 6    1  0.6419647E-006  0.1689405E+03  0.7546771E-02  0.1224617E+00
         -2   -1    0    0    0  501 -0.00000000000E+00  0.00000000000E+00  0.11337677589E+03  0.11337677589E+03  0.00000000000E+00 0.  1.
          2   -1    0    0  501    0  0.00000000000E+00 -0.00000000000E+00 -0.16871936668E+03  0.16871936668E+03  0.00000000000E+00 0. -1.
          5    1    1    2  502    0  0.94814892457E+02  0.24592586003E+02 -0.66055793250E+02  0.11823754454E+03  0.47000000000E+01 0. -1.
         -5    1    1    2    0  502 -0.64737444414E+02  0.28196353621E+02 -0.41607685879E+02  0.82092999647E+02  0.47000000000E+01 0.  1.
        -11    1    1    2    0    0 -0.25665747313E+02 -0.33607938157E+02  0.29134888380E+02  0.51352369111E+02  0.00000000000E+00 0. -1.
         11    1    1    2    0    0 -0.44117007297E+01 -0.19181001466E+02  0.23185999954E+02  0.30413229267E+02  0.00000000000E+00 0.  1.
<mgrwt>
<rscale>  0 0.13193178E+03</rscale>
<asrwt>0</asrwt>
<pdfrwt beam="2">  1        2 0.25956825E-01 0.16894053E+03</pdfrwt>
<pdfrwt beam="1">  1       -2 0.17442581E-01 0.16894053E+03</pdfrwt>
<totfact> 0.52970186E+03</totfact>
</mgrwt>
</event>
<event>
 7    1  0.6419647E-006  0.1734914E+03  0.7546771E-02  0.1184655E+00
          2   -1    0    0  501    0  0.00000000000E+00  0.00000000000E+00  0.55325505242E+03  0.55325505242E+03  0.00000000000E+00 0.  1.
         -2   -1    0    0    0  501 -0.00000000000E+00 -0.00000000000E+00 -0.44126478391E+02  0.44126478391E+02  0.00000000000E+00 0. -1.
         23    2    1    2    0    0 -0.12002549449E+03 -0.82624637597E+01  0.31487897732E+03  0.35951081647E+03  0.12499947666E+03 0.  0.
          5    1    3    3  502    0 -0.10488143211E+03 -0.14272817128E+01  0.32357057123E+03  0.34017959448E+03  0.47000000000E+01 0.  1.
         -5    1    3    3    0  502 -0.15144062377E+02 -0.68351820469E+01 -0.86915939101E+01  0.19331221989E+02  0.47000000000E+01 0.  1.
        -11    1    1    2    0    0  0.85389548898E+02  0.32724588411E+02  0.10621877193E+03  0.14015955643E+03  0.00000000000E+00 0.  1.
         11    1    1    2    0    0  0.34635945591E+02 -0.24462124651E+02  0.88030824778E+02  0.97711157912E+02  0.00000000000E+00 0. -1.
<mgrwt>
<rscale>  0 0.16363308E+03</rscale>
<asrwt>0</asrwt>
<pdfrwt beam="1">  1        2 0.85116157E-01 0.17349137E+03</pdfrwt>
<pdfrwt beam="2">  1       -2 0.67886894E-02 0.17349137E+03</pdfrwt>
<totfact> 0.66004807E+03</totfact>
</mgrwt>
</event>
<event>
 6    1  0.6419647E-006  0.1957247E+03  0.7546771E-02  0.1179564E+00
          1   -1    0    0  501    0  0.00000000000E+00  0.00000000000E+00  0.14599903431E+04  0.14599903431E+04  0.00000000000E+00 0. -1.
         -1   -1    0    0    0  501 -0.00000000000E+00 -0.00000000000E+00 -0.27851135364E+02  0.27851135364E+02  0.00000000000E+00 0.  1.
          5    1    1    2  502    0 -0.10512091311E+03 -0.33767395319E+01  0.10271966252E+04  0.10325777479E+04  0.47000000000E+01 0. -1.
         -5    1    1    2    0  502  0.64474508683E+02 -0.33545540217E+02  0.28615458974E+03  0.29527750467E+03  0.47000000000E+01 0.  1.
        -11    1    1    2    0    0  0.38643200989E+02  0.21133140079E+02  0.13209254777E+03  0.13924204742E+03  0.00000000000E+00 0. -1.
         11    1    1    2    0    0  0.20032034420E+01  0.15789139670E+02 -0.13304554969E+02  0.20744178424E+02  0.00000000000E+00 0.  1.
<mgrwt>
<rscale>  0 0.16836454E+03</rscale>
<asrwt>0</asrwt>
<pdfrwt beam="1">  1        1 0.22461384E+00 0.19572470E+03</pdfrwt>
<pdfrwt beam="2">  1       -1 0.42847912E-02 0.19572470E+03</pdfrwt>
<totfact> 0.16906038E+03</totfact>
</mgrwt>
</event>
<event>
 7    1  0.6419647E-006  0.1476160E+03  0.7546771E-02  0.1213008E+00
         -2   -1    0    0    0  501 -0.00000000000E+00  0.00000000000E+00  0.28743172012E+03  0.28743172012E+03  0.00000000000E+00 0.  1.
          2   -1    0    0  501    0  0.00000000000E+00 -0.00000000000E+00 -0.65009096713E+02  0.65009096713E+02  0.00000000000E+00 0. -1.
         23    2    1    2    0    0  0.52700198444E+02  0.58224361578E+02  0.87033684701E+02  0.17136322375E+03  0.12499241970E+03 0.  0.
          5    1    3    3  502    0  0.65584148568E+01  0.85487842718E+02  0.25387733306E+02  0.89542230598E+02  0.47000000000E+01 0. -1.
         -5    1    3    3    0  502  0.46141783587E+02 -0.27263481140E+02  0.61645951395E+02  0.81820993149E+02  0.47000000000E+01 0. -1.
        -11    1    1    2    0    0  0.62657358166E+01  0.20419448631E+02  0.17701902530E+02  0.27741136979E+02  0.00000000000E+00 0.  1.
         11    1    1    2    0    0 -0.58965934260E+02 -0.78643810209E+02  0.11768703617E+03  0.15333645610E+03  0.00000000000E+00 0. -1.
<mgrwt>
<rscale>  0 0.14023847E+03</rscale>
<asrwt>0</asrwt>
<pdfrwt beam="2">  1        2 0.10001400E-01 0.14761603E+03</pdfrwt>
<pdfrwt beam="1">  1       -2 0.44220264E-01 0.14761603E+03</pdfrwt>
<totfact> 0.30289795E+03</totfact>
</mgrwt>
</event>
<event>
 7    1  0.6419647E-006  0.1520666E+03  0.7546771E-02  0.1206480E+00
         -2   -1    0    0    0  501 -0.00000000000E+00  0.00000000000E+00  0.62123392292E+02  0.62123392292E+02  0.00000000000E+00 0.  1.
          2   -1    0    0  501    0  0.00000000000E+00 -0.00000000000E+00 -0.31722727493E+03  0.31722727493E+03  0.00000000000E+00 0. -1.
         23    2    1    2    0    0  0.61437522058E+02  0.61034631997E+02 -0.16291857057E+03  0.22286027230E+03  0.12499777964E+03 0.  0.
          5    1    3    3  502    0  0.84695601537E+02  0.54651095522E+02 -0.60759134995E+02  0.11778730682E+03  0.47000000000E+01 0.  1.
         -5    1    3    3    0  502 -0.23258079479E+02  0.63835364744E+01 -0.10215943557E+03  0.10507296548E+03  0.47000000000E+01 0.  1.
        -11    1    1    2    0    0 -0.48310810500E+02 -0.70910724659E+02 -0.10504067509E+03  0.13563114947E+03  0.00000000000E+00 0. -1.
         11    1    1    2    0    0 -0.13126711558E+02  0.98760926626E+01  0.12855363018E+02  0.20859245455E+02  0.00000000000E+00 0.  1.
<mgrwt>
<rscale>  0 0.14521455E+03</rscale>
<asrwt>0</asrwt>
<pdfrwt beam="2">  1        2 0.48804196E-01 0.15206657E+03</pdfrwt>
<pdfrwt beam="1">  1       -2 0.95574449E-02 0.15206657E+03</pdfrwt>
<totfact> 0.70462646E+03</totfact>
</mgrwt>
</event>
<event>
 7    1  0.6419647E-006  0.1780196E+03  0.7546771E-02  0.1175727E+00
         -1   -1    0    0    0  501 -0.00000000000E+00  0.00000000000E+00  0.32181415754E+02  0.32181415754E+02  0.00000000000E+00 0.  1.
          1   -1    0    0  501    0  0.00000000000E+00 -0.00000000000E+00 -0.86459598241E+03  0.86459598241E+03  0.00000000000E+00 0. -1.
         23    2    1    2    0    0 -0.43428908286E+02 -0.11910606900E+03 -0.46272866652E+03  0.49579108110E+03  0.12497460356E+03 0.  0.
          5    1    3    3  502    0 -0.88328036782E+01  0.44043001408E+01  0.40726102088E+01  0.11665866211E+02  0.47000000000E+01 0.  1.
         -5    1    3    3    0  502 -0.34596104607E+02 -0.12351036914E+03 -0.46680127672E+03  0.48412521489E+03  0.47000000000E+01 0.  1.
        -11    1    1    2    0    0 -0.23442022912E+02  0.72653324311E+01 -0.48003308763E+02  0.53913181559E+02  0.00000000000E+00 0. -1.
         11    1    1    2    0    0  0.66870931198E+02  0.11184073657E+03 -0.32168259138E+03  0.34707313551E+03  0.00000000000E+00 0.  1.
<mgrwt>
<rscale>  0 0.17204947E+03</rscale>
<asrwt>0</asrwt>
<pdfrwt beam="2">  1        1 0.13301479E+00 0.17801960E+03</pdfrwt>
<pdfrwt beam="1">  1       -1 0.49509863E-02 0.17801960E+03</pdfrwt>
<totfact> 0.35951782E+03</totfact>
</mgrwt>
</event>
<event>
 7    1  0.6419647E-006  0.1770548E+03  0.7546771E-02  0.1171456E+00
          2   -1    0    0  501    0  0.00000000000E+00  0.00000000000E+00  0.10957733577E+03  0.10957733577E+03  0.00000000000E+00 0.  1.
         -2   -1    0    0    0  501 -0.00000000000E+00 -0.00000000000E+00 -0.37595337513E+03  0.37595337513E+03  0.00000000000E+00 0. -1.
         23    2    1    2    0    0  0.10110389506E+03 -0.74171539115E+02 -0.12134513121E+02  0.17747014784E+03  0.12499996862E+03 0.  0.
          5    1    3    3  502    0  0.56359828705E+02 -0.17686696069E+02  0.53538600100E+02  0.79860636174E+02  0.47000000000E+01 0.  1.
         -5    1    3    3    0  502  0.44744066355E+02 -0.56484843046E+02 -0.65673113220E+02  0.97609511667E+02  0.47000000000E+01 0.  1.
        -11    1    1    2    0    0 -0.77515624149E+02  0.32937099181E+02 -0.49099210835E+02  0.97489778922E+02  0.00000000000E+00 0.  1.
         11    1    1    2    0    0 -0.23588270911E+02  0.41234439934E+02 -0.20514231540E+03  0.21057078413E+03  0.00000000000E+00 0. -1.
<mgrwt>
<rscale>  0 0.17627633E+03</rscale>
<asrwt>0</asrwt>
<pdfrwt beam="1">  1        2 0.16858052E-01 0.17705481E+03</pdfrwt>
<pdfrwt beam="2">  1       -2 0.57838980E-01 0.17705481E+03</pdfrwt>
<totfact> 0.95791794E+02</totfact>
</mgrwt>
</event>
<event>
 7    1  0.6419647E-006  0.2923582E+03  0.7546771E-02  0.1089124E+00
         -2   -1    0    0    0  501 -0.00000000000E+00  0.00000000000E+00  0.43426793568E+02  0.43426793568E+02  0.00000000000E+00 0.  1.
          2   -1    0    0  501    0  0.00000000000E+00 -0.00000000000E+00 -0.49205415359E+03  0.49205415359E+03  0.00000000000E+00 0. -1.
         23    2    1    2    0    0  0.29116529949E+01 -0.33502370805E+01 -0.34814332370E+03  0.36992960805E+03  0.12499775703E+03 0.  0.
          5    1    3    3  502    0 -0.18930563745E+02 -0.51767198638E+02 -0.84849053851E+02  0.10128998488E+03  0.47000000000E+01 0.  1.
         -5    1    3    3    0  502  0.21842216740E+02  0.48416961557E+02 -0.26329426985E+03  0.26863962316E+03  0.47000000000E+01 0.  1.
        -11    1    1    2    0    0  0.25018364241E+02  0.57522128048E+02 -0.22644572941E+02  0.66689507781E+02  0.00000000000E+00 0.  1.
         11    1    1    2    0    0 -0.27930017236E+02 -0.54171890967E+02 -0.77839463378E+02  0.98861831324E+02  0.00000000000E+00 0. -1.
<mgrwt>
<rscale>  0 0.29235823E+03</rscale>
<asrwt>0</asrwt>
<pdfrwt beam="2">  1        2 0.75700641E-01 0.29235823E+03</pdfrwt>
<pdfrwt beam="1">  1       -2 0.66810450E-02 0.29235823E+03</pdfrwt>
<totfact> 0.79215155E+03</totfact>
</mgrwt>
</event>
<event>
 7    1  0.6419647E-006  0.2329600E+03  0.7546771E-02  0.1128355E+00
          4   -1    0    0  501    0  0.00000000000E+00  0.00000000000E+00  0.17768448420E+03  0.17768448420E+03  0.00000000000E+00 0. -1.
         -4   -1    0    0    0  501 -0.00000000000E+00 -0.00000000000E+00 -0.27878373343E+03  0.27878373343E+03  0.00000000000E+00 0.  1.
         23    2    1    2    0    0 -0.18120242302E+03 -0.76158861512E+02 -0.53361043859E+02  0.23899326317E+03  0.12504354659E+03 0.  0.
          5    1    3    3  502    0  0.10962712045E+02  0.15849262969E+02 -0.53274512262E+01  0.20539034266E+02  0.47000000000E+01 0.  1.
         -5    1    3    3    0  502 -0.19216513507E+03 -0.92008124480E+02 -0.48033592633E+02  0.21845422891E+03  0.47000000000E+01 0.  1.
        -11    1    1    2    0    0  0.72263508872E+02  0.39994492327E+02  0.18929251527E+02  0.84734235669E+02  0.00000000000E+00 0.  1.
         11    1    1    2    0    0  0.10893891415E+03  0.36164369185E+02 -0.66667456906E+02  0.13274071879E+03  0.00000000000E+00 0. -1.
<mgrwt>
<rscale>  0 0.22757913E+03</rscale>
<asrwt>0</asrwt>
<pdfrwt beam="1">  1        4 0.27336074E-01 0.23296004E+03</pdfrwt>
<pdfrwt beam="2">  1       -4 0.42889805E-01 0.23296004E+03</pdfrwt>
<totfact> 0.12173596E+02</totfact>
</mgrwt>
</event>
<event>
 7    1  0.6419647E-006  0.1367533E+03  0.7546771E-02  0.1229617E+00
         -2   -1    0    0    0  501 -0.00000000000E+00  0.00000000000E+00  0.14905587590E+02  0.14905587590E+02  0.00000000000E+00 0.  1.
          2   -1    0    0  501    0  0.00000000000E+00 -0.00000000000E+00 -0.10205015026E+04  0.10205015026E+04  0.00000000000E+00 0. -1.
         23    2    1    2    0    0  0.35462538047E+02  0.42655285786E+02 -0.64461471946E+03  0.65896099215E+03  0.12499755044E+03 0.  0.
          5    1    3    3  502    0  0.53175495836E+02  0.42987253359E+02 -0.63417397487E+03  0.63786695925E+03  0.47000000000E+01 0. -1.
         -5    1    3    3    0  502 -0.17712957788E+02 -0.33196757367E+00 -0.10440744596E+02  0.21094032896E+02  0.47000000000E+01 0. -1.
        -11    1    1    2    0    0  0.28804457025E+02 -0.15708774718E+02 -0.17025204866E+03  0.17338460837E+03  0.00000000000E+00 0.  1.
         11    1    1    2    0    0 -0.64266995073E+02 -0.26946511068E+02 -0.19072914691E+03  0.20306148969E+03  0.00000000000E+00 0. -1.
<mgrwt>
<rscale>  0 0.12855428E+03</rscale>
<asrwt>0</asrwt>
<pdfrwt beam="2">  1        2 0.15700026E+00 0.13675325E+03</pdfrwt>
<pdfrwt beam="1">  1       -2 0.22931669E-02 0.13675325E+03</pdfrwt>
<totfact> 0.15440891E+04</totfact>
</mgrwt>
</event>
<event>
 7    1  0.6419647E-006  0.1334691E+03  0.7546771E-02  0.1235813E+00
         -1   -1    0    0    0  501 -0.00000000000E+00  0.00000000000E+00  0.13479121905E+02  0.13479121905E+02  0.00000000000E+00 0.  1.
          1   -1    0    0  501    0  0.00000000000E+00 -0.00000000000E+00 -0.11906863213E+04  0.11906863213E+04  0.00000000000E+00 0. -1.
         23    2    1    2    0    0 -0.33963962279E+02 -0.32186679901E+02 -0.88372611711E+03  0.89374819780E+03  0.12499783165E+03 0.  0.
          5    1    3    3  502    0  0.23916945362E+02  0.78800629928E+01 -0.62645480985E+03  0.62697833651E+03  0.47000000000E+01 0.  1.
         -5    1    3    3    0  502 -0.57880907641E+02 -0.40066742894E+02 -0.25727130726E+03  0.26676986130E+03  0.47000000000E+01 0.  1.
        -11    1    1    2    0    0 -0.29601773882E+02  0.11669411941E+00 -0.75119425883E+02  0.80741605009E+02  0.00000000000E+00 0.  1.
         11    1    1    2    0    0  0.63565736161E+02  0.32069985782E+02 -0.21836165635E+03  0.22967564034E+03  0.00000000000E+00 0. -1.
<mgrwt>
<rscale>  0 0.12452536E+03</rscale>
<asrwt>0</asrwt>
<pdfrwt beam="2">  1        1 0.18318258E+00 0.13346906E+03</pdfrwt>
<pdfrwt beam="1">  1       -1 0.20737103E-02 0.13346906E+03</pdfrwt>
<totfact> 0.73474678E+03</totfact>
</mgrwt>
</event>
<event>
 7    1  0.6419647E-006  0.1438177E+03  0.7546771E-02  0.1218954E+00
         -4   -1    0    0    0  501 -0.00000000000E+00  0.00000000000E+00  0.34499160160E+02  0.34499160160E+02  0.00000000000E+00 0.  1.
          4   -1    0    0  501    0  0.00000000000E+00 -0.00000000000E+00 -0.48699516535E+03  0.48699516535E+03  0.00000000000E+00 0. -1.
         23    2    1    2    0    0  0.68181438499E+02  0.20244789612E+02 -0.23191484141E+03  0.27288830148E+03  0.12499988543E+03 0.  0.
          5    1    3    3  502    0  0.58133889969E+01  0.64618719256E+02 -0.83659332137E+02  0.10597333732E+03  0.47000000000E+01 0. -1.
         -5    1    3    3    0  502  0.62368049503E+02 -0.44373929644E+02 -0.14825550927E+03  0.16691496416E+03  0.47000000000E+01 0. -1.
        -11    1    1    2    0    0 -0.14654263689E+02 -0.17772701044E+02 -0.15185894662E+01  0.23085113399E+02  0.00000000000E+00 0.  1.
         11    1    1    2    0    0 -0.53527174810E+02 -0.24720885683E+01 -0.21906257432E+03  0.22552091063E+03  0.00000000000E+00 0. -1.
<mgrwt>
<rscale>  0 0.13590031E+03</rscale>
<asrwt>0</asrwt>
<pdfrwt beam="2">  1        4 0.74922330E-01 0.14381770E+03</pdfrwt>
<pdfrwt beam="1">  1       -4 0.53075633E-02 0.14381770E+03</pdfrwt>
<totfact> 0.59775425E+02</totfact>
</mgrwt>
</event>
<event>
 7    1  0.6419647E-006  0.1248189E+03  0.7546771E-02  0.1245829E+00
          2   -1    0    0  501    0  0.00000000000E+00  0.00000000000E+00  0.10765066912E+03  0.10765066912E+03  0.00000000000E+00 0. -1.
         -2   -1    0    0    0  501 -0.00000000000E+00 -0.00000000000E+00 -0.12294939990E+03  0.12294939990E+03  0.00000000000E+00 0.  1.
         23    2    1    2    0    0 -0.42622410379E+02 -0.10296637472E+02  0.13779948275E+02  0.12557729049E+03  0.11686350287E+03 0.  0.
          5    1    3    3  502    0  0.40619890767E+02 -0.42246189574E+01  0.70772907796E+01  0.41713318929E+02  0.47000000000E+01 0. -1.
         -5    1    3    3    0  502 -0.83242301146E+02 -0.60720185150E+01  0.67026574958E+01  0.83863971564E+02  0.47000000000E+01 0.  1.
        -11    1    1    2    0    0  0.22220075719E+02  0.44513477984E+02 -0.39862701505E+02  0.63751207507E+02  0.00000000000E+00 0. -1.
         11    1    1    2    0    0  0.20402334660E+02 -0.34216840512E+02  0.10784022445E+02  0.41271571018E+02  0.00000000000E+00 0.  1.
<mgrwt>
<rscale>  0 0.11835901E+03</rscale>
<asrwt>0</asrwt>
<pdfrwt beam="1">  1        2 0.16561641E-01 0.12481894E+03</pdfrwt>
<pdfrwt beam="2">  1       -2 0.18915292E-01 0.12481894E+03</pdfrwt>
<totfact> 0.75248865E+03</totfact>
</mgrwt>
</event>
<event>
 6    1  0.6419647E-006  0.4170361E+03  0.7546771E-02  0.1067906E+00
         -1   -1    0    0    0  501 -0.00000000000E+00  0.00000000000E+00  0.49527372381E+03  0.49527372381E+03  0.00000000000E+00 0.  1.
          1   -1    0    0  501    0  0.00000000000E+00 -0.00000000000E+00 -0.50029385022E+03  0.50029385022E+03  0.00000000000E+00 0. -1.
          5    1    1    2  502    0  0.22480001504E+03 -0.89427022805E+02 -0.32255992455E+03  0.40323595338E+03  0.47000000000E+01 0. -1.
         -5    1    1    2    0  502 -0.14755233187E+03 -0.42495656841E+02 -0.67540579204E+02  0.16781356122E+03  0.47000000000E+01 0.  1.
        -11    1    1    2    0    0 -0.93420693318E+01  0.51445167288E+02  0.46606105989E+02  0.70042905509E+02  0.00000000000E+00 0. -1.
         11    1    1    2    0    0 -0.67905613841E+02  0.80477512358E+02  0.33847427135E+03  0.35447515393E+03  0.00000000000E+00 0.  1.
<mgrwt>
<rscale>  0 0.33740608E+03</rscale>
<asrwt>0</asrwt>
<pdfrwt beam="2">  1        1 0.76968285E-01 0.41703614E+03</pdfrwt>
<pdfrwt beam="1">  1       -1 0.76195957E-01 0.41703614E+03</pdfrwt>
<totfact> 0.80587922E+01</totfact>
</mgrwt>
</event>
<event>
 7    1  0.6419647E-006  0.1274069E+03  0.7546771E-02  0.1255393E+00
         -4   -1    0    0    0  501 -0.00000000000E+00  0.00000000000E+00  0.28598141251E+02  0.28598141251E+02  0.00000000000E+00 0.  1.
          4   -1    0    0  501    0  0.00000000000E+00 -0.00000000000E+00 -0.39201728551E+03  0.39201728551E+03  0.00000000000E+00 0. -1.
         23    2    1    2    0    0 -0.56245711969E+01  0.24001817961E+02 -0.27075407547E+03  0.29923284236E+03  0.12499920599E+03 0.  0.
          5    1    3    3  502    0 -0.22832117365E+02 -0.44783451195E+02 -0.15878371062E+03  0.16661698545E+03  0.47000000000E+01 0. -1.
         -5    1    3    3    0  502  0.17207546168E+02  0.68785269156E+02 -0.11197036485E+03  0.13261585691E+03  0.47000000000E+01 0. -1.
        -11    1    1    2    0    0 -0.86029675043E+01 -0.21892677130E+02 -0.10170825774E+03  0.10439286400E+03  0.00000000000E+00 0. -1.
         11    1    1    2    0    0  0.14227538701E+02 -0.21091408309E+01  0.90431889571E+01  0.16989720394E+02  0.00000000000E+00 0.  1.
<mgrwt>
<rscale>  0 0.11284360E+03</rscale>
<asrwt>0</asrwt>
<pdfrwt beam="2">  1        4 0.60310345E-01 0.12740693E+03</pdfrwt>
<pdfrwt beam="1">  1       -4 0.43997145E-02 0.12740693E+03</pdfrwt>
<totfact> 0.12538890E+03</totfact>
</mgrwt>
</event>
<event>
 7    1  0.6419647E-006  0.1711390E+03  0.7546771E-02  0.1183099E+00
         -2   -1    0    0    0  501 -0.00000000000E+00  0.00000000000E+00  0.41998183621E+03  0.41998183621E+03  0.00000000000E+00 0.  1.
          2   -1    0    0  501    0  0.00000000000E+00 -0.00000000000E+00 -0.60679604101E+02  0.60679604101E+02  0.00000000000E+00 0. -1.
         23    2    1    2    0    0 -0.11497779826E+03 -0.21041719583E+02  0.18850603999E+03  0.25460376915E+03  0.12500361634E+03 0.  0.
          5    1    3    3  502    0 -0.11284803828E+03  0.19514979063E+02  0.17912466940E+03  0.21265759177E+03  0.47000000000E+01 0.  1.
         -5    1    3    3    0  502 -0.21297599826E+01 -0.40556698646E+02  0.93813705894E+01  0.41946177379E+02  0.47000000000E+01 0.  1.
        -11    1    1    2    0    0  0.10698481032E+03  0.79773953683E+01  0.17899703424E+03  0.20868475446E+03  0.00000000000E+00 0.  1.
         11    1    1    2    0    0  0.79929879417E+01  0.13064324214E+02 -0.82008421144E+01  0.17372916704E+02  0.00000000000E+00 0. -1.
<mgrwt>
<rscale>  0 0.16506057E+03</rscale>
<asrwt>0</asrwt>
<pdfrwt beam="2">  1        2 0.93353240E-02 0.17113898E+03</pdfrwt>
<pdfrwt beam="1">  1       -2 0.64612588E-01 0.17113898E+03</pdfrwt>
<totfact> 0.15496515E+03</totfact>
</mgrwt>
</event>
<event>
 7    1  0.6419647E-006  0.1541271E+03  0.7546771E-02  0.1204181E+00
          2   -1    0    0  501    0  0.00000000000E+00  0.00000000000E+00  0.19113434049E+03  0.19113434049E+03  0.00000000000E+00 0. -1.
         -2   -1    0    0    0  501 -0.00000000000E+00 -0.00000000000E+00 -0.12387422426E+03  0.12387422426E+03  0.00000000000E+00 0.  1.
         23    2    1    2    0    0 -0.40760967783E+02  0.80435839506E+02  0.99415862823E+02  0.18340851920E+03  0.12499516136E+03 0.  0.
          5    1    3    3  502    0  0.10924315988E+02  0.37161489746E+02  0.10843019972E+03  0.11523677890E+03  0.47000000000E+01 0.  1.
         -5    1    3    3    0  502 -0.51685283771E+02  0.43274349760E+02 -0.90143368986E+01  0.68171740299E+02  0.47000000000E+01 0.  1.
        -11    1    1    2    0    0 -0.20895109721E+02 -0.50117851880E+02 -0.31732732522E+02  0.62891740321E+02  0.00000000000E+00 0. -1.
         11    1    1    2    0    0  0.61656077504E+02 -0.30317987626E+02 -0.42301407593E+00  0.68708305232E+02  0.00000000000E+00 0.  1.
<mgrwt>
<rscale>  0 0.14702168E+03</rscale>
<asrwt>0</asrwt>
<pdfrwt beam="1">  1        2 0.29405283E-01 0.15412713E+03</pdfrwt>
<pdfrwt beam="2">  1       -2 0.19057573E-01 0.15412713E+03</pdfrwt>
<totfact> 0.39612191E+03</totfact>
</mgrwt>
</event>
<event>
 7    1  0.6419647E-006  0.4164126E+03  0.7546771E-02  0.1038666E+00
         -1   -1    0    0    0  501 -0.00000000000E+00  0.00000000000E+00  0.65086510248E+03  0.65086510248E+03  0.00000000000E+00 0.  1.
          1   -1    0    0  501    0  0.00000000000E+00 -0.00000000000E+00 -0.26345336224E+03  0.26345336224E+03  0.00000000000E+00 0. -1.
         23    2    1    2    0    0  0.39697503335E+03  0.55861131894E+02  0.21077652729E+03  0.46671858681E+03  0.11264924172E+03 0.  0.
          5    1    3    3  502    0  0.10639611543E+02 -0.18863431516E+02  0.17804488639E+02  0.28427455004E+02  0.47000000000E+01 0. -1.
         -5    1    3    3    0  502  0.38633542180E+03  0.74724563410E+02  0.19297203865E+03  0.43829113181E+03  0.47000000000E+01 0.  1.
        -11    1    1    2    0    0 -0.23763546268E+02 -0.88751379027E+01  0.40059611243E+02  0.47415679442E+02  0.00000000000E+00 0.  1.
         11    1    1    2    0    0 -0.37321148708E+03 -0.46985993991E+02  0.13657560170E+03  0.40018419846E+03  0.00000000000E+00 0. -1.
<mgrwt>
<rscale>  0 0.41512180E+03</rscale>
<asrwt>0</asrwt>
<pdfrwt beam="2">  1        1 0.40531287E-01 0.41641265E+03</pdfrwt>
<pdfrwt beam="1">  1       -1 0.10013309E+00 0.41641265E+03</pdfrwt>
<totfact> 0.10292135E+02</totfact>
</mgrwt>
</event>
<event>
 7    1  0.6419647E-006  0.1264388E+03  0.7546771E-02  0.1247036E+00
          2   -1    0    0  501    0  0.00000000000E+00  0.00000000000E+00  0.69263113808E+03  0.69263113808E+03  0.00000000000E+00 0. -1.
         -2   -1    0    0    0  501 -0.00000000000E+00 -0.00000000000E+00 -0.17696692489E+02  0.17696692489E+02  0.00000000000E+00 0.  1.
         23    2    1    2    0    0 -0.18975188471E+02  0.90415575233E+00  0.40154434525E+03  0.42098056037E+03  0.12500358288E+03 0.  0.
          5    1    3    3  502    0 -0.51331780970E+01  0.29369652336E+02  0.16096911661E+02  0.34207112721E+02  0.47000000000E+01 0.  1.
         -5    1    3    3    0  502 -0.13842010374E+02 -0.28465496584E+02  0.38544743359E+03  0.38677344765E+03  0.47000000000E+01 0.  1.
        -11    1    1    2    0    0 -0.24583943644E+02  0.28326188344E+02  0.71341690471E+02  0.80600124258E+02  0.00000000000E+00 0. -1.
         11    1    1    2    0    0  0.43559132115E+02 -0.29230344096E+02  0.20204840987E+03  0.20874714594E+03  0.00000000000E+00 0.  1.
<mgrwt>
<rscale>  0 0.11764351E+03</rscale>
<asrwt>0</asrwt>
<pdfrwt beam="1">  1        2 0.10655862E+00 0.12643880E+03</pdfrwt>
<pdfrwt beam="2">  1       -2 0.27225686E-02 0.12643880E+03</pdfrwt>
<totfact> 0.19568650E+04</totfact>
</mgrwt>
</event>
<event>
 7    1  0.6419647E-006  0.1267505E+03  0.7546771E-02  0.1246268E+00
          1   -1    0    0  501    0  0.00000000000E+00  0.00000000000E+00  0.11212958333E+04  0.11212958333E+04  0.00000000000E+00 0. -1.
         -1   -1    0    0    0  501 -0.00000000000E+00 -0.00000000000E+00 -0.11400568638E+02  0.11400568638E+02  0.00000000000E+00 0.  1.
         23    2    1    2    0    0 -0.15710487823E+02 -0.13867129453E+02  0.73333660751E+03  0.74420982670E+03  0.12500627800E+03 0.  0.
          5    1    3    3  502    0  0.36169229353E+02  0.88655072845E+01  0.57060618148E+03  0.57183941339E+03  0.47000000000E+01 0. -1.
         -5    1    3    3    0  502 -0.51879717176E+02 -0.22732636737E+02  0.16273042604E+03  0.17237041331E+03  0.47000000000E+01 0. -1.
        -11    1    1    2    0    0 -0.10527728957E+02  0.46341959011E+02  0.12990991795E+03  0.13832930646E+03  0.00000000000E+00 0. -1.
         11    1    1    2    0    0  0.26238216780E+02 -0.32474829559E+02  0.24664873924E+03  0.25015726882E+03  0.00000000000E+00 0.  1.
<mgrwt>
<rscale>  0 0.11809831E+03</rscale>
<asrwt>0</asrwt>
<pdfrwt beam="1">  1        1 0.17250696E+00 0.12675049E+03</pdfrwt>
<pdfrwt beam="2">  1       -1 0.17539345E-02 0.12675049E+03</pdfrwt>
<totfact> 0.10414539E+04</totfact>
</mgrwt>
</event>
<event>
 7    1  0.6419647E-006  0.1678055E+03  0.7546771E-02  0.1186968E+00
          2   -1    0    0  501    0  0.00000000000E+00  0.00000000000E+00  0.11359455427E+04  0.11359455427E+04  0.00000000000E+00 0. -1.
         -2   -1    0    0    0  501 -0.00000000000E+00 -0.00000000000E+00 -0.34545610057E+02  0.34545610057E+02  0.00000000000E+00 0.  1.
         23    2    1    2    0    0 -0.59726533066E+02  0.94688853225E+02  0.93682579279E+03  0.95173591365E+03  0.12500178242E+03 0.  0.
          5    1    3    3  502    0 -0.44194883611E+02 -0.13172006968E+02  0.47261019426E+03  0.47487806353E+03  0.47000000000E+01 0. -1.
         -5    1    3    3    0  502 -0.15531649455E+02  0.10786086019E+03  0.46421559853E+03  0.47685785011E+03  0.47000000000E+01 0. -1.
        -11    1    1    2    0    0  0.57207712590E+02 -0.91792256985E+01  0.76612237977E+02  0.96054232452E+02  0.00000000000E+00 0. -1.
         11    1    1    2    0    0  0.25188204760E+01 -0.85509627526E+02  0.87961901912E+02  0.12270100670E+03  0.00000000000E+00 0.  1.
<mgrwt>
<rscale>  0 0.16154076E+03</rscale>
<asrwt>0</asrwt>
<pdfrwt beam="1">  1        2 0.17476082E+00 0.16780549E+03</pdfrwt>
<pdfrwt beam="2">  1       -2 0.53147101E-02 0.16780549E+03</pdfrwt>
<totfact> 0.38384248E+03</totfact>
</mgrwt>
</event>
<event>
 7    1  0.6419647E-006  0.1597862E+03  0.7546771E-02  0.1197123E+00
         -1   -1    0    0    0  501 -0.00000000000E+00  0.00000000000E+00  0.39965674884E+02  0.39965674884E+02  0.00000000000E+00 0.  1.
          1   -1    0    0  501    0  0.00000000000E+00 -0.00000000000E+00 -0.55304552543E+03  0.55304552543E+03  0.00000000000E+00 0. -1.
         23    2    1    2    0    0 -0.78640724163E+02  0.61008790098E+02 -0.32765991111E+03  0.36454444913E+03  0.12500080828E+03 0.  0.
          5    1    3    3  502    0 -0.56573214630E+02  0.45118454598E+02 -0.56350192470E+02  0.91834839523E+02  0.47000000000E+01 0. -1.
         -5    1    3    3    0  502 -0.22067509533E+02  0.15890335500E+02 -0.27130971864E+03  0.27270960960E+03  0.47000000000E+01 0. -1.
        -11    1    1    2    0    0 -0.64741853824E+01 -0.42424539974E+02 -0.38476625280E+02  0.57638592638E+02  0.00000000000E+00 0.  1.
         11    1    1    2    0    0  0.85114909545E+02 -0.18584250125E+02 -0.14694331416E+03  0.17082815855E+03  0.00000000000E+00 0. -1.
<mgrwt>
<rscale>  0 0.15275918E+03</rscale>
<asrwt>0</asrwt>
<pdfrwt beam="2">  1        1 0.85083932E-01 0.15978623E+03</pdfrwt>
<pdfrwt beam="1">  1       -1 0.61485650E-02 0.15978623E+03</pdfrwt>
<totfact> 0.49369149E+03</totfact>
</mgrwt>
</event>
<event>
 7    1  0.6419647E-006  0.1395978E+03  0.7546771E-02  0.1225263E+00
         -2   -1    0    0    0  501 -0.00000000000E+00  0.00000000000E+00  0.56743733983E+02  0.56743733983E+02  0.00000000000E+00 0.  1.
          2   -1    0    0  501    0  0.00000000000E+00 -0.00000000000E+00 -0.27591732027E+03  0.27591732027E+03  0.00000000000E+00 0. -1.
         23    2    1    2    0    0 -0.25358589502E+02  0.56742902843E+02 -0.13554557852E+03  0.19457681851E+03  0.12499887743E+03 0.  0.
          5    1    3    3  502    0 -0.31293292691E+02  0.94895541845E+02 -0.10586179844E+03  0.14564767214E+03  0.47000000000E+01 0. -1.
         -5    1    3    3    0  502  0.59347031892E+01 -0.38152639001E+02 -0.29683780084E+02  0.48929146373E+02  0.47000000000E+01 0. -1.
        -11    1    1    2    0    0  0.34161205174E+02 -0.47210892002E+02 -0.10087766557E+03  0.11649961234E+03  0.00000000000E+00 0. -1.
         11    1    1    2    0    0 -0.88026156723E+01 -0.95320108419E+01  0.17249657809E+02  0.21584623413E+02  0.00000000000E+00 0.  1.
<mgrwt>
<rscale>  0 0.13148872E+03</rscale>
<asrwt>0</asrwt>
<pdfrwt beam="2">  1        2 0.42448819E-01 0.13959776E+03</pdfrwt>
<pdfrwt beam="1">  1       -2 0.87298051E-02 0.13959776E+03</pdfrwt>
<totfact> 0.93596554E+03</totfact>
</mgrwt>
</event>
<event>
 7    1  0.6419647E-006  0.1376947E+03  0.7546771E-02  0.1227536E+00
         -3   -1    0    0    0  501 -0.00000000000E+00  0.00000000000E+00  0.17824675822E+03  0.17824675822E+03  0.00000000000E+00 0.  1.
          3   -1    0    0  501    0  0.00000000000E+00 -0.00000000000E+00 -0.91291609064E+02  0.91291609064E+02  0.00000000000E+00 0. -1.
         23    2    1    2    0    0  0.56527838840E+02  0.11847595399E+02  0.14467254729E+02  0.13845261361E+03  0.12499625064E+03 0.  0.
          5    1    3    3  502    0  0.81998928833E+02  0.24224684129E+02  0.44839650095E+02  0.96660973881E+02  0.47000000000E+01 0.  1.
         -5    1    3    3    0  502 -0.25471089993E+02 -0.12377088730E+02 -0.30372395366E+02  0.41791639728E+02  0.47000000000E+01 0.  1.
        -11    1    1    2    0    0 -0.75267081668E+02 -0.83073530044E+01  0.80393633151E+02  0.11044130544E+03  0.00000000000E+00 0.  1.
         11    1    1    2    0    0  0.18739242828E+02 -0.35402423947E+01 -0.79057387245E+01  0.20644448231E+02  0.00000000000E+00 0. -1.
<mgrwt>
<rscale>  0 0.12994611E+03</rscale>
<asrwt>0</asrwt>
<pdfrwt beam="2">  1        3 0.14044863E-01 0.13769468E+03</pdfrwt>
<pdfrwt beam="1">  1       -3 0.27422578E-01 0.13769468E+03</pdfrwt>
<totfact> 0.12162685E+03</totfact>
</mgrwt>
</event>
<event>
 7    1  0.6419647E-006  0.1534843E+03  0.7546771E-02  0.1204963E+00
          1   -1    0    0  501    0  0.00000000000E+00  0.00000000000E+00  0.11014780211E+03  0.11014780211E+03  0.00000000000E+00 0. -1.
         -1   -1    0    0    0  501 -0.00000000000E+00 -0.00000000000E+00 -0.29213433367E+03  0.29213433367E+03  0.00000000000E+00 0.  1.
         23    2    1    2    0    0 -0.88889126351E+02 -0.42195110029E+02  0.28797930277E+02  0.15616261431E+03  0.11779531920E+03 0.  0.
          5    1    3    3  502    0 -0.77798508071E+02 -0.80341178301E+02  0.11311258684E+02  0.11250487706E+03  0.47000000000E+01 0. -1.
         -5    1    3    3    0  502 -0.11090618280E+02  0.38146068272E+02  0.17486671593E+02  0.43657737251E+02  0.47000000000E+01 0.  1.
        -11    1    1    2    0    0  0.50231406235E+02  0.42330672531E+02 -0.19241523832E+03  0.20331921687E+03  0.00000000000E+00 0.  1.
         11    1    1    2    0    0  0.38657720116E+02 -0.13556250209E+00 -0.18369223506E+02  0.42800304601E+02  0.00000000000E+00 0. -1.
<mgrwt>
<rscale>  0 0.14640365E+03</rscale>
<asrwt>0</asrwt>
<pdfrwt beam="1">  1        1 0.16945816E-01 0.15348434E+03</pdfrwt>
<pdfrwt beam="2">  1       -1 0.44943743E-01 0.15348434E+03</pdfrwt>
<totfact> 0.15593079E+03</totfact>
</mgrwt>
</event>
<event>
 7    1  0.6419647E-006  0.1723025E+03  0.7546771E-02  0.1181864E+00
         -2   -1    0    0    0  501 -0.00000000000E+00  0.00000000000E+00  0.44560509645E+02  0.44560509645E+02  0.00000000000E+00 0.  1.
          2   -1    0    0  501    0  0.00000000000E+00 -0.00000000000E+00 -0.62791670558E+03  0.62791670558E+03  0.00000000000E+00 0. -1.
         23    2    1    2    0    0  0.98138400411E+02  0.66568489418E+02 -0.40387988860E+03  0.43909807159E+03  0.12500257053E+03 0.  0.
          5    1    3    3  502    0  0.11623132357E+03  0.67757571260E+02 -0.39689911940E+03  0.41910835117E+03  0.47000000000E+01 0. -1.
         -5    1    3    3    0  502 -0.18092923155E+02 -0.11890818426E+01 -0.69807692071E+01  0.19989720425E+02  0.47000000000E+01 0. -1.
        -11    1    1    2    0    0  0.90866255337E+01 -0.10999213778E+02  0.29795817944E+01  0.14574888507E+02  0.00000000000E+00 0.  1.
         11    1    1    2    0    0 -0.10722502594E+03 -0.55569275640E+02 -0.18245588912E+03  0.21880425512E+03  0.00000000000E+00 0. -1.
<mgrwt>
<rscale>  0 0.16620531E+03</rscale>
<asrwt>0</asrwt>
<pdfrwt beam="2">  1        2 0.96602568E-01 0.17230250E+03</pdfrwt>
<pdfrwt beam="1">  1       -2 0.68554631E-02 0.17230250E+03</pdfrwt>
<totfact> 0.56232874E+03</totfact>
</mgrwt>
</event>
<event>
 6    1  0.6419647E-006  0.1407689E+03  0.7546771E-02  0.1231507E+00
         -1   -1    0    0    0  501 -0.00000000000E+00  0.00000000000E+00  0.35700746796E+03  0.35700746796E+03  0.00000000000E+00 0.  1.
          1   -1    0    0  501    0  0.00000000000E+00 -0.00000000000E+00 -0.18511891707E+04  0.18511891707E+04  0.00000000000E+00 0. -1.
          5    1    1    2  502    0  0.63388981197E+02  0.44792632066E+02 -0.80384666064E+03  0.80759896399E+03  0.47000000000E+01 0. -1.
         -5    1    1    2    0  502 -0.53776240178E+02 -0.21190031840E+02 -0.10384009459E+04  0.10400189978E+04  0.47000000000E+01 0.  1.
        -11    1    1    2    0    0 -0.68756616776E+01  0.34490650816E+02  0.15520233620E+03  0.15913718886E+03  0.00000000000E+00 0. -1.
         11    1    1    2    0    0 -0.27370793413E+01 -0.58093251042E+02  0.19286356752E+03  0.20144148802E+03  0.00000000000E+00 0.  1.
<mgrwt>
<rscale>  0 0.12730716E+03</rscale>
<asrwt>0</asrwt>
<pdfrwt beam="2">  1        1 0.28479833E+00 0.14076892E+03</pdfrwt>
<pdfrwt beam="1">  1       -1 0.54924226E-01 0.14076892E+03</pdfrwt>
<totfact> 0.15956581E+01</totfact>
</mgrwt>
</event>
<event>
 7    1  0.6419647E-006  0.1402360E+03  0.7546771E-02  0.1225045E+00
         -2   -1    0    0    0  501 -0.00000000000E+00  0.00000000000E+00  0.31485710015E+02  0.31485710015E+02  0.00000000000E+00 0.  1.
          2   -1    0    0  501    0  0.00000000000E+00 -0.00000000000E+00 -0.78402284783E+03  0.78402284783E+03  0.00000000000E+00 0. -1.
         23    2    1    2    0    0 -0.43510543279E+02  0.46346650312E+02 -0.65332319614E+03  0.66820455230E+03  0.12499978294E+03 0.  0.
          5    1    3    3  502    0 -0.58569741599E+01  0.83685848422E+02 -0.46366285263E+03  0.47121434218E+03  0.47000000000E+01 0. -1.
         -5    1    3    3    0  502 -0.37653569119E+02 -0.37339198110E+02 -0.18966034351E+03  0.19699021012E+03  0.47000000000E+01 0. -1.
        -11    1    1    2    0    0  0.16954047785E+02  0.40159691869E+00 -0.91417180762E+02  0.92976889359E+02  0.00000000000E+00 0. -1.
         11    1    1    2    0    0  0.26556495493E+02 -0.46748247230E+02 -0.77967609172E+01  0.54327116183E+02  0.00000000000E+00 0.  1.
<mgrwt>
<rscale>  0 0.13163838E+03</rscale>
<asrwt>0</asrwt>
<pdfrwt beam="2">  1        2 0.12061889E+00 0.14023596E+03</pdfrwt>
<pdfrwt beam="1">  1       -2 0.48439559E-02 0.14023596E+03</pdfrwt>
<totfact> 0.72324846E+03</totfact>
</mgrwt>
</event>
<event>
 7    1  0.6419647E-006  0.1651160E+03  0.7546771E-02  0.1190040E+00
          2   -1    0    0  501    0  0.00000000000E+00  0.00000000000E+00  0.14792569141E+04  0.14792569141E+04  0.00000000000E+00 0.  1.
         -2   -1    0    0    0  501 -0.00000000000E+00 -0.00000000000E+00 -0.16322960977E+02  0.16322960977E+02  0.00000000000E+00 0. -1.
         23    2    1    2    0    0  0.10637573672E+03  0.17984883602E+02  0.91086173114E+03  0.92570642581E+03  0.12499616047E+03 0.  0.
          5    1    3    3  502    0  0.91407401941E+02  0.31894794033E+02  0.31728825735E+03  0.33176274545E+03  0.47000000000E+01 0. -1.
         -5    1    3    3    0  502  0.14968334774E+02 -0.13909910431E+02  0.59357347379E+03  0.59394368036E+03  0.47000000000E+01 0. -1.
        -11    1    1    2    0    0 -0.10562413877E+03 -0.29276036136E+02  0.54626812919E+03  0.55715564607E+03  0.00000000000E+00 0.  1.
         11    1    1    2    0    0 -0.75159794811E+00  0.11291152534E+02  0.58040928020E+01  0.12717803202E+02  0.00000000000E+00 0. -1.
<mgrwt>
<rscale>  0 0.15881612E+03</rscale>
<asrwt>0</asrwt>
<pdfrwt beam="1">  1        2 0.22757788E+00 0.16511600E+03</pdfrwt>
<pdfrwt beam="2">  1       -2 0.25112259E-02 0.16511600E+03</pdfrwt>
<totfact> 0.76161149E+03</totfact>
</mgrwt>
</event>
<event>
 7    1  0.6419647E-006  0.1349768E+03  0.7546771E-02  0.1229748E+00
         -1   -1    0    0    0  501 -0.00000000000E+00  0.00000000000E+00  0.63809350237E+02  0.63809350237E+02  0.00000000000E+00 0.  1.
          1   -1    0    0  501    0  0.00000000000E+00 -0.00000000000E+00 -0.24090289192E+03  0.24090289192E+03  0.00000000000E+00 0. -1.
         23    2    1    2    0    0 -0.43433184282E+02 -0.43503877346E+02 -0.11739346734E+03  0.17888535680E+03  0.12016536881E+03 0.  0.
          5    1    3    3  502    0  0.10057866080E+02 -0.72313595943E+02 -0.53831540300E+02  0.90831390825E+02  0.47000000000E+01 0. -1.
         -5    1    3    3    0  502 -0.53491050361E+02  0.28809718597E+02 -0.63561927040E+02  0.88053965972E+02  0.47000000000E+01 0.  1.
        -11    1    1    2    0    0  0.32262680119E+02  0.16191221859E+02  0.19698180657E+02  0.41122433232E+02  0.00000000000E+00 0.  1.
         11    1    1    2    0    0  0.11170504162E+02  0.27312655487E+02 -0.79398254999E+02  0.84704452126E+02  0.00000000000E+00 0. -1.
<mgrwt>
<rscale>  0 0.12846727E+03</rscale>
<asrwt>0</asrwt>
<pdfrwt beam="2">  1        1 0.37061983E-01 0.13497683E+03</pdfrwt>
<pdfrwt beam="1">  1       -1 0.98168232E-02 0.13497683E+03</pdfrwt>
<totfact> 0.69033234E+03</totfact>
</mgrwt>
</event>
<event>
 7    1  0.6419647E-006  0.2201065E+03  0.7546771E-02  0.1137458E+00
          1   -1    0    0  501    0  0.00000000000E+00  0.00000000000E+00  0.41053714021E+03  0.41053714021E+03  0.00000000000E+00 0. -1.
         -1   -1    0    0    0  501 -0.00000000000E+00 -0.00000000000E+00 -0.15230659188E+03  0.15230659188E+03  0.00000000000E+00 0.  1.
         23    2    1    2    0    0 -0.17979090471E+03  0.22307770260E+02  0.28454317681E+03  0.35973835144E+03  0.12499782395E+03 0.  0.
          5    1    3    3  502    0 -0.11849303131E+03  0.52795542376E+02  0.10315676700E+03  0.16580523617E+03  0.47000000000E+01 0. -1.
         -5    1    3    3    0  502 -0.61297873401E+02 -0.30487772116E+02  0.18138640981E+03  0.19393311526E+03  0.47000000000E+01 0. -1.
        -11    1    1    2    0    0  0.48958499728E+02  0.31657993098E+02  0.37482253435E+01  0.58422704626E+02  0.00000000000E+00 0. -1.
         11    1    1    2    0    0  0.13083240499E+03 -0.53965763358E+02 -0.30060853825E+02  0.14468267603E+03  0.00000000000E+00 0.  1.
<mgrwt>
<rscale>  0 0.21527129E+03</rscale>
<asrwt>0</asrwt>
<pdfrwt beam="1">  1        1 0.63159560E-01 0.22010648E+03</pdfrwt>
<pdfrwt beam="2">  1       -1 0.23431783E-01 0.22010648E+03</pdfrwt>
<totfact> 0.91023736E+02</totfact>
</mgrwt>
</event>
<event>
 7    1  0.6419647E-006  0.1333308E+03  0.7546771E-02  0.1236814E+00
         -2   -1    0    0    0  501 -0.00000000000E+00  0.00000000000E+00  0.21338751017E+03  0.21338751017E+03  0.00000000000E+00 0.  1.
          2   -1    0    0  501    0  0.00000000000E+00 -0.00000000000E+00 -0.63781570051E+02  0.63781570051E+02  0.00000000000E+00 0. -1.
         23    2    1    2    0    0 -0.29494847132E+02 -0.35808068383E+02  0.75821060267E+02  0.15338163280E+03  0.12499971333E+03 0.  0.
          5    1    3    3  502    0  0.43196059594E+02 -0.59735085350E+01 -0.32766964278E+00  0.43860913534E+02  0.47000000000E+01 0. -1.
         -5    1    3    3    0  502 -0.72690906726E+02 -0.29834559848E+02  0.76148729910E+02  0.10952071927E+03  0.47000000000E+01 0. -1.
        -11    1    1    2    0    0  0.13028106934E+02  0.58809679293E+02  0.20802959894E+02  0.63726549328E+02  0.00000000000E+00 0. -1.
         11    1    1    2    0    0  0.16466740198E+02 -0.23001610910E+02  0.52981919958E+02  0.60060898093E+02  0.00000000000E+00 0.  1.
<mgrwt>
<rscale>  0 0.12389038E+03</rscale>
<asrwt>0</asrwt>
<pdfrwt beam="2">  1        2 0.98125494E-02 0.13333076E+03</pdfrwt>
<pdfrwt beam="1">  1       -2 0.32828847E-01 0.13333076E+03</pdfrwt>
<totfact> 0.53885058E+03</totfact>
</mgrwt>
</event>
<event>
 7    1  0.6419647E-006  0.2431408E+03  0.7546771E-02  0.1120310E+00
          1   -1    0    0  501    0  0.00000000000E+00  0.00000000000E+00  0.11525999948E+03  0.11525999948E+03  0.00000000000E+00 0. -1.
         -1   -1    0    0    0  501 -0.00000000000E+00 -0.00000000000E+00 -0.60590111004E+03  0.60590111004E+03  0.00000000000E+00 0.  1.
         23    2    1    2    0    0 -0.41652988210E+01  0.20851871859E+03 -0.88104345048E+02  0.25861130410E+03  0.12498009951E+03 0.  0.
          5    1    3    3  502    0  0.12454167002E+02  0.49481894955E+02 -0.84230815329E+02  0.98592517236E+02  0.47000000000E+01 0. -1.
         -5    1    3    3    0  502 -0.16619465823E+02  0.15903682363E+03 -0.38735297197E+01  0.16001878686E+03  0.47000000000E+01 0. -1.
        -11    1    1    2    0    0 -0.61323337329E+01 -0.10528411756E+03 -0.11104085008E+03  0.15314183397E+03  0.00000000000E+00 0. -1.
         11    1    1    2    0    0  0.10297632554E+02 -0.10323460103E+03 -0.29149591543E+03  0.30940797145E+03  0.00000000000E+00 0.  1.
<mgrwt>
<rscale>  0 0.23922496E+03</rscale>
<asrwt>0</asrwt>
<pdfrwt beam="1">  1        1 0.17732308E-01 0.24314076E+03</pdfrwt>
<pdfrwt beam="2">  1       -1 0.93215555E-01 0.24314076E+03</pdfrwt>
<totfact> 0.35330178E+02</totfact>
</mgrwt>
</event>
<event>
 7    1  0.6419647E-006  0.1326404E+03  0.7546771E-02  0.1236955E+00
         -2   -1    0    0    0  501 -0.00000000000E+00  0.00000000000E+00  0.26615458821E+02  0.26615458821E+02  0.00000000000E+00 0.  1.
          2   -1    0    0  501    0  0.00000000000E+00 -0.00000000000E+00 -0.51853357824E+03  0.51853357824E+03  0.00000000000E+00 0. -1.
         23    2    1    2    0    0 -0.44309746009E+02  0.23525717495E+01 -0.31117010186E+03  0.33826069370E+03  0.12499830568E+03 0.  0.
          5    1    3    3  502    0  0.33350478554E+02 -0.34810591906E+01 -0.19755783754E+03  0.20043842287E+03  0.47000000000E+01 0.  1.
         -5    1    3    3    0  502 -0.77660224563E+02  0.58336309401E+01 -0.11361226433E+03  0.13782227082E+03  0.47000000000E+01 0.  1.
        -11    1    1    2    0    0 -0.96271930717E+01 -0.55796408467E+01  0.58872993232E+01  0.12588706516E+02  0.00000000000E+00 0.  1.
         11    1    1    2    0    0  0.53936939081E+02  0.32270690972E+01 -0.18663531688E+03  0.19429963684E+03  0.00000000000E+00 0. -1.
<mgrwt>
<rscale>  0 0.12380087E+03</rscale>
<asrwt>0</asrwt>
<pdfrwt beam="2">  1        2 0.79774399E-01 0.13264036E+03</pdfrwt>
<pdfrwt beam="1">  1       -2 0.40946858E-02 0.13264036E+03</pdfrwt>
<totfact> 0.14964091E+04</totfact>
</mgrwt>
</event>
<event>
 7    1  0.6419647E-006  0.1279571E+03  0.7546771E-02  0.1244763E+00
         -2   -1    0    0    0  501 -0.00000000000E+00  0.00000000000E+00  0.17386501058E+02  0.17386501058E+02  0.00000000000E+00 0. -1.
          2   -1    0    0  501    0  0.00000000000E+00 -0.00000000000E+00 -0.84961372086E+03  0.84961372086E+03  0.00000000000E+00 0.  1.
         23    2    1    2    0    0 -0.26401032973E+02  0.71294859640E+01 -0.63518456534E+03  0.64794479020E+03  0.12500069997E+03 0.  0.
          5    1    3    3  502    0 -0.33557565229E+02  0.12617593716E+02 -0.63664471538E+03  0.63767068105E+03  0.47000000000E+01 0.  1.
         -5    1    3    3    0  502  0.71565322565E+01 -0.54881077519E+01  0.14601500404E+01  0.10274109148E+02  0.47000000000E+01 0.  1.
        -11    1    1    2    0    0  0.55887315549E+02 -0.16407476545E+02 -0.86577791147E+02  0.10434707109E+03  0.00000000000E+00 0. -1.
         11    1    1    2    0    0 -0.29486282576E+02  0.92779905811E+01 -0.11046486332E+03  0.11470836063E+03  0.00000000000E+00 0.  1.
<mgrwt>
<rscale>  0 0.11899593E+03</rscale>
<asrwt>0</asrwt>
<pdfrwt beam="2">  1        2 0.13070980E+00 0.12795710E+03</pdfrwt>
<pdfrwt beam="1">  1       -2 0.26748463E-02 0.12795710E+03</pdfrwt>
<totfact> 0.15658334E+04</totfact>
</mgrwt>
</event>
<event>
 7    1  0.6419647E-006  0.1619617E+03  0.7546771E-02  0.1193437E+00
         -1   -1    0    0    0  501 -0.00000000000E+00  0.00000000000E+00  0.51147859302E+03  0.51147859302E+03  0.00000000000E+00 0.  1.
          1   -1    0    0  501    0  0.00000000000E+00 -0.00000000000E+00 -0.44318434873E+02  0.44318434873E+02  0.00000000000E+00 0. -1.
         23    2    1    2    0    0 -0.61960357502E+02 -0.82271632025E+02  0.26180083345E+03  0.30784942072E+03  0.12499552835E+03 0.  0.
          5    1    3    3  502    0 -0.20160205385E+01  0.21740760471E+02  0.30167689581E+01  0.22536989586E+02  0.47000000000E+01 0. -1.
         -5    1    3    3    0  502 -0.59944336963E+02 -0.10401239250E+03  0.25878406449E+03  0.28531243114E+03  0.47000000000E+01 0. -1.
        -11    1    1    2    0    0  0.88191787553E+01  0.85051266485E+02  0.13334026065E+03  0.15840177068E+03  0.00000000000E+00 0. -1.
         11    1    1    2    0    0  0.53141178747E+02 -0.27796344605E+01  0.72019064048E+02  0.89545836489E+02  0.00000000000E+00 0.  1.
<mgrwt>
<rscale>  0 0.15587251E+03</rscale>
<asrwt>0</asrwt>
<pdfrwt beam="2">  1        1 0.68182211E-02 0.16196169E+03</pdfrwt>
<pdfrwt beam="1">  1       -1 0.78689010E-01 0.16196169E+03</pdfrwt>
<totfact> 0.17930319E+03</totfact>
</mgrwt>
</event>
<event>
 7    1  0.6419647E-006  0.1722531E+03  0.7546771E-02  0.1181777E+00
          3   -1    0    0  501    0  0.00000000000E+00  0.00000000000E+00  0.40361033513E+03  0.40361033513E+03  0.00000000000E+00 0. -1.
         -3   -1    0    0    0  501 -0.00000000000E+00 -0.00000000000E+00 -0.67664682247E+02  0.67664682247E+02  0.00000000000E+00 0.  1.
         23    2    1    2    0    0  0.67305641263E+02 -0.97558636813E+02  0.23265958927E+03  0.28948506692E+03  0.12499352994E+03 0.  0.
          5    1    3    3  502    0  0.28400801186E+02  0.44070714920E+01  0.14919665149E+03  0.15201236332E+03  0.47000000000E+01 0. -1.
         -5    1    3    3    0  502  0.38904840077E+02 -0.10196570830E+03  0.83462937780E+02  0.13747270360E+03  0.47000000000E+01 0. -1.
        -11    1    1    2    0    0 -0.18699192262E+02  0.96209316220E+02  0.51360963766E+02  0.11065189071E+03  0.00000000000E+00 0. -1.
         11    1    1    2    0    0 -0.48606449001E+02  0.13493205931E+01  0.51925099853E+02  0.71138059752E+02  0.00000000000E+00 0.  1.
<mgrwt>
<rscale>  0 0.16628639E+03</rscale>
<asrwt>0</asrwt>
<pdfrwt beam="1">  1        3 0.62093896E-01 0.17225307E+03</pdfrwt>
<pdfrwt beam="2">  1       -3 0.10409951E-01 0.17225307E+03</pdfrwt>
<totfact> 0.42427271E+02</totfact>
</mgrwt>
</event>
<event>
 7    1  0.6419647E-006  0.1304130E+03  0.7546771E-02  0.1240630E+00
         -1   -1    0    0    0  501 -0.00000000000E+00  0.00000000000E+00  0.17791639537E+03  0.17791639537E+03  0.00000000000E+00 0.  1.
          1   -1    0    0  501    0  0.00000000000E+00 -0.00000000000E+00 -0.13635843377E+03  0.13635843377E+03  0.00000000000E+00 0. -1.
         23    2    1    2    0    0  0.13307440739E+01 -0.37141114986E+02 -0.83776431412E+02  0.15500339573E+03  0.12500531559E+03 0.  0.
          5    1    3    3  502    0 -0.42967570313E+01 -0.77855637605E+02 -0.22904549020E+02  0.81404365938E+02  0.47000000000E+01 0. -1.
         -5    1    3    3    0  502  0.56275011051E+01  0.40714522620E+02 -0.60871882392E+02  0.73599029795E+02  0.47000000000E+01 0. -1.
        -11    1    1    2    0    0  0.42492726857E+02  0.39452235233E+01  0.45968559844E+02  0.62724039399E+02  0.00000000000E+00 0.  1.
         11    1    1    2    0    0 -0.43823470931E+02  0.33195891462E+02  0.79365833168E+02  0.96547394003E+02  0.00000000000E+00 0. -1.
<mgrwt>
<rscale>  0 0.12150817E+03</rscale>
<asrwt>0</asrwt>
<pdfrwt beam="2">  1        1 0.20978221E-01 0.13041304E+03</pdfrwt>
<pdfrwt beam="1">  1       -1 0.27371753E-01 0.13041304E+03</pdfrwt>
<totfact> 0.27694520E+03</totfact>
</mgrwt>
</event>
<event>
 7    1  0.6419647E-006  0.1533821E+03  0.7546771E-02  0.1215176E+00
          2   -1    0    0  501    0  0.00000000000E+00  0.00000000000E+00  0.37088006196E+03  0.37088006196E+03  0.00000000000E+00 0. -1.
         -2   -1    0    0    0  501 -0.00000000000E+00 -0.00000000000E+00 -0.52395027453E+02  0.52395027453E+02  0.00000000000E+00 0.  1.
         23    2    1    2    0    0  0.25445785298E+02  0.85150194406E+02  0.26879976169E+03  0.30948246423E+03  0.12501216013E+03 0.  0.
          5    1    3    3  502    0  0.59884767765E+02  0.94605102888E+02  0.23374146441E+03  0.25921703857E+03  0.47000000000E+01 0. -1.
         -5    1    3    3    0  502 -0.34438982467E+02 -0.94549084819E+01  0.35058297283E+02  0.50265425654E+02  0.47000000000E+01 0. -1.
        -11    1    1    2    0    0 -0.10051796578E+02 -0.49983979558E+02  0.55048472952E+02  0.75031801266E+02  0.00000000000E+00 0. -1.
         11    1    1    2    0    0 -0.15393988721E+02 -0.35166214848E+02 -0.53632001356E+01  0.38760823923E+02  0.00000000000E+00 0.  1.
<mgrwt>
<rscale>  0 0.13863631E+03</rscale>
<asrwt>0</asrwt>
<pdfrwt beam="1">  1        2 0.57058470E-01 0.15338215E+03</pdfrwt>
<pdfrwt beam="2">  1       -2 0.80607737E-02 0.15338215E+03</pdfrwt>
<totfact> 0.77837515E+03</totfact>
</mgrwt>
</event>
<event>
 7    1  0.6419647E-006  0.1541632E+03  0.7546771E-02  0.1203770E+00
         -1   -1    0    0    0  501 -0.00000000000E+00  0.00000000000E+00  0.57114654684E+02  0.57114654684E+02  0.00000000000E+00 0.  1.
          1   -1    0    0  501    0  0.00000000000E+00 -0.00000000000E+00 -0.41834038586E+03  0.41834038586E+03  0.00000000000E+00 0. -1.
         23    2    1    2    0    0 -0.14607785461E+02 -0.89011270857E+02 -0.28991955886E+03  0.32835900800E+03  0.12501957361E+03 0.  0.
          5    1    3    3  502    0 -0.13190901960E+02 -0.71228526377E+02 -0.50971743515E+02  0.88700121202E+02  0.47000000000E+01 0.  1.
         -5    1    3    3    0  502 -0.14168835017E+01 -0.17782744480E+02 -0.23894781535E+03  0.23965888679E+03  0.47000000000E+01 0.  1.
        -11    1    1    2    0    0  0.46586723277E+02  0.24948958779E+02 -0.12164790068E+02  0.54228732672E+02  0.00000000000E+00 0.  1.
         11    1    1    2    0    0 -0.31978937815E+02  0.64062312077E+02 -0.59141382249E+02  0.92867299879E+02  0.00000000000E+00 0. -1.
<mgrwt>
<rscale>  0 0.14734792E+03</rscale>
<asrwt>0</asrwt>
<pdfrwt beam="2">  1        1 0.64360058E-01 0.15416318E+03</pdfrwt>
<pdfrwt beam="1">  1       -1 0.87868702E-02 0.15416318E+03</pdfrwt>
<totfact> 0.41380968E+03</totfact>
</mgrwt>
</event>
<event>
 7    1  0.6419647E-006  0.1647331E+03  0.7546771E-02  0.1190647E+00
         -1   -1    0    0    0  501 -0.00000000000E+00  0.00000000000E+00  0.47651255653E+02  0.47651255653E+02  0.00000000000E+00 0.  1.
          1   -1    0    0  501    0  0.00000000000E+00 -0.00000000000E+00 -0.53180769214E+03  0.53180769214E+03  0.00000000000E+00 0. -1.
         23    2    1    2    0    0  0.36828475788E+02 -0.10088951606E+03 -0.34221548255E+03  0.37980051104E+03  0.12490780844E+03 0.  0.
          5    1    3    3  502    0  0.71141965171E+02 -0.17398847082E+02 -0.13324671950E+03  0.15212060132E+03  0.47000000000E+01 0. -1.
         -5    1    3    3    0  502 -0.34313489383E+02 -0.83490668983E+02 -0.20896876305E+03  0.22767990972E+03  0.47000000000E+01 0. -1.
        -11    1    1    2    0    0  0.52018100833E+01  0.49696464717E+02 -0.11982689012E+03  0.12982789003E+03  0.00000000000E+00 0. -1.
         11    1    1    2    0    0 -0.42030285871E+02  0.51193051347E+02 -0.22114063814E+02  0.69830546719E+02  0.00000000000E+00 0.  1.
<mgrwt>
<rscale>  0 0.15828461E+03</rscale>
<asrwt>0</asrwt>
<pdfrwt beam="2">  1        1 0.81816564E-01 0.16473309E+03</pdfrwt>
<pdfrwt beam="1">  1       -1 0.73309627E-02 0.16473309E+03</pdfrwt>
<totfact> 0.39984766E+03</totfact>
</mgrwt>
</event>
<event>
 7    1  0.6419647E-006  0.1284499E+03  0.7546771E-02  0.1242929E+00
          1   -1    0    0  501    0  0.00000000000E+00  0.00000000000E+00  0.72667611053E+03  0.72667611053E+03  0.00000000000E+00 0. -1.
         -1   -1    0    0    0  501 -0.00000000000E+00 -0.00000000000E+00 -0.41616471124E+02  0.41616471124E+02  0.00000000000E+00 0.  1.
         23    2    1    2    0    0  0.28261646298E+02 -0.88270214434E+01  0.65225355731E+03  0.66478122793E+03  0.12499096381E+03 0.  0.
          5    1    3    3  502    0  0.42189551288E+02 -0.41653739753E+02  0.58917196272E+03  0.59216609489E+03  0.47000000000E+01 0.  1.
         -5    1    3    3    0  502 -0.13927904990E+02  0.32826718310E+02  0.63081594584E+02  0.72615133049E+02  0.47000000000E+01 0.  1.
        -11    1    1    2    0    0 -0.13613901616E+02  0.22595650597E+02 -0.28594059139E+02  0.38904009577E+02  0.00000000000E+00 0.  1.
         11    1    1    2    0    0 -0.14647744682E+02 -0.13768629154E+02  0.61400141241E+02  0.64607344145E+02  0.00000000000E+00 0. -1.
<mgrwt>
<rscale>  0 0.12010214E+03</rscale>
<asrwt>0</asrwt>
<pdfrwt beam="1">  1        1 0.11179632E+00 0.12844990E+03</pdfrwt>
<pdfrwt beam="2">  1       -1 0.64025346E-02 0.12844990E+03</pdfrwt>
<totfact> 0.31522220E+03</totfact>
</mgrwt>
</event>
<event>
 7    1  0.6419647E-006  0.1448444E+03  0.7546771E-02  0.1216697E+00
          1   -1    0    0  501    0  0.00000000000E+00  0.00000000000E+00  0.33234167022E+03  0.33234167022E+03  0.00000000000E+00 0. -1.
         -1   -1    0    0    0  501 -0.00000000000E+00 -0.00000000000E+00 -0.53091275892E+02  0.53091275892E+02  0.00000000000E+00 0.  1.
         23    2    1    2    0    0  0.56162845026E+02  0.44088463283E+02  0.18294198623E+03  0.23334025487E+03  0.12602319810E+03 0.  0.
          5    1    3    3  502    0 -0.36400259156E+02  0.27531319831E+02  0.90125674613E+02  0.10113199129E+03  0.47000000000E+01 0. -1.
         -5    1    3    3    0  502  0.92563104182E+02  0.16557143453E+02  0.92816311617E+02  0.13220826357E+03  0.47000000000E+01 0. -1.
        -11    1    1    2    0    0 -0.44816058581E+02 -0.22340469858E+02  0.11219819114E+03  0.12286582029E+03  0.00000000000E+00 0. -1.
         11    1    1    2    0    0 -0.11346786445E+02 -0.21747993426E+02 -0.15889783043E+02  0.29226870955E+02  0.00000000000E+00 0.  1.
<mgrwt>
<rscale>  0 0.13752590E+03</rscale>
<asrwt>0</asrwt>
<pdfrwt beam="1">  1        1 0.51129486E-01 0.14484441E+03</pdfrwt>
<pdfrwt beam="2">  1       -1 0.81678888E-02 0.14484441E+03</pdfrwt>
<totfact> 0.61538712E+03</totfact>
</mgrwt>
</event>
<event>
 7    1  0.6419647E-006  0.1300114E+03  0.7546771E-02  0.1241138E+00
         -1   -1    0    0    0  501 -0.00000000000E+00  0.00000000000E+00  0.12974496116E+02  0.12974496116E+02  0.00000000000E+00 0.  1.
          1   -1    0    0  501    0  0.00000000000E+00 -0.00000000000E+00 -0.12544402794E+04  0.12544402794E+04  0.00000000000E+00 0. -1.
         23    2    1    2    0    0 -0.26237285184E+02  0.24268138832E+02 -0.97132547243E+03  0.97998782606E+03  0.12500251256E+03 0.  0.
          5    1    3    3  502    0 -0.74921487617E+02  0.24569575839E+01 -0.49591955953E+03  0.50157508458E+03  0.47000000000E+01 0.  1.
         -5    1    3    3    0  502  0.48684202432E+02  0.21811181248E+02 -0.47540591290E+03  0.47841274149E+03  0.47000000000E+01 0.  1.
        -11    1    1    2    0    0 -0.19044840188E+02 -0.43233028479E+02 -0.10487824896E+03  0.11502716112E+03  0.00000000000E+00 0.  1.
         11    1    1    2    0    0  0.45282125372E+02  0.18964889648E+02 -0.16526206193E+03  0.17239978837E+03  0.00000000000E+00 0. -1.
<mgrwt>
<rscale>  0 0.12119566E+03</rscale>
<asrwt>0</asrwt>
<pdfrwt beam="2">  1        1 0.19299079E+00 0.13001141E+03</pdfrwt>
<pdfrwt beam="1">  1       -1 0.19960765E-02 0.13001141E+03</pdfrwt>
<totfact> 0.70178980E+03</totfact>
</mgrwt>
</event>
<event>
 7    1  0.6419647E-006  0.1796725E+03  0.7546771E-02  0.1173684E+00
          1   -1    0    0  501    0  0.00000000000E+00  0.00000000000E+00  0.69848089460E+03  0.69848089460E+03  0.00000000000E+00 0. -1.
         -1   -1    0    0    0  501 -0.00000000000E+00 -0.00000000000E+00 -0.41688998599E+02  0.41688998599E+02  0.00000000000E+00 0.  1.
         23    2    1    2    0    0 -0.15050855403E+02 -0.12821931838E+03  0.40065560364E+03  0.43909808776E+03  0.12496197859E+03 0.  0.
          5    1    3    3  502    0  0.27264332003E+02  0.13458823533E+02  0.53128428646E+02  0.61393840577E+02  0.47000000000E+01 0.  1.
         -5    1    3    3    0  502 -0.42315187405E+02 -0.14167814191E+03  0.34752717499E+03  0.37770424718E+03  0.47000000000E+01 0.  1.
        -11    1    1    2    0    0 -0.27069806023E+02  0.87899368937E+02  0.10789763234E+03  0.14177789857E+03  0.00000000000E+00 0.  1.
         11    1    1    2    0    0  0.42120661425E+02  0.40319949438E+02  0.14823866002E+03  0.15929390687E+03  0.00000000000E+00 0. -1.
<mgrwt>
<rscale>  0 0.17405526E+03</rscale>
<asrwt>0</asrwt>
<pdfrwt beam="1">  1        1 0.10745859E+00 0.17967253E+03</pdfrwt>
<pdfrwt beam="2">  1       -1 0.64136926E-02 0.17967253E+03</pdfrwt>
<totfact> 0.33662895E+03</totfact>
</mgrwt>
</event>
<event>
 7    1  0.6419647E-006  0.1452526E+03  0.7546771E-02  0.1212594E+00
         -1   -1    0    0    0  501 -0.00000000000E+00  0.00000000000E+00  0.44536031479E+02  0.44536031479E+02  0.00000000000E+00 0.  1.
          1   -1    0    0  501    0  0.00000000000E+00 -0.00000000000E+00 -0.44691076223E+03  0.44691076223E+03  0.00000000000E+00 0. -1.
         23    2    1    2    0    0  0.36617468415E+02  0.64293137159E+02 -0.27689228277E+03  0.31267821281E+03  0.12499552804E+03 0.  0.
          5    1    3    3  502    0 -0.26951711433E+02  0.60526873462E+02 -0.71513718577E+02  0.97602249487E+02  0.47000000000E+01 0.  1.
         -5    1    3    3    0  502  0.63569179848E+02  0.37662636971E+01 -0.20537856419E+03  0.21507596332E+03  0.47000000000E+01 0.  1.
        -11    1    1    2    0    0  0.62323647237E+01 -0.44070750570E+02  0.13784189583E+00  0.44509464457E+02  0.00000000000E+00 0.  1.
         11    1    1    2    0    0 -0.42849833138E+02 -0.20222386589E+02 -0.12562028988E+03  0.13425911644E+03  0.00000000000E+00 0. -1.
<mgrwt>
<rscale>  0 0.14054772E+03</rscale>
<asrwt>0</asrwt>
<pdfrwt beam="2">  1        1 0.68755499E-01 0.14525264E+03</pdfrwt>
<pdfrwt beam="1">  1       -1 0.68516974E-02 0.14525264E+03</pdfrwt>
<totfact> 0.55206687E+03</totfact>
</mgrwt>
</event>
<event>
 7    1  0.6419647E-006  0.5073700E+03  0.7546771E-02  0.1012391E+00
         -2   -1    0    0    0  501 -0.00000000000E+00  0.00000000000E+00  0.99817231187E+02  0.99817231187E+02  0.00000000000E+00 0.  1.
          2   -1    0    0  501    0  0.00000000000E+00 -0.00000000000E+00 -0.28115037701E+04  0.28115037701E+04  0.00000000000E+00 0. -1.
         23    2    1    2    0    0  0.10389695294E+03 -0.48062909728E+03 -0.18192660039E+04  0.18886908463E+04  0.12500165662E+03 0.  0.
          5    1    3    3  502    0  0.28728337042E+02 -0.35311138875E+03 -0.13960989885E+04  0.14403567078E+04  0.47000000000E+01 0.  1.
         -5    1    3    3    0  502  0.75168615896E+02 -0.12751770853E+03 -0.42316701540E+03  0.44833413849E+03  0.47000000000E+01 0.  1.
        -11    1    1    2    0    0 -0.80808763854E+02  0.43105988845E+03 -0.73406228127E+03  0.85509655392E+03  0.00000000000E+00 0.  1.
         11    1    1    2    0    0 -0.23088189084E+02  0.49569208831E+02 -0.15835825375E+03  0.16753360101E+03  0.00000000000E+00 0. -1.
<mgrwt>
<rscale>  0 0.50535493E+03</rscale>
<asrwt>0</asrwt>
<pdfrwt beam="2">  1        2 0.43253904E+00 0.50737000E+03</pdfrwt>
<pdfrwt beam="1">  1       -2 0.15356497E-01 0.50737000E+03</pdfrwt>
<totfact> 0.83439232E+01</totfact>
</mgrwt>
</event>
<event>
 7    1  0.6419647E-006  0.1439906E+03  0.7546771E-02  0.1218711E+00
          2   -1    0    0  501    0  0.00000000000E+00  0.00000000000E+00  0.53694940022E+03  0.53694940022E+03  0.00000000000E+00 0. -1.
         -2   -1    0    0    0  501 -0.00000000000E+00 -0.00000000000E+00 -0.40326163250E+02  0.40326163250E+02  0.00000000000E+00 0.  1.
         23    2    1    2    0    0  0.45740892810E+02 -0.54921463950E+02  0.40663600012E+03  0.43137703141E+03  0.12499884061E+03 0.  0.
          5    1    3    3  502    0  0.29045495161E+01  0.32524634695E+02  0.39233065358E+02  0.51260234952E+02  0.47000000000E+01 0. -1.
         -5    1    3    3    0  502  0.42836343294E+02 -0.87446098645E+02  0.36740293476E+03  0.38011679646E+03  0.47000000000E+01 0. -1.
        -11    1    1    2    0    0 -0.16072089890E+02 -0.24468899747E+02  0.15821879213E+02  0.33277184227E+02  0.00000000000E+00 0.  1.
         11    1    1    2    0    0 -0.29668802920E+02  0.79390363697E+02  0.74165357631E+02  0.11262134783E+03  0.00000000000E+00 0. -1.
<mgrwt>
<rscale>  0 0.13607423E+03</rscale>
<asrwt>0</asrwt>
<pdfrwt beam="1">  1        2 0.82607595E-01 0.14399065E+03</pdfrwt>
<pdfrwt beam="2">  1       -2 0.62040255E-02 0.14399065E+03</pdfrwt>
<totfact> 0.77524636E+03</totfact>
</mgrwt>
</event>
<event>
 7    1  0.6419647E-006  0.1291547E+03  0.7546771E-02  0.1242542E+00
          2   -1    0    0  501    0  0.00000000000E+00  0.00000000000E+00  0.67198126561E+02  0.67198126561E+02  0.00000000000E+00 0. -1.
         -2   -1    0    0    0  501 -0.00000000000E+00 -0.00000000000E+00 -0.21259130870E+03  0.21259130870E+03  0.00000000000E+00 0.  1.
         23    2    1    2    0    0  0.22488221508E+02  0.23463920490E+02 -0.37518785149E+02  0.13449383824E+03  0.12499863045E+03 0.  0.
          5    1    3    3  502    0 -0.28592419289E+02  0.63644444159E+01 -0.66736453290E+02  0.73033395042E+02  0.47000000000E+01 0. -1.
         -5    1    3    3    0  502  0.51080640798E+02  0.17099476074E+02  0.29217668142E+02  0.61460443197E+02  0.47000000000E+01 0. -1.
        -11    1    1    2    0    0 -0.15111445029E+00  0.20460469747E+02 -0.90902856137E+02  0.93177158745E+02  0.00000000000E+00 0.  1.
         11    1    1    2    0    0 -0.22337107058E+02 -0.43924390237E+02 -0.16971540850E+02  0.52118438275E+02  0.00000000000E+00 0. -1.
<mgrwt>
<rscale>  0 0.12033691E+03</rscale>
<asrwt>0</asrwt>
<pdfrwt beam="1">  1        2 0.10338173E-01 0.12915469E+03</pdfrwt>
<pdfrwt beam="2">  1       -2 0.32706355E-01 0.12915469E+03</pdfrwt>
<totfact> 0.50776938E+03</totfact>
</mgrwt>
</event>
<event>
 7    1  0.6419647E-006  0.1245229E+03  0.7546771E-02  0.1268189E+00
          2   -1    0    0  501    0  0.00000000000E+00  0.00000000000E+00  0.30228372304E+03  0.30228372304E+03  0.00000000000E+00 0. -1.
         -2   -1    0    0    0  501 -0.00000000000E+00 -0.00000000000E+00 -0.49478797514E+02  0.49478797514E+02  0.00000000000E+00 0.  1.
         23    2    1    2    0    0  0.34493476870E+02 -0.28446246937E+02  0.25772158247E+03  0.28622781282E+03  0.11621943834E+03 0.  0.
          5    1    3    3  502    0  0.19713049112E+02  0.14708514365E+02  0.23259290455E+03  0.23393694438E+03  0.47000000000E+01 0. -1.
         -5    1    3    3    0  502  0.14780427759E+02 -0.43154761302E+02  0.25128677920E+02  0.52290868436E+02  0.47000000000E+01 0.  1.
        -11    1    1    2    0    0 -0.29344183124E+02 -0.64162501383E+01 -0.37937455985E+01  0.30276093783E+02  0.00000000000E+00 0. -1.
         11    1    1    2    0    0 -0.51492937459E+01  0.34862497076E+02 -0.11229113406E+01  0.35258613959E+02  0.00000000000E+00 0.  1.
<mgrwt>
<rscale>  0 0.10598595E+03</rscale>
<asrwt>0</asrwt>
<pdfrwt beam="1">  1        2 0.46505187E-01 0.12452288E+03</pdfrwt>
<pdfrwt beam="2">  1       -2 0.76121229E-02 0.12452288E+03</pdfrwt>
<totfact> 0.10411107E+04</totfact>
</mgrwt>
</event>
<event>
 7    1  0.6419647E-006  0.1331050E+03  0.7546771E-02  0.1236093E+00
         -2   -1    0    0    0  501 -0.00000000000E+00  0.00000000000E+00  0.85905344053E+01  0.85905344053E+01  0.00000000000E+00 0.  1.
          2   -1    0    0  501    0  0.00000000000E+00 -0.00000000000E+00 -0.17769223672E+04  0.17769223672E+04  0.00000000000E+00 0. -1.
         23    2    1    2    0    0  0.18447738795E+02 -0.41844731226E+02 -0.12711439107E+04  0.12780938071E+04  0.12500254982E+03 0.  0.
          5    1    3    3  502    0  0.36032131038E+02 -0.19209172671E+02 -0.12067769091E+04  0.12074766686E+04  0.47000000000E+01 0.  1.
         -5    1    3    3    0  502 -0.17584392243E+02 -0.22635558555E+02 -0.64367001603E+02  0.70617138550E+02  0.47000000000E+01 0.  1.
        -11    1    1    2    0    0 -0.49640785296E+02  0.47938782262E+02 -0.36475839054E+03  0.37122906389E+03  0.00000000000E+00 0.  1.
         11    1    1    2    0    0  0.31193046501E+02 -0.60940510351E+01 -0.13242953153E+03  0.13619003058E+03  0.00000000000E+00 0. -1.
<mgrwt>
<rscale>  0 0.12434718E+03</rscale>
<asrwt>0</asrwt>
<pdfrwt beam="2">  1        2 0.27337265E+00 0.13310499E+03</pdfrwt>
<pdfrwt beam="1">  1       -2 0.13216208E-02 0.13310499E+03</pdfrwt>
<totfact> 0.13459019E+04</totfact>
</mgrwt>
</event>
<event>
 7    1  0.6419647E-006  0.1644067E+03  0.7546771E-02  0.1191067E+00
          2   -1    0    0  501    0  0.00000000000E+00  0.00000000000E+00  0.78019644879E+03  0.78019644879E+03  0.00000000000E+00 0. -1.
         -2   -1    0    0    0  501 -0.00000000000E+00 -0.00000000000E+00 -0.34930230144E+02  0.34930230144E+02  0.00000000000E+00 0.  1.
         23    2    1    2    0    0 -0.10558499683E+03 -0.15937171115E+02  0.55561212701E+03  0.57942592558E+03  0.12500952995E+03 0.  0.
          5    1    3    3  502    0 -0.97410502496E+02 -0.39454204356E+02  0.23101464731E+03  0.25384108712E+03  0.47000000000E+01 0. -1.
         -5    1    3    3    0  502 -0.81744943296E+01  0.23517033241E+02  0.32459747970E+03  0.32558483847E+03  0.47000000000E+01 0. -1.
        -11    1    1    2    0    0  0.54864911375E+02 -0.21194672266E+02  0.15064790378E+03  0.16172248930E+03  0.00000000000E+00 0. -1.
         11    1    1    2    0    0  0.50720085450E+02  0.37131843381E+02  0.39006187860E+02  0.73978264053E+02  0.00000000000E+00 0.  1.
<mgrwt>
<rscale>  0 0.15791862E+03</rscale>
<asrwt>0</asrwt>
<pdfrwt beam="1">  1        2 0.12003021E+00 0.16440671E+03</pdfrwt>
<pdfrwt beam="2">  1       -2 0.53738822E-02 0.16440671E+03</pdfrwt>
<totfact> 0.62707474E+03</totfact>
</mgrwt>
</event>
<event>
 7    1  0.6419647E-006  0.1719420E+03  0.7546771E-02  0.1183050E+00
          3   -1    0    0  501    0  0.00000000000E+00  0.00000000000E+00  0.33129866401E+03  0.33129866401E+03  0.00000000000E+00 0. -1.
         -3   -1    0    0    0  501 -0.00000000000E+00 -0.00000000000E+00 -0.84204892641E+02  0.84204892641E+02  0.00000000000E+00 0.  1.
         23    2    1    2    0    0  0.65665639401E+02 -0.98117963281E+02  0.19580059988E+03  0.26057999834E+03  0.12499979882E+03 0.  0.
          5    1    3    3  502    0 -0.15091518531E+02  0.13471446130E+02  0.73290615577E+02  0.76176361977E+02  0.47000000000E+01 0.  1.
         -5    1    3    3    0  502  0.80757157932E+02 -0.11158940941E+03  0.12250998430E+03  0.18440363636E+03  0.47000000000E+01 0.  1.
        -11    1    1    2    0    0  0.10323764435E+02  0.42217824580E+02  0.41479381606E+02  0.60078814259E+02  0.00000000000E+00 0. -1.
         11    1    1    2    0    0 -0.75989403836E+02  0.55900138701E+02  0.98137898812E+01  0.94844744050E+02  0.00000000000E+00 0.  1.
<mgrwt>
<rscale>  0 0.16510602E+03</rscale>
<asrwt>0</asrwt>
<pdfrwt beam="1">  1        3 0.50969025E-01 0.17194203E+03</pdfrwt>
<pdfrwt beam="2">  1       -3 0.12954599E-01 0.17194203E+03</pdfrwt>
<totfact> 0.43979650E+02</totfact>
</mgrwt>
</event>
<event>
 7    1  0.6419647E-006  0.1294244E+03  0.7546771E-02  0.1243034E+00
         -3   -1    0    0    0  501 -0.00000000000E+00  0.00000000000E+00  0.27630503706E+03  0.27630503706E+03  0.00000000000E+00 0.  1.
          3   -1    0    0  501    0  0.00000000000E+00 -0.00000000000E+00 -0.49636334677E+02  0.49636334677E+02  0.00000000000E+00 0. -1.
         23    2    1    2    0    0  0.30227317036E+02  0.14601088651E+02  0.84651684430E+02  0.15464985832E+03  0.12499515397E+03 0.  0.
          5    1    3    3  502    0 -0.98425372861E+01 -0.48839322602E+02  0.15205064885E+02  0.52301424174E+02  0.47000000000E+01 0.  1.
         -5    1    3    3    0  502  0.40069854322E+02  0.63440411253E+02  0.69446619544E+02  0.10234843414E+03  0.47000000000E+01 0.  1.
        -11    1    1    2    0    0 -0.28356241669E+02 -0.36227512245E+02  0.14233155646E+03  0.14958202114E+03  0.00000000000E+00 0.  1.
         11    1    1    2    0    0 -0.18710753669E+01  0.21626423594E+02 -0.31453850464E+00  0.21709492278E+02  0.00000000000E+00 0. -1.
<mgrwt>
<rscale>  0 0.12003829E+03</rscale>
<asrwt>0</asrwt>
<pdfrwt beam="2">  1        3 0.76363594E-02 0.12942438E+03</pdfrwt>
<pdfrwt beam="1">  1       -3 0.42508466E-01 0.12942438E+03</pdfrwt>
<totfact> 0.14480975E+03</totfact>
</mgrwt>
</event>
<event>
 7    1  0.6419647E-006  0.2546108E+03  0.7546771E-02  0.1113149E+00
          2   -1    0    0  501    0  0.00000000000E+00  0.00000000000E+00  0.35040481812E+04  0.35040481812E+04  0.00000000000E+00 0. -1.
         -2   -1    0    0    0  501 -0.00000000000E+00 -0.00000000000E+00 -0.21725412564E+02  0.21725412564E+02  0.00000000000E+00 0.  1.
         23    2    1    2    0    0  0.21660923124E+03 -0.47744849708E+02  0.25856780193E+04  0.25981834956E+04  0.12501010796E+03 0.  0.
          5    1    3    3  502    0  0.11006835263E+03 -0.65372616877E+02  0.18706761009E+04  0.18750572754E+04  0.47000000000E+01 0. -1.
         -5    1    3    3    0  502  0.10654087861E+03  0.17627767169E+02  0.71500191842E+03  0.72312622020E+03  0.47000000000E+01 0. -1.
        -11    1    1    2    0    0 -0.96393694255E+02  0.64836987395E+02  0.43927575113E+03  0.45437733741E+03  0.00000000000E+00 0. -1.
         11    1    1    2    0    0 -0.12021553698E+03 -0.17092137687E+02  0.45736899817E+03  0.47321276080E+03  0.00000000000E+00 0.  1.
<mgrwt>
<rscale>  0 0.25024599E+03</rscale>
<asrwt>0</asrwt>
<pdfrwt beam="1">  1        2 0.53908389E+00 0.25461079E+03</pdfrwt>
<pdfrwt beam="2">  1       -2 0.33423739E-02 0.25461079E+03</pdfrwt>
<totfact> 0.36492482E+02</totfact>
</mgrwt>
</event>
<event>
 6    1  0.6419647E-006  0.2652389E+03  0.7546771E-02  0.1113250E+00
          2   -1    0    0  501    0  0.00000000000E+00  0.00000000000E+00  0.10247839260E+04  0.10247839260E+04  0.00000000000E+00 0. -1.
         -2   -1    0    0    0  501 -0.00000000000E+00 -0.00000000000E+00 -0.34964789150E+03  0.34964789150E+03  0.00000000000E+00 0.  1.
          5    1    1    2  502    0 -0.18498623461E+03 -0.11606227412E+03  0.72542351180E+03  0.75759601368E+03  0.47000000000E+01 0. -1.
         -5    1    1    2    0  502  0.40020880513E+02 -0.51505881901E+01  0.24852622709E+03  0.25182449243E+03  0.47000000000E+01 0.  1.
        -11    1    1    2    0    0  0.13871685033E+03  0.13337698902E+03 -0.25729287663E+03  0.32129645210E+03  0.00000000000E+00 0.  1.
         11    1    1    2    0    0  0.62485037618E+01 -0.12164126708E+02 -0.41520827796E+02  0.43714859244E+02  0.00000000000E+00 0. -1.
<mgrwt>
<rscale>  0 0.25008629E+03</rscale>
<asrwt>0</asrwt>
<pdfrwt beam="1">  1        2 0.15765906E+00 0.26523888E+03</pdfrwt>
<pdfrwt beam="2">  1       -2 0.53791984E-01 0.26523888E+03</pdfrwt>
<totfact> 0.85226127E+01</totfact>
</mgrwt>
</event>
<event>
 7    1  0.6419647E-006  0.1386161E+03  0.7546771E-02  0.1227033E+00
          1   -1    0    0  501    0  0.00000000000E+00  0.00000000000E+00  0.14520534650E+03  0.14520534650E+03  0.00000000000E+00 0. -1.
         -1   -1    0    0    0  501 -0.00000000000E+00 -0.00000000000E+00 -0.13859765363E+03  0.13859765363E+03  0.00000000000E+00 0.  1.
         23    2    1    2    0    0  0.54935840876E+02 -0.23900668713E+02  0.73214164959E+02  0.15676330373E+03  0.12500092346E+03 0.  0.
          5    1    3    3  502    0 -0.39485689520E+02  0.40740097785E+01  0.19169579077E+02  0.44331478596E+02  0.47000000000E+01 0. -1.
         -5    1    3    3    0  502  0.94421530396E+02 -0.27974678492E+02  0.54044585882E+02  0.11243182513E+03  0.47000000000E+01 0. -1.
        -11    1    1    2    0    0  0.10580015695E+02 -0.65215051400E+01  0.14054897463E+02  0.18761847033E+02  0.00000000000E+00 0. -1.
         11    1    1    2    0    0 -0.65515856571E+02  0.30422173853E+02 -0.80661369555E+02  0.10827784936E+03  0.00000000000E+00 0.  1.
<mgrwt>
<rscale>  0 0.13028542E+03</rscale>
<asrwt>0</asrwt>
<pdfrwt beam="1">  1        1 0.22339284E-01 0.13861609E+03</pdfrwt>
<pdfrwt beam="2">  1       -1 0.21322716E-01 0.13861609E+03</pdfrwt>
<totfact> 0.38611121E+03</totfact>
</mgrwt>
</event>
<event>
 7    1  0.6419647E-006  0.1473857E+03  0.7546771E-02  0.1213899E+00
          2   -1    0    0  501    0  0.00000000000E+00  0.00000000000E+00  0.11258536128E+04  0.11258536128E+04  0.00000000000E+00 0. -1.
         -2   -1    0    0    0  501 -0.00000000000E+00 -0.00000000000E+00 -0.15745109121E+02  0.15745109121E+02  0.00000000000E+00 0.  1.
         23    2    1    2    0    0 -0.60272949288E+02  0.49629029409E+02  0.64416591073E+03  0.66081182009E+03  0.12500668800E+03 0.  0.
          5    1    3    3  502    0 -0.45907721710E+02  0.17411481159E+02  0.60826641231E+03  0.61026289166E+03  0.47000000000E+01 0. -1.
         -5    1    3    3    0  502 -0.14365227578E+02  0.32217548250E+02  0.35899498416E+02  0.50548928427E+02  0.47000000000E+01 0. -1.
        -11    1    1    2    0    0  0.78432196589E+01  0.14380303548E+02  0.14661570587E+02  0.21983422773E+02  0.00000000000E+00 0.  1.
         11    1    1    2    0    0  0.52429729629E+02 -0.64009332957E+02  0.45128102240E+03  0.45880347910E+03  0.00000000000E+00 0. -1.
<mgrwt>
<rscale>  0 0.13957728E+03</rscale>
<asrwt>0</asrwt>
<pdfrwt beam="1">  1        2 0.17320819E+00 0.14738569E+03</pdfrwt>
<pdfrwt beam="2">  1       -2 0.24223254E-02 0.14738569E+03</pdfrwt>
<totfact> 0.12439350E+04</totfact>
</mgrwt>
</event>
<event>
 7    1  0.6419647E-006  0.2054153E+03  0.7546771E-02  0.1148846E+00
          1   -1    0    0  501    0  0.00000000000E+00  0.00000000000E+00  0.55164006133E+03  0.55164006133E+03  0.00000000000E+00 0. -1.
         -1   -1    0    0    0  501 -0.00000000000E+00 -0.00000000000E+00 -0.71572539251E+02  0.71572539251E+02  0.00000000000E+00 0.  1.
         23    2    1    2    0    0 -0.14783649458E+03 -0.68659025634E+02  0.29101354226E+03  0.35620824655E+03  0.12500296877E+03 0.  0.
          5    1    3    3  502    0  0.21065920126E+01 -0.30925055755E+01  0.11748022244E+03  0.11763372809E+03  0.47000000000E+01 0.  1.
         -5    1    3    3    0  502 -0.14994308659E+03 -0.65566520058E+02  0.17353331982E+03  0.23857451845E+03  0.47000000000E+01 0.  1.
        -11    1    1    2    0    0  0.15921574953E+03  0.68416699347E+02  0.18782600718E+03  0.25555646855E+03  0.00000000000E+00 0. -1.
         11    1    1    2    0    0 -0.11379254951E+02  0.24232628670E+00  0.12279726519E+01  0.11447885486E+02  0.00000000000E+00 0.  1.
<mgrwt>
<rscale>  0 0.20106171E+03</rscale>
<asrwt>0</asrwt>
<pdfrwt beam="1">  1        1 0.84867699E-01 0.20541527E+03</pdfrwt>
<pdfrwt beam="2">  1       -1 0.11011160E-01 0.20541527E+03</pdfrwt>
<totfact> 0.20576366E+03</totfact>
</mgrwt>
</event>
<event>
 7    1  0.6419647E-006  0.1425982E+03  0.7546771E-02  0.1220654E+00
         -3   -1    0    0    0  501 -0.00000000000E+00  0.00000000000E+00  0.25354544365E+02  0.25354544365E+02  0.00000000000E+00 0. -1.
          3   -1    0    0  501    0  0.00000000000E+00 -0.00000000000E+00 -0.84124027036E+03  0.84124027036E+03  0.00000000000E+00 0.  1.
         23    2    1    2    0    0 -0.57546113597E+02 -0.37381685247E+02 -0.65087377836E+03  0.66631142248E+03  0.12500116312E+03 0.  0.
          5    1    3    3  502    0 -0.42294441428E+01 -0.71169233231E+02 -0.45187463785E+03  0.45748849853E+03  0.47000000000E+01 0. -1.
         -5    1    3    3    0  502 -0.53316669454E+02  0.33787547984E+02 -0.19899914052E+03  0.20882292395E+03  0.47000000000E+01 0. -1.
        -11    1    1    2    0    0  0.53110000104E+02  0.14261519557E+01 -0.31110545628E+02  0.61567621927E+02  0.00000000000E+00 0. -1.
         11    1    1    2    0    0  0.44361134927E+01  0.35955533292E+02 -0.13390140200E+03  0.13871577032E+03  0.00000000000E+00 0.  1.
<mgrwt>
<rscale>  0 0.13469264E+03</rscale>
<asrwt>0</asrwt>
<pdfrwt beam="2">  1        3 0.12942158E+00 0.14259816E+03</pdfrwt>
<pdfrwt beam="1">  1       -3 0.39006992E-02 0.14259816E+03</pdfrwt>
<totfact> 0.39148087E+02</totfact>
</mgrwt>
</event>
<event>
 7    1  0.6419647E-006  0.1655771E+03  0.7546771E-02  0.1189626E+00
          2   -1    0    0  501    0  0.00000000000E+00  0.00000000000E+00  0.54129159477E+03  0.54129159477E+03  0.00000000000E+00 0. -1.
         -2   -1    0    0    0  501 -0.00000000000E+00 -0.00000000000E+00 -0.43560386024E+02  0.43560386024E+02  0.00000000000E+00 0.  1.
         23    2    1    2    0    0  0.92334726167E+02  0.57140742649E+02  0.26102765059E+03  0.30911359051E+03  0.12500004534E+03 0.  0.
          5    1    3    3  502    0  0.90100729135E+02  0.92162053805E+02  0.18842130111E+03  0.22833454023E+03  0.47000000000E+01 0. -1.
         -5    1    3    3    0  502  0.22339970323E+01 -0.35021311156E+02  0.72606349485E+02  0.80779050275E+02  0.47000000000E+01 0. -1.
        -11    1    1    2    0    0 -0.92517682601E+02 -0.11546320474E+02  0.18227058849E+03  0.20473252438E+03  0.00000000000E+00 0. -1.
         11    1    1    2    0    0  0.18295643435E+00 -0.45594422176E+02  0.54432969656E+02  0.71005865900E+02  0.00000000000E+00 0.  1.
<mgrwt>
<rscale>  0 0.15917957E+03</rscale>
<asrwt>0</asrwt>
<pdfrwt beam="1">  1        2 0.83275625E-01 0.16557710E+03</pdfrwt>
<pdfrwt beam="2">  1       -2 0.67015982E-02 0.16557710E+03</pdfrwt>
<totfact> 0.68834400E+03</totfact>
</mgrwt>
</event>
<event>
 7    1  0.6419647E-006  0.1299645E+03  0.7546771E-02  0.1239495E+00
          1   -1    0    0  501    0  0.00000000000E+00  0.00000000000E+00  0.10594037014E+03  0.10594037014E+03  0.00000000000E+00 0. -1.
         -1   -1    0    0    0  501 -0.00000000000E+00 -0.00000000000E+00 -0.14509898330E+03  0.14509898330E+03  0.00000000000E+00 0.  1.
         23    2    1    2    0    0  0.35521954510E+02 -0.13359744853E+01  0.22908564682E+02  0.13196803865E+03  0.12500866693E+03 0.  0.
          5    1    3    3  502    0 -0.20039177252E+02  0.23046064568E+02  0.55061475993E+02  0.63139099261E+02  0.47000000000E+01 0.  1.
         -5    1    3    3    0  502  0.55561131762E+02 -0.24382039053E+02 -0.32152911311E+02  0.68828939385E+02  0.47000000000E+01 0.  1.
        -11    1    1    2    0    0 -0.68484668942E+01  0.19475125157E+02 -0.78644440485E+02  0.81308855716E+02  0.00000000000E+00 0.  1.
         11    1    1    2    0    0 -0.28673487616E+02 -0.18139150672E+02  0.16577262638E+02  0.37762459079E+02  0.00000000000E+00 0. -1.
<mgrwt>
<rscale>  0 0.12221038E+03</rscale>
<asrwt>0</asrwt>
<pdfrwt beam="1">  1        1 0.16298519E-01 0.12996446E+03</pdfrwt>
<pdfrwt beam="2">  1       -1 0.22322920E-01 0.12996446E+03</pdfrwt>
<totfact> 0.53372799E+03</totfact>
</mgrwt>
</event>
<event>
 6    1  0.6419647E-006  0.1363248E+03  0.7546771E-02  0.1252588E+00
          4   -1    0    0  501    0  0.00000000000E+00  0.00000000000E+00  0.77508016974E+02  0.77508016974E+02  0.00000000000E+00 0. -1.
         -4   -1    0    0    0  501 -0.00000000000E+00 -0.00000000000E+00 -0.13784687094E+03  0.13784687094E+03  0.00000000000E+00 0.  1.
          5    1    1    2  502    0  0.33419358172E+02  0.59769885540E+02 -0.35046099313E+02  0.77068876955E+02  0.47000000000E+01 0. -1.
         -5    1    1    2    0  502 -0.55979796684E+02 -0.21628049906E+02  0.11470461638E+02  0.61279455527E+02  0.47000000000E+01 0.  1.
        -11    1    1    2    0    0  0.27595065338E+02 -0.47855131355E+02 -0.36211601699E+02  0.66052110683E+02  0.00000000000E+00 0. -1.
         11    1    1    2    0    0 -0.50346268256E+01  0.97132957218E+01 -0.55161458893E+00  0.10954444747E+02  0.00000000000E+00 0.  1.
<mgrwt>
<rscale>  0 0.11442509E+03</rscale>
<asrwt>0</asrwt>
<pdfrwt beam="1">  1        4 0.11924310E-01 0.13632480E+03</pdfrwt>
<pdfrwt beam="2">  1       -4 0.21207211E-01 0.13632480E+03</pdfrwt>
<totfact> 0.18747231E+03</totfact>
</mgrwt>
</event>
<event>
 7    1  0.6419647E-006  0.1283578E+03  0.7546771E-02  0.1243334E+00
          1   -1    0    0  501    0  0.00000000000E+00  0.00000000000E+00  0.14200884029E+04  0.14200884029E+04  0.00000000000E+00 0. -1.
         -1   -1    0    0    0  501 -0.00000000000E+00 -0.00000000000E+00 -0.13272180139E+02  0.13272180139E+02  0.00000000000E+00 0.  1.
         23    2    1    2    0    0  0.22550696012E+02 -0.18488529288E+02  0.11729448924E+04  0.11799472267E+04  0.12500151055E+03 0.  0.
          5    1    3    3  502    0  0.55184157009E+02  0.12813786070E+02  0.98280746763E+03  0.98445014740E+03  0.47000000000E+01 0.  1.
         -5    1    3    3    0  502 -0.32633460997E+02 -0.31302315358E+02  0.19013742474E+03  0.19549707929E+03  0.47000000000E+01 0.  1.
        -11    1    1    2    0    0  0.22604297924E+02  0.32416706148E+02  0.50912169602E+02  0.64450338523E+02  0.00000000000E+00 0.  1.
         11    1    1    2    0    0 -0.45154993936E+02 -0.13928176860E+02  0.18295916080E+03  0.18896301783E+03  0.00000000000E+00 0. -1.
<mgrwt>
<rscale>  0 0.11985630E+03</rscale>
<asrwt>0</asrwt>
<pdfrwt beam="1">  1        1 0.21847502E+00 0.12835785E+03</pdfrwt>
<pdfrwt beam="2">  1       -1 0.20418750E-02 0.12835785E+03</pdfrwt>
<totfact> 0.52724227E+03</totfact>
</mgrwt>
</event>
<event>
 7    1  0.6419647E-006  0.1982238E+03  0.7546771E-02  0.1155740E+00
         -2   -1    0    0    0  501 -0.00000000000E+00  0.00000000000E+00  0.80737185594E+02  0.80737185594E+02  0.00000000000E+00 0.  1.
          2   -1    0    0  501    0  0.00000000000E+00 -0.00000000000E+00 -0.53751073843E+03  0.53751073843E+03  0.00000000000E+00 0. -1.
         23    2    1    2    0    0  0.11992712158E+03  0.96384861805E+02 -0.37041190715E+03  0.42011623237E+03  0.12498044513E+03 0.  0.
          5    1    3    3  502    0  0.20089155390E+01  0.65298843720E+02 -0.20044522135E+03  0.21087520360E+03  0.47000000000E+01 0.  1.
         -5    1    3    3    0  502  0.11791820604E+03  0.31086018085E+02 -0.16996668580E+03  0.20924102876E+03  0.47000000000E+01 0.  1.
        -11    1    1    2    0    0 -0.48115591518E+02 -0.17673275686E+02  0.12524949172E+02  0.52766743053E+02  0.00000000000E+00 0.  1.
         11    1    1    2    0    0 -0.71811530063E+02 -0.78711586119E+02 -0.98886594854E+02  0.14536494860E+03  0.00000000000E+00 0. -1.
<mgrwt>
<rscale>  0 0.19304853E+03</rscale>
<asrwt>0</asrwt>
<pdfrwt beam="2">  1        2 0.82693958E-01 0.19822378E+03</pdfrwt>
<pdfrwt beam="1">  1       -2 0.12421106E-01 0.19822378E+03</pdfrwt>
<totfact> 0.26496690E+03</totfact>
</mgrwt>
</event>
<event>
 7    1  0.6419647E-006  0.1137195E+03  0.7546771E-02  0.1324634E+00
          2   -1    0    0  501    0  0.00000000000E+00  0.00000000000E+00  0.96029738645E+03  0.96029738645E+03  0.00000000000E+00 0. -1.
         -2   -1    0    0    0  501 -0.00000000000E+00 -0.00000000000E+00 -0.59710188229E+01  0.59710188229E+01  0.00000000000E+00 0.  1.
         23    2    1    2    0    0  0.91488643957E+00  0.16321111442E+01  0.85345032758E+03  0.86099336662E+03  0.11370406725E+03 0.  0.
          5    1    3    3  502    0  0.45585199125E+02 -0.33413717563E+02  0.43616735907E+03  0.43983922292E+03  0.47000000000E+01 0. -1.
         -5    1    3    3    0  502 -0.44670312685E+02  0.35045828707E+02  0.41728296851E+03  0.42115414370E+03  0.47000000000E+01 0.  1.
        -11    1    1    2    0    0  0.72521726508E+01  0.12086301335E+02  0.44180650443E+02  0.46374589612E+02  0.00000000000E+00 0.  1.
         11    1    1    2    0    0 -0.81670590903E+01 -0.13718412479E+02  0.56695389600E+02  0.58900449039E+02  0.00000000000E+00 0. -1.
<mgrwt>
<rscale>  0 0.81577149E+02</rscale>
<asrwt>0</asrwt>
<pdfrwt beam="1">  1        2 0.14773794E+00 0.11371946E+03</pdfrwt>
<pdfrwt beam="2">  1       -2 0.91861904E-03 0.11371946E+03</pdfrwt>
<totfact> 0.61543840E+04</totfact>
</mgrwt>
</event>
<event>
 6    1  0.6419647E-006  0.2841225E+03  0.7546771E-02  0.1136783E+00
          2   -1    0    0  501    0  0.00000000000E+00  0.00000000000E+00  0.27493382252E+03  0.27493382252E+03  0.00000000000E+00 0. -1.
         -2   -1    0    0    0  501 -0.00000000000E+00 -0.00000000000E+00 -0.13949698014E+03  0.13949698014E+03  0.00000000000E+00 0.  1.
          5    1    1    2  502    0  0.11709303445E+03  0.11587526438E+02  0.18332781581E+03  0.21789040258E+03  0.47000000000E+01 0. -1.
         -5    1    1    2    0  502 -0.92244850014E+02  0.12447727079E+02 -0.38711124326E+02  0.10091927175E+03  0.47000000000E+01 0.  1.
        -11    1    1    2    0    0  0.27988770390E+01 -0.46181616957E+02  0.19337756951E+02  0.50145032669E+02  0.00000000000E+00 0.  1.
         11    1    1    2    0    0 -0.27647061479E+02  0.22146363440E+02 -0.28517606058E+02  0.45476095669E+02  0.00000000000E+00 0. -1.
<mgrwt>
<rscale>  0 0.21615490E+03</rscale>
<asrwt>0</asrwt>
<pdfrwt beam="1">  1        2 0.42297511E-01 0.28412255E+03</pdfrwt>
<pdfrwt beam="2">  1       -2 0.21461074E-01 0.28412255E+03</pdfrwt>
<totfact> 0.22324433E+03</totfact>
</mgrwt>
</event>
<event>
 7    1  0.6419647E-006  0.1702921E+03  0.7546771E-02  0.1183963E+00
          1   -1    0    0  501    0  0.00000000000E+00  0.00000000000E+00  0.19427090025E+03  0.19427090025E+03  0.00000000000E+00 0. -1.
         -1   -1    0    0    0  501 -0.00000000000E+00 -0.00000000000E+00 -0.12998945888E+03  0.12998945888E+03  0.00000000000E+00 0.  1.
         23    2    1    2    0    0 -0.10725007817E+03 -0.43266823059E+02  0.30455900105E+02  0.17299410587E+03  0.12499920628E+03 0.  0.
          5    1    3    3  502    0 -0.89313281629E+02 -0.80874736098E+02 -0.98582290320E+00  0.12058460541E+03  0.47000000000E+01 0. -1.
         -5    1    3    3    0  502 -0.17936796538E+02  0.37607913039E+02  0.31441723008E+02  0.52409500464E+02  0.47000000000E+01 0. -1.
        -11    1    1    2    0    0  0.18888706975E+02  0.23894883834E+02 -0.28260391207E+02  0.41549951093E+02  0.00000000000E+00 0.  1.
         11    1    1    2    0    0  0.88361371192E+02  0.19371939225E+02  0.62085932473E+02  0.10971630216E+03  0.00000000000E+00 0. -1.
<mgrwt>
<rscale>  0 0.16426559E+03</rscale>
<asrwt>0</asrwt>
<pdfrwt beam="1">  1        1 0.29887831E-01 0.17029210E+03</pdfrwt>
<pdfrwt beam="2">  1       -1 0.19998378E-01 0.17029210E+03</pdfrwt>
<totfact> 0.29996077E+03</totfact>
</mgrwt>
</event>
<event>
 7    1  0.6419647E-006  0.1339253E+03  0.7546771E-02  0.1234851E+00
          3   -1    0    0  501    0  0.00000000000E+00  0.00000000000E+00  0.27455598623E+02  0.27455598623E+02  0.00000000000E+00 0. -1.
         -3   -1    0    0    0  501 -0.00000000000E+00 -0.00000000000E+00 -0.51178174223E+03  0.51178174223E+03  0.00000000000E+00 0.  1.
         23    2    1    2    0    0 -0.26852595493E+02 -0.39870483350E+02 -0.24931274016E+03  0.28300677296E+03  0.12500109523E+03 0.  0.
          5    1    3    3  502    0 -0.56598450947E+02 -0.56994425019E+02 -0.22928163475E+03  0.24298952070E+03  0.47000000000E+01 0. -1.
         -5    1    3    3    0  502  0.29745855455E+02  0.17123941669E+02 -0.20031105403E+02  0.40017252263E+02  0.47000000000E+01 0. -1.
        -11    1    1    2    0    0  0.20325905045E+02 -0.72365802547E-01 -0.28016778298E+01  0.20518212675E+02  0.00000000000E+00 0. -1.
         11    1    1    2    0    0  0.65266904475E+01  0.39942849153E+02 -0.23221172562E+03  0.23571235522E+03  0.00000000000E+00 0.  1.
<mgrwt>
<rscale>  0 0.12513969E+03</rscale>
<asrwt>0</asrwt>
<pdfrwt beam="1">  1        3 0.42239387E-02 0.13392532E+03</pdfrwt>
<pdfrwt beam="2">  1       -3 0.78735644E-01 0.13392532E+03</pdfrwt>
<totfact> 0.10585850E+03</totfact>
</mgrwt>
</event>
<event>
 7    1  0.6419647E-006  0.1590277E+03  0.7546771E-02  0.1195981E+00
          1   -1    0    0  501    0  0.00000000000E+00  0.00000000000E+00  0.55084073472E+03  0.55084073472E+03  0.00000000000E+00 0. -1.
         -1   -1    0    0    0  501 -0.00000000000E+00 -0.00000000000E+00 -0.44545515868E+02  0.44545515868E+02  0.00000000000E+00 0.  1.
         23    2    1    2    0    0 -0.88374253289E+02 -0.52413470562E+02  0.36079374713E+03  0.39428662410E+03  0.12137805992E+03 0.  0.
          5    1    3    3  502    0 -0.72617997029E+02  0.20516204949E+01  0.30862969665E+03  0.31709929406E+03  0.47000000000E+01 0. -1.
         -5    1    3    3    0  502 -0.15756256260E+02 -0.54465091057E+02  0.52164050477E+02  0.77187330031E+02  0.47000000000E+01 0.  1.
        -11    1    1    2    0    0  0.22872961962E+01  0.52054369193E+02  0.45776981250E+02  0.69357199254E+02  0.00000000000E+00 0. -1.
         11    1    1    2    0    0  0.86086957093E+02  0.35910136878E+00  0.99724490467E+02  0.13174242724E+03  0.00000000000E+00 0.  1.
<mgrwt>
<rscale>  0 0.15371488E+03</rscale>
<asrwt>0</asrwt>
<pdfrwt beam="1">  1        1 0.84744724E-01 0.15902771E+03</pdfrwt>
<pdfrwt beam="2">  1       -1 0.68531567E-02 0.15902771E+03</pdfrwt>
<totfact> 0.42167738E+03</totfact>
</mgrwt>
</event>
<event>
 7    1  0.6419647E-006  0.1874119E+03  0.7546771E-02  0.1165423E+00
         -2   -1    0    0    0  501 -0.00000000000E+00  0.00000000000E+00  0.61864845906E+02  0.61864845906E+02  0.00000000000E+00 0.  1.
          2   -1    0    0  501    0  0.00000000000E+00 -0.00000000000E+00 -0.55301076263E+03  0.55301076263E+03  0.00000000000E+00 0. -1.
         23    2    1    2    0    0  0.10416748670E+03  0.92990034160E+02 -0.34152651097E+03  0.38956845479E+03  0.12500084612E+03 0.  0.
          5    1    3    3  502    0  0.45549701215E+02  0.59469415435E+02 -0.30199327552E+03  0.31118067921E+03  0.47000000000E+01 0.  1.
         -5    1    3    3    0  502  0.58617785485E+02  0.33520618724E+02 -0.39533235449E+02  0.78387775576E+02  0.47000000000E+01 0.  1.
        -11    1    1    2    0    0 -0.11923772879E+03 -0.95871849746E+02 -0.13353042899E+03  0.20307491969E+03  0.00000000000E+00 0.  1.
         11    1    1    2    0    0  0.15070242094E+02  0.28818155860E+01 -0.16088976765E+02  0.22232234058E+02  0.00000000000E+00 0. -1.
<mgrwt>
<rscale>  0 0.18248172E+03</rscale>
<asrwt>0</asrwt>
<pdfrwt beam="2">  1        2 0.85078581E-01 0.18741191E+03</pdfrwt>
<pdfrwt beam="1">  1       -2 0.95176684E-02 0.18741191E+03</pdfrwt>
<totfact> 0.39171974E+03</totfact>
</mgrwt>
</event>
<event>
 7    1  0.6419647E-006  0.1562197E+03  0.7546771E-02  0.1204441E+00
         -3   -1    0    0    0  501 -0.00000000000E+00  0.00000000000E+00  0.35802913519E+03  0.35802913519E+03  0.00000000000E+00 0.  1.
          3   -1    0    0  501    0  0.00000000000E+00 -0.00000000000E+00 -0.60408593880E+02  0.60408593880E+02  0.00000000000E+00 0. -1.
         23    2    1    2    0    0 -0.93718220400E+02 -0.63904805240E+00  0.97556465497E+02  0.18417886732E+03  0.12498431098E+03 0.  0.
          5    1    3    3  502    0 -0.22338351507E+02  0.41666371753E+02  0.88671610805E+02  0.10059738091E+03  0.47000000000E+01 0.  1.
         -5    1    3    3    0  502 -0.71379868893E+02 -0.42305419806E+02  0.88848546919E+01  0.83581486413E+02  0.47000000000E+01 0.  1.
        -11    1    1    2    0    0  0.31739897634E+02  0.25235090005E+02  0.13552183002E+03  0.14145811140E+03  0.00000000000E+00 0.  1.
         11    1    1    2    0    0  0.61978322766E+02 -0.24596041953E+02  0.64542245790E+02  0.92800750343E+02  0.00000000000E+00 0. -1.
<mgrwt>
<rscale>  0 0.14681601E+03</rscale>
<asrwt>0</asrwt>
<pdfrwt beam="2">  1        3 0.92936300E-02 0.15621969E+03</pdfrwt>
<pdfrwt beam="1">  1       -3 0.55081404E-01 0.15621969E+03</pdfrwt>
<totfact> 0.64627931E+02</totfact>
</mgrwt>
</event>
<event>
 7    1  0.6419647E-006  0.1369100E+03  0.7546771E-02  0.1229438E+00
         -1   -1    0    0    0  501 -0.00000000000E+00  0.00000000000E+00  0.62591379856E+03  0.62591379856E+03  0.00000000000E+00 0.  1.
          1   -1    0    0  501    0  0.00000000000E+00 -0.00000000000E+00 -0.28694288830E+02  0.28694288830E+02  0.00000000000E+00 0. -1.
         23    2    1    2    0    0  0.79474644974E+01 -0.55278074618E+02  0.19377030882E+03  0.23725781050E+03  0.12500203333E+03 0.  0.
          5    1    3    3  502    0  0.19640755826E+02 -0.25534006366E+02  0.20144193830E+03  0.20405560339E+03  0.47000000000E+01 0.  1.
         -5    1    3    3    0  502 -0.11693291328E+02 -0.29744068253E+02 -0.76716294731E+01  0.33202207111E+02  0.47000000000E+01 0.  1.
        -11    1    1    2    0    0 -0.48673971490E+02  0.28431187980E+02  0.17918045835E+03  0.18783802758E+03  0.00000000000E+00 0. -1.
         11    1    1    2    0    0  0.40726506992E+02  0.26846886639E+02  0.22426874256E+03  0.22951224931E+03  0.00000000000E+00 0.  1.
<mgrwt>
<rscale>  0 0.12867286E+03</rscale>
<asrwt>0</asrwt>
<pdfrwt beam="2">  1        1 0.44145064E-02 0.13690996E+03</pdfrwt>
<pdfrwt beam="1">  1       -1 0.96294421E-01 0.13690996E+03</pdfrwt>
<totfact> 0.21068858E+03</totfact>
</mgrwt>
</event>
<event>
 7    1  0.6419647E-006  0.1115064E+03  0.7546771E-02  0.1269097E+00
          2   -1    0    0  501    0  0.00000000000E+00  0.00000000000E+00  0.13021879283E+03  0.13021879283E+03  0.00000000000E+00 0. -1.
         -2   -1    0    0    0  501 -0.00000000000E+00 -0.00000000000E+00 -0.79862483564E+02  0.79862483564E+02  0.00000000000E+00 0.  1.
         23    2    1    2    0    0  0.98054616377E+01  0.40672122823E+01  0.45787343396E+02  0.12054114508E+03  0.11099998896E+03 0.  0.
          5    1    3    3  502    0  0.29395401112E+02 -0.43039926244E+02  0.45438752111E+02  0.69305808206E+02  0.47000000000E+01 0. -1.
         -5    1    3    3    0  502 -0.19589939475E+02  0.47107138527E+02  0.34859128538E+00  0.51235336875E+02  0.47000000000E+01 0.  1.
        -11    1    1    2    0    0 -0.94060314920E+01 -0.25707639593E+02  0.39732232070E+02  0.48249418931E+02  0.00000000000E+00 0. -1.
         11    1    1    2    0    0 -0.39943014565E+00  0.21640427311E+02 -0.35163266204E+02  0.41290712379E+02  0.00000000000E+00 0.  1.
<mgrwt>
<rscale>  0 0.10552075E+03</rscale>
<asrwt>0</asrwt>
<pdfrwt beam="1">  1        2 0.20033660E-01 0.11150644E+03</pdfrwt>
<pdfrwt beam="2">  1       -2 0.12286536E-01 0.11150644E+03</pdfrwt>
<totfact> 0.12137884E+04</totfact>
</mgrwt>
</event>
<event>
 7    1  0.6419647E-006  0.1390103E+03  0.7546771E-02  0.1226176E+00
          2   -1    0    0  501    0  0.00000000000E+00  0.00000000000E+00  0.34018185328E+03  0.34018185328E+03  0.00000000000E+00 0. -1.
         -2   -1    0    0    0  501 -0.00000000000E+00 -0.00000000000E+00 -0.54114914580E+02  0.54114914580E+02  0.00000000000E+00 0.  1.
         23    2    1    2    0    0  0.24256400791E+02  0.55783202468E+02  0.23663006543E+03  0.27444062805E+03  0.12499492710E+03 0.  0.
          5    1    3    3  502    0  0.41217730569E+02  0.58253765604E+02  0.50702392736E+02  0.87665415926E+02  0.47000000000E+01 0.  1.
         -5    1    3    3    0  502 -0.16961329778E+02 -0.24705631352E+01  0.18592767270E+03  0.18677521213E+03  0.47000000000E+01 0.  1.
        -11    1    1    2    0    0 -0.27494056333E+02 -0.29244564425E+01 -0.18833245438E+02  0.33453949137E+02  0.00000000000E+00 0.  1.
         11    1    1    2    0    0  0.32376555418E+01 -0.52858746026E+02  0.68270118703E+02  0.86402190670E+02  0.00000000000E+00 0. -1.
<mgrwt>
<rscale>  0 0.13086593E+03</rscale>
<asrwt>0</asrwt>
<pdfrwt beam="1">  1        2 0.52335668E-01 0.13901033E+03</pdfrwt>
<pdfrwt beam="2">  1       -2 0.83253717E-02 0.13901033E+03</pdfrwt>
<totfact> 0.80658913E+03</totfact>
</mgrwt>
</event>
<event>
 7    1  0.6419647E-006  0.1259496E+03  0.7546771E-02  0.1248988E+00
         -3   -1    0    0    0  501 -0.00000000000E+00  0.00000000000E+00  0.27325672828E+02  0.27325672828E+02  0.00000000000E+00 0.  1.
          3   -1    0    0  501    0  0.00000000000E+00 -0.00000000000E+00 -0.46208274378E+03  0.46208274378E+03  0.00000000000E+00 0. -1.
         23    2    1    2    0    0 -0.64596369690E+01 -0.14001889203E+02 -0.30725556913E+03  0.33206820567E+03  0.12500211456E+03 0.  0.
          5    1    3    3  502    0 -0.58370061784E+02  0.22040902870E+02 -0.15465376375E+03  0.16683147830E+03  0.47000000000E+01 0. -1.
         -5    1    3    3    0  502  0.51910424815E+02 -0.36042792072E+02 -0.15260180539E+03  0.16523672737E+03  0.47000000000E+01 0. -1.
        -11    1    1    2    0    0 -0.33371150964E+00 -0.37731113966E+02 -0.36829175109E+02  0.52726999381E+02  0.00000000000E+00 0. -1.
         11    1    1    2    0    0  0.67933484786E+01  0.51733003169E+02 -0.90672326706E+02  0.10461321155E+03  0.00000000000E+00 0.  1.
<mgrwt>
<rscale>  0 0.11649858E+03</rscale>
<asrwt>0</asrwt>
<pdfrwt beam="2">  1        3 0.71089653E-01 0.12594963E+03</pdfrwt>
<pdfrwt beam="1">  1       -3 0.42039497E-02 0.12594963E+03</pdfrwt>
<totfact> 0.13151853E+03</totfact>
</mgrwt>
</event>
<event>
 7    1  0.6419647E-006  0.1172932E+03  0.7546771E-02  0.1251359E+00
          3   -1    0    0  501    0  0.00000000000E+00  0.00000000000E+00  0.75587564409E+02  0.75587564409E+02  0.00000000000E+00 0. -1.
         -3   -1    0    0    0  501 -0.00000000000E+00 -0.00000000000E+00 -0.19704312266E+03  0.19704312266E+03  0.00000000000E+00 0.  1.
         23    2    1    2    0    0 -0.33200801962E+01 -0.35919389601E+02 -0.11431988097E+02  0.11784895506E+03  0.11160851390E+03 0.  0.
          5    1    3    3  502    0  0.26167004664E+01  0.11472688290E+02 -0.52915918092E+02  0.54411892867E+02  0.47000000000E+01 0. -1.
         -5    1    3    3    0  502 -0.59367806626E+01 -0.47392077891E+02  0.41483929994E+02  0.63437062190E+02  0.47000000000E+01 0.  1.
        -11    1    1    2    0    0  0.42964554108E+02  0.29978101738E+02 -0.10086883081E+03  0.11366248511E+03  0.00000000000E+00 0.  1.
         11    1    1    2    0    0 -0.39644473912E+02  0.59412878633E+01 -0.91547393503E+01  0.41119246902E+02  0.00000000000E+00 0. -1.
<mgrwt>
<rscale>  0 0.11512758E+03</rscale>
<asrwt>0</asrwt>
<pdfrwt beam="1">  1        3 0.11628856E-01 0.11729316E+03</pdfrwt>
<pdfrwt beam="2">  1       -3 0.30314326E-01 0.11729316E+03</pdfrwt>
<totfact> 0.13531190E+03</totfact>
</mgrwt>
</event>
<event>
 7    1  0.6419647E-006  0.2513817E+03  0.7546771E-02  0.1114917E+00
          1   -1    0    0  501    0  0.00000000000E+00  0.00000000000E+00  0.28281340786E+03  0.28281340786E+03  0.00000000000E+00 0. -1.
         -1   -1    0    0    0  501 -0.00000000000E+00 -0.00000000000E+00 -0.41328282761E+03  0.41328282761E+03  0.00000000000E+00 0.  1.
         23    2    1    2    0    0 -0.73468724997E+02  0.20536736107E+03  0.17773391941E+03  0.30786705146E+03  0.12497747286E+03 0.  0.
          5    1    3    3  502    0 -0.65674017729E+02  0.12233372591E+03  0.36271928500E+02  0.14358398203E+03  0.47000000000E+01 0. -1.
         -5    1    3    3    0  502 -0.77947072680E+01  0.83033635164E+02  0.14146199091E+03  0.16428306943E+03  0.47000000000E+01 0. -1.
        -11    1    1    2    0    0  0.53634152031E+02 -0.53770676310E+02 -0.60311771591E+02  0.96981532713E+02  0.00000000000E+00 0. -1.
         11    1    1    2    0    0  0.19834572966E+02 -0.15159668476E+03 -0.24789156757E+03  0.29124765130E+03  0.00000000000E+00 0.  1.
<mgrwt>
<rscale>  0 0.24746509E+03</rscale>
<asrwt>0</asrwt>
<pdfrwt beam="1">  1        1 0.43509755E-01 0.25138173E+03</pdfrwt>
<pdfrwt beam="2">  1       -1 0.63581973E-01 0.25138173E+03</pdfrwt>
<totfact> 0.24735317E+02</totfact>
</mgrwt>
</event>
<event>
 7    1  0.6419647E-006  0.1360506E+03  0.7546771E-02  0.1230359E+00
         -2   -1    0    0    0  501 -0.00000000000E+00  0.00000000000E+00  0.43128651246E+02  0.43128651246E+02  0.00000000000E+00 0.  1.
          2   -1    0    0  501    0  0.00000000000E+00 -0.00000000000E+00 -0.42943072253E+03  0.42943072253E+03  0.00000000000E+00 0. -1.
         23    2    1    2    0    0  0.52432060787E+02  0.11544204692E+02 -0.31774149376E+03  0.34564348750E+03  0.12500949537E+03 0.  0.
          5    1    3    3  502    0 -0.51473221692E+01  0.58706214297E+02 -0.17294095403E+03  0.18276645782E+03  0.47000000000E+01 0.  1.
         -5    1    3    3    0  502  0.57579382956E+02 -0.47162009605E+02 -0.14480053974E+03  0.16287702969E+03  0.47000000000E+01 0.  1.
        -11    1    1    2    0    0 -0.66609780769E+02 -0.70132572976E+01 -0.11515106352E+02  0.67960623499E+02  0.00000000000E+00 0.  1.
         11    1    1    2    0    0  0.14177719982E+02 -0.45309473946E+01 -0.57045471166E+02  0.58955262774E+02  0.00000000000E+00 0. -1.
<mgrwt>
<rscale>  0 0.12806256E+03</rscale>
<asrwt>0</asrwt>
<pdfrwt beam="2">  1        2 0.66066265E-01 0.13605059E+03</pdfrwt>
<pdfrwt beam="1">  1       -2 0.66351771E-02 0.13605059E+03</pdfrwt>
<totfact> 0.89028603E+03</totfact>
</mgrwt>
</event>
<event>
 7    1  0.6419647E-006  0.1273172E+03  0.7546771E-02  0.1246235E+00
         -1   -1    0    0    0  501 -0.00000000000E+00  0.00000000000E+00  0.34291717108E+03  0.34291717108E+03  0.00000000000E+00 0.  1.
          1   -1    0    0  501    0  0.00000000000E+00 -0.00000000000E+00 -0.36371038335E+02  0.36371038335E+02  0.00000000000E+00 0. -1.
         23    2    1    2    0    0  0.19094273126E+02  0.14864028212E+02  0.15249472965E+03  0.19865626009E+03  0.12499654596E+03 0.  0.
          5    1    3    3  502    0  0.10732806436E+02  0.67723549063E+02  0.11189661457E+03  0.13131875184E+03  0.47000000000E+01 0. -1.
         -5    1    3    3    0  502  0.83614666902E+01 -0.52859520851E+02  0.40598115079E+02  0.67337508254E+02  0.47000000000E+01 0. -1.
        -11    1    1    2    0    0  0.26264392173E+02 -0.10519404395E+02  0.12119904761E+03  0.12445756428E+03  0.00000000000E+00 0.  1.
         11    1    1    2    0    0 -0.45358665299E+02 -0.43446238167E+01  0.32852355478E+02  0.56174385037E+02  0.00000000000E+00 0. -1.
<mgrwt>
<rscale>  0 0.11811772E+03</rscale>
<asrwt>0</asrwt>
<pdfrwt beam="2">  1        1 0.55955446E-02 0.12731719E+03</pdfrwt>
<pdfrwt beam="1">  1       -1 0.52756486E-01 0.12731719E+03</pdfrwt>
<totfact> 0.50228710E+03</totfact>
</mgrwt>
</event>
<event>
 7    1  0.6419647E-006  0.2464584E+03  0.7546771E-02  0.1118129E+00
         -2   -1    0    0    0  501 -0.00000000000E+00  0.00000000000E+00  0.37062100271E+02  0.37062100271E+02  0.00000000000E+00 0.  1.
          2   -1    0    0  501    0  0.00000000000E+00 -0.00000000000E+00 -0.15448649622E+04  0.15448649622E+04  0.00000000000E+00 0. -1.
         23    2    1    2    0    0  0.17788387556E+03  0.11607594352E+03 -0.83039547822E+03  0.86619767124E+03  0.12500183029E+03 0.  0.
          5    1    3    3  502    0  0.70430686597E+02 -0.37837469001E+00 -0.12838112296E+03  0.14650743160E+03  0.47000000000E+01 0.  1.
         -5    1    3    3    0  502  0.10745318896E+03  0.11645431821E+03 -0.70201435525E+03  0.71969023964E+03  0.47000000000E+01 0.  1.
        -11    1    1    2    0    0 -0.94146549705E+01 -0.40909747420E+02 -0.78036727323E+02  0.88611364810E+02  0.00000000000E+00 0.  1.
         11    1    1    2    0    0 -0.16846922058E+03 -0.75166196104E+02 -0.59937065644E+03  0.62711802647E+03  0.00000000000E+00 0. -1.
<mgrwt>
<rscale>  0 0.24251466E+03</rscale>
<asrwt>0</asrwt>
<pdfrwt beam="2">  1        2 0.23767156E+00 0.24645843E+03</pdfrwt>
<pdfrwt beam="1">  1       -2 0.57018610E-02 0.24645843E+03</pdfrwt>
<totfact> 0.20683691E+03</totfact>
</mgrwt>
</event>
<event>
 7    1  0.6419647E-006  0.1308670E+03  0.7546771E-02  0.1239665E+00
         -3   -1    0    0    0  501 -0.00000000000E+00  0.00000000000E+00  0.10853968775E+03  0.10853968775E+03  0.00000000000E+00 0.  1.
          3   -1    0    0  501    0  0.00000000000E+00 -0.00000000000E+00 -0.15416198357E+03  0.15416198357E+03  0.00000000000E+00 0. -1.
         23    2    1    2    0    0  0.31737936677E+02 -0.22251931867E+02 -0.84933913258E+02  0.15601262497E+03  0.12499489762E+03 0.  0.
          5    1    3    3  502    0 -0.69908961487E+01  0.48024881000E+02 -0.20075665039E+02  0.52729348098E+02  0.47000000000E+01 0. -1.
         -5    1    3    3    0  502  0.38728832826E+02 -0.70276812867E+02 -0.64858248219E+02  0.10328327687E+03  0.47000000000E+01 0. -1.
        -11    1    1    2    0    0 -0.48383142673E+02 -0.40504179314E+01  0.53702323666E+02  0.72396643206E+02  0.00000000000E+00 0.  1.
         11    1    1    2    0    0  0.16645205996E+02  0.26302349798E+02 -0.14390706225E+02  0.34292403142E+02  0.00000000000E+00 0. -1.
<mgrwt>
<rscale>  0 0.12210438E+03</rscale>
<asrwt>0</asrwt>
<pdfrwt beam="2">  1        3 0.23717228E-01 0.13086699E+03</pdfrwt>
<pdfrwt beam="1">  1       -3 0.16698413E-01 0.13086699E+03</pdfrwt>
<totfact> 0.11665154E+03</totfact>
</mgrwt>
</event>
<event>
 7    1  0.6419647E-006  0.1312066E+03  0.7546771E-02  0.1241211E+00
          2   -1    0    0  501    0  0.00000000000E+00  0.00000000000E+00  0.22239419248E+03  0.22239419248E+03  0.00000000000E+00 0. -1.
         -2   -1    0    0    0  501 -0.00000000000E+00 -0.00000000000E+00 -0.59019962135E+02  0.59019962135E+02  0.00000000000E+00 0.  1.
         23    2    1    2    0    0 -0.34771538665E+02 -0.19515024421E+02  0.11500611960E+03  0.17447516552E+03  0.12500111902E+03 0.  0.
          5    1    3    3  502    0  0.74437412263E+00  0.22825332086E+02  0.11667981506E+03  0.11898663421E+03  0.47000000000E+01 0.  1.
         -5    1    3    3    0  502 -0.35515912788E+02 -0.42340356507E+02 -0.16736954601E+01  0.55488531309E+02  0.47000000000E+01 0.  1.
        -11    1    1    2    0    0  0.21193697220E+01 -0.16952820782E+02 -0.17774087972E+02  0.24653763683E+02  0.00000000000E+00 0.  1.
         11    1    1    2    0    0  0.32652168943E+02  0.36467845203E+02  0.66142198713E+02  0.82285225412E+02  0.00000000000E+00 0. -1.
<mgrwt>
<rscale>  0 0.12115070E+03</rscale>
<asrwt>0</asrwt>
<pdfrwt beam="1">  1        2 0.34214491E-01 0.13120662E+03</pdfrwt>
<pdfrwt beam="2">  1       -2 0.90799943E-02 0.13120662E+03</pdfrwt>
<totfact> 0.11027175E+04</totfact>
</mgrwt>
</event>
<event>
 7    1  0.6419647E-006  0.1753710E+03  0.7546771E-02  0.1177499E+00
         -1   -1    0    0    0  501 -0.00000000000E+00  0.00000000000E+00  0.65472411045E+02  0.65472411045E+02  0.00000000000E+00 0.  1.
          1   -1    0    0  501    0  0.00000000000E+00 -0.00000000000E+00 -0.55723503756E+03  0.55723503756E+03  0.00000000000E+00 0. -1.
         23    2    1    2    0    0 -0.12060498286E+03  0.24165355173E+02 -0.41126253311E+03  0.44709266432E+03  0.12500181225E+03 0.  0.
          5    1    3    3  502    0 -0.92220968261E+02  0.55768293501E+02 -0.16489884776E+03  0.19704956113E+03  0.47000000000E+01 0. -1.
         -5    1    3    3    0  502 -0.28384014599E+02 -0.31602938327E+02 -0.24636368535E+03  0.25004310320E+03  0.47000000000E+01 0. -1.
        -11    1    1    2    0    0  0.22105364942E+02  0.27129141809E+02 -0.48935508709E+02  0.60160797096E+02  0.00000000000E+00 0. -1.
         11    1    1    2    0    0  0.98499617918E+02 -0.51294496982E+02 -0.31564584693E+02  0.11545398719E+03  0.00000000000E+00 0.  1.
<mgrwt>
<rscale>  0 0.17033488E+03</rscale>
<asrwt>0</asrwt>
<pdfrwt beam="2">  1        1 0.85728463E-01 0.17537098E+03</pdfrwt>
<pdfrwt beam="1">  1       -1 0.10072679E-01 0.17537098E+03</pdfrwt>
<totfact> 0.23202648E+03</totfact>
</mgrwt>
</event>
<event>
 7    1  0.6419647E-006  0.1253961E+03  0.7546771E-02  0.1243050E+00
          1   -1    0    0  501    0  0.00000000000E+00  0.00000000000E+00  0.38767305543E+03  0.38767305543E+03  0.00000000000E+00 0. -1.
         -1   -1    0    0    0  501 -0.00000000000E+00 -0.00000000000E+00 -0.37269477553E+02  0.37269477553E+02  0.00000000000E+00 0.  1.
         23    2    1    2    0    0 -0.82959484140E+01 -0.62224668730E+01  0.24893869498E+03  0.27873760913E+03  0.12496655165E+03 0.  0.
          5    1    3    3  502    0 -0.61487953126E+00  0.36307420293E+02  0.13042413107E+02  0.38869028607E+02  0.47000000000E+01 0. -1.
         -5    1    3    3    0  502 -0.76810688827E+01 -0.42529887166E+02  0.23589628187E+03  0.23986858052E+03  0.47000000000E+01 0. -1.
        -11    1    1    2    0    0 -0.45388156765E+01  0.23923591384E+02 -0.14403699733E+02  0.28291441081E+02  0.00000000000E+00 0.  1.
         11    1    1    2    0    0  0.12834764090E+02 -0.17701124511E+02  0.11586858263E+03  0.11791348277E+03  0.00000000000E+00 0. -1.
<mgrwt>
<rscale>  0 0.12002845E+03</rscale>
<asrwt>0</asrwt>
<pdfrwt beam="1">  1        1 0.59642006E-01 0.12539610E+03</pdfrwt>
<pdfrwt beam="2">  1       -1 0.57337660E-02 0.12539610E+03</pdfrwt>
<totfact> 0.85437204E+03</totfact>
</mgrwt>
</event>
<event>
 7    1  0.6419647E-006  0.1702114E+03  0.7546771E-02  0.1184333E+00
          1   -1    0    0  501    0  0.00000000000E+00  0.00000000000E+00  0.17277431242E+04  0.17277431242E+04  0.00000000000E+00 0. -1.
         -1   -1    0    0    0  501 -0.00000000000E+00 -0.00000000000E+00 -0.19900479898E+02  0.19900479898E+02  0.00000000000E+00 0.  1.
         23    2    1    2    0    0 -0.35227881098E+02  0.11002350686E+03  0.13546103218E+04  0.13652622595E+04  0.12500295017E+03 0.  0.
          5    1    3    3  502    0 -0.86718644731E+01  0.31909853125E+02  0.10217994078E+04  0.10223451275E+04  0.47000000000E+01 0.  1.
         -5    1    3    3    0  502 -0.26556016625E+02  0.78113653738E+02  0.33281091402E+03  0.34291713198E+03  0.47000000000E+01 0.  1.
        -11    1    1    2    0    0 -0.15751165591E+02 -0.49919242989E+02  0.64404417298E+02  0.82993728713E+02  0.00000000000E+00 0.  1.
         11    1    1    2    0    0  0.50979046689E+02 -0.60104263874E+02  0.28882790525E+03  0.29938761595E+03  0.00000000000E+00 0. -1.
<mgrwt>
<rscale>  0 0.16392707E+03</rscale>
<asrwt>0</asrwt>
<pdfrwt beam="1">  1        1 0.26580652E+00 0.17021138E+03</pdfrwt>
<pdfrwt beam="2">  1       -1 0.30616137E-02 0.17021138E+03</pdfrwt>
<totfact> 0.18597689E+03</totfact>
</mgrwt>
</event>
<event>
 7    1  0.6419647E-006  0.1343935E+03  0.7546771E-02  0.1223648E+00
         -2   -1    0    0    0  501 -0.00000000000E+00  0.00000000000E+00  0.23108408529E+03  0.23108408529E+03  0.00000000000E+00 0.  1.
          2   -1    0    0  501    0  0.00000000000E+00 -0.00000000000E+00 -0.75973121870E+02  0.75973121870E+02  0.00000000000E+00 0. -1.
         23    2    1    2    0    0  0.44969418264E+02 -0.20352763796E+02  0.55646607053E+02  0.14545844072E+03  0.12500051811E+03 0.  0.
          5    1    3    3  502    0  0.25183910427E+02 -0.55704692258E+02 -0.15687690807E+02  0.63288511808E+02  0.47000000000E+01 0.  1.
         -5    1    3    3    0  502  0.19785507837E+02  0.35351928463E+02  0.71334297860E+02  0.82169928913E+02  0.47000000000E+01 0.  1.
        -11    1    1    2    0    0  0.39858026914E+02  0.24796708080E+01  0.39653028031E+02  0.56277648395E+02  0.00000000000E+00 0.  1.
         11    1    1    2    0    0 -0.84827445178E+02  0.17873092988E+02  0.59811328333E+02  0.10532111804E+03  0.00000000000E+00 0. -1.
<mgrwt>
<rscale>  0 0.13259997E+03</rscale>
<asrwt>0</asrwt>
<pdfrwt beam="2">  1        2 0.11688173E-01 0.13439350E+03</pdfrwt>
<pdfrwt beam="1">  1       -2 0.35551397E-01 0.13439350E+03</pdfrwt>
<totfact> 0.37639238E+03</totfact>
</mgrwt>
</event>
<event>
 7    1  0.6419647E-006  0.1500931E+03  0.7546771E-02  0.1210550E+00
         -2   -1    0    0    0  501 -0.00000000000E+00  0.00000000000E+00  0.27167030321E+02  0.27167030321E+02  0.00000000000E+00 0.  1.
          2   -1    0    0  501    0  0.00000000000E+00 -0.00000000000E+00 -0.89345548876E+03  0.89345548876E+03  0.00000000000E+00 0. -1.
         23    2    1    2    0    0 -0.77763555327E+02 -0.29249220727E+02 -0.69594432136E+03  0.71194553690E+03  0.12500104647E+03 0.  0.
          5    1    3    3  502    0 -0.38761741069E+02  0.47176376012E+02 -0.22287598870E+03  0.23113606245E+03  0.47000000000E+01 0.  1.
         -5    1    3    3    0  502 -0.39001814258E+02 -0.76425596739E+02 -0.47306833266E+03  0.48080947445E+03  0.47000000000E+01 0.  1.
        -11    1    1    2    0    0  0.64203513527E+02 -0.18636475208E+02 -0.70746371130E+02  0.97336829542E+02  0.00000000000E+00 0.  1.
         11    1    1    2    0    0  0.13560041800E+02  0.47885695936E+02 -0.99597765949E+02  0.11134015264E+03  0.00000000000E+00 0. -1.
<mgrwt>
<rscale>  0 0.14208556E+03</rscale>
<asrwt>0</asrwt>
<pdfrwt beam="2">  1        2 0.13745467E+00 0.15009313E+03</pdfrwt>
<pdfrwt beam="1">  1       -2 0.41795437E-02 0.15009313E+03</pdfrwt>
<totfact> 0.76658418E+03</totfact>
</mgrwt>
</event>
<event>
 7    1  0.6419647E-006  0.1345901E+03  0.7546771E-02  0.1230103E+00
         -1   -1    0    0    0  501 -0.00000000000E+00  0.00000000000E+00  0.40639240653E+02  0.40639240653E+02  0.00000000000E+00 0.  1.
          1   -1    0    0  501    0  0.00000000000E+00 -0.00000000000E+00 -0.44305548594E+03  0.44305548594E+03  0.00000000000E+00 0. -1.
         23    2    1    2    0    0  0.59979596324E+02  0.20301556618E+02 -0.31477360180E+03  0.34234036153E+03  0.11876362053E+03 0.  0.
          5    1    3    3  502    0  0.20617103996E+02  0.64872948893E+02 -0.22017846445E+03  0.23050859134E+03  0.47000000000E+01 0. -1.
         -5    1    3    3    0  502  0.39362492328E+02 -0.44571392275E+02 -0.94595137358E+02  0.11183177019E+03  0.47000000000E+01 0.  1.
        -11    1    1    2    0    0  0.31402372420E+01 -0.22807351337E+02  0.99669065549E+01  0.25087359192E+02  0.00000000000E+00 0. -1.
         11    1    1    2    0    0 -0.63119833566E+02  0.25057947194E+01 -0.97609550038E+02  0.11626700588E+03  0.00000000000E+00 0.  1.
<mgrwt>
<rscale>  0 0.12823225E+03</rscale>
<asrwt>0</asrwt>
<pdfrwt beam="2">  1        1 0.68162382E-01 0.13459013E+03</pdfrwt>
<pdfrwt beam="1">  1       -1 0.62521909E-02 0.13459013E+03</pdfrwt>
<totfact> 0.63742439E+03</totfact>
</mgrwt>
</event>
<event>
 7    1  0.6419647E-006  0.1639361E+03  0.7546771E-02  0.1191688E+00
         -2   -1    0    0    0  501 -0.00000000000E+00  0.00000000000E+00  0.18107733186E+02  0.18107733186E+02  0.00000000000E+00 0. -1.
          2   -1    0    0  501    0  0.00000000000E+00 -0.00000000000E+00 -0.14091372284E+04  0.14091372284E+04  0.00000000000E+00 0.  1.
         23    2    1    2    0    0  0.87809369344E+02 -0.59505655497E+02 -0.97090991112E+03  0.98465278548E+03  0.12499457616E+03 0.  0.
          5    1    3    3  502    0  0.12011906822E+02  0.32670094745E+01 -0.57808306183E+01  0.14507489757E+02  0.47000000000E+01 0. -1.
         -5    1    3    3    0  502  0.75797462522E+02 -0.62772664971E+02 -0.96512908050E+03  0.97014529573E+03  0.47000000000E+01 0. -1.
        -11    1    1    2    0    0 -0.37452724370E+02  0.69072651080E+02 -0.32689507376E+03  0.33620548321E+03  0.00000000000E+00 0.  1.
         11    1    1    2    0    0 -0.50356644974E+02 -0.95669955830E+01 -0.93224510317E+02  0.10638669288E+03  0.00000000000E+00 0. -1.
<mgrwt>
<rscale>  0 0.15737866E+03</rscale>
<asrwt>0</asrwt>
<pdfrwt beam="2">  1        2 0.21679039E+00 0.16393612E+03</pdfrwt>
<pdfrwt beam="1">  1       -2 0.27858045E-02 0.16393612E+03</pdfrwt>
<totfact> 0.71199910E+03</totfact>
</mgrwt>
</event>
<event>
 7    1  0.6419647E-006  0.1529489E+03  0.7546771E-02  0.1205749E+00
         -1   -1    0    0    0  501 -0.00000000000E+00  0.00000000000E+00  0.15178571224E+03  0.15178571224E+03  0.00000000000E+00 0.  1.
          1   -1    0    0  501    0  0.00000000000E+00 -0.00000000000E+00 -0.12901818015E+03  0.12901818015E+03  0.00000000000E+00 0. -1.
         23    2    1    2    0    0  0.27755033927E+02 -0.83650675279E+02  0.22226893964E+02  0.15455553015E+03  0.12500239879E+03 0.  0.
          5    1    3    3  502    0  0.41082799214E+02 -0.73373508216E+02  0.66272145732E+02  0.10717068349E+03  0.47000000000E+01 0. -1.
         -5    1    3    3    0  502 -0.13327765287E+02 -0.10277167062E+02 -0.44045251767E+02  0.47384846667E+02  0.47000000000E+01 0. -1.
        -11    1    1    2    0    0  0.52693060532E+01  0.20096933820E+02 -0.39181306118E+02  0.44348924275E+02  0.00000000000E+00 0. -1.
         11    1    1    2    0    0 -0.33024339981E+02  0.63553741459E+02  0.39721944235E+02  0.81899437961E+02  0.00000000000E+00 0.  1.
<mgrwt>
<rscale>  0 0.14578582E+03</rscale>
<asrwt>0</asrwt>
<pdfrwt beam="2">  1        1 0.19848951E-01 0.15294894E+03</pdfrwt>
<pdfrwt beam="1">  1       -1 0.23351648E-01 0.15294894E+03</pdfrwt>
<totfact> 0.38906724E+03</totfact>
</mgrwt>
</event>
<event>
 7    1  0.1011102E-005  0.2765051E+03  0.7546771E-02  0.1099535E+00
         -2   -1    0    0    0  501 -0.00000000000E+00  0.00000000000E+00  0.83386853939E+02  0.83386853939E+02  0.00000000000E+00 0.  1.
          2   -1    0    0  501    0  0.00000000000E+00 -0.00000000000E+00 -0.95426272246E+03  0.95426272246E+03  0.00000000000E+00 0. -1.
         23    2    1    2    0    0  0.55880503607E+02 -0.24022432264E+03 -0.59701468448E+03  0.65793738201E+03  0.12499883712E+03 0.  0.
          5    1    3    3  502    0 -0.78713761071E+01  0.12570877965E+02 -0.39682749552E+02  0.42623891735E+02  0.47000000000E+01 0. -1.
         -5    1    3    3    0  502  0.63751879714E+02 -0.25279520061E+03 -0.55733193493E+03  0.61531349027E+03  0.47000000000E+01 0. -1.
        -11    1    1    2    0    0 -0.77814075587E+02  0.14566985353E+03 -0.15790524865E+03  0.22849245969E+03  0.00000000000E+00 0. -1.
         11    1    1    2    0    0  0.21933571980E+02  0.94554469119E+02 -0.11595593539E+03  0.15121973470E+03  0.00000000000E+00 0.  1.
<mgrwt>
<rscale>  0 0.27307128E+03</rscale>
<asrwt>0</asrwt>
<pdfrwt beam="2">  1        2 0.14680964E+00 0.27650509E+03</pdfrwt>
<pdfrwt beam="1">  1       -2 0.12828748E-01 0.27650509E+03</pdfrwt>
<totfact> 0.12440251E+03</totfact>
</mgrwt>
</event>
<event>
 6    1  0.6419647E-006  0.1530635E+03  0.7546771E-02  0.1215144E+00
          1   -1    0    0  501    0  0.00000000000E+00  0.00000000000E+00  0.61787408232E+03  0.61787408232E+03  0.00000000000E+00 0. -1.
         -1   -1    0    0    0  501 -0.00000000000E+00 -0.00000000000E+00 -0.38230106310E+02  0.38230106310E+02  0.00000000000E+00 0.  1.
          5    1    1    2  502    0 -0.28335199797E+01  0.61314429453E+02  0.31818559487E+03  0.32408586960E+03  0.47000000000E+01 0. -1.
         -5    1    1    2    0  502  0.49353326966E+02 -0.64374966396E+02  0.18984576452E+03  0.20650276388E+03  0.47000000000E+01 0.  1.
        -11    1    1    2    0    0 -0.25153467644E+02 -0.34384413138E+02  0.79830384790E+00  0.42610117231E+02  0.00000000000E+00 0.  1.
         11    1    1    2    0    0 -0.21366339343E+02  0.37444950082E+02  0.70814312767E+02  0.82905437917E+02  0.00000000000E+00 0. -1.
<mgrwt>
<rscale>  0 0.13865926E+03</rscale>
<asrwt>0</asrwt>
<pdfrwt beam="1">  1        1 0.95057544E-01 0.15306350E+03</pdfrwt>
<pdfrwt beam="2">  1       -1 0.58815553E-02 0.15306350E+03</pdfrwt>
<totfact> 0.45288954E+03</totfact>
</mgrwt>
</event>
<event>
 7    1  0.6419647E-006  0.1135578E+03  0.7546771E-02  0.1269623E+00
          2   -1    0    0  501    0  0.00000000000E+00  0.00000000000E+00  0.31211776814E+03  0.31211776814E+03  0.00000000000E+00 0. -1.
         -2   -1    0    0    0  501 -0.00000000000E+00 -0.00000000000E+00 -0.11463226031E+03  0.11463226031E+03  0.00000000000E+00 0.  1.
         23    2    1    2    0    0 -0.85804038323E+01  0.17790644676E+02  0.28426596711E+03  0.30610866347E+03  0.11182684573E+03 0.  0.
          5    1    3    3  502    0 -0.22542179282E+02  0.60981612189E+02  0.19892786667E+03  0.20933536015E+03  0.47000000000E+01 0. -1.
         -5    1    3    3    0  502  0.13961775450E+02 -0.43190967513E+02  0.85338100437E+02  0.96773303316E+02  0.47000000000E+01 0.  1.
        -11    1    1    2    0    0  0.16215155155E+02  0.17180702930E+02  0.31646582774E+01  0.23835328231E+02  0.00000000000E+00 0. -1.
         11    1    1    2    0    0 -0.76347513224E+01 -0.34971347606E+02 -0.89945117547E+02  0.96806036753E+02  0.00000000000E+00 0.  1.
<mgrwt>
<rscale>  0 0.10525236E+03</rscale>
<asrwt>0</asrwt>
<pdfrwt beam="1">  1        2 0.48018118E-01 0.11355780E+03</pdfrwt>
<pdfrwt beam="2">  1       -2 0.17635733E-01 0.11355780E+03</pdfrwt>
<totfact> 0.26317905E+03</totfact>
</mgrwt>
</event>
<event>
 7    1  0.6419647E-006  0.1370334E+03  0.7546771E-02  0.1223826E+00
          1   -1    0    0  501    0  0.00000000000E+00  0.00000000000E+00  0.48708521380E+03  0.48708521380E+03  0.00000000000E+00 0. -1.
         -1   -1    0    0    0  501 -0.00000000000E+00 -0.00000000000E+00 -0.11196269456E+03  0.11196269456E+03  0.00000000000E+00 0.  1.
         23    2    1    2    0    0  0.50722331310E+02 -0.58581866895E+02  0.44143170047E+03  0.46221217265E+03  0.11302015899E+03 0.  0.
          5    1    3    3  502    0  0.21977854005E+02 -0.75698549353E+02  0.15658311230E+03  0.17536720759E+03  0.47000000000E+01 0. -1.
         -5    1    3    3    0  502  0.28744477305E+02  0.17116682458E+02  0.28484858817E+03  0.28684496506E+03  0.47000000000E+01 0.  1.
        -11    1    1    2    0    0 -0.10701615339E+02  0.54665338615E+02 -0.77178636493E+02  0.95180700500E+02  0.00000000000E+00 0.  1.
         11    1    1    2    0    0 -0.40020715970E+02  0.39165282801E+01  0.10869455258E+02  0.41655035208E+02  0.00000000000E+00 0. -1.
<mgrwt>
<rscale>  0 0.13247673E+03</rscale>
<asrwt>0</asrwt>
<pdfrwt beam="1">  1        1 0.74936185E-01 0.13703338E+03</pdfrwt>
<pdfrwt beam="2">  1       -1 0.17225030E-01 0.13703338E+03</pdfrwt>
<totfact> 0.11949289E+03</totfact>
</mgrwt>
</event>
<event>
 7    1  0.6419647E-006  0.1320133E+03  0.7546771E-02  0.1237659E+00
          2   -1    0    0  501    0  0.00000000000E+00  0.00000000000E+00  0.58567651396E+03  0.58567651396E+03  0.00000000000E+00 0. -1.
         -2   -1    0    0    0  501 -0.00000000000E+00 -0.00000000000E+00 -0.23821155737E+02  0.23821155737E+02  0.00000000000E+00 0.  1.
         23    2    1    2    0    0  0.35017267952E+02 -0.24004373488E+02  0.36998662013E+03  0.39283281072E+03  0.12500039640E+03 0.  0.
          5    1    3    3  502    0 -0.35375855115E+02 -0.45109640077E+02  0.14039389159E+03  0.15171969400E+03  0.47000000000E+01 0. -1.
         -5    1    3    3    0  502  0.70393123068E+02  0.21105266589E+02  0.22959272854E+03  0.24111311672E+03  0.47000000000E+01 0. -1.
        -11    1    1    2    0    0  0.24656028376E+02  0.21951762581E+02  0.31860180443E+02  0.45878870012E+02  0.00000000000E+00 0.  1.
         11    1    1    2    0    0 -0.59673296329E+02  0.20526109067E+01  0.16000855765E+03  0.17078598897E+03  0.00000000000E+00 0. -1.
<mgrwt>
<rscale>  0 0.12335728E+03</rscale>
<asrwt>0</asrwt>
<pdfrwt beam="1">  1        2 0.90104068E-01 0.13201333E+03</pdfrwt>
<pdfrwt beam="2">  1       -2 0.36647936E-02 0.13201333E+03</pdfrwt>
<totfact> 0.15392183E+04</totfact>
</mgrwt>
</event>
<event>
 7    1  0.6419647E-006  0.1663426E+03  0.7546771E-02  0.1188247E+00
          1   -1    0    0  501    0  0.00000000000E+00  0.00000000000E+00  0.14393430104E+04  0.14393430104E+04  0.00000000000E+00 0. -1.
         -1   -1    0    0    0  501 -0.00000000000E+00 -0.00000000000E+00 -0.31103058447E+02  0.31103058447E+02  0.00000000000E+00 0.  1.
         23    2    1    2    0    0  0.86403644972E+02 -0.69763290829E+02  0.12310629192E+04  0.12422502841E+04  0.12384405834E+03 0.  0.
          5    1    3    3  502    0  0.59012165887E+02 -0.10403706745E+03  0.79507888097E+03  0.80403896926E+03  0.47000000000E+01 0. -1.
         -5    1    3    3    0  502  0.27391479086E+02  0.34273776617E+02  0.43598403818E+03  0.43821131483E+03  0.47000000000E+01 0.  1.
        -11    1    1    2    0    0 -0.10211522953E+03  0.73403157236E+02  0.16725614005E+03  0.20926098533E+03  0.00000000000E+00 0.  1.
         11    1    1    2    0    0  0.15711584561E+02 -0.36398664064E+01  0.99208927553E+01  0.18934799443E+02  0.00000000000E+00 0. -1.
<mgrwt>
<rscale>  0 0.16039863E+03</rscale>
<asrwt>0</asrwt>
<pdfrwt beam="1">  1        1 0.22143733E+00 0.16634259E+03</pdfrwt>
<pdfrwt beam="2">  1       -1 0.47850870E-02 0.16634259E+03</pdfrwt>
<totfact> 0.14812061E+03</totfact>
</mgrwt>
</event>
<event>
 7    1  0.6419647E-006  0.3891718E+03  0.7546771E-02  0.1047595E+00
         -1   -1    0    0    0  501 -0.00000000000E+00  0.00000000000E+00  0.26663206619E+02  0.26663206619E+02  0.00000000000E+00 0.  1.
          1   -1    0    0  501    0  0.00000000000E+00 -0.00000000000E+00 -0.14200723395E+04  0.14200723395E+04  0.00000000000E+00 0. -1.
         23    2    1    2    0    0 -0.35401828684E+02  0.93034915063E+02 -0.78868325309E+03  0.80304698486E+03  0.11381740330E+03 0.  0.
          5    1    3    3  502    0 -0.64401230302E+02  0.14266823801E+02 -0.30191739972E+03  0.30907485659E+03  0.47000000000E+01 0. -1.
         -5    1    3    3    0  502  0.28999401619E+02  0.78768091263E+02 -0.48676585337E+03  0.49397212827E+03  0.47000000000E+01 0.  1.
        -11    1    1    2    0    0  0.88142747427E+02  0.39578027872E+01 -0.41413389319E+03  0.42342849410E+03  0.00000000000E+00 0.  1.
         11    1    1    2    0    0 -0.52740918744E+02 -0.96992717850E+02 -0.19059198656E+03  0.22026006712E+03  0.00000000000E+00 0. -1.
<mgrwt>
<rscale>  0 0.38917185E+03</rscale>
<asrwt>0</asrwt>
<pdfrwt beam="2">  1        1 0.21847267E+00 0.38917185E+03</pdfrwt>
<pdfrwt beam="1">  1       -1 0.41020317E-02 0.38917185E+03</pdfrwt>
<totfact> 0.19131879E+03</totfact>
</mgrwt>
</event>
<event>
 7    1  0.6419647E-006  0.1531921E+03  0.7546771E-02  0.1204967E+00
         -2   -1    0    0    0  501 -0.00000000000E+00  0.00000000000E+00  0.32471343242E+02  0.32471343242E+02  0.00000000000E+00 0.  1.
          2   -1    0    0  501    0  0.00000000000E+00 -0.00000000000E+00 -0.72487697531E+03  0.72487697531E+03  0.00000000000E+00 0. -1.
         23    2    1    2    0    0  0.68383566591E+01 -0.88317619574E+02 -0.52411809331E+03  0.54604724180E+03  0.12498419699E+03 0.  0.
          5    1    3    3  502    0  0.48167126425E+02 -0.99011088077E+02 -0.38257635148E+03  0.39813317162E+03  0.47000000000E+01 0. -1.
         -5    1    3    3    0  502 -0.41328769766E+02  0.10693468503E+02 -0.14154174183E+03  0.14791407018E+03  0.47000000000E+01 0. -1.
        -11    1    1    2    0    0 -0.33397527716E+02  0.58951480209E+02 -0.43826121694E+02  0.80693251385E+02  0.00000000000E+00 0.  1.
         11    1    1    2    0    0  0.26559171057E+02  0.29366139365E+02 -0.12446141707E+03  0.13060782537E+03  0.00000000000E+00 0. -1.
<mgrwt>
<rscale>  0 0.14640032E+03</rscale>
<asrwt>0</asrwt>
<pdfrwt beam="2">  1        2 0.11151954E+00 0.15319208E+03</pdfrwt>
<pdfrwt beam="1">  1       -2 0.49955912E-02 0.15319208E+03</pdfrwt>
<totfact> 0.76342670E+03</totfact>
</mgrwt>
</event>
<event>
 7    1  0.6419647E-006  0.2162316E+03  0.7546771E-02  0.1143436E+00
          2   -1    0    0  501    0  0.00000000000E+00  0.00000000000E+00  0.59595688045E+03  0.59595688045E+03  0.00000000000E+00 0. -1.
         -2   -1    0    0    0  501 -0.00000000000E+00 -0.00000000000E+00 -0.97869283770E+02  0.97869283770E+02  0.00000000000E+00 0.  1.
         23    2    1    2    0    0 -0.15770435141E+03 -0.79123166049E+02  0.45671550246E+03  0.50531689573E+03  0.12499990828E+03 0.  0.
          5    1    3    3  502    0 -0.22878407673E+02 -0.68634799197E+02  0.97806716487E+02  0.12174728329E+03  0.47000000000E+01 0.  1.
         -5    1    3    3    0  502 -0.13482594373E+03 -0.10488366852E+02  0.35890878597E+03  0.38356961244E+03  0.47000000000E+01 0.  1.
        -11    1    1    2    0    0  0.47313488844E+02  0.32824445877E+01 -0.27208789422E+01  0.47505198150E+02  0.00000000000E+00 0.  1.
         11    1    1    2    0    0  0.11039086256E+03  0.75840721461E+02  0.44092973166E+02  0.14100407034E+03  0.00000000000E+00 0. -1.
<mgrwt>
<rscale>  0 0.20765514E+03</rscale>
<asrwt>0</asrwt>
<pdfrwt beam="1">  1        2 0.91685672E-01 0.21623162E+03</pdfrwt>
<pdfrwt beam="2">  1       -2 0.15056813E-01 0.21623162E+03</pdfrwt>
<totfact> 0.17230950E+03</totfact>
</mgrwt>
</event>
<event>
 6    1  0.6419647E-006  0.4580692E+03  0.7546771E-02  0.1025343E+00
          2   -1    0    0  501    0  0.00000000000E+00  0.00000000000E+00  0.14083119429E+03  0.14083119429E+03  0.00000000000E+00 0. -1.
         -2   -1    0    0    0  501 -0.00000000000E+00 -0.00000000000E+00 -0.37248028928E+03  0.37248028928E+03  0.00000000000E+00 0.  1.
          5    1    1    2  502    0 -0.24036222651E+02 -0.20687808823E+02  0.65702983311E+02  0.73107437715E+02  0.47000000000E+01 0. -1.
         -5    1    1    2    0  502 -0.97185942786E+02  0.86849031928E+02 -0.51800721942E+02  0.14033269974E+03  0.47000000000E+01 0.  1.
        -11    1    1    2    0    0  0.60810064879E+02 -0.72134853344E+02 -0.80543217452E+02  0.12405043706E+03  0.00000000000E+00 0.  1.
         11    1    1    2    0    0  0.60412100559E+02  0.59736302389E+01 -0.16500813892E+03  0.17582090905E+03  0.00000000000E+00 0. -1.
<mgrwt>
<rscale>  0 0.45806918E+03</rscale>
<asrwt>0</asrwt>
<pdfrwt beam="1">  1        2 0.21666337E-01 0.45806918E+03</pdfrwt>
<pdfrwt beam="2">  1       -2 0.57304661E-01 0.45806918E+03</pdfrwt>
<totfact> 0.74155444E+02</totfact>
</mgrwt>
</event>
<event>
 7    1  0.6419647E-006  0.2000219E+03  0.7546771E-02  0.1154046E+00
          2   -1    0    0  501    0  0.00000000000E+00  0.00000000000E+00  0.20315248045E+03  0.20315248045E+03  0.00000000000E+00 0. -1.
         -2   -1    0    0    0  501 -0.00000000000E+00 -0.00000000000E+00 -0.18411024254E+03  0.18411024254E+03  0.00000000000E+00 0.  1.
         23    2    1    2    0    0  0.99484568295E+02  0.12035726292E+03  0.44399526807E+02  0.20489043248E+03  0.12500288508E+03 0.  0.
          5    1    3    3  502    0 -0.63896262446E+01  0.21593779326E+02 -0.33323646343E+02  0.40492888693E+02  0.47000000000E+01 0.  1.
         -5    1    3    3    0  502  0.10587419454E+03  0.98763483591E+02  0.77723173150E+02  0.16439754379E+03  0.47000000000E+01 0.  1.
        -11    1    1    2    0    0 -0.78342772181E+02 -0.75884179161E+02 -0.57766166936E+02  0.12342175109E+03  0.00000000000E+00 0.  1.
         11    1    1    2    0    0 -0.21141796114E+02 -0.44473083755E+02  0.32408878040E+02  0.58950539416E+02  0.00000000000E+00 0. -1.
<mgrwt>
<rscale>  0 0.19497914E+03</rscale>
<asrwt>0</asrwt>
<pdfrwt beam="1">  1        2 0.31254228E-01 0.20002193E+03</pdfrwt>
<pdfrwt beam="2">  1       -2 0.28324653E-01 0.20002193E+03</pdfrwt>
<totfact> 0.18817074E+03</totfact>
</mgrwt>
</event>
<event>
 7    1  0.6419647E-006  0.1265123E+03  0.7546771E-02  0.1247816E+00
         -2   -1    0    0    0  501 -0.00000000000E+00  0.00000000000E+00  0.17313448311E+02  0.17313448311E+02  0.00000000000E+00 0. -1.
          2   -1    0    0  501    0  0.00000000000E+00 -0.00000000000E+00 -0.12998498878E+04  0.12998498878E+04  0.00000000000E+00 0.  1.
         23    2    1    2    0    0 -0.16071168301E+02  0.11054911741E+02 -0.11393730914E+04  0.11463753292E+04  0.12499944220E+03 0.  0.
          5    1    3    3  502    0 -0.32811771373E+02 -0.58864648613E+01 -0.80916313467E+02  0.87640188237E+02  0.47000000000E+01 0.  1.
         -5    1    3    3    0  502  0.16740603072E+02  0.16941376603E+02 -0.10584567779E+04  0.10587351410E+04  0.47000000000E+01 0.  1.
        -11    1    1    2    0    0 -0.31622180038E+02  0.14908507625E+02 -0.33516480228E+02  0.48431191569E+02  0.00000000000E+00 0.  1.
         11    1    1    2    0    0  0.47693348339E+02 -0.25963419366E+02 -0.10964686789E+03  0.12235681534E+03  0.00000000000E+00 0. -1.
<mgrwt>
<rscale>  0 0.11718429E+03</rscale>
<asrwt>0</asrwt>
<pdfrwt beam="2">  1        2 0.19997687E+00 0.12651227E+03</pdfrwt>
<pdfrwt beam="1">  1       -2 0.26636079E-02 0.12651227E+03</pdfrwt>
<totfact> 0.86123460E+03</totfact>
</mgrwt>
</event>
<event>
 7    1  0.6419647E-006  0.1149312E+03  0.7546771E-02  0.1260366E+00
         -4   -1    0    0    0  501 -0.00000000000E+00  0.00000000000E+00  0.20913860678E+03  0.20913860678E+03  0.00000000000E+00 0.  1.
          4   -1    0    0  501    0  0.00000000000E+00 -0.00000000000E+00 -0.56278609160E+02  0.56278609160E+02  0.00000000000E+00 0. -1.
         23    2    1    2    0    0 -0.26650230686E+02  0.12797182403E+02  0.53814519691E+02  0.12690616406E+03  0.11106380722E+03 0.  0.
          5    1    3    3  502    0 -0.25997739059E+02  0.37438033583E+02 -0.19214056493E+02  0.49686605455E+02  0.47000000000E+01 0. -1.
         -5    1    3    3    0  502 -0.65249162641E+00 -0.24640851181E+02  0.73028576183E+02  0.77219558608E+02  0.47000000000E+01 0.  1.
        -11    1    1    2    0    0 -0.27674657025E+02 -0.50506354409E+01  0.72067538224E+02  0.77363593669E+02  0.00000000000E+00 0.  1.
         11    1    1    2    0    0  0.54324887710E+02 -0.77465469616E+01  0.26977939705E+02  0.61147458208E+02  0.00000000000E+00 0. -1.
<mgrwt>
<rscale>  0 0.11010994E+03</rscale>
<asrwt>0</asrwt>
<pdfrwt beam="2">  1        4 0.86582477E-02 0.11493116E+03</pdfrwt>
<pdfrwt beam="1">  1       -4 0.32175170E-01 0.11493116E+03</pdfrwt>
<totfact> 0.14274692E+03</totfact>
</mgrwt>
</event>
<event>
 7    1  0.6419647E-006  0.2655516E+03  0.7546771E-02  0.1104049E+00
          1   -1    0    0  501    0  0.00000000000E+00  0.00000000000E+00  0.41322570188E+03  0.41322570188E+03  0.00000000000E+00 0. -1.
         -1   -1    0    0    0  501 -0.00000000000E+00 -0.00000000000E+00 -0.18176048374E+03  0.18176048374E+03  0.00000000000E+00 0.  1.
         23    2    1    2    0    0  0.21590299217E+03 -0.90991152258E+02  0.19234702151E+03  0.32789482040E+03  0.12499657894E+03 0.  0.
          5    1    3    3  502    0  0.17542140227E+03 -0.25664809797E+02  0.17461124087E+03  0.24888255518E+03  0.47000000000E+01 0. -1.
         -5    1    3    3    0  502  0.40481589897E+02 -0.65326342461E+02  0.17735780641E+02  0.79012265218E+02  0.47000000000E+01 0. -1.
        -11    1    1    2    0    0 -0.64950939383E+02 -0.27422049309E+02 -0.33903157309E+01  0.70583904367E+02  0.00000000000E+00 0. -1.
         11    1    1    2    0    0 -0.15095205279E+03  0.11841320157E+03  0.42508512366E+02  0.19650746085E+03  0.00000000000E+00 0.  1.
<mgrwt>
<rscale>  0 0.26521584E+03</rscale>
<asrwt>0</asrwt>
<pdfrwt beam="1">  1        1 0.63573185E-01 0.26555157E+03</pdfrwt>
<pdfrwt beam="2">  1       -1 0.27963151E-01 0.26555157E+03</pdfrwt>
<totfact> 0.67181689E+02</totfact>
</mgrwt>
</event>
<event>
 7    1  0.6419647E-006  0.1429809E+03  0.7546771E-02  0.1219644E+00
         -2   -1    0    0    0  501 -0.00000000000E+00  0.00000000000E+00  0.18500458610E+02  0.18500458610E+02  0.00000000000E+00 0.  1.
          2   -1    0    0  501    0  0.00000000000E+00 -0.00000000000E+00 -0.90426408470E+03  0.90426408470E+03  0.00000000000E+00 0. -1.
         23    2    1    2    0    0 -0.17984686479E+02  0.67046711386E+02 -0.52406874000E+03  0.54322332737E+03  0.12499931480E+03 0.  0.
          5    1    3    3  502    0  0.22646027977E+02 -0.29725938023E+02 -0.15305887722E+03  0.15762481997E+03  0.47000000000E+01 0.  1.
         -5    1    3    3    0  502 -0.40630714456E+02  0.96772649410E+02 -0.37100986278E+03  0.38559850740E+03  0.47000000000E+01 0.  1.
        -11    1    1    2    0    0  0.50648397152E+02 -0.36867021275E+02 -0.27570078992E+03  0.28272842615E+03  0.00000000000E+00 0. -1.
         11    1    1    2    0    0 -0.32663710674E+02 -0.30179690111E+02 -0.85994096164E+02  0.96812789781E+02  0.00000000000E+00 0.  1.
<mgrwt>
<rscale>  0 0.13540875E+03</rscale>
<asrwt>0</asrwt>
<pdfrwt beam="2">  1        2 0.13911758E+00 0.14298090E+03</pdfrwt>
<pdfrwt beam="1">  1       -2 0.28462237E-02 0.14298090E+03</pdfrwt>
<totfact> 0.13290202E+04</totfact>
</mgrwt>
</event>
<event>
 7    1  0.6419647E-006  0.1268314E+03  0.7546771E-02  0.1246236E+00
         -1   -1    0    0    0  501 -0.00000000000E+00  0.00000000000E+00  0.62356704050E+02  0.62356704050E+02  0.00000000000E+00 0.  1.
          1   -1    0    0  501    0  0.00000000000E+00 -0.00000000000E+00 -0.19806730763E+03  0.19806730763E+03  0.00000000000E+00 0. -1.
         23    2    1    2    0    0 -0.19955591725E+02  0.79429984895E+01 -0.79671224452E+02  0.14977884330E+03  0.12499952411E+03 0.  0.
          5    1    3    3  502    0  0.95687071363E+01  0.16627430668E+02 -0.10672325369E+03  0.10853559086E+03  0.47000000000E+01 0.  1.
         -5    1    3    3    0  502 -0.29524298861E+02 -0.86844321784E+01  0.27052029234E+02  0.41243252432E+02  0.47000000000E+01 0.  1.
        -11    1    1    2    0    0  0.55820407771E+02 -0.14239915624E+02 -0.43304033412E+02  0.72068942205E+02  0.00000000000E+00 0.  1.
         11    1    1    2    0    0 -0.35864816047E+02  0.62969171349E+01 -0.12735345711E+02  0.38576226174E+02  0.00000000000E+00 0. -1.
<mgrwt>
<rscale>  0 0.11811683E+03</rscale>
<asrwt>0</asrwt>
<pdfrwt beam="2">  1        1 0.30471893E-01 0.12683138E+03</pdfrwt>
<pdfrwt beam="1">  1       -1 0.95933392E-02 0.12683138E+03</pdfrwt>
<totfact> 0.90697894E+03</totfact>
</mgrwt>
</event>
<event>
 7    1  0.6419647E-006  0.1255517E+03  0.7546771E-02  0.1249782E+00
         -1   -1    0    0    0  501 -0.00000000000E+00  0.00000000000E+00  0.46214592993E+03  0.46214592993E+03  0.00000000000E+00 0.  1.
          1   -1    0    0  501    0  0.00000000000E+00 -0.00000000000E+00 -0.25963358828E+02  0.25963358828E+02  0.00000000000E+00 0. -1.
         23    2    1    2    0    0  0.73374275493E+01 -0.90288744813E+01  0.21971602223E+03  0.25305802602E+03  0.12501150224E+03 0.  0.
          5    1    3    3  502    0 -0.41055188988E+02 -0.84315447911E+01  0.19304768097E+03  0.19760090237E+03  0.47000000000E+01 0.  1.
         -5    1    3    3    0  502  0.48392616538E+02 -0.59732969021E+00  0.26668341267E+02  0.55457123654E+02  0.47000000000E+01 0.  1.
        -11    1    1    2    0    0  0.35569197579E+02  0.24309000515E+02  0.13511691970E+03  0.14181917117E+03  0.00000000000E+00 0.  1.
         11    1    1    2    0    0 -0.42906625128E+02 -0.15280126034E+02  0.81349629169E+02  0.93232091564E+02  0.00000000000E+00 0. -1.
<mgrwt>
<rscale>  0 0.11603683E+03</rscale>
<asrwt>0</asrwt>
<pdfrwt beam="2">  1        1 0.39943632E-02 0.12555172E+03</pdfrwt>
<pdfrwt beam="1">  1       -1 0.71099368E-01 0.12555172E+03</pdfrwt>
<totfact> 0.45025892E+03</totfact>
</mgrwt>
</event>
<event>
 7    1  0.6419647E-006  0.1539993E+03  0.7546771E-02  0.1204273E+00
          1   -1    0    0  501    0  0.00000000000E+00  0.00000000000E+00  0.82546044373E+03  0.82546044373E+03  0.00000000000E+00 0. -1.
         -1   -1    0    0    0  501 -0.00000000000E+00 -0.00000000000E+00 -0.25928427154E+02  0.25928427154E+02  0.00000000000E+00 0.  1.
         23    2    1    2    0    0  0.89511909981E+02  0.89143033776E+01  0.54913054261E+03  0.57031581846E+03  0.12499573246E+03 0.  0.
          5    1    3    3  502    0 -0.72729621451E+01 -0.42972252341E+02  0.17151643797E+03  0.17702962730E+03  0.47000000000E+01 0. -1.
         -5    1    3    3    0  502  0.96784872126E+02  0.51886555718E+02  0.37761410464E+03  0.39328619116E+03  0.47000000000E+01 0. -1.
        -11    1    1    2    0    0 -0.91407101833E+02 -0.36963913727E+02  0.20817164676E+03  0.23034110293E+03  0.00000000000E+00 0.  1.
         11    1    1    2    0    0  0.18951918524E+01  0.28049610349E+02  0.42229827204E+02  0.50731949486E+02  0.00000000000E+00 0. -1.
<mgrwt>
<rscale>  0 0.14694890E+03</rscale>
<asrwt>0</asrwt>
<pdfrwt beam="1">  1        1 0.12699389E+00 0.15399929E+03</pdfrwt>
<pdfrwt beam="2">  1       -1 0.39889894E-02 0.15399929E+03</pdfrwt>
<totfact> 0.52931136E+03</totfact>
</mgrwt>
</event>
<event>
 7    1  0.6419647E-006  0.1455152E+03  0.7546771E-02  0.1216001E+00
          1   -1    0    0  501    0  0.00000000000E+00  0.00000000000E+00  0.39265745409E+02  0.39265745409E+02  0.00000000000E+00 0. -1.
         -1   -1    0    0    0  501 -0.00000000000E+00 -0.00000000000E+00 -0.47665376266E+03  0.47665376266E+03  0.00000000000E+00 0.  1.
         23    2    1    2    0    0  0.69301112055E+02  0.27377350888E+02 -0.17030796204E+03  0.22400776767E+03  0.12499005789E+03 0.  0.
          5    1    3    3  502    0 -0.47770978388E+01 -0.31061538296E+02 -0.10358660244E+03  0.10835088384E+03  0.47000000000E+01 0. -1.
         -5    1    3    3    0  502  0.74078209894E+02  0.58438889185E+02 -0.66721359600E+02  0.11565688383E+03  0.47000000000E+01 0. -1.
        -11    1    1    2    0    0  0.10197491708E+02  0.16232571725E+02 -0.99922196144E+02  0.10174443721E+03  0.00000000000E+00 0.  1.
         11    1    1    2    0    0 -0.79498603763E+02 -0.43609922613E+02 -0.16715785907E+03  0.19016730318E+03  0.00000000000E+00 0. -1.
<mgrwt>
<rscale>  0 0.13803295E+03</rscale>
<asrwt>0</asrwt>
<pdfrwt beam="1">  1        1 0.60408839E-02 0.14551522E+03</pdfrwt>
<pdfrwt beam="2">  1       -1 0.73331349E-01 0.14551522E+03</pdfrwt>
<totfact> 0.24262276E+03</totfact>
</mgrwt>
</event>
<event>
 7    1  0.6419647E-006  0.2006378E+03  0.7546771E-02  0.1153267E+00
         -2   -1    0    0    0  501 -0.00000000000E+00  0.00000000000E+00  0.12980128357E+03  0.12980128357E+03  0.00000000000E+00 0.  1.
          2   -1    0    0  501    0  0.00000000000E+00 -0.00000000000E+00 -0.52390859389E+03  0.52390859389E+03  0.00000000000E+00 0. -1.
         23    2    1    2    0    0 -0.15619873943E+03  0.15226031352E+02 -0.42395126271E+03  0.46903110892E+03  0.12500251900E+03 0.  0.
          5    1    3    3  502    0 -0.11762865735E+03  0.20208146593E+02 -0.41063818015E+03  0.42765719358E+03  0.47000000000E+01 0. -1.
         -5    1    3    3    0  502 -0.38570082082E+02 -0.49821152413E+01 -0.13313082554E+02  0.41373915348E+02  0.47000000000E+01 0. -1.
        -11    1    1    2    0    0  0.10434835879E+03  0.33803441448E+02  0.28397299699E+02  0.11330339477E+03  0.00000000000E+00 0.  1.
         11    1    1    2    0    0  0.51850380638E+02 -0.49029472800E+02  0.14466526876E+01  0.71375373759E+02  0.00000000000E+00 0. -1.
<mgrwt>
<rscale>  0 0.19587420E+03</rscale>
<asrwt>0</asrwt>
<pdfrwt beam="2">  1        2 0.80601324E-01 0.20063775E+03</pdfrwt>
<pdfrwt beam="1">  1       -2 0.19969428E-01 0.20063775E+03</pdfrwt>
<totfact> 0.12411282E+03</totfact>
</mgrwt>
</event>
<event>
 7    1  0.6419647E-006  0.1597229E+03  0.7546771E-02  0.1196568E+00
          2   -1    0    0  501    0  0.00000000000E+00  0.00000000000E+00  0.37664240609E+03  0.37664240609E+03  0.00000000000E+00 0. -1.
         -2   -1    0    0    0  501 -0.00000000000E+00 -0.00000000000E+00 -0.57779052652E+02  0.57779052652E+02  0.00000000000E+00 0.  1.
         23    2    1    2    0    0  0.93596125003E+02 -0.33554856955E+02  0.17667134491E+03  0.23816836859E+03  0.12500097857E+03 0.  0.
          5    1    3    3  502    0  0.12343505438E+03 -0.23094415998E+02  0.12392220220E+03  0.17648899937E+03  0.47000000000E+01 0. -1.
         -5    1    3    3    0  502 -0.29838929372E+02 -0.10460440956E+02  0.52749142710E+02  0.61679369223E+02  0.47000000000E+01 0. -1.
        -11    1    1    2    0    0 -0.11216655642E+03  0.25577547189E+02  0.12170568828E+03  0.16747483949E+03  0.00000000000E+00 0.  1.
         11    1    1    2    0    0  0.18570431421E+02  0.79773097651E+01  0.20486320238E+02  0.28778250662E+02  0.00000000000E+00 0. -1.
<mgrwt>
<rscale>  0 0.15322232E+03</rscale>
<asrwt>0</asrwt>
<pdfrwt beam="1">  1        2 0.57944984E-01 0.15972291E+03</pdfrwt>
<pdfrwt beam="2">  1       -2 0.88890852E-02 0.15972291E+03</pdfrwt>
<totfact> 0.65920688E+03</totfact>
</mgrwt>
</event>
<event>
 7    1  0.6419647E-006  0.1330442E+03  0.7546771E-02  0.1236338E+00
         -2   -1    0    0    0  501 -0.00000000000E+00  0.00000000000E+00  0.10390028972E+03  0.10390028972E+03  0.00000000000E+00 0.  1.
          2   -1    0    0  501    0  0.00000000000E+00 -0.00000000000E+00 -0.13470537655E+03  0.13470537655E+03  0.00000000000E+00 0. -1.
         23    2    1    2    0    0 -0.43064198080E+02 -0.14820161826E+02 -0.34773730026E+02  0.13751357078E+03  0.12500642982E+03 0.  0.
          5    1    3    3  502    0  0.17256006155E+02  0.37536110932E+02 -0.39516669152E+02  0.57361890774E+02  0.47000000000E+01 0. -1.
         -5    1    3    3    0  502 -0.60320204235E+02 -0.52356272758E+02  0.47429391257E+01  0.80151680005E+02  0.47000000000E+01 0. -1.
        -11    1    1    2    0    0  0.20122294672E+02  0.49187732309E+01  0.46982897824E+02  0.51346798935E+02  0.00000000000E+00 0.  1.
         11    1    1    2    0    0  0.22941903408E+02  0.99013885953E+01 -0.43014254624E+02  0.49745296551E+02  0.00000000000E+00 0. -1.
<mgrwt>
<rscale>  0 0.12419172E+03</rscale>
<asrwt>0</asrwt>
<pdfrwt beam="2">  1        2 0.20723904E-01 0.13304424E+03</pdfrwt>
<pdfrwt beam="1">  1       -2 0.15984660E-01 0.13304424E+03</pdfrwt>
<totfact> 0.77455353E+03</totfact>
</mgrwt>
</event>
<event>
 7    1  0.6419647E-006  0.1270490E+03  0.7546771E-02  0.1259010E+00
          1   -1    0    0  501    0  0.00000000000E+00  0.00000000000E+00  0.14758301938E+03  0.14758301938E+03  0.00000000000E+00 0. -1.
         -1   -1    0    0    0  501 -0.00000000000E+00 -0.00000000000E+00 -0.70661904676E+02  0.70661904676E+02  0.00000000000E+00 0.  1.
         23    2    1    2    0    0  0.18903453914E+02 -0.12661254210E+02  0.67965855024E+02  0.14408607722E+03  0.12499516899E+03 0.  0.
          5    1    3    3  502    0 -0.35778459941E+02 -0.47314803755E+02  0.47152438374E+02  0.75922534828E+02  0.47000000000E+01 0.  1.
         -5    1    3    3    0  502  0.54681913855E+02  0.34653549545E+02  0.20813416650E+02  0.68163542393E+02  0.47000000000E+01 0.  1.
        -11    1    1    2    0    0 -0.59143335082E+01  0.11456283780E+02 -0.30227182355E+02  0.32861958737E+02  0.00000000000E+00 0.  1.
         11    1    1    2    0    0 -0.12989120406E+02  0.12049704295E+01  0.39182442035E+02  0.41296888097E+02  0.00000000000E+00 0. -1.
<mgrwt>
<rscale>  0 0.11084641E+03</rscale>
<asrwt>0</asrwt>
<pdfrwt beam="1">  1        1 0.22705080E-01 0.12704897E+03</pdfrwt>
<pdfrwt beam="2">  1       -1 0.10871062E-01 0.12704897E+03</pdfrwt>
<totfact> 0.10825799E+04</totfact>
</mgrwt>
</event>
<event>
 7    1  0.6419647E-006  0.1381281E+03  0.7546771E-02  0.1226662E+00
          2   -1    0    0  501    0  0.00000000000E+00  0.00000000000E+00  0.26363730276E+03  0.26363730276E+03  0.00000000000E+00 0. -1.
         -2   -1    0    0    0  501 -0.00000000000E+00 -0.00000000000E+00 -0.78554589642E+02  0.78554589642E+02  0.00000000000E+00 0.  1.
         23    2    1    2    0    0  0.25412239072E+02  0.52999847893E+02  0.18640966089E+03  0.23200847441E+03  0.12499841901E+03 0.  0.
          5    1    3    3  502    0  0.52480904160E+02 -0.13338117909E+02  0.12931511368E+03  0.14027344480E+03  0.47000000000E+01 0.  1.
         -5    1    3    3    0  502 -0.27068665088E+02  0.66337965802E+02  0.57094547207E+02  0.91735029608E+02  0.47000000000E+01 0.  1.
        -11    1    1    2    0    0  0.28069979648E+02 -0.22827433191E+01  0.18699247580E+02  0.33805273768E+02  0.00000000000E+00 0. -1.
         11    1    1    2    0    0 -0.53482218719E+02 -0.50717104574E+02 -0.20026195345E+02  0.76378144226E+02  0.00000000000E+00 0.  1.
<mgrwt>
<rscale>  0 0.13053672E+03</rscale>
<asrwt>0</asrwt>
<pdfrwt beam="1">  1        2 0.40559585E-01 0.13812809E+03</pdfrwt>
<pdfrwt beam="2">  1       -2 0.12085322E-01 0.13812809E+03</pdfrwt>
<totfact> 0.58792887E+03</totfact>
</mgrwt>
</event>
<event>
 7    1  0.6419647E-006  0.1391751E+03  0.7546771E-02  0.1225283E+00
          3   -1    0    0  501    0  0.00000000000E+00  0.00000000000E+00  0.40255398678E+03  0.40255398678E+03  0.00000000000E+00 0. -1.
         -3   -1    0    0    0  501 -0.00000000000E+00 -0.00000000000E+00 -0.38819694375E+02  0.38819694375E+02  0.00000000000E+00 0.  1.
         23    2    1    2    0    0  0.46710223452E+02 -0.39543264918E+02  0.20358534392E+03  0.24661042828E+03  0.12499678517E+03 0.  0.
          5    1    3    3  502    0 -0.17099903594E+02 -0.61333705906E+02  0.13973113457E+03  0.15362652815E+03  0.47000000000E+01 0. -1.
         -5    1    3    3    0  502  0.63810127046E+02  0.21790440989E+02  0.63854209350E+02  0.92983900133E+02  0.47000000000E+01 0. -1.
        -11    1    1    2    0    0 -0.16954203895E+02 -0.19817316873E+02  0.10576695039E+03  0.10893492953E+03  0.00000000000E+00 0. -1.
         11    1    1    2    0    0 -0.29756019557E+02  0.59360581790E+02  0.54381998095E+02  0.85828323339E+02  0.00000000000E+00 0.  1.
<mgrwt>
<rscale>  0 0.13147502E+03</rscale>
<asrwt>0</asrwt>
<pdfrwt beam="1">  1        3 0.61931380E-01 0.13917511E+03</pdfrwt>
<pdfrwt beam="2">  1       -3 0.59722609E-02 0.13917511E+03</pdfrwt>
<totfact> 0.10241095E+03</totfact>
</mgrwt>
</event>
<event>
 7    1  0.6419647E-006  0.1293332E+03  0.7546771E-02  0.1241873E+00
         -2   -1    0    0    0  501 -0.00000000000E+00  0.00000000000E+00  0.63829797309E+02  0.63829797309E+02  0.00000000000E+00 0.  1.
          2   -1    0    0  501    0  0.00000000000E+00 -0.00000000000E+00 -0.42181992374E+03  0.42181992374E+03  0.00000000000E+00 0. -1.
         23    2    1    2    0    0 -0.15529552785E+02  0.29340090465E+02 -0.36491210665E+03  0.38715363181E+03  0.12500032451E+03 0.  0.
          5    1    3    3  502    0  0.11201166455E+02  0.47326927531E+02 -0.34613648918E+03  0.34956810973E+03  0.47000000000E+01 0. -1.
         -5    1    3    3    0  502 -0.26730719240E+02 -0.17986837065E+02 -0.18775617473E+02  0.37585522082E+02  0.47000000000E+01 0. -1.
        -11    1    1    2    0    0  0.32662773302E+02  0.15666281522E+02  0.28140698851E+02  0.45871429761E+02  0.00000000000E+00 0.  1.
         11    1    1    2    0    0 -0.17133220517E+02 -0.45006371988E+02 -0.21218718633E+02  0.52624659478E+02  0.00000000000E+00 0. -1.
<mgrwt>
<rscale>  0 0.12074485E+03</rscale>
<asrwt>0</asrwt>
<pdfrwt beam="2">  1        2 0.64895372E-01 0.12933325E+03</pdfrwt>
<pdfrwt beam="1">  1       -2 0.98199690E-02 0.12933325E+03</pdfrwt>
<totfact> 0.49370846E+03</totfact>
</mgrwt>
</event>
<event>
 7    1  0.6419647E-006  0.1317189E+03  0.7546771E-02  0.1238093E+00
          1   -1    0    0  501    0  0.00000000000E+00  0.00000000000E+00  0.13819174708E+03  0.13819174708E+03  0.00000000000E+00 0. -1.
         -1   -1    0    0    0  501 -0.00000000000E+00 -0.00000000000E+00 -0.28810493124E+03  0.28810493124E+03  0.00000000000E+00 0.  1.
         23    2    1    2    0    0  0.18643359913E+01 -0.41500774975E+02  0.94461628483E+02  0.16208905334E+03  0.12499628748E+03 0.  0.
          5    1    3    3  502    0  0.97238605866E+01  0.43219076552E+02  0.46106049905E+02  0.64111620480E+02  0.47000000000E+01 0. -1.
         -5    1    3    3    0  502 -0.78595245954E+01 -0.84719851527E+02  0.48355578578E+02  0.97977432856E+02  0.47000000000E+01 0. -1.
        -11    1    1    2    0    0  0.13987184487E+02 -0.21933303892E+02 -0.12897048585E+03  0.13156784322E+03  0.00000000000E+00 0.  1.
         11    1    1    2    0    0 -0.15851520478E+02  0.63434078867E+02 -0.11540432680E+03  0.13263978177E+03  0.00000000000E+00 0. -1.
<mgrwt>
<rscale>  0 0.12308474E+03</rscale>
<asrwt>0</asrwt>
<pdfrwt beam="1">  1        1 0.21260269E-01 0.13171887E+03</pdfrwt>
<pdfrwt beam="2">  1       -1 0.44323835E-01 0.13171887E+03</pdfrwt>
<totfact> 0.11913034E+03</totfact>
</mgrwt>
</event>
<event>
 6    1  0.6419647E-006  0.2502673E+03  0.7546771E-02  0.1124820E+00
         -2   -1    0    0    0  501 -0.00000000000E+00  0.00000000000E+00  0.81372898013E+02  0.81372898013E+02  0.00000000000E+00 0.  1.
          2   -1    0    0  501    0  0.00000000000E+00 -0.00000000000E+00 -0.73470943332E+03  0.73470943332E+03  0.00000000000E+00 0. -1.
          5    1    1    2  502    0  0.12085684639E+03 -0.15215113093E+03 -0.47099576612E+03  0.50952472527E+03  0.47000000000E+01 0. -1.
         -5    1    1    2    0  502 -0.51349103282E+02  0.41239745479E+01 -0.75152162754E+02  0.91234177481E+02  0.47000000000E+01 0.  1.
        -11    1    1    2    0    0 -0.94095049617E+00  0.86656359918E+02 -0.20836377335E+02  0.89131165832E+02  0.00000000000E+00 0.  1.
         11    1    1    2    0    0 -0.68566792608E+02  0.61370796465E+02 -0.86352229100E+02  0.12619226275E+03  0.00000000000E+00 0. -1.
<mgrwt>
<rscale>  0 0.23260388E+03</rscale>
<asrwt>0</asrwt>
<pdfrwt beam="2">  1        2 0.11303222E+00 0.25026726E+03</pdfrwt>
<pdfrwt beam="1">  1       -2 0.12518908E-01 0.25026726E+03</pdfrwt>
<totfact> 0.18198225E+03</totfact>
</mgrwt>
</event>
<event>
 7    1  0.6419647E-006  0.2184109E+03  0.7546771E-02  0.1138378E+00
         -1   -1    0    0    0  501 -0.00000000000E+00  0.00000000000E+00  0.10554553365E+04  0.10554553365E+04  0.00000000000E+00 0.  1.
          1   -1    0    0  501    0  0.00000000000E+00 -0.00000000000E+00 -0.57207132086E+02  0.57207132086E+02  0.00000000000E+00 0. -1.
         23    2    1    2    0    0 -0.14229468389E+03  0.10876657223E+03  0.22501385407E+03  0.31358342787E+03  0.12500154965E+03 0.  0.
          5    1    3    3  502    0 -0.26591604378E+02  0.90782040631E+02  0.63478926669E+02  0.11401822861E+03  0.47000000000E+01 0. -1.
         -5    1    3    3    0  502 -0.11570307952E+03  0.17984531597E+02  0.16153492740E+03  0.19956519926E+03  0.47000000000E+01 0. -1.
        -11    1    1    2    0    0  0.44469226189E+01 -0.52154971606E+02  0.18504207460E+03  0.19230310854E+03  0.00000000000E+00 0. -1.
         11    1    1    2    0    0  0.13784776127E+03 -0.56611600621E+02  0.58819227579E+03  0.60677593221E+03  0.00000000000E+00 0.  1.
<mgrwt>
<rscale>  0 0.21407678E+03</rscale>
<asrwt>0</asrwt>
<pdfrwt beam="2">  1        1 0.88010980E-02 0.21841092E+03</pdfrwt>
<pdfrwt beam="1">  1       -1 0.16237773E+00 0.21841092E+03</pdfrwt>
<totfact> 0.23425473E+02</totfact>
</mgrwt>
</event>
<event>
 7    1  0.6419647E-006  0.1501000E+03  0.7546771E-02  0.1209180E+00
         -2   -1    0    0    0  501 -0.00000000000E+00  0.00000000000E+00  0.38400530005E+02  0.38400530005E+02  0.00000000000E+00 0.  1.
          2   -1    0    0  501    0  0.00000000000E+00 -0.00000000000E+00 -0.49270228956E+03  0.49270228956E+03  0.00000000000E+00 0. -1.
         23    2    1    2    0    0  0.60479217064E+01 -0.82879727910E+02 -0.26995791552E+03  0.30888071233E+03  0.12499756656E+03 0.  0.
          5    1    3    3  502    0  0.62589098296E+02 -0.48684420741E+02 -0.10942137536E+03  0.13521351794E+03  0.47000000000E+01 0. -1.
         -5    1    3    3    0  502 -0.56541176590E+02 -0.34195307168E+02 -0.16053654015E+03  0.17366719439E+03  0.47000000000E+01 0. -1.
        -11    1    1    2    0    0 -0.48422794111E+02  0.41229251971E+02 -0.10988438228E+03  0.12696139444E+03  0.00000000000E+00 0. -1.
         11    1    1    2    0    0  0.42374872405E+02  0.41650475938E+02 -0.74459461751E+02  0.95260712791E+02  0.00000000000E+00 0.  1.
<mgrwt>
<rscale>  0 0.14312837E+03</rscale>
<asrwt>0</asrwt>
<pdfrwt beam="2">  1        2 0.75800349E-01 0.15010003E+03</pdfrwt>
<pdfrwt beam="1">  1       -2 0.59077741E-02 0.15010003E+03</pdfrwt>
<totfact> 0.92087337E+03</totfact>
</mgrwt>
</event>
<event>
 7    1  0.6419647E-006  0.3784918E+03  0.7546771E-02  0.1052484E+00
         -1   -1    0    0    0  501 -0.00000000000E+00  0.00000000000E+00  0.25790824306E+03  0.25790824306E+03  0.00000000000E+00 0.  1.
          1   -1    0    0  501    0  0.00000000000E+00 -0.00000000000E+00 -0.66229730052E+03  0.66229730052E+03  0.00000000000E+00 0. -1.
         23    2    1    2    0    0  0.34459177129E+03 -0.94275441996E+02 -0.40211462723E+03  0.55222476030E+03  0.12499865860E+03 0.  0.
          5    1    3    3  502    0  0.13710772292E+03 -0.90944221034E+02 -0.22858639109E+03  0.28167926302E+03  0.47000000000E+01 0.  1.
         -5    1    3    3    0  502  0.20748404837E+03 -0.33312209621E+01 -0.17352823614E+03  0.27054549728E+03  0.47000000000E+01 0.  1.
        -11    1    1    2    0    0 -0.17076105330E+03  0.92163742192E+02  0.27518998295E+01  0.19406459144E+03  0.00000000000E+00 0.  1.
         11    1    1    2    0    0 -0.17383071798E+03  0.21116998046E+01 -0.50263300581E+01  0.17391619184E+03  0.00000000000E+00 0. -1.
<mgrwt>
<rscale>  0 0.37583440E+03</rscale>
<asrwt>0</asrwt>
<pdfrwt beam="2">  1        1 0.10189189E+00 0.37849176E+03</pdfrwt>
<pdfrwt beam="1">  1       -1 0.39678192E-01 0.37849176E+03</pdfrwt>
<totfact> 0.19090035E+02</totfact>
</mgrwt>
</event>
<event>
 7    1  0.6419647E-006  0.1487822E+03  0.7546771E-02  0.1219633E+00
         -2   -1    0    0    0  501 -0.00000000000E+00  0.00000000000E+00  0.75208176901E+02  0.75208176901E+02  0.00000000000E+00 0.  1.
          2   -1    0    0  501    0  0.00000000000E+00 -0.00000000000E+00 -0.23266267966E+03  0.23266267966E+03  0.00000000000E+00 0. -1.
         23    2    1    2    0    0  0.22579849281E+01  0.80660215740E+02 -0.13998830926E+03  0.20428627598E+03  0.12499994770E+03 0.  0.
          5    1    3    3  502    0 -0.50067464946E+02  0.63848890153E+01 -0.21907450772E+02  0.55222678794E+02  0.47000000000E+01 0.  1.
         -5    1    3    3    0  502  0.52325449874E+02  0.74275326725E+02 -0.11808085848E+03  0.14906359718E+03  0.47000000000E+01 0.  1.
        -11    1    1    2    0    0  0.61372259667E+01 -0.26973540181E+02  0.22884766085E+02  0.35901948850E+02  0.00000000000E+00 0.  1.
         11    1    1    2    0    0 -0.83952108947E+01 -0.53686675559E+02 -0.40350959585E+02  0.67682631731E+02  0.00000000000E+00 0. -1.
<mgrwt>
<rscale>  0 0.13541640E+03</rscale>
<asrwt>0</asrwt>
<pdfrwt beam="2">  1        2 0.35794258E-01 0.14878224E+03</pdfrwt>
<pdfrwt beam="1">  1       -2 0.11570489E-01 0.14878224E+03</pdfrwt>
<totfact> 0.72366678E+03</totfact>
</mgrwt>
</event>
<event>
 7    1  0.6419647E-006  0.1655966E+03  0.7546771E-02  0.1189640E+00
         -1   -1    0    0    0  501 -0.00000000000E+00  0.00000000000E+00  0.31731031261E+02  0.31731031261E+02  0.00000000000E+00 0.  1.
          1   -1    0    0  501    0  0.00000000000E+00 -0.00000000000E+00 -0.97086816712E+03  0.97086816712E+03  0.00000000000E+00 0. -1.
         23    2    1    2    0    0 -0.45660945220E+02  0.98551506117E+02 -0.74062062529E+03  0.75890787073E+03  0.12499969750E+03 0.  0.
          5    1    3    3  502    0 -0.56132261241E+02  0.34802523916E+02 -0.60500300496E+03  0.60861545531E+03  0.47000000000E+01 0. -1.
         -5    1    3    3    0  502  0.10471316021E+02  0.63748982202E+02 -0.13561762033E+03  0.15029241542E+03  0.47000000000E+01 0. -1.
        -11    1    1    2    0    0 -0.18001307199E+01 -0.86489739273E+02 -0.15800320777E+03  0.18013530785E+03  0.00000000000E+00 0. -1.
         11    1    1    2    0    0  0.47461075940E+02 -0.12061766845E+02 -0.40513302799E+02  0.63556019797E+02  0.00000000000E+00 0.  1.
<mgrwt>
<rscale>  0 0.15916735E+03</rscale>
<asrwt>0</asrwt>
<pdfrwt beam="2">  1        1 0.14936434E+00 0.16559664E+03</pdfrwt>
<pdfrwt beam="1">  1       -1 0.48816970E-02 0.16559664E+03</pdfrwt>
<totfact> 0.30361146E+03</totfact>
</mgrwt>
</event>
<event>
 7    1  0.6419647E-006  0.1823940E+03  0.7546771E-02  0.1170952E+00
          2   -1    0    0  501    0  0.00000000000E+00  0.00000000000E+00  0.76310154364E+03  0.76310154364E+03  0.00000000000E+00 0.  1.
         -2   -1    0    0    0  501 -0.00000000000E+00 -0.00000000000E+00 -0.39051996040E+02  0.39051996040E+02  0.00000000000E+00 0. -1.
         23    2    1    2    0    0  0.10694903344E+03  0.78769351356E+02  0.42622360820E+03  0.46360988618E+03  0.12499942364E+03 0.  0.
          5    1    3    3  502    0  0.13115914329E+03  0.47192914233E+02  0.29316941586E+03  0.32465410581E+03  0.47000000000E+01 0.  1.
         -5    1    3    3    0  502 -0.24210109846E+02  0.31576437123E+02  0.13305419234E+03  0.13895578038E+03  0.47000000000E+01 0.  1.
        -11    1    1    2    0    0 -0.54369052180E+02 -0.83300883912E+02  0.13717419606E+03  0.16944554039E+03  0.00000000000E+00 0. -1.
         11    1    1    2    0    0 -0.52579981261E+02  0.45315325562E+01  0.16065174333E+03  0.16909811310E+03  0.00000000000E+00 0.  1.
<mgrwt>
<rscale>  0 0.17678462E+03</rscale>
<asrwt>0</asrwt>
<pdfrwt beam="1">  1        2 0.11740023E+00 0.18239398E+03</pdfrwt>
<pdfrwt beam="2">  1       -2 0.60079999E-02 0.18239398E+03</pdfrwt>
<totfact> 0.54638862E+03</totfact>
</mgrwt>
</event>
<event>
 6    1  0.6419647E-006  0.2870512E+03  0.7546771E-02  0.1094389E+00
          2   -1    0    0  501    0  0.00000000000E+00  0.00000000000E+00  0.12946269473E+04  0.12946269473E+04  0.00000000000E+00 0. -1.
         -2   -1    0    0    0  501 -0.00000000000E+00 -0.00000000000E+00 -0.68906291257E+02  0.68906291257E+02  0.00000000000E+00 0.  1.
          5    1    1    2  502    0 -0.78778461974E+01 -0.25572431721E+02  0.11122741499E+03  0.11449732561E+03  0.47000000000E+01 0. -1.
         -5    1    1    2    0  502 -0.22190573964E+03  0.13291116730E+03  0.76837950797E+03  0.81076303193E+03  0.47000000000E+01 0.  1.
        -11    1    1    2    0    0  0.21708390728E+03 -0.70456979920E+02  0.31121374497E+03  0.38593212341E+03  0.00000000000E+00 0. -1.
         11    1    1    2    0    0  0.12699678552E+02 -0.36881755657E+02  0.34899988068E+02  0.52340757568E+02  0.00000000000E+00 0.  1.
<mgrwt>
<rscale>  0 0.28239246E+03</rscale>
<asrwt>0</asrwt>
<pdfrwt beam="1">  1        2 0.19917336E+00 0.28705120E+03</pdfrwt>
<pdfrwt beam="2">  1       -2 0.10600969E-01 0.28705120E+03</pdfrwt>
<totfact> 0.10683308E+03</totfact>
</mgrwt>
</event>
<event>
 7    1  0.6419647E-006  0.1439986E+03  0.7546771E-02  0.1217812E+00
          2   -1    0    0  501    0  0.00000000000E+00  0.00000000000E+00  0.30324380991E+03  0.30324380991E+03  0.00000000000E+00 0. -1.
         -2   -1    0    0    0  501 -0.00000000000E+00 -0.00000000000E+00 -0.80075903763E+02  0.80075903763E+02  0.00000000000E+00 0.  1.
         23    2    1    2    0    0  0.22856654169E+02 -0.67709413142E+02  0.22400666939E+03  0.26629790245E+03  0.12501437377E+03 0.  0.
          5    1    3    3  502    0  0.26692282213E+02 -0.10207396756E+02  0.20257173568E+03  0.20463153954E+03  0.47000000000E+01 0. -1.
         -5    1    3    3    0  502 -0.38356280440E+01 -0.57502016385E+02  0.21434933711E+02  0.61666362906E+02  0.47000000000E+01 0. -1.
        -11    1    1    2    0    0 -0.15287433525E+02  0.78029949423E+02  0.28934394954E+02  0.84614288641E+02  0.00000000000E+00 0. -1.
         11    1    1    2    0    0 -0.75692206438E+01 -0.10320536282E+02 -0.29773158204E+02  0.32407522580E+02  0.00000000000E+00 0.  1.
<mgrwt>
<rscale>  0 0.13672015E+03</rscale>
<asrwt>0</asrwt>
<pdfrwt beam="1">  1        2 0.46652893E-01 0.14399856E+03</pdfrwt>
<pdfrwt beam="2">  1       -2 0.12319370E-01 0.14399856E+03</pdfrwt>
<totfact> 0.49263829E+03</totfact>
</mgrwt>
</event>
<event>
 7    1  0.6419647E-006  0.1911880E+03  0.7546771E-02  0.1162373E+00
         -2   -1    0    0    0  501 -0.00000000000E+00  0.00000000000E+00  0.97940064448E+02  0.97940064448E+02  0.00000000000E+00 0.  1.
          2   -1    0    0  501    0  0.00000000000E+00 -0.00000000000E+00 -0.37289071362E+03  0.37289071362E+03  0.00000000000E+00 0. -1.
         23    2    1    2    0    0 -0.11981106761E+03 -0.81074040876E+02 -0.22100613326E+03  0.29222686999E+03  0.12500056231E+03 0.  0.
          5    1    3    3  502    0 -0.11011582077E+03 -0.50287001982E+02 -0.22861794985E+03  0.25873255216E+03  0.47000000000E+01 0. -1.
         -5    1    3    3    0  502 -0.96952468405E+01 -0.30787038895E+02  0.76118165896E+01  0.33494317832E+02  0.47000000000E+01 0. -1.
        -11    1    1    2    0    0  0.65285182222E+02  0.33857574374E+01  0.70957144733E+01  0.65756882035E+02  0.00000000000E+00 0.  1.
         11    1    1    2    0    0  0.54525885388E+02  0.77688283439E+02 -0.61040230377E+02  0.11284702604E+03  0.00000000000E+00 0. -1.
<mgrwt>
<rscale>  0 0.18572706E+03</rscale>
<asrwt>0</asrwt>
<pdfrwt beam="2">  1        2 0.57367802E-01 0.19118795E+03</pdfrwt>
<pdfrwt beam="1">  1       -2 0.15067702E-01 0.19118795E+03</pdfrwt>
<totfact> 0.28846411E+03</totfact>
</mgrwt>
</event>
<event>
 7    1  0.6419647E-006  0.1315714E+03  0.7546771E-02  0.1237055E+00
         -1   -1    0    0    0  501 -0.00000000000E+00  0.00000000000E+00  0.37827506798E+03  0.37827506798E+03  0.00000000000E+00 0.  1.
          1   -1    0    0  501    0  0.00000000000E+00 -0.00000000000E+00 -0.61079601570E+02  0.61079601570E+02  0.00000000000E+00 0. -1.
         23    2    1    2    0    0  0.39082248422E+02 -0.12881509880E+02  0.30944559172E+02  0.13516138892E+03  0.12497071607E+03 0.  0.
          5    1    3    3  502    0  0.37262356488E+02  0.45231772932E+02  0.46309577602E+02  0.74840253015E+02  0.47000000000E+01 0.  1.
         -5    1    3    3    0  502  0.18198919336E+01 -0.58113282812E+02 -0.15365018431E+02  0.60321135908E+02  0.47000000000E+01 0.  1.
        -11    1    1    2    0    0  0.10314480047E+02  0.37793367320E+02  0.62977916745E+02  0.74168356525E+02  0.00000000000E+00 0. -1.
         11    1    1    2    0    0 -0.49396728469E+02 -0.24911857440E+02  0.22327299049E+03  0.23002492410E+03  0.00000000000E+00 0.  1.
<mgrwt>
<rscale>  0 0.12373811E+03</rscale>
<asrwt>0</asrwt>
<pdfrwt beam="2">  1        1 0.93968620E-02 0.13157141E+03</pdfrwt>
<pdfrwt beam="1">  1       -1 0.58196163E-01 0.13157141E+03</pdfrwt>
<totfact> 0.20875179E+03</totfact>
</mgrwt>
</event>
<event>
 7    1  0.6419647E-006  0.2103132E+03  0.7546771E-02  0.1145591E+00
          2   -1    0    0  501    0  0.00000000000E+00  0.00000000000E+00  0.10196866713E+04  0.10196866713E+04  0.00000000000E+00 0. -1.
         -2   -1    0    0    0  501 -0.00000000000E+00 -0.00000000000E+00 -0.75819211217E+02  0.75819211217E+02  0.00000000000E+00 0.  1.
         23    2    1    2    0    0  0.56818228820E+02 -0.15930964160E+03  0.86455032263E+03  0.88976340827E+03  0.12499515713E+03 0.  0.
          5    1    3    3  502    0 -0.67427457253E+00 -0.74963660539E+01 -0.11624476547E+01  0.89493818090E+01  0.47000000000E+01 0.  1.
         -5    1    3    3    0  502  0.57492503392E+02 -0.15181327554E+03  0.86571277028E+03  0.88081402646E+03  0.47000000000E+01 0.  1.
        -11    1    1    2    0    0 -0.16666371878E+02  0.11844874567E+03  0.87047668716E+02  0.14793637123E+03  0.00000000000E+00 0. -1.
         11    1    1    2    0    0 -0.40151856942E+02  0.40860895926E+02 -0.77305312700E+01  0.57806103013E+02  0.00000000000E+00 0.  1.
<mgrwt>
<rscale>  0 0.20499638E+03</rscale>
<asrwt>0</asrwt>
<pdfrwt beam="1">  1        2 0.15687486E+00 0.21031325E+03</pdfrwt>
<pdfrwt beam="2">  1       -2 0.11664495E-01 0.21031325E+03</pdfrwt>
<totfact> 0.13237550E+03</totfact>
</mgrwt>
</event>
<event>
 7    1  0.6419647E-006  0.2232246E+03  0.7546771E-02  0.1134526E+00
          2   -1    0    0  501    0  0.00000000000E+00  0.00000000000E+00  0.18006178301E+03  0.18006178301E+03  0.00000000000E+00 0. -1.
         -2   -1    0    0    0  501 -0.00000000000E+00 -0.00000000000E+00 -0.27078630758E+03  0.27078630758E+03  0.00000000000E+00 0.  1.
         23    2    1    2    0    0  0.18471922645E+03  0.90796122029E+01  0.31788688204E+01  0.22324725739E+03  0.12500240296E+03 0.  0.
          5    1    3    3  502    0  0.41905435469E+02 -0.22634671820E+01  0.56302352384E+02  0.70379213476E+02  0.47000000000E+01 0.  1.
         -5    1    3    3    0  502  0.14281379098E+03  0.11343079385E+02 -0.53123483563E+02  0.15286804391E+03  0.47000000000E+01 0.  1.
        -11    1    1    2    0    0 -0.11538372461E+03 -0.19614793299E+01 -0.61898786097E+01  0.11556628360E+03  0.00000000000E+00 0. -1.
         11    1    1    2    0    0 -0.69335501832E+02 -0.71181328731E+01 -0.87713514787E+02  0.11203454961E+03  0.00000000000E+00 0.  1.
<mgrwt>
<rscale>  0 0.21913931E+03</rscale>
<asrwt>0</asrwt>
<pdfrwt beam="1">  1        2 0.27701813E-01 0.22322462E+03</pdfrwt>
<pdfrwt beam="2">  1       -2 0.41659432E-01 0.22322462E+03</pdfrwt>
<totfact> 0.10521259E+03</totfact>
</mgrwt>
</event>
<event>
 7    1  0.6419647E-006  0.1126997E+03  0.7546771E-02  0.1266399E+00
          2   -1    0    0  501    0  0.00000000000E+00  0.00000000000E+00  0.18766572778E+04  0.18766572778E+04  0.00000000000E+00 0. -1.
         -2   -1    0    0    0  501 -0.00000000000E+00 -0.00000000000E+00 -0.13300752227E+03  0.13300752227E+03  0.00000000000E+00 0.  1.
         23    2    1    2    0    0  0.13029939854E+02  0.27393487533E+01  0.18590900630E+04  0.18625029116E+04  0.11191045517E+03 0.  0.
          5    1    3    3  502    0  0.52423533583E+02  0.29209749535E+02  0.76074099802E+03  0.76311885864E+03  0.47000000000E+01 0. -1.
         -5    1    3    3    0  502 -0.39393593729E+02 -0.26470400782E+02  0.10983490650E+04  0.10993840529E+04  0.47000000000E+01 0.  1.
        -11    1    1    2    0    0  0.95861599256E+01 -0.31382239901E+02 -0.81163671051E+01  0.33802586563E+02  0.00000000000E+00 0. -1.
         11    1    1    2    0    0 -0.22616099780E+02  0.28642891148E+02 -0.10732394031E+03  0.11335930198E+03  0.00000000000E+00 0.  1.
<mgrwt>
<rscale>  0 0.10691136E+03</rscale>
<asrwt>0</asrwt>
<pdfrwt beam="1">  1        2 0.28871648E+00 0.11269975E+03</pdfrwt>
<pdfrwt beam="2">  1       -2 0.20462697E-01 0.11269975E+03</pdfrwt>
<totfact> 0.18598201E+02</totfact>
</mgrwt>
</event>
<event>
 7    1  0.6419647E-006  0.1661395E+03  0.7546771E-02  0.1189035E+00
         -1   -1    0    0    0  501 -0.00000000000E+00  0.00000000000E+00  0.42283144157E+03  0.42283144157E+03  0.00000000000E+00 0.  1.
          1   -1    0    0  501    0  0.00000000000E+00 -0.00000000000E+00 -0.56549930032E+02  0.56549930032E+02  0.00000000000E+00 0. -1.
         23    2    1    2    0    0 -0.25327566077E+02 -0.10644906156E+03  0.17573983200E+03  0.24184048172E+03  0.12501776569E+03 0.  0.
          5    1    3    3  502    0 -0.10433603273E+00 -0.13000223616E+03  0.12587986043E+03  0.18102050037E+03  0.47000000000E+01 0. -1.
         -5    1    3    3    0  502 -0.25223230045E+02  0.23553174592E+02  0.49859971565E+02  0.60819981353E+02  0.47000000000E+01 0. -1.
        -11    1    1    2    0    0  0.20971355995E+02  0.70853701122E+02  0.42552495842E+02  0.85268749477E+02  0.00000000000E+00 0. -1.
         11    1    1    2    0    0  0.43562100820E+01  0.35595360443E+02  0.14798918370E+03  0.15227214040E+03  0.00000000000E+00 0.  1.
<mgrwt>
<rscale>  0 0.15970074E+03</rscale>
<asrwt>0</asrwt>
<pdfrwt beam="2">  1        1 0.86999895E-02 0.16613949E+03</pdfrwt>
<pdfrwt beam="1">  1       -1 0.65050989E-01 0.16613949E+03</pdfrwt>
<totfact> 0.18875178E+03</totfact>
</mgrwt>
</event>
<event>
 7    1  0.6419647E-006  0.1481711E+03  0.7546771E-02  0.1212561E+00
          2   -1    0    0  501    0  0.00000000000E+00  0.00000000000E+00  0.78195602972E+03  0.78195602972E+03  0.00000000000E+00 0. -1.
         -2   -1    0    0    0  501 -0.00000000000E+00 -0.00000000000E+00 -0.23660750266E+02  0.23660750266E+02  0.00000000000E+00 0.  1.
         23    2    1    2    0    0  0.67314515495E+02 -0.42410708645E+02  0.48485767889E+03  0.50699273239E+03  0.12499899886E+03 0.  0.
          5    1    3    3  502    0  0.87271090463E+02 -0.69747788323E+02  0.33067586883E+03  0.34906964553E+03  0.47000000000E+01 0.  1.
         -5    1    3    3    0  502 -0.19956574968E+02  0.27337079678E+02  0.15418181006E+03  0.15792308686E+03  0.47000000000E+01 0.  1.
        -11    1    1    2    0    0 -0.38803722411E+02 -0.16763732479E+02  0.48708705942E+02  0.64492554874E+02  0.00000000000E+00 0.  1.
         11    1    1    2    0    0 -0.28510793084E+02  0.59174441124E+02  0.22472889462E+03  0.23413149272E+03  0.00000000000E+00 0. -1.
<mgrwt>
<rscale>  0 0.14057198E+03</rscale>
<asrwt>0</asrwt>
<pdfrwt beam="1">  1        2 0.12030091E+00 0.14817106E+03</pdfrwt>
<pdfrwt beam="2">  1       -2 0.36401160E-02 0.14817106E+03</pdfrwt>
<totfact> 0.11146717E+04</totfact>
</mgrwt>
</event>
<event>
 7    1  0.6419647E-006  0.2037455E+03  0.7546771E-02  0.1150253E+00
          1   -1    0    0  501    0  0.00000000000E+00  0.00000000000E+00  0.78776753043E+03  0.78776753043E+03  0.00000000000E+00 0. -1.
         -1   -1    0    0    0  501 -0.00000000000E+00 -0.00000000000E+00 -0.71269969479E+02  0.71269969479E+02  0.00000000000E+00 0.  1.
         23    2    1    2    0    0  0.63696425002E+02  0.14774938099E+03  0.61178290908E+03  0.64481822104E+03  0.12500038480E+03 0.  0.
          5    1    3    3  502    0 -0.21567122852E+02  0.36642496437E+02  0.29945105347E+03  0.30249105236E+03  0.47000000000E+01 0. -1.
         -5    1    3    3    0  502  0.85263547854E+02  0.11110688455E+03  0.31233185562E+03  0.34232716869E+03  0.47000000000E+01 0. -1.
        -11    1    1    2    0    0  0.25211541609E+01  0.12454408938E+02  0.24124526989E+01  0.12934003569E+02  0.00000000000E+00 0. -1.
         11    1    1    2    0    0 -0.66217579163E+02 -0.16020378993E+03  0.10230219917E+03  0.20128527530E+03  0.00000000000E+00 0.  1.
<mgrwt>
<rscale>  0 0.19939194E+03</rscale>
<asrwt>0</asrwt>
<pdfrwt beam="1">  1        1 0.12119500E+00 0.20374545E+03</pdfrwt>
<pdfrwt beam="2">  1       -1 0.10964611E-01 0.20374545E+03</pdfrwt>
<totfact> 0.12459278E+03</totfact>
</mgrwt>
</event>
<event>
 7    1  0.6419647E-006  0.1319476E+03  0.7546771E-02  0.1239746E+00
         -1   -1    0    0    0  501 -0.00000000000E+00  0.00000000000E+00  0.10989569791E+02  0.10989569791E+02  0.00000000000E+00 0.  1.
          1   -1    0    0  501    0  0.00000000000E+00 -0.00000000000E+00 -0.12630015463E+04  0.12630015463E+04  0.00000000000E+00 0. -1.
         23    2    1    2    0    0  0.11995566380E+02  0.40514343484E+02 -0.87022112193E+03  0.88016758008E+03  0.12499944932E+03 0.  0.
          5    1    3    3  502    0  0.57544132254E+02  0.58869321370E+02 -0.52328528020E+03  0.52974191700E+03  0.47000000000E+01 0.  1.
         -5    1    3    3    0  502 -0.45548565873E+02 -0.18354977886E+02 -0.34693584173E+03  0.35042566308E+03  0.47000000000E+01 0.  1.
        -11    1    1    2    0    0 -0.45007291596E+02 -0.12957620192E+02 -0.27029319480E+03  0.27432092041E+03  0.00000000000E+00 0. -1.
         11    1    1    2    0    0  0.33011725216E+02 -0.27556723292E+02 -0.11149765980E+03  0.11950261562E+03  0.00000000000E+00 0.  1.
<mgrwt>
<rscale>  0 0.12205404E+03</rscale>
<asrwt>0</asrwt>
<pdfrwt beam="2">  1        1 0.19430783E+00 0.13194760E+03</pdfrwt>
<pdfrwt beam="1">  1       -1 0.16907039E-02 0.13194760E+03</pdfrwt>
<totfact> 0.88000461E+03</totfact>
</mgrwt>
</event>
<event>
 7    1  0.6419647E-006  0.2424100E+03  0.7546771E-02  0.1120752E+00
         -2   -1    0    0    0  501 -0.00000000000E+00  0.00000000000E+00  0.54482525219E+02  0.54482525219E+02  0.00000000000E+00 0.  1.
          2   -1    0    0  501    0  0.00000000000E+00 -0.00000000000E+00 -0.10515060076E+04  0.10515060076E+04  0.00000000000E+00 0. -1.
         23    2    1    2    0    0 -0.18530653264E+03 -0.93803887327E+02 -0.61991056882E+03  0.66562132147E+03  0.12499979978E+03 0.  0.
          5    1    3    3  502    0 -0.57910279421E+02 -0.95619202328E+02 -0.34256901200E+03  0.36037792704E+03  0.47000000000E+01 0.  1.
         -5    1    3    3    0  502 -0.12739625322E+03  0.18153150007E+01 -0.27734155682E+03  0.30524339443E+03  0.47000000000E+01 0.  1.
        -11    1    1    2    0    0  0.11463914294E+03  0.43716917824E+02 -0.13112406844E+03  0.17957400514E+03  0.00000000000E+00 0.  1.
         11    1    1    2    0    0  0.70667389699E+02  0.50086969503E+02 -0.24598884515E+03  0.26079320623E+03  0.00000000000E+00 0. -1.
<mgrwt>
<rscale>  0 0.23856617E+03</rscale>
<asrwt>0</asrwt>
<pdfrwt beam="2">  1        2 0.16177016E+00 0.24241005E+03</pdfrwt>
<pdfrwt beam="1">  1       -2 0.83819267E-02 0.24241005E+03</pdfrwt>
<totfact> 0.21424472E+03</totfact>
</mgrwt>
</event>
<event>
 7    1  0.6419647E-006  0.1458795E+03  0.7546771E-02  0.1215009E+00
          4   -1    0    0  501    0  0.00000000000E+00  0.00000000000E+00  0.95759040966E+02  0.95759040966E+02  0.00000000000E+00 0. -1.
         -4   -1    0    0    0  501 -0.00000000000E+00 -0.00000000000E+00 -0.18817476077E+03  0.18817476077E+03  0.00000000000E+00 0.  1.
         23    2    1    2    0    0  0.75176144340E+02  0.20373455499E+01 -0.29031182948E+02  0.14874012902E+03  0.12500085177E+03 0.  0.
          5    1    3    3  502    0  0.24217246969E+02  0.58881475920E+02 -0.33552177085E+02  0.72120328926E+02  0.47000000000E+01 0. -1.
         -5    1    3    3    0  502  0.50958897371E+02 -0.56844130370E+02  0.45209941369E+01  0.76619800096E+02  0.47000000000E+01 0. -1.
        -11    1    1    2    0    0 -0.25020762017E+02 -0.46078818159E+02 -0.32091022826E+02  0.61474626968E+02  0.00000000000E+00 0. -1.
         11    1    1    2    0    0 -0.50155382323E+02  0.44041472609E+02 -0.31293514031E+02  0.73719045748E+02  0.00000000000E+00 0.  1.
<mgrwt>
<rscale>  0 0.13875848E+03</rscale>
<asrwt>0</asrwt>
<pdfrwt beam="1">  1        4 0.14732160E-01 0.14587946E+03</pdfrwt>
<pdfrwt beam="2">  1       -4 0.28949963E-01 0.14587946E+03</pdfrwt>
<totfact> 0.74281054E+02</totfact>
</mgrwt>
</event>
<event>
 7    1  0.6419647E-006  0.1914703E+03  0.7546771E-02  0.1161406E+00
          2   -1    0    0  501    0  0.00000000000E+00  0.00000000000E+00  0.53357513115E+03  0.53357513115E+03  0.00000000000E+00 0. -1.
         -2   -1    0    0    0  501 -0.00000000000E+00 -0.00000000000E+00 -0.62460606632E+02  0.62460606632E+02  0.00000000000E+00 0.  1.
         23    2    1    2    0    0  0.18839210104E+02  0.14381643689E+03  0.25907611987E+03  0.32215106369E+03  0.12499115406E+03 0.  0.
          5    1    3    3  502    0 -0.22296779889E+02  0.14810261953E+03  0.20263454630E+03  0.25202059769E+03  0.47000000000E+01 0.  1.
         -5    1    3    3    0  502  0.41135989992E+02 -0.42861826425E+01  0.56441573572E+02  0.70130466002E+02  0.47000000000E+01 0.  1.
        -11    1    1    2    0    0 -0.56675799570E+02 -0.10123539820E+03  0.13361272273E+03  0.17695511234E+03  0.00000000000E+00 0.  1.
         11    1    1    2    0    0  0.37836589466E+02 -0.42581038686E+02  0.78425681909E+02  0.96929561749E+02  0.00000000000E+00 0. -1.
<mgrwt>
<rscale>  0 0.18677174E+03</rscale>
<asrwt>0</asrwt>
<pdfrwt beam="1">  1        2 0.82088479E-01 0.19147029E+03</pdfrwt>
<pdfrwt beam="2">  1       -2 0.96093244E-02 0.19147029E+03</pdfrwt>
<totfact> 0.40206579E+03</totfact>
</mgrwt>
</event>
<event>
 7    1  0.6419647E-006  0.1386760E+03  0.7546771E-02  0.1226745E+00
          1   -1    0    0  501    0  0.00000000000E+00  0.00000000000E+00  0.39940620618E+02  0.39940620618E+02  0.00000000000E+00 0. -1.
         -1   -1    0    0    0  501 -0.00000000000E+00 -0.00000000000E+00 -0.52280708295E+03  0.52280708295E+03  0.00000000000E+00 0.  1.
         23    2    1    2    0    0 -0.50863171994E+02  0.31747427847E+02 -0.11815466813E+03  0.18218547572E+03  0.12504423426E+03 0.  0.
          5    1    3    3  502    0 -0.40827529039E+02 -0.15236505166E+02  0.10244276076E+02  0.45011925192E+02  0.47000000000E+01 0. -1.
         -5    1    3    3    0  502 -0.10035642955E+02  0.46983933013E+02 -0.12839894420E+03  0.13717355052E+03  0.47000000000E+01 0. -1.
        -11    1    1    2    0    0 -0.24993109719E+02  0.35607260689E-01 -0.61259483397E+02  0.66161779808E+02  0.00000000000E+00 0.  1.
         11    1    1    2    0    0  0.75856281713E+02 -0.31783035107E+02 -0.30345231081E+03  0.31440044805E+03  0.00000000000E+00 0. -1.
<mgrwt>
<rscale>  0 0.13048047E+03</rscale>
<asrwt>0</asrwt>
<pdfrwt beam="1">  1        1 0.61447110E-02 0.13867596E+03</pdfrwt>
<pdfrwt beam="2">  1       -1 0.80431857E-01 0.13867596E+03</pdfrwt>
<totfact> 0.19616358E+03</totfact>
</mgrwt>
</event>
<event>
 7    1  0.6760574E-006  0.1508091E+03  0.7546771E-02  0.1208873E+00
          2   -1    0    0  501    0  0.00000000000E+00  0.00000000000E+00  0.32439857386E+03  0.32439857386E+03  0.00000000000E+00 0. -1.
         -2   -1    0    0    0  501 -0.00000000000E+00 -0.00000000000E+00 -0.63866417977E+02  0.63866417977E+02  0.00000000000E+00 0.  1.
         23    2    1    2    0    0 -0.66344119413E+02 -0.52125651552E+02  0.20150059888E+03  0.25168608666E+03  0.12499907655E+03 0.  0.
          5    1    3    3  502    0  0.34301381413E+02  0.42612316615E+01  0.38732680642E+02  0.52125362462E+02  0.47000000000E+01 0.  1.
         -5    1    3    3    0  502 -0.10064550083E+03 -0.56386883214E+02  0.16276791824E+03  0.19956072420E+03  0.47000000000E+01 0.  1.
        -11    1    1    2    0    0  0.14421760313E+02  0.62775294075E+02  0.11590291788E+02  0.65445088283E+02  0.00000000000E+00 0.  1.
         11    1    1    2    0    0  0.51922359100E+02 -0.10649642522E+02  0.47441265211E+02  0.71133816889E+02  0.00000000000E+00 0. -1.
<mgrwt>
<rscale>  0 0.14336417E+03</rscale>
<asrwt>0</asrwt>
<pdfrwt beam="1">  1        2 0.49907472E-01 0.15080913E+03</pdfrwt>
<pdfrwt beam="2">  1       -2 0.98256029E-02 0.15080913E+03</pdfrwt>
<totfact> 0.65844848E+03</totfact>
</mgrwt>
</event>
<event>
 7    1  0.6419647E-006  0.1483070E+03  0.7546771E-02  0.1212655E+00
         -2   -1    0    0    0  501 -0.00000000000E+00  0.00000000000E+00  0.12825286035E+03  0.12825286035E+03  0.00000000000E+00 0.  1.
          2   -1    0    0  501    0  0.00000000000E+00 -0.00000000000E+00 -0.14845345019E+03  0.14845345019E+03  0.00000000000E+00 0. -1.
         23    2    1    2    0    0 -0.60098927480E+02  0.52523106623E+02 -0.44405240325E+02  0.15481210228E+03  0.12499761530E+03 0.  0.
          5    1    3    3  502    0 -0.85727064774E+02  0.69331892467E+02 -0.13746885225E+02  0.11120749885E+03  0.47000000000E+01 0.  1.
         -5    1    3    3    0  502  0.25628137294E+02 -0.16808785845E+02 -0.30658355100E+02  0.43604603429E+02  0.47000000000E+01 0.  1.
        -11    1    1    2    0    0 -0.13375912521E+02 -0.32301584261E+02  0.29160852593E+02  0.45526505527E+02  0.00000000000E+00 0.  1.
         11    1    1    2    0    0  0.73474840001E+02 -0.20221522362E+02 -0.49562021075E+01  0.76367702722E+02  0.00000000000E+00 0. -1.
<mgrwt>
<rscale>  0 0.14050218E+03</rscale>
<asrwt>0</asrwt>
<pdfrwt beam="2">  1        2 0.22838992E-01 0.14830698E+03</pdfrwt>
<pdfrwt beam="1">  1       -2 0.19731209E-01 0.14830698E+03</pdfrwt>
<totfact> 0.49246370E+03</totfact>
</mgrwt>
</event>
<event>
 7    1  0.6419647E-006  0.1345623E+03  0.7546771E-02  0.1232707E+00
          2   -1    0    0  501    0  0.00000000000E+00  0.00000000000E+00  0.99151143629E+03  0.99151143629E+03  0.00000000000E+00 0. -1.
         -2   -1    0    0    0  501 -0.00000000000E+00 -0.00000000000E+00 -0.18049920752E+02  0.18049920752E+02  0.00000000000E+00 0.  1.
         23    2    1    2    0    0 -0.23904276331E+02 -0.43717319451E+02  0.75740071351E+03  0.76926123628E+03  0.12499756144E+03 0.  0.
          5    1    3    3  502    0 -0.10109821415E+02 -0.12608375216E+02  0.72523077233E+01  0.18326635860E+02  0.47000000000E+01 0. -1.
         -5    1    3    3    0  502 -0.13794454916E+02 -0.31108944235E+02  0.75014840579E+03  0.75093460042E+03  0.47000000000E+01 0. -1.
        -11    1    1    2    0    0  0.15129423559E+02  0.52700878532E+02  0.22031960078E+03  0.22703966293E+03  0.00000000000E+00 0. -1.
         11    1    1    2    0    0  0.87748527724E+01 -0.89835590803E+01 -0.42587987601E+01  0.13260457828E+02  0.00000000000E+00 0.  1.
<mgrwt>
<rscale>  0 0.12652348E+03</rscale>
<asrwt>0</asrwt>
<pdfrwt beam="1">  1        2 0.15254018E+00 0.13456229E+03</pdfrwt>
<pdfrwt beam="2">  1       -2 0.27769117E-02 0.13456229E+03</pdfrwt>
<totfact> 0.12134434E+04</totfact>
</mgrwt>
</event>
<event>
 7    1  0.6419647E-006  0.1251116E+03  0.7546771E-02  0.1253456E+00
         -2   -1    0    0    0  501 -0.00000000000E+00  0.00000000000E+00  0.24582319062E+02  0.24582319062E+02  0.00000000000E+00 0.  1.
          2   -1    0    0  501    0  0.00000000000E+00 -0.00000000000E+00 -0.65672161827E+03  0.65672161827E+03  0.00000000000E+00 0. -1.
         23    2    1    2    0    0  0.83192187282E+00  0.51615848985E+01 -0.54373162196E+03  0.55793995687E+03  0.12500233876E+03 0.  0.
          5    1    3    3  502    0 -0.15996402776E+02  0.62682771692E+02 -0.26931091409E+03  0.27701168426E+03  0.47000000000E+01 0. -1.
         -5    1    3    3    0  502  0.16828324649E+02 -0.57521186794E+02 -0.27442070787E+03  0.28092827261E+03  0.47000000000E+01 0. -1.
        -11    1    1    2    0    0  0.38599888198E+02 -0.34391164262E+00 -0.18155024933E+02  0.42657643799E+02  0.00000000000E+00 0.  1.
         11    1    1    2    0    0 -0.39431810071E+02 -0.48176732559E+01 -0.70252652314E+02  0.80706336667E+02  0.00000000000E+00 0. -1.
<mgrwt>
<rscale>  0 0.11393244E+03</rscale>
<asrwt>0</asrwt>
<pdfrwt beam="2">  1        2 0.10103409E+00 0.12511163E+03</pdfrwt>
<pdfrwt beam="1">  1       -2 0.37818953E-02 0.12511163E+03</pdfrwt>
<totfact> 0.12834274E+04</totfact>
</mgrwt>
</event>
<event>
 7    1  0.6419647E-006  0.1263698E+03  0.7546771E-02  0.1251196E+00
         -2   -1    0    0    0  501 -0.00000000000E+00  0.00000000000E+00  0.91013086281E+01  0.91013086281E+01  0.00000000000E+00 0.  1.
          2   -1    0    0  501    0  0.00000000000E+00 -0.00000000000E+00 -0.16650397439E+04  0.16650397439E+04  0.00000000000E+00 0. -1.
         23    2    1    2    0    0  0.18275290005E+02 -0.33218448098E+01 -0.13523069088E+04  0.13581985465E+04  0.12499718029E+03 0.  0.
          5    1    3    3  502    0  0.61344928739E+02 -0.56080664711E+01 -0.38552883036E+03  0.39044746091E+03  0.47000000000E+01 0. -1.
         -5    1    3    3    0  502 -0.43069638733E+02  0.22862216613E+01 -0.96677807847E+03  0.96775108556E+03  0.47000000000E+01 0. -1.
        -11    1    1    2    0    0  0.23263932911E+02 -0.23232387150E+02 -0.17747569515E+03  0.18049536491E+03  0.00000000000E+00 0.  1.
         11    1    1    2    0    0 -0.41539222916E+02  0.26554231960E+02 -0.12615583130E+03  0.13544714116E+03  0.00000000000E+00 0. -1.
<mgrwt>
<rscale>  0 0.11522072E+03</rscale>
<asrwt>0</asrwt>
<pdfrwt beam="2">  1        2 0.25615975E+00 0.12636976E+03</pdfrwt>
<pdfrwt beam="1">  1       -2 0.14002025E-02 0.12636976E+03</pdfrwt>
<totfact> 0.14095350E+04</totfact>
</mgrwt>
</event>
<event>
 7    1  0.6419647E-006  0.1306459E+03  0.7546771E-02  0.1238125E+00
         -2   -1    0    0    0  501 -0.00000000000E+00  0.00000000000E+00  0.19640325558E+03  0.19640325558E+03  0.00000000000E+00 0.  1.
          2   -1    0    0  501    0  0.00000000000E+00 -0.00000000000E+00 -0.69441033792E+02  0.69441033792E+02  0.00000000000E+00 0. -1.
         23    2    1    2    0    0 -0.33391371950E+02  0.18136627597E+02  0.68024039038E+02  0.14729432957E+03  0.12499771459E+03 0.  0.
          5    1    3    3  502    0 -0.57622690526E+02 -0.33846889017E+02  0.58551689425E+02  0.88974022580E+02  0.47000000000E+01 0. -1.
         -5    1    3    3    0  502  0.24231318577E+02  0.51983516615E+02  0.94723496132E+01  0.58320306985E+02  0.47000000000E+01 0. -1.
        -11    1    1    2    0    0 -0.12129350796E+02 -0.45646241447E+02  0.40623634066E+02  0.62297513223E+02  0.00000000000E+00 0. -1.
         11    1    1    2    0    0  0.45520722746E+02  0.27509613850E+02  0.18314548688E+02  0.56252446588E+02  0.00000000000E+00 0.  1.
<mgrwt>
<rscale>  0 0.12306498E+03</rscale>
<asrwt>0</asrwt>
<pdfrwt beam="2">  1        2 0.10683236E-01 0.13064589E+03</pdfrwt>
<pdfrwt beam="1">  1       -2 0.30215885E-01 0.13064589E+03</pdfrwt>
<totfact> 0.56356020E+03</totfact>
</mgrwt>
</event>
<event>
 6    1  0.6419647E-006  0.1999235E+03  0.7546771E-02  0.1180030E+00
          2   -1    0    0  501    0  0.00000000000E+00  0.00000000000E+00  0.61225245229E+02  0.61225245229E+02  0.00000000000E+00 0. -1.
         -2   -1    0    0    0  501 -0.00000000000E+00 -0.00000000000E+00 -0.38328527825E+03  0.38328527825E+03  0.00000000000E+00 0.  1.
          5    1    1    2  502    0  0.80172895171E+02  0.31056332848E+02  0.25637456906E+01  0.86144365585E+02  0.47000000000E+01 0. -1.
         -5    1    1    2    0  502 -0.31172739239E+02 -0.22788686240E+02 -0.17071778628E+03  0.17509345060E+03  0.47000000000E+01 0.  1.
        -11    1    1    2    0    0 -0.53458069216E+02  0.23497135270E+02 -0.58657568330E+02  0.82768296181E+02  0.00000000000E+00 0.  1.
         11    1    1    2    0    0  0.44579132836E+01 -0.31764781878E+02 -0.95248424104E+02  0.10050441111E+03  0.00000000000E+00 0. -1.
<mgrwt>
<rscale>  0 0.16792384E+03</rscale>
<asrwt>0</asrwt>
<pdfrwt beam="1">  1        2 0.94192687E-02 0.19992352E+03</pdfrwt>
<pdfrwt beam="2">  1       -2 0.58966965E-01 0.19992352E+03</pdfrwt>
<totfact> 0.18656480E+03</totfact>
</mgrwt>
</event>
<event>
 7    1  0.6419647E-006  0.1621175E+03  0.7546771E-02  0.1195723E+00
          2   -1    0    0  501    0  0.00000000000E+00  0.00000000000E+00  0.17656264353E+04  0.17656264353E+04  0.00000000000E+00 0.  1.
         -2   -1    0    0    0  501 -0.00000000000E+00 -0.00000000000E+00 -0.13962637688E+02  0.13962637688E+02  0.00000000000E+00 0. -1.
         23    2    1    2    0    0  0.98970295838E+02  0.29342798360E+02  0.12670396408E+04  0.12773689837E+04  0.12500379930E+03 0.  0.
          5    1    3    3  502    0  0.12581694502E+03  0.40846883537E+02  0.10121888184E+04  0.10208068699E+04  0.47000000000E+01 0. -1.
         -5    1    3    3    0  502 -0.26846649184E+02 -0.11504085177E+02  0.25485082242E+03  0.25656211379E+03  0.47000000000E+01 0. -1.
        -11    1    1    2    0    0 -0.74693667540E+02 -0.57534092771E+02  0.33210090153E+03  0.34522503472E+03  0.00000000000E+00 0.  1.
         11    1    1    2    0    0 -0.24276628298E+02  0.28191294412E+02  0.15252325526E+03  0.15699505457E+03  0.00000000000E+00 0. -1.
<mgrwt>
<rscale>  0 0.15393237E+03</rscale>
<asrwt>0</asrwt>
<pdfrwt beam="1">  1        2 0.27163466E+00 0.16211745E+03</pdfrwt>
<pdfrwt beam="2">  1       -2 0.21480995E-02 0.16211745E+03</pdfrwt>
<totfact> 0.67931354E+03</totfact>
</mgrwt>
</event>
<event>
 7    1  0.6419647E-006  0.1277331E+03  0.7546771E-02  0.1245305E+00
          2   -1    0    0  501    0  0.00000000000E+00  0.00000000000E+00  0.37426386763E+03  0.37426386763E+03  0.00000000000E+00 0. -1.
         -2   -1    0    0    0  501 -0.00000000000E+00 -0.00000000000E+00 -0.33444244842E+02  0.33444244842E+02  0.00000000000E+00 0.  1.
         23    2    1    2    0    0 -0.19587685854E+02  0.17569293718E+02  0.21279279317E+03  0.24818645653E+03  0.12499354727E+03 0.  0.
          5    1    3    3  502    0 -0.70519997279E+02 -0.69033006610E+01  0.11621773761E+03  0.13619610167E+03  0.47000000000E+01 0.  1.
         -5    1    3    3    0  502  0.50932311425E+02  0.24472594379E+02  0.96575055565E+02  0.11199035485E+03  0.47000000000E+01 0.  1.
        -11    1    1    2    0    0 -0.16317258981E+02  0.30835072375E+02  0.48107490526E+02  0.59425459810E+02  0.00000000000E+00 0.  1.
         11    1    1    2    0    0  0.35904944835E+02 -0.48404366093E+02  0.79919339094E+02  0.10009619614E+03  0.00000000000E+00 0. -1.
<mgrwt>
<rscale>  0 0.11867148E+03</rscale>
<asrwt>0</asrwt>
<pdfrwt beam="1">  1        2 0.57579054E-01 0.12773310E+03</pdfrwt>
<pdfrwt beam="2">  1       -2 0.51452687E-02 0.12773310E+03</pdfrwt>
<totfact> 0.15077269E+04</totfact>
</mgrwt>
</event>
<event>
 7    1  0.6419647E-006  0.1649866E+03  0.7546771E-02  0.1190101E+00
         -2   -1    0    0    0  501 -0.00000000000E+00  0.00000000000E+00  0.36096562232E+02  0.36096562232E+02  0.00000000000E+00 0.  1.
          2   -1    0    0  501    0  0.00000000000E+00 -0.00000000000E+00 -0.74085217727E+03  0.74085217727E+03  0.00000000000E+00 0. -1.
         23    2    1    2    0    0 -0.10649981208E+03 -0.15896295749E+02 -0.51149724014E+03  0.53744768479E+03  0.12500274008E+03 0.  0.
          5    1    3    3  502    0 -0.91573776848E+02  0.98022611435E+01 -0.49422443652E+03  0.50275413930E+03  0.47000000000E+01 0. -1.
         -5    1    3    3    0  502 -0.14926035230E+02 -0.25698556893E+02 -0.17272803622E+02  0.34693545496E+02  0.47000000000E+01 0. -1.
        -11    1    1    2    0    0  0.77203867548E+02  0.73107756604E+00 -0.48829209119E+02  0.91352412677E+02  0.00000000000E+00 0.  1.
         11    1    1    2    0    0  0.29295944530E+02  0.15165218183E+02 -0.14442916578E+03  0.14814864204E+03  0.00000000000E+00 0. -1.
<mgrwt>
<rscale>  0 0.15876243E+03</rscale>
<asrwt>0</asrwt>
<pdfrwt beam="2">  1        2 0.11397726E+00 0.16498663E+03</pdfrwt>
<pdfrwt beam="1">  1       -2 0.55533171E-02 0.16498663E+03</pdfrwt>
<totfact> 0.63594307E+03</totfact>
</mgrwt>
</event>
<event>
 7    1  0.6419647E-006  0.1295781E+03  0.7546771E-02  0.1241768E+00
         -2   -1    0    0    0  501 -0.00000000000E+00  0.00000000000E+00  0.30523240336E+02  0.30523240336E+02  0.00000000000E+00 0.  1.
          2   -1    0    0  501    0  0.00000000000E+00 -0.00000000000E+00 -0.42410770512E+03  0.42410770512E+03  0.00000000000E+00 0. -1.
         23    2    1    2    0    0 -0.70679886843E+01 -0.33414542013E+02 -0.22977114647E+03  0.26379020996E+03  0.12499602810E+03 0.  0.
          5    1    3    3  502    0  0.43583753311E+00 -0.71123978669E+02 -0.20683716577E+03  0.21877502928E+03  0.47000000000E+01 0.  1.
         -5    1    3    3    0  502 -0.75038262174E+01  0.37709436655E+02 -0.22933980704E+02  0.45015180681E+02  0.47000000000E+01 0.  1.
        -11    1    1    2    0    0 -0.22926469026E+02  0.15970179576E+02 -0.15144981104E+03  0.15400556770E+03  0.00000000000E+00 0. -1.
         11    1    1    2    0    0  0.29994457710E+02  0.17444362437E+02 -0.12363507270E+02  0.36835167791E+02  0.00000000000E+00 0.  1.
<mgrwt>
<rscale>  0 0.12080920E+03</rscale>
<asrwt>0</asrwt>
<pdfrwt beam="2">  1        2 0.65247339E-01 0.12957814E+03</pdfrwt>
<pdfrwt beam="1">  1       -2 0.46958832E-02 0.12957814E+03</pdfrwt>
<totfact> 0.15149566E+04</totfact>
</mgrwt>
</event>
<event>
 7    1  0.6419647E-006  0.1756624E+03  0.7546771E-02  0.1177957E+00
         -1   -1    0    0    0  501 -0.00000000000E+00  0.00000000000E+00  0.38593003987E+03  0.38593003987E+03  0.00000000000E+00 0.  1.
          1   -1    0    0  501    0  0.00000000000E+00 -0.00000000000E+00 -0.77503901962E+02  0.77503901962E+02  0.00000000000E+00 0. -1.
         23    2    1    2    0    0  0.75685774033E+02 -0.97483800213E+02  0.92903671092E+02  0.19871685160E+03  0.12500346921E+03 0.  0.
          5    1    3    3  502    0  0.49472123514E+02 -0.44011022929E+02  0.11682514071E+03  0.13436764732E+03  0.47000000000E+01 0.  1.
         -5    1    3    3    0  502  0.26213650519E+02 -0.53472777284E+02 -0.23921469614E+02  0.64349204288E+02  0.47000000000E+01 0.  1.
        -11    1    1    2    0    0 -0.49047538345E+02  0.21641717667E+02  0.27542245360E+02  0.60271056410E+02  0.00000000000E+00 0. -1.
         11    1    1    2    0    0 -0.26638235688E+02  0.75842082546E+02  0.18798022146E+03  0.20444603382E+03  0.00000000000E+00 0.  1.
<mgrwt>
<rscale>  0 0.16989521E+03</rscale>
<asrwt>0</asrwt>
<pdfrwt beam="2">  1        1 0.11923677E-01 0.17566245E+03</pdfrwt>
<pdfrwt beam="1">  1       -1 0.59373851E-01 0.17566245E+03</pdfrwt>
<totfact> 0.14812519E+03</totfact>
</mgrwt>
</event>
<event>
 7    1  0.6419647E-006  0.1263260E+03  0.7546771E-02  0.1252776E+00
          2   -1    0    0  501    0  0.00000000000E+00  0.00000000000E+00  0.63399210749E+03  0.63399210749E+03  0.00000000000E+00 0. -1.
         -2   -1    0    0    0  501 -0.00000000000E+00 -0.00000000000E+00 -0.18535641675E+02  0.18535641675E+02  0.00000000000E+00 0.  1.
         23    2    1    2    0    0 -0.72530973937E+01  0.16524283326E+02  0.43854396458E+03  0.45637602075E+03  0.12503041265E+03 0.  0.
          5    1    3    3  502    0  0.24573978726E+01 -0.46858843927E+02  0.86600635078E+02  0.98608062827E+02  0.47000000000E+01 0.  1.
         -5    1    3    3    0  502 -0.97104952663E+01  0.63383127252E+02  0.35194332950E+03  0.35776795793E+03  0.47000000000E+01 0.  1.
        -11    1    1    2    0    0 -0.48230042318E+01 -0.34949447287E+02  0.16915617024E+03  0.17279622439E+03  0.00000000000E+00 0. -1.
         11    1    1    2    0    0  0.12076101625E+02  0.18425163962E+02  0.77563310030E+01  0.23355504022E+02  0.00000000000E+00 0.  1.
<mgrwt>
<rscale>  0 0.11431837E+03</rscale>
<asrwt>0</asrwt>
<pdfrwt beam="1">  1        2 0.97537231E-01 0.12632602E+03</pdfrwt>
<pdfrwt beam="2">  1       -2 0.28516377E-02 0.12632602E+03</pdfrwt>
<totfact> 0.20269335E+04</totfact>
</mgrwt>
</event>
<event>
 6    1  0.6419647E-006  0.1761873E+03  0.7546771E-02  0.1194721E+00
          2   -1    0    0  501    0  0.00000000000E+00  0.00000000000E+00  0.23654837346E+04  0.23654837346E+04  0.00000000000E+00 0. -1.
         -2   -1    0    0    0  501 -0.00000000000E+00 -0.00000000000E+00 -0.17881820073E+02  0.17881820073E+02  0.00000000000E+00 0.  1.
          5    1    1    2  502    0  0.12350525841E+02 -0.12500114575E+02  0.18628922172E+04  0.18629810228E+04  0.47000000000E+01 0. -1.
         -5    1    1    2    0  502 -0.44435558202E+02  0.48776574350E+02  0.30665951446E+03  0.31371295932E+03  0.47000000000E+01 0.  1.
        -11    1    1    2    0    0  0.52184210815E+02 -0.46907534111E+02  0.81798068265E+02  0.10777027692E+03  0.00000000000E+00 0.  1.
         11    1    1    2    0    0 -0.20099178454E+02  0.10631074336E+02  0.96252114625E+02  0.98901295673E+02  0.00000000000E+00 0. -1.
<mgrwt>
<rscale>  0 0.15477852E+03</rscale>
<asrwt>0</asrwt>
<pdfrwt beam="1">  1        2 0.36392033E+00 0.17618733E+03</pdfrwt>
<pdfrwt beam="2">  1       -2 0.27510511E-02 0.17618733E+03</pdfrwt>
<totfact> 0.23050985E+03</totfact>
</mgrwt>
</event>
<event>
 7    1  0.6419647E-006  0.1332079E+03  0.7546771E-02  0.1235721E+00
         -3   -1    0    0    0  501 -0.00000000000E+00  0.00000000000E+00  0.43046032757E+02  0.43046032757E+02  0.00000000000E+00 0.  1.
          3   -1    0    0  501    0  0.00000000000E+00 -0.00000000000E+00 -0.35402487399E+03  0.35402487399E+03  0.00000000000E+00 0. -1.
         23    2    1    2    0    0  0.15997245999E+02 -0.43168334642E+02 -0.23433143120E+03  0.26954696074E+03  0.12499970962E+03 0.  0.
          5    1    3    3  502    0 -0.28602070809E+02 -0.15412709307E+02 -0.20804409484E+03  0.21061829327E+03  0.47000000000E+01 0.  1.
         -5    1    3    3    0  502  0.44599316808E+02 -0.27755625336E+02 -0.26287336358E+02  0.58928667475E+02  0.47000000000E+01 0.  1.
        -11    1    1    2    0    0  0.37704195504E+02  0.22549639315E+02 -0.27221664999E+02  0.51682798271E+02  0.00000000000E+00 0. -1.
         11    1    1    2    0    0 -0.53701441503E+02  0.20618695327E+02 -0.49425745033E+02  0.75841147727E+02  0.00000000000E+00 0.  1.
<mgrwt>
<rscale>  0 0.12458379E+03</rscale>
<asrwt>0</asrwt>
<pdfrwt beam="2">  1        3 0.54465366E-01 0.13320790E+03</pdfrwt>
<pdfrwt beam="1">  1       -3 0.66224664E-02 0.13320790E+03</pdfrwt>
<totfact> 0.11209673E+03</totfact>
</mgrwt>
</event>
<event>
 7    1  0.6419647E-006  0.1497874E+03  0.7546771E-02  0.1209557E+00
          1   -1    0    0  501    0  0.00000000000E+00  0.00000000000E+00  0.69477375679E+02  0.69477375679E+02  0.00000000000E+00 0. -1.
         -1   -1    0    0    0  501 -0.00000000000E+00 -0.00000000000E+00 -0.30954524618E+03  0.30954524618E+03  0.00000000000E+00 0.  1.
         23    2    1    2    0    0  0.25563585862E+02  0.78481538713E+02 -0.62012957655E+02  0.16211688047E+03  0.12499370854E+03 0.  0.
          5    1    3    3  502    0  0.34209965507E+02  0.20157874383E+02 -0.88648091878E+02  0.97248320465E+02  0.47000000000E+01 0. -1.
         -5    1    3    3    0  502 -0.86463796449E+01  0.58323664330E+02  0.26635134223E+02  0.64868560003E+02  0.47000000000E+01 0. -1.
        -11    1    1    2    0    0 -0.35715946134E+02 -0.20333991464E+01 -0.19866221629E+02  0.40919803056E+02  0.00000000000E+00 0.  1.
         11    1    1    2    0    0  0.10152360272E+02 -0.76448139567E+02 -0.15818869121E+03  0.17598593833E+03  0.00000000000E+00 0. -1.
<mgrwt>
<rscale>  0 0.14284032E+03</rscale>
<asrwt>0</asrwt>
<pdfrwt beam="1">  1        1 0.10688827E-01 0.14978744E+03</pdfrwt>
<pdfrwt beam="2">  1       -1 0.47622345E-01 0.14978744E+03</pdfrwt>
<totfact> 0.25630868E+03</totfact>
</mgrwt>
</event>
<event>
 7    1  0.6419647E-006  0.1363139E+03  0.7546771E-02  0.1229731E+00
          2   -1    0    0  501    0  0.00000000000E+00  0.00000000000E+00  0.30692089760E+04  0.30692089760E+04  0.00000000000E+00 0. -1.
         -2   -1    0    0    0  501 -0.00000000000E+00 -0.00000000000E+00 -0.81843919524E+01  0.81843919524E+01  0.00000000000E+00 0.  1.
         23    2    1    2    0    0  0.54237753899E+02 -0.42643830031E+01  0.26161172286E+04  0.26196661696E+04  0.12498626883E+03 0.  0.
          5    1    3    3  502    0 -0.17812989688E+02  0.76575636943E+01  0.78553634564E+02  0.81047543988E+02  0.47000000000E+01 0. -1.
         -5    1    3    3    0  502  0.72050743588E+02 -0.11921946697E+02  0.25375635941E+04  0.25386186256E+04  0.47000000000E+01 0. -1.
        -11    1    1    2    0    0  0.18820553278E+02  0.10516212420E+02  0.33509191120E+02  0.39845574897E+02  0.00000000000E+00 0.  1.
         11    1    1    2    0    0 -0.73058307177E+02 -0.62518294168E+01  0.41139816425E+03  0.41788162339E+03  0.00000000000E+00 0. -1.
<mgrwt>
<rscale>  0 0.12847822E+03</rscale>
<asrwt>0</asrwt>
<pdfrwt beam="1">  1        2 0.47218508E+00 0.13631393E+03</pdfrwt>
<pdfrwt beam="2">  1       -2 0.12591397E-02 0.13631393E+03</pdfrwt>
<totfact> 0.29356570E+03</totfact>
</mgrwt>
</event>
<event>
 7    1  0.6419647E-006  0.1285936E+03  0.7546771E-02  0.1243364E+00
          1   -1    0    0  501    0  0.00000000000E+00  0.00000000000E+00  0.50740625073E+03  0.50740625073E+03  0.00000000000E+00 0. -1.
         -1   -1    0    0    0  501 -0.00000000000E+00 -0.00000000000E+00 -0.26467800150E+02  0.26467800150E+02  0.00000000000E+00 0.  1.
         23    2    1    2    0    0 -0.27965565604E+02 -0.11430566200E+02  0.33309955618E+03  0.35705970737E+03  0.12499435827E+03 0.  0.
          5    1    3    3  502    0 -0.16894341615E+02  0.91047789007E+01 -0.31160538157E+01  0.20002889012E+02  0.47000000000E+01 0. -1.
         -5    1    3    3    0  502 -0.11071223988E+02 -0.20535345100E+02  0.33621560999E+03  0.33705681836E+03  0.47000000000E+01 0. -1.
        -11    1    1    2    0    0  0.51581616311E+02  0.11671513186E+02  0.39705259857E+02  0.66131649168E+02  0.00000000000E+00 0.  1.
         11    1    1    2    0    0 -0.23616050707E+02 -0.24094698646E+00  0.10813363454E+03  0.11068269434E+03  0.00000000000E+00 0. -1.
<mgrwt>
<rscale>  0 0.11983835E+03</rscale>
<asrwt>0</asrwt>
<pdfrwt beam="1">  1        1 0.78062493E-01 0.12859362E+03</pdfrwt>
<pdfrwt beam="2">  1       -1 0.40719696E-02 0.12859362E+03</pdfrwt>
<totfact> 0.10058284E+04</totfact>
</mgrwt>
</event>
<event>
 7    1  0.6419647E-006  0.1448300E+03  0.7546771E-02  0.1213233E+00
         -2   -1    0    0    0  501 -0.00000000000E+00  0.00000000000E+00  0.62043302964E+03  0.62043302964E+03  0.00000000000E+00 0.  1.
          2   -1    0    0  501    0  0.00000000000E+00 -0.00000000000E+00 -0.42775777485E+02  0.42775777485E+02  0.00000000000E+00 0. -1.
         23    2    1    2    0    0  0.89744574590E+02  0.11392922067E+02  0.11923742931E+03  0.18759873270E+03  0.11310098417E+03 0.  0.
          5    1    3    3  502    0  0.35612487766E+02  0.56461068487E+02  0.87609579975E+02  0.11024350340E+03  0.47000000000E+01 0. -1.
         -5    1    3    3    0  502  0.54132086824E+02 -0.45068146420E+02  0.31627849331E+02  0.77355229294E+02  0.47000000000E+01 0.  1.
        -11    1    1    2    0    0 -0.28437907546E+02 -0.46625424066E+02  0.16557157892E+03  0.17434618580E+03  0.00000000000E+00 0.  1.
         11    1    1    2    0    0 -0.61306667045E+02  0.35232501999E+02  0.29284824392E+03  0.30126388863E+03  0.00000000000E+00 0. -1.
<mgrwt>
<rscale>  0 0.14007131E+03</rscale>
<asrwt>0</asrwt>
<pdfrwt beam="2">  1        2 0.65808893E-02 0.14482997E+03</pdfrwt>
<pdfrwt beam="1">  1       -2 0.95451229E-01 0.14482997E+03</pdfrwt>
<totfact> 0.10198727E+03</totfact>
</mgrwt>
</event>
<event>
 7    1  0.6419647E-006  0.1360162E+03  0.7546771E-02  0.1232881E+00
          2   -1    0    0  501    0  0.00000000000E+00  0.00000000000E+00  0.95818464024E+02  0.95818464024E+02  0.00000000000E+00 0. -1.
         -2   -1    0    0    0  501 -0.00000000000E+00 -0.00000000000E+00 -0.14735512810E+03  0.14735512810E+03  0.00000000000E+00 0.  1.
         23    2    1    2    0    0  0.50855503858E+02  0.16999306244E+02 -0.25133664037E+02  0.13831887828E+03  0.12500060934E+03 0.  0.
          5    1    3    3  502    0 -0.38190567596E+01  0.62743255838E+02 -0.22155847478E+02  0.66815214773E+02  0.47000000000E+01 0. -1.
         -5    1    3    3    0  502  0.54674560618E+02 -0.45743949594E+02 -0.29778165591E+01  0.71503663505E+02  0.47000000000E+01 0. -1.
        -11    1    1    2    0    0 -0.40688280713E+02  0.20548706334E+02 -0.42905116563E+02  0.62598997969E+02  0.00000000000E+00 0.  1.
         11    1    1    2    0    0 -0.10167223145E+02 -0.37548012578E+02  0.16502116520E+02  0.42255715882E+02  0.00000000000E+00 0. -1.
<mgrwt>
<rscale>  0 0.12641073E+03</rscale>
<asrwt>0</asrwt>
<pdfrwt beam="1">  1        2 0.14741302E-01 0.13601622E+03</pdfrwt>
<pdfrwt beam="2">  1       -2 0.22670020E-01 0.13601622E+03</pdfrwt>
<totfact> 0.63760697E+03</totfact>
</mgrwt>
</event>
<event>
 7    1  0.6419647E-006  0.3013861E+03  0.7546771E-02  0.1086101E+00
         -1   -1    0    0    0  501 -0.00000000000E+00  0.00000000000E+00  0.19174244730E+03  0.19174244730E+03  0.00000000000E+00 0.  1.
          1   -1    0    0  501    0  0.00000000000E+00 -0.00000000000E+00 -0.56564102716E+03  0.56564102716E+03  0.00000000000E+00 0. -1.
         23    2    1    2    0    0 -0.25310364979E+03  0.10558583943E+03 -0.35772542360E+03  0.46776174271E+03  0.12499496883E+03 0.  0.
          5    1    3    3  502    0 -0.45726522919E+02  0.75220828378E+02 -0.14056416047E+03  0.16592004439E+03  0.47000000000E+01 0. -1.
         -5    1    3    3    0  502 -0.20737712687E+03  0.30365011051E+02 -0.21716126313E+03  0.30184169833E+03  0.47000000000E+01 0. -1.
        -11    1    1    2    0    0  0.17087471029E+03 -0.26657106142E+02 -0.27368355664E+02  0.17509367440E+03  0.00000000000E+00 0.  1.
         11    1    1    2    0    0  0.82228939507E+02 -0.78928733287E+02  0.11195199397E+02  0.11452805735E+03  0.00000000000E+00 0. -1.
<mgrwt>
<rscale>  0 0.29828446E+03</rscale>
<asrwt>0</asrwt>
<pdfrwt beam="2">  1        1 0.87021695E-01 0.30138608E+03</pdfrwt>
<pdfrwt beam="1">  1       -1 0.29498839E-01 0.30138608E+03</pdfrwt>
<totfact> 0.40335896E+02</totfact>
</mgrwt>
</event>
<event>
 6    1  0.6419647E-006  0.2234123E+03  0.7546771E-02  0.1146793E+00
          2   -1    0    0  501    0  0.00000000000E+00  0.00000000000E+00  0.28083735973E+03  0.28083735973E+03  0.00000000000E+00 0. -1.
         -2   -1    0    0    0  501 -0.00000000000E+00 -0.00000000000E+00 -0.12832859069E+03  0.12832859069E+03  0.00000000000E+00 0.  1.
          5    1    1    2  502    0 -0.18786816306E+02 -0.97062939981E+02 -0.42592184572E+02  0.10775130148E+03  0.47000000000E+01 0. -1.
         -5    1    1    2    0  502  0.58384308352E+02 -0.14561402292E+02  0.11023512791E+03  0.12567670955E+03  0.47000000000E+01 0.  1.
        -11    1    1    2    0    0 -0.24602451621E+02  0.12646834272E+03  0.57255190899E+02  0.14098822370E+03  0.00000000000E+00 0. -1.
         11    1    1    2    0    0 -0.14995040425E+02 -0.14844000448E+02  0.27610634802E+02  0.34749715694E+02  0.00000000000E+00 0.  1.
<mgrwt>
<rscale>  0 0.20353156E+03</rscale>
<asrwt>0</asrwt>
<pdfrwt beam="1">  1        2 0.43205747E-01 0.22341233E+03</pdfrwt>
<pdfrwt beam="2">  1       -2 0.19742860E-01 0.22341233E+03</pdfrwt>
<totfact> 0.25007128E+03</totfact>
</mgrwt>
</event>
<event>
 7    1  0.6419647E-006  0.1320201E+03  0.7546771E-02  0.1238244E+00
          1   -1    0    0  501    0  0.00000000000E+00  0.00000000000E+00  0.12939786800E+03  0.12939786800E+03  0.00000000000E+00 0. -1.
         -1   -1    0    0    0  501 -0.00000000000E+00 -0.00000000000E+00 -0.11807038939E+03  0.11807038939E+03  0.00000000000E+00 0.  1.
         23    2    1    2    0    0 -0.37310253728E+02  0.20320508718E+02  0.49441912573E+02  0.14097445961E+03  0.12499726971E+03 0.  0.
          5    1    3    3  502    0 -0.44433699448E+02 -0.11704460124E+02  0.82254960910E+02  0.94336189385E+02  0.47000000000E+01 0. -1.
         -5    1    3    3    0  502  0.71234457200E+01  0.32024968842E+02 -0.32813048338E+02  0.46638270224E+02  0.47000000000E+01 0. -1.
        -11    1    1    2    0    0  0.33671230255E+02  0.18608209152E+02  0.14352335200E+02  0.41061012170E+02  0.00000000000E+00 0. -1.
         11    1    1    2    0    0  0.36390234729E+01 -0.38928717870E+02 -0.52466769164E+02  0.65432785615E+02  0.00000000000E+00 0.  1.
<mgrwt>
<rscale>  0 0.12298997E+03</rscale>
<asrwt>0</asrwt>
<pdfrwt beam="1">  1        1 0.19907364E-01 0.13202006E+03</pdfrwt>
<pdfrwt beam="2">  1       -1 0.18164675E-01 0.13202006E+03</pdfrwt>
<totfact> 0.57605923E+03</totfact>
</mgrwt>
</event>
<event>
 7    1  0.6419647E-006  0.1268419E+03  0.7546771E-02  0.1247534E+00
          2   -1    0    0  501    0  0.00000000000E+00  0.00000000000E+00  0.49120925685E+03  0.49120925685E+03  0.00000000000E+00 0. -1.
         -2   -1    0    0    0  501 -0.00000000000E+00 -0.00000000000E+00 -0.28565735879E+02  0.28565735879E+02  0.00000000000E+00 0.  1.
         23    2    1    2    0    0 -0.21125585525E+02 -0.42497447811E+01  0.35809851703E+03  0.37989923271E+03  0.12499811366E+03 0.  0.
          5    1    3    3  502    0  0.35524731146E+02  0.40632129457E+02  0.16485070593E+03  0.17352470059E+03  0.47000000000E+01 0. -1.
         -5    1    3    3    0  502 -0.56650316672E+02 -0.44881874238E+02  0.19324781110E+03  0.20637453212E+03  0.47000000000E+01 0. -1.
        -11    1    1    2    0    0 -0.33829692897E+02  0.57151625029E+01  0.60010788773E+02  0.69126015169E+02  0.00000000000E+00 0.  1.
         11    1    1    2    0    0  0.54955278423E+02 -0.14654177219E+01  0.44534215161E+02  0.70749744845E+02  0.00000000000E+00 0. -1.
<mgrwt>
<rscale>  0 0.11735012E+03</rscale>
<asrwt>0</asrwt>
<pdfrwt beam="1">  1        2 0.75570649E-01 0.12684195E+03</pdfrwt>
<pdfrwt beam="2">  1       -2 0.43947289E-02 0.12684195E+03</pdfrwt>
<totfact> 0.14242705E+04</totfact>
</mgrwt>
</event>
<event>
 7    1  0.6419647E-006  0.1629986E+03  0.7546771E-02  0.1193055E+00
          2   -1    0    0  501    0  0.00000000000E+00  0.00000000000E+00  0.13678462710E+04  0.13678462710E+04  0.00000000000E+00 0.  1.
         -2   -1    0    0    0  501 -0.00000000000E+00 -0.00000000000E+00 -0.16930364332E+02  0.16930364332E+02  0.00000000000E+00 0. -1.
         23    2    1    2    0    0  0.59063123956E+02 -0.86342098189E+02  0.84149521341E+03  0.85713635204E+03  0.12500048506E+03 0.  0.
          5    1    3    3  502    0  0.77138600625E+02 -0.17805505049E+02  0.60580296779E+03  0.61097195148E+03  0.47000000000E+01 0.  1.
         -5    1    3    3    0  502 -0.18075476670E+02 -0.68536593140E+02  0.23569224562E+03  0.24616440055E+03  0.47000000000E+01 0.  1.
        -11    1    1    2    0    0 -0.64692177834E+02  0.22690854984E+02  0.19253976795E+03  0.20438080883E+03  0.00000000000E+00 0. -1.
         11    1    1    2    0    0  0.56290538784E+01  0.63651243204E+02  0.31688092526E+03  0.32325947442E+03  0.00000000000E+00 0.  1.
<mgrwt>
<rscale>  0 0.15619988E+03</rscale>
<asrwt>0</asrwt>
<pdfrwt beam="1">  1        2 0.21043780E+00 0.16299856E+03</pdfrwt>
<pdfrwt beam="2">  1       -2 0.26046725E-02 0.16299856E+03</pdfrwt>
<totfact> 0.82679539E+03</totfact>
</mgrwt>
</event>
<event>
 7    1  0.6419647E-006  0.1651420E+03  0.7546771E-02  0.1190942E+00
          1   -1    0    0  501    0  0.00000000000E+00  0.00000000000E+00  0.12613840658E+04  0.12613840658E+04  0.00000000000E+00 0. -1.
         -1   -1    0    0    0  501 -0.00000000000E+00 -0.00000000000E+00 -0.25996147226E+02  0.25996147226E+02  0.00000000000E+00 0.  1.
         23    2    1    2    0    0  0.10791457132E+03  0.64289396757E+00  0.10057964099E+04  0.10192636126E+04  0.12500370273E+03 0.  0.
          5    1    3    3  502    0 -0.10494801682E+02 -0.32699053793E+02  0.37279118101E+03  0.37439915013E+03  0.47000000000E+01 0. -1.
         -5    1    3    3    0  502  0.11840937300E+03  0.33341947760E+02  0.63300522891E+03  0.64486446244E+03  0.47000000000E+01 0. -1.
        -11    1    1    2    0    0 -0.35101456651E+02  0.37118676041E+02  0.54134233217E+02  0.74434021630E+02  0.00000000000E+00 0. -1.
         11    1    1    2    0    0 -0.72813114665E+02 -0.37761570009E+02  0.17545727548E+03  0.19368257887E+03  0.00000000000E+00 0.  1.
<mgrwt>
<rscale>  0 0.15802763E+03</rscale>
<asrwt>0</asrwt>
<pdfrwt beam="1">  1        1 0.19405904E+00 0.16514204E+03</pdfrwt>
<pdfrwt beam="2">  1       -1 0.39994082E-02 0.16514204E+03</pdfrwt>
<totfact> 0.25390270E+03</totfact>
</mgrwt>
</event>
<event>
 6    1  0.6419647E-006  0.1498981E+03  0.7546771E-02  0.1215982E+00
          1   -1    0    0  501    0  0.00000000000E+00  0.00000000000E+00  0.95988598409E+03  0.95988598409E+03  0.00000000000E+00 0. -1.
         -1   -1    0    0    0  501 -0.00000000000E+00 -0.00000000000E+00 -0.17347109090E+02  0.17347109090E+02  0.00000000000E+00 0.  1.
          5    1    1    2  502    0  0.46564498469E+02 -0.86703818528E+02  0.44450196379E+03  0.45529099538E+03  0.47000000000E+01 0. -1.
         -5    1    1    2    0  502 -0.14623681251E+02  0.38422305458E+02  0.78109837003E+02  0.88393225117E+02  0.47000000000E+01 0.  1.
        -11    1    1    2    0    0  0.29817546253E+02  0.32008783348E+02  0.18420268506E+03  0.18932584995E+03  0.00000000000E+00 0.  1.
         11    1    1    2    0    0 -0.61758363471E+02  0.16272729721E+02  0.23572438915E+03  0.24422302273E+03  0.00000000000E+00 0. -1.
<mgrwt>
<rscale>  0 0.13804647E+03</rscale>
<asrwt>0</asrwt>
<pdfrwt beam="1">  1        1 0.14767473E+00 0.14989809E+03</pdfrwt>
<pdfrwt beam="2">  1       -1 0.26687868E-02 0.14989809E+03</pdfrwt>
<totfact> 0.74884222E+03</totfact>
</mgrwt>
</event>
<event>
 7    1  0.6419647E-006  0.1457316E+03  0.7546771E-02  0.1215571E+00
          2   -1    0    0  501    0  0.00000000000E+00  0.00000000000E+00  0.13963736390E+04  0.13963736390E+04  0.00000000000E+00 0. -1.
         -2   -1    0    0    0  501 -0.00000000000E+00 -0.00000000000E+00 -0.24307265643E+02  0.24307265643E+02  0.00000000000E+00 0.  1.
         23    2    1    2    0    0  0.31518434284E+02  0.67962592820E+02  0.12165381371E+04  0.12252357838E+04  0.12500144506E+03 0.  0.
          5    1    3    3  502    0 -0.25759618735E+02 -0.56847340916E+00  0.62889169498E+02  0.68125023006E+02  0.47000000000E+01 0.  1.
         -5    1    3    3    0  502  0.57278053018E+02  0.68531066229E+02  0.11536489676E+04  0.11571107608E+04  0.47000000000E+01 0.  1.
        -11    1    1    2    0    0 -0.15180509823E+02  0.14832981852E+02  0.34253469363E+01  0.21498796030E+02  0.00000000000E+00 0.  1.
         11    1    1    2    0    0 -0.16337924461E+02 -0.82795574672E+02  0.15210288931E+03  0.17394632476E+03  0.00000000000E+00 0. -1.
<mgrwt>
<rscale>  0 0.13834678E+03</rscale>
<asrwt>0</asrwt>
<pdfrwt beam="1">  1        2 0.21482665E+00 0.14573156E+03</pdfrwt>
<pdfrwt beam="2">  1       -2 0.37395804E-02 0.14573156E+03</pdfrwt>
<totfact> 0.46638976E+03</totfact>
</mgrwt>
</event>
<event>
 7    1  0.6419647E-006  0.1642949E+03  0.7546771E-02  0.1190919E+00
         -3   -1    0    0    0  501 -0.00000000000E+00  0.00000000000E+00  0.75148220034E+02  0.75148220034E+02  0.00000000000E+00 0.  1.
          3   -1    0    0  501    0  0.00000000000E+00 -0.00000000000E+00 -0.30975936917E+03  0.30975936917E+03  0.00000000000E+00 0. -1.
         23    2    1    2    0    0 -0.67472104660E+02 -0.82578346424E+02 -0.12028572596E+03  0.20362089711E+03  0.12498458170E+03 0.  0.
          5    1    3    3  502    0 -0.64416746899E+02 -0.84807546751E+02 -0.14399253806E+03  0.17915852836E+03  0.47000000000E+01 0. -1.
         -5    1    3    3    0  502 -0.30553577601E+01  0.22292003271E+01  0.23706812095E+02  0.24462368749E+02  0.47000000000E+01 0. -1.
        -11    1    1    2    0    0  0.51576942989E+02  0.61923627530E+00 -0.69433813526E+02  0.86496352307E+02  0.00000000000E+00 0. -1.
         11    1    1    2    0    0  0.15895161671E+02  0.81959110148E+02 -0.44891609649E+02  0.94790339791E+02  0.00000000000E+00 0.  1.
<mgrwt>
<rscale>  0 0.15804702E+03</rscale>
<asrwt>0</asrwt>
<pdfrwt beam="2">  1        3 0.47655288E-01 0.16429490E+03</pdfrwt>
<pdfrwt beam="1">  1       -3 0.11561265E-01 0.16429490E+03</pdfrwt>
<totfact> 0.60593068E+02</totfact>
</mgrwt>
</event>
<event>
 7    1  0.6419647E-006  0.1443869E+03  0.7546771E-02  0.1217652E+00
         -2   -1    0    0    0  501 -0.00000000000E+00  0.00000000000E+00  0.27768517519E+02  0.27768517519E+02  0.00000000000E+00 0.  1.
          2   -1    0    0  501    0  0.00000000000E+00 -0.00000000000E+00 -0.63508674741E+03  0.63508674741E+03  0.00000000000E+00 0. -1.
         23    2    1    2    0    0  0.50662429856E+02  0.51537696020E+02 -0.39700865065E+03  0.42244935438E+03  0.12499908967E+03 0.  0.
          5    1    3    3  502    0  0.60487586984E+02  0.28115965947E+02 -0.79460478921E+02  0.10385236363E+03  0.47000000000E+01 0.  1.
         -5    1    3    3    0  502 -0.98251571285E+01  0.23421730073E+02 -0.31754817173E+03  0.31859699076E+03  0.47000000000E+01 0.  1.
        -11    1    1    2    0    0  0.44802438730E+01 -0.60318212571E+02 -0.10332007113E+03  0.11972216357E+03  0.00000000000E+00 0.  1.
         11    1    1    2    0    0 -0.55142673729E+02  0.87805165507E+01 -0.10698950812E+03  0.12068374698E+03  0.00000000000E+00 0. -1.
<mgrwt>
<rscale>  0 0.13683523E+03</rscale>
<asrwt>0</asrwt>
<pdfrwt beam="2">  1        2 0.97705658E-01 0.14438694E+03</pdfrwt>
<pdfrwt beam="1">  1       -2 0.42720794E-02 0.14438694E+03</pdfrwt>
<totfact> 0.11243905E+04</totfact>
</mgrwt>
</event>
<event>
 7    1  0.6419647E-006  0.1295662E+03  0.7546771E-02  0.1242010E+00
          1   -1    0    0  501    0  0.00000000000E+00  0.00000000000E+00  0.22200363831E+03  0.22200363831E+03  0.00000000000E+00 0. -1.
         -1   -1    0    0    0  501 -0.00000000000E+00 -0.00000000000E+00 -0.59271818764E+02  0.59271818764E+02  0.00000000000E+00 0.  1.
         23    2    1    2    0    0  0.31879804128E+02 -0.12085333610E+02  0.11273340937E+03  0.17174462837E+03  0.12500007435E+03 0.  0.
          5    1    3    3  502    0  0.56839832783E+02  0.24191761410E+02  0.11136697642E+03  0.12743901030E+03  0.47000000000E+01 0.  1.
         -5    1    3    3    0  502 -0.24960028655E+02 -0.36277095020E+02  0.13664329552E+01  0.44305618070E+02  0.47000000000E+01 0.  1.
        -11    1    1    2    0    0 -0.19686218565E+02 -0.27273229255E+02 -0.11463079938E+02  0.35535593946E+02  0.00000000000E+00 0.  1.
         11    1    1    2    0    0 -0.12193585562E+02  0.39358562865E+02  0.61461490113E+02  0.73995234756E+02  0.00000000000E+00 0. -1.
<mgrwt>
<rscale>  0 0.12066129E+03</rscale>
<asrwt>0</asrwt>
<pdfrwt beam="1">  1        1 0.34154405E-01 0.12956618E+03</pdfrwt>
<pdfrwt beam="2">  1       -1 0.91187415E-02 0.12956618E+03</pdfrwt>
<totfact> 0.85191990E+03</totfact>
</mgrwt>
</event>
<event>
 7    1  0.6419647E-006  0.1859419E+03  0.7546771E-02  0.1167495E+00
          2   -1    0    0  501    0  0.00000000000E+00  0.00000000000E+00  0.13732173427E+03  0.13732173427E+03  0.00000000000E+00 0. -1.
         -2   -1    0    0    0  501 -0.00000000000E+00 -0.00000000000E+00 -0.22632780052E+03  0.22632780052E+03  0.00000000000E+00 0.  1.
         23    2    1    2    0    0 -0.95298461286E+02  0.99337615262E+02 -0.67432584822E+02  0.19779165664E+03  0.12499850964E+03 0.  0.
          5    1    3    3  502    0 -0.10689334772E+02  0.24811629996E+02 -0.79692572453E+02  0.84278555785E+02  0.47000000000E+01 0. -1.
         -5    1    3    3    0  502 -0.84609126514E+02  0.74525985266E+02  0.12259987632E+02  0.11351310086E+03  0.47000000000E+01 0. -1.
        -11    1    1    2    0    0  0.90120921217E+02 -0.30292569546E+02 -0.91736457382E+01  0.95517411956E+02  0.00000000000E+00 0. -1.
         11    1    1    2    0    0  0.51775400693E+01 -0.69045045716E+02 -0.12399835686E+02  0.70340466192E+02  0.00000000000E+00 0.  1.
<mgrwt>
<rscale>  0 0.18031864E+03</rscale>
<asrwt>0</asrwt>
<pdfrwt beam="1">  1        2 0.21126421E-01 0.18594189E+03</pdfrwt>
<pdfrwt beam="2">  1       -2 0.34819662E-01 0.18594189E+03</pdfrwt>
<totfact> 0.19898721E+03</totfact>
</mgrwt>
</event>
<event>
 7    1  0.6419647E-006  0.1310695E+03  0.7546771E-02  0.1239635E+00
          2   -1    0    0  501    0  0.00000000000E+00  0.00000000000E+00  0.28198159838E+03  0.28198159838E+03  0.00000000000E+00 0. -1.
         -2   -1    0    0    0  501 -0.00000000000E+00 -0.00000000000E+00 -0.47529141369E+02  0.47529141369E+02  0.00000000000E+00 0.  1.
         23    2    1    2    0    0 -0.29381724409E+02  0.26367520281E+02  0.15308642201E+03  0.20153081716E+03  0.12498274203E+03 0.  0.
          5    1    3    3  502    0  0.70806785106E+01  0.65051780791E+02  0.40931706567E+02  0.77326352525E+02  0.47000000000E+01 0. -1.
         -5    1    3    3    0  502 -0.36462402919E+02 -0.38684260511E+02  0.11215471544E+03  0.12420446463E+03  0.47000000000E+01 0. -1.
        -11    1    1    2    0    0  0.40218344283E+02  0.23440042954E+02  0.28701692074E+02  0.54687639906E+02  0.00000000000E+00 0.  1.
         11    1    1    2    0    0 -0.10836619875E+02 -0.49807563235E+02  0.52664342926E+02  0.73292282687E+02  0.00000000000E+00 0. -1.
<mgrwt>
<rscale>  0 0.12212336E+03</rscale>
<asrwt>0</asrwt>
<pdfrwt beam="1">  1        2 0.43381784E-01 0.13106951E+03</pdfrwt>
<pdfrwt beam="2">  1       -2 0.73121757E-02 0.13106951E+03</pdfrwt>
<totfact> 0.11967498E+04</totfact>
</mgrwt>
</event>
<event>
 7    1  0.6419647E-006  0.1726850E+03  0.7546771E-02  0.1181555E+00
         -2   -1    0    0    0  501 -0.00000000000E+00  0.00000000000E+00  0.85072577862E+02  0.85072577862E+02  0.00000000000E+00 0.  1.
          2   -1    0    0  501    0  0.00000000000E+00 -0.00000000000E+00 -0.30729906234E+03  0.30729906234E+03  0.00000000000E+00 0. -1.
         23    2    1    2    0    0  0.10433696599E+03 -0.57524134291E+02 -0.10050340684E+03  0.19980253895E+03  0.12499956514E+03 0.  0.
          5    1    3    3  502    0  0.11609736787E+03 -0.68076147372E+02 -0.45129777439E+02  0.14202727724E+03  0.47000000000E+01 0. -1.
         -5    1    3    3    0  502 -0.11760401880E+02  0.10552013080E+02 -0.55373629404E+02  0.57775261711E+02  0.47000000000E+01 0. -1.
        -11    1    1    2    0    0 -0.78975110266E+02  0.60274499929E+02 -0.13187792841E+03  0.16511169367E+03  0.00000000000E+00 0. -1.
         11    1    1    2    0    0 -0.25361855726E+02 -0.27503656382E+01  0.10154850778E+02  0.27457407586E+02  0.00000000000E+00 0.  1.
<mgrwt>
<rscale>  0 0.16649345E+03</rscale>
<asrwt>0</asrwt>
<pdfrwt beam="2">  1        2 0.47276778E-01 0.17268503E+03</pdfrwt>
<pdfrwt beam="1">  1       -2 0.13088089E-01 0.17268503E+03</pdfrwt>
<totfact> 0.44481503E+03</totfact>
</mgrwt>
</event>
<event>
 6    1  0.6419647E-006  0.1581790E+03  0.7546771E-02  0.1199779E+00
         -2   -1    0    0    0  501 -0.00000000000E+00  0.00000000000E+00  0.27343416654E+02  0.27343416654E+02  0.00000000000E+00 0.  1.
          2   -1    0    0  501    0  0.00000000000E+00 -0.00000000000E+00 -0.76400210448E+03  0.76400210448E+03  0.00000000000E+00 0. -1.
          5    1    1    2  502    0  0.58972423564E+02 -0.65160358743E+01 -0.38869275727E+03  0.39322303470E+03  0.47000000000E+01 0. -1.
         -5    1    1    2    0  502  0.21866629578E+02  0.48001029185E+02 -0.48896084445E+02  0.72077495559E+02  0.47000000000E+01 0.  1.
        -11    1    1    2    0    0  0.11121889451E+01  0.24173898861E+02 -0.44223728128E+02  0.50411828770E+02  0.00000000000E+00 0.  1.
         11    1    1    2    0    0 -0.81951242087E+02 -0.65658892172E+02 -0.25484611798E+03  0.27563316210E+03  0.00000000000E+00 0. -1.
<mgrwt>
<rscale>  0 0.15056604E+03</rscale>
<asrwt>0</asrwt>
<pdfrwt beam="2">  1        2 0.11753876E+00 0.15817898E+03</pdfrwt>
<pdfrwt beam="1">  1       -2 0.42066802E-02 0.15817898E+03</pdfrwt>
<totfact> 0.92838312E+03</totfact>
</mgrwt>
</event>
<event>
 7    1  0.6419647E-006  0.1167261E+03  0.7546771E-02  0.1256255E+00
         -2   -1    0    0    0  501 -0.00000000000E+00  0.00000000000E+00  0.10879203418E+03  0.10879203418E+03  0.00000000000E+00 0.  1.
          2   -1    0    0  501    0  0.00000000000E+00 -0.00000000000E+00 -0.41293283132E+03  0.41293283132E+03  0.00000000000E+00 0. -1.
         23    2    1    2    0    0  0.23180845022E+02 -0.84285607081E+01 -0.37903690907E+03  0.39660303900E+03  0.11409031464E+03 0.  0.
          5    1    3    3  502    0 -0.45310964301E+02  0.74929505734E+01 -0.15748128914E+03  0.16410872683E+03  0.47000000000E+01 0. -1.
         -5    1    3    3    0  502  0.68491809322E+02 -0.15921511282E+02 -0.22155561993E+03  0.23249431216E+03  0.47000000000E+01 0.  1.
        -11    1    1    2    0    0 -0.51763520907E+02  0.21827625718E+02  0.74809696504E+02  0.93554251813E+02  0.00000000000E+00 0.  1.
         11    1    1    2    0    0  0.28582675885E+02 -0.13399065010E+02  0.86415427410E-01  0.31567574686E+02  0.00000000000E+00 0. -1.
<mgrwt>
<rscale>  0 0.11236356E+03</rscale>
<asrwt>0</asrwt>
<pdfrwt beam="2">  1        2 0.63528128E-01 0.11672614E+03</pdfrwt>
<pdfrwt beam="1">  1       -2 0.16737236E-01 0.11672614E+03</pdfrwt>
<totfact> 0.21364850E+03</totfact>
</mgrwt>
</event>
<event>
 7    1  0.6419647E-006  0.1543628E+03  0.7546771E-02  0.1203577E+00
          2   -1    0    0  501    0  0.00000000000E+00  0.00000000000E+00  0.79921395845E+03  0.79921395845E+03  0.00000000000E+00 0. -1.
         -2   -1    0    0    0  501 -0.00000000000E+00 -0.00000000000E+00 -0.29179818939E+02  0.29179818939E+02  0.00000000000E+00 0.  1.
         23    2    1    2    0    0  0.55389565203E+02  0.71660158869E+02  0.57003980129E+03  0.59057026620E+03  0.12499872784E+03 0.  0.
          5    1    3    3  502    0  0.48806406382E+01  0.58739309295E+02  0.49812035559E+03  0.50161748949E+03  0.47000000000E+01 0.  1.
         -5    1    3    3    0  502  0.50508924565E+02  0.12920849574E+02  0.71919445697E+02  0.88952776707E+02  0.47000000000E+01 0.  1.
        -11    1    1    2    0    0 -0.38886172519E+02  0.22178235168E+01  0.22788200170E+02  0.45125992746E+02  0.00000000000E+00 0.  1.
         11    1    1    2    0    0 -0.16503392684E+02 -0.73877982386E+02  0.17720613805E+03  0.19269751844E+03  0.00000000000E+00 0. -1.
<mgrwt>
<rscale>  0 0.14750168E+03</rscale>
<asrwt>0</asrwt>
<pdfrwt beam="1">  1        2 0.12295598E+00 0.15436277E+03</pdfrwt>
<pdfrwt beam="2">  1       -2 0.44892035E-02 0.15436277E+03</pdfrwt>
<totfact> 0.79547050E+03</totfact>
</mgrwt>
</event>
<event>
 7    1  0.6419647E-006  0.1280565E+03  0.7546771E-02  0.1243984E+00
         -3   -1    0    0    0  501 -0.00000000000E+00  0.00000000000E+00  0.19082603462E+02  0.19082603462E+02  0.00000000000E+00 0.  1.
          3   -1    0    0  501    0  0.00000000000E+00 -0.00000000000E+00 -0.72002027894E+03  0.72002027894E+03  0.00000000000E+00 0. -1.
         23    2    1    2    0    0 -0.24495269316E+02  0.13019577724E+02 -0.49764418033E+03  0.51385621448E+03  0.12501580427E+03 0.  0.
          5    1    3    3  502    0 -0.71298291097E+02  0.58316039614E+01 -0.38428291429E+03  0.39091290863E+03  0.47000000000E+01 0.  1.
         -5    1    3    3    0  502  0.46803021781E+02  0.71879737629E+01 -0.11336126604E+03  0.12294330585E+03  0.47000000000E+01 0.  1.
        -11    1    1    2    0    0  0.88824471557E+01  0.39286403217E+02 -0.63768155995E+02  0.75423451686E+02  0.00000000000E+00 0.  1.
         11    1    1    2    0    0  0.15612822160E+02 -0.52305980942E+02 -0.13952533915E+03  0.14982321623E+03  0.00000000000E+00 0. -1.
<mgrwt>
<rscale>  0 0.11946411E+03</rscale>
<asrwt>0</asrwt>
<pdfrwt beam="2">  1        3 0.11077233E+00 0.12805655E+03</pdfrwt>
<pdfrwt beam="1">  1       -3 0.29357858E-02 0.12805655E+03</pdfrwt>
<totfact> 0.86407978E+02</totfact>
</mgrwt>
</event>
<event>
 7    1  0.6419647E-006  0.1458055E+03  0.7546771E-02  0.1215391E+00
          1   -1    0    0  501    0  0.00000000000E+00  0.00000000000E+00  0.35319046207E+03  0.35319046207E+03  0.00000000000E+00 0. -1.
         -1   -1    0    0    0  501 -0.00000000000E+00 -0.00000000000E+00 -0.51243254792E+02  0.51243254792E+02  0.00000000000E+00 0.  1.
         23    2    1    2    0    0 -0.54534315147E+02 -0.51585244506E+02  0.20309164207E+03  0.25001091852E+03  0.12499686125E+03 0.  0.
          5    1    3    3  502    0  0.39388494028E+02 -0.30519437145E+01  0.49855705067E+02  0.63784395819E+02  0.47000000000E+01 0. -1.
         -5    1    3    3    0  502 -0.93922809175E+02 -0.48533300791E+02  0.15323593700E+03  0.18622652270E+03  0.47000000000E+01 0. -1.
        -11    1    1    2    0    0 -0.20956613832E+02 -0.73704962840E+01  0.12683781414E+02  0.25580895015E+02  0.00000000000E+00 0.  1.
         11    1    1    2    0    0  0.75490928979E+02  0.58955740790E+02  0.86171783795E+02  0.12884190333E+03  0.00000000000E+00 0. -1.
<mgrwt>
<rscale>  0 0.13847856E+03</rscale>
<asrwt>0</asrwt>
<pdfrwt beam="1">  1        1 0.54336993E-01 0.14580550E+03</pdfrwt>
<pdfrwt beam="2">  1       -1 0.78835779E-02 0.14580550E+03</pdfrwt>
<totfact> 0.60198316E+03</totfact>
</mgrwt>
</event>
<event>
 7    1  0.6419647E-006  0.1271588E+03  0.7546771E-02  0.1241019E+00
          1   -1    0    0  501    0  0.00000000000E+00  0.00000000000E+00  0.92135734606E+03  0.92135734606E+03  0.00000000000E+00 0. -1.
         -1   -1    0    0    0  501 -0.00000000000E+00 -0.00000000000E+00 -0.14648894883E+02  0.14648894883E+02  0.00000000000E+00 0.  1.
         23    2    1    2    0    0 -0.22221453464E+02 -0.71154137874E+01  0.50017451065E+03  0.51608517752E+03  0.12499978898E+03 0.  0.
          5    1    3    3  502    0  0.11400272227E+02 -0.57340222860E+02  0.33589658958E+03  0.34097870352E+03  0.47000000000E+01 0. -1.
         -5    1    3    3    0  502 -0.33621725692E+02  0.50224809072E+02  0.16427792107E+03  0.17510647400E+03  0.47000000000E+01 0. -1.
        -11    1    1    2    0    0  0.23201211406E+02  0.53606914962E+02  0.24118202605E+03  0.24815472438E+03  0.00000000000E+00 0. -1.
         11    1    1    2    0    0 -0.97975794141E+00 -0.46491501175E+02  0.16535191448E+03  0.17176633905E+03  0.00000000000E+00 0.  1.
<mgrwt>
<rscale>  0 0.12126856E+03</rscale>
<asrwt>0</asrwt>
<pdfrwt beam="1">  1        1 0.14174724E+00 0.12715884E+03</pdfrwt>
<pdfrwt beam="2">  1       -1 0.22536769E-02 0.12715884E+03</pdfrwt>
<totfact> 0.10136563E+04</totfact>
</mgrwt>
</event>
<event>
 7    1  0.6419647E-006  0.2233158E+03  0.7546771E-02  0.1134606E+00
         -1   -1    0    0    0  501 -0.00000000000E+00  0.00000000000E+00  0.35669553944E+03  0.35669553944E+03  0.00000000000E+00 0.  1.
          1   -1    0    0  501    0  0.00000000000E+00 -0.00000000000E+00 -0.23408707119E+03  0.23408707119E+03  0.00000000000E+00 0. -1.
         23    2    1    2    0    0 -0.10058235194E+03  0.15532938518E+03 -0.13466733361E+03  0.26077815422E+03  0.12500371017E+03 0.  0.
          5    1    3    3  502    0 -0.71321853067E+02  0.14434464592E+02 -0.75947047057E+02  0.10528629754E+03  0.47000000000E+01 0. -1.
         -5    1    3    3    0  502 -0.29260498874E+02  0.14089492059E+03 -0.58720286556E+02  0.15549185668E+03  0.47000000000E+01 0. -1.
        -11    1    1    2    0    0  0.59602993457E+02 -0.82002635473E+02  0.21102596233E+03  0.23411301936E+03  0.00000000000E+00 0.  1.
         11    1    1    2    0    0  0.40979358484E+02 -0.73326749707E+02  0.46249839530E+02  0.95891437057E+02  0.00000000000E+00 0. -1.
<mgrwt>
<rscale>  0 0.21903246E+03</rscale>
<asrwt>0</asrwt>
<pdfrwt beam="2">  1        1 0.36013396E-01 0.22331582E+03</pdfrwt>
<pdfrwt beam="1">  1       -1 0.54876237E-01 0.22331582E+03</pdfrwt>
<totfact> 0.41688333E+02</totfact>
</mgrwt>
</event>
<event>
 7    1  0.6419647E-006  0.2944244E+03  0.7546771E-02  0.1089746E+00
         -2   -1    0    0    0  501 -0.00000000000E+00  0.00000000000E+00  0.78021598629E+02  0.78021598629E+02  0.00000000000E+00 0.  1.
          2   -1    0    0  501    0  0.00000000000E+00 -0.00000000000E+00 -0.13471685203E+04  0.13471685203E+04  0.00000000000E+00 0. -1.
         23    2    1    2    0    0  0.24840769997E+03  0.96719597892E+02 -0.97291144398E+03  0.10164853201E+04  0.12499864816E+03 0.  0.
          5    1    3    3  502    0  0.11031612297E+03  0.10556001567E+03 -0.43503178880E+03  0.46107191539E+03  0.47000000000E+01 0.  1.
         -5    1    3    3    0  502  0.13809157700E+03 -0.88404177820E+01 -0.53787965518E+03  0.55541340467E+03  0.47000000000E+01 0.  1.
        -11    1    1    2    0    0 -0.94852343038E+02 -0.58856395936E+02 -0.66956824680E+02  0.13017011444E+03  0.00000000000E+00 0.  1.
         11    1    1    2    0    0 -0.15355535693E+03 -0.37863201956E+02 -0.22927865300E+03  0.27853468442E+03  0.00000000000E+00 0. -1.
<mgrwt>
<rscale>  0 0.29115795E+03</rscale>
<asrwt>0</asrwt>
<pdfrwt beam="2">  1        2 0.20725670E+00 0.29442440E+03</pdfrwt>
<pdfrwt beam="1">  1       -2 0.12003323E-01 0.29442440E+03</pdfrwt>
<totfact> 0.81697563E+02</totfact>
</mgrwt>
</event>
<event>
 7    1  0.1551560E-005  0.2766491E+03  0.7546771E-02  0.1099472E+00
          1   -1    0    0  501    0  0.00000000000E+00  0.00000000000E+00  0.22297553388E+03  0.22297553388E+03  0.00000000000E+00 0. -1.
         -1   -1    0    0    0  501 -0.00000000000E+00 -0.00000000000E+00 -0.34304935287E+03  0.34304935287E+03  0.00000000000E+00 0.  1.
         23    2    1    2    0    0  0.22217373852E+03  0.10746093851E+03  0.54623280432E+00  0.27664965565E+03  0.12500284081E+03 0.  0.
          5    1    3    3  502    0  0.17595006059E+03  0.13042261157E+03  0.22793677454E+02  0.22025013771E+03  0.47000000000E+01 0. -1.
         -5    1    3    3    0  502  0.46223677929E+02 -0.22961673056E+02 -0.22247444650E+02  0.56399517943E+02  0.47000000000E+01 0. -1.
        -11    1    1    2    0    0 -0.87773714715E+02 -0.83914617418E+02 -0.28468766936E+02  0.12472513260E+03  0.00000000000E+00 0. -1.
         11    1    1    2    0    0 -0.13440002380E+03 -0.23546321091E+02 -0.92151284863E+02  0.16465009850E+03  0.00000000000E+00 0.  1.
<mgrwt>
<rscale>  0 0.27318161E+03</rscale>
<asrwt>0</asrwt>
<pdfrwt beam="1">  1        1 0.34303928E-01 0.27664912E+03</pdfrwt>
<pdfrwt beam="2">  1       -1 0.52776824E-01 0.27664912E+03</pdfrwt>
<totfact> 0.47611734E+02</totfact>
</mgrwt>
</event>
<event>
 7    1  0.6597827E-006  0.1320414E+03  0.7546771E-02  0.1237765E+00
          1   -1    0    0  501    0  0.00000000000E+00  0.00000000000E+00  0.99686021776E+03  0.99686021776E+03  0.00000000000E+00 0. -1.
         -1   -1    0    0    0  501 -0.00000000000E+00 -0.00000000000E+00 -0.13911671164E+02  0.13911671164E+02  0.00000000000E+00 0.  1.
         23    2    1    2    0    0  0.91552788446E+01  0.41549741497E+02  0.63788930491E+03  0.65141207805E+03  0.12499891981E+03 0.  0.
          5    1    3    3  502    0 -0.42644208947E+02  0.60911189275E+02  0.42056180201E+03  0.42711008048E+03  0.47000000000E+01 0.  1.
         -5    1    3    3    0  502  0.51799487791E+02 -0.19361447779E+02  0.21732750290E+03  0.22430199757E+03  0.47000000000E+01 0.  1.
        -11    1    1    2    0    0 -0.40643461390E+01  0.28233665190E+02  0.71144586244E+02  0.76649924406E+02  0.00000000000E+00 0.  1.
         11    1    1    2    0    0 -0.50909327057E+01 -0.69783406687E+02  0.27391465544E+03  0.28270988647E+03  0.00000000000E+00 0. -1.
<mgrwt>
<rscale>  0 0.12329079E+03</rscale>
<asrwt>0</asrwt>
<pdfrwt beam="1">  1        1 0.15336305E+00 0.13204140E+03</pdfrwt>
<pdfrwt beam="2">  1       -1 0.21402579E-02 0.13204140E+03</pdfrwt>
<totfact> 0.96170119E+03</totfact>
</mgrwt>
</event>
<event>
 7    1  0.6419647E-006  0.1781121E+03  0.7546771E-02  0.1175350E+00
         -1   -1    0    0    0  501 -0.00000000000E+00  0.00000000000E+00  0.13545604265E+03  0.13545604265E+03  0.00000000000E+00 0.  1.
          1   -1    0    0  501    0  0.00000000000E+00 -0.00000000000E+00 -0.22037595590E+03  0.22037595590E+03  0.00000000000E+00 0. -1.
         23    2    1    2    0    0 -0.11999394398E+03  0.41297625978E+02 -0.89559844315E+02  0.19936115338E+03  0.12497945135E+03 0.  0.
          5    1    3    3  502    0 -0.28136799021E+02 -0.42344234321E+02 -0.10785067199E+02  0.52183534893E+02  0.47000000000E+01 0.  1.
         -5    1    3    3    0  502 -0.91857144961E+02  0.83641860299E+02 -0.78774777116E+02  0.14717761849E+03  0.47000000000E+01 0.  1.
        -11    1    1    2    0    0  0.10011063466E+02 -0.29645175971E+02  0.29620527969E+02  0.43086349663E+02  0.00000000000E+00 0.  1.
         11    1    1    2    0    0  0.10998288052E+03 -0.11652450007E+02 -0.24980596907E+02  0.11338449550E+03  0.00000000000E+00 0. -1.
<mgrwt>
<rscale>  0 0.17241720E+03</rscale>
<asrwt>0</asrwt>
<pdfrwt beam="2">  1        1 0.33903993E-01 0.17811205E+03</pdfrwt>
<pdfrwt beam="1">  1       -1 0.20839391E-01 0.17811205E+03</pdfrwt>
<totfact> 0.24009793E+03</totfact>
</mgrwt>
</event>
<event>
 7    1  0.6419647E-006  0.1299392E+03  0.7546771E-02  0.1242094E+00
          2   -1    0    0  501    0  0.00000000000E+00  0.00000000000E+00  0.18688983068E+03  0.18688983068E+03  0.00000000000E+00 0. -1.
         -2   -1    0    0    0  501 -0.00000000000E+00 -0.00000000000E+00 -0.70079947790E+02  0.70079947790E+02  0.00000000000E+00 0.  1.
         23    2    1    2    0    0 -0.30339014534E+02 -0.18418375664E+02  0.85569474012E+02  0.15558382698E+03  0.12499799987E+03 0.  0.
          5    1    3    3  502    0 -0.48267907723E+02 -0.58492131526E+02  0.81216184302E+02  0.11121726017E+03  0.47000000000E+01 0.  1.
         -5    1    3    3    0  502  0.17928893189E+02  0.40073755862E+02  0.43532897096E+01  0.44366566818E+02  0.47000000000E+01 0.  1.
        -11    1    1    2    0    0  0.31227134783E+02  0.81303261352E+00 -0.26531630748E+02  0.40984416538E+02  0.00000000000E+00 0.  1.
         11    1    1    2    0    0 -0.88812024889E+00  0.17605343050E+02  0.57772039626E+02  0.60401534948E+02  0.00000000000E+00 0. -1.
<mgrwt>
<rscale>  0 0.12061015E+03</rscale>
<asrwt>0</asrwt>
<pdfrwt beam="1">  1        2 0.28752281E-01 0.12993919E+03</pdfrwt>
<pdfrwt beam="2">  1       -2 0.10781530E-01 0.12993919E+03</pdfrwt>
<totfact> 0.10152087E+04</totfact>
</mgrwt>
</event>
<event>
 7    1  0.6419647E-006  0.1861983E+03  0.7546771E-02  0.1166999E+00
         -2   -1    0    0    0  501 -0.00000000000E+00  0.00000000000E+00  0.70810369624E+02  0.70810369624E+02  0.00000000000E+00 0.  1.
          2   -1    0    0  501    0  0.00000000000E+00 -0.00000000000E+00 -0.98657633893E+03  0.98657633893E+03  0.00000000000E+00 0. -1.
         23    2    1    2    0    0  0.24397732904E+02 -0.13582548895E+03 -0.86400131362E+03  0.88383712681E+03  0.12500393579E+03 0.  0.
          5    1    3    3  502    0  0.69292478259E+02 -0.11941708178E+03 -0.64721813786E+03  0.66179701944E+03  0.47000000000E+01 0.  1.
         -5    1    3    3    0  502 -0.44894745355E+02 -0.16408407174E+02 -0.21678317576E+03  0.22204010736E+03  0.47000000000E+01 0.  1.
        -11    1    1    2    0    0 -0.58757151075E+02  0.78478055118E+02 -0.22576533796E+02  0.10060272271E+03  0.00000000000E+00 0. -1.
         11    1    1    2    0    0  0.34359418171E+02  0.57347433834E+02 -0.29188121885E+02  0.72946859038E+02  0.00000000000E+00 0.  1.
<mgrwt>
<rscale>  0 0.18083376E+03</rscale>
<asrwt>0</asrwt>
<pdfrwt beam="2">  1        2 0.15178097E+00 0.18619827E+03</pdfrwt>
<pdfrwt beam="1">  1       -2 0.10893903E-01 0.18619827E+03</pdfrwt>
<totfact> 0.15464874E+03</totfact>
</mgrwt>
</event>
<event>
 7    1  0.6419647E-006  0.1230891E+03  0.7546771E-02  0.1283343E+00
          2   -1    0    0  501    0  0.00000000000E+00  0.00000000000E+00  0.30827005173E+03  0.30827005173E+03  0.00000000000E+00 0. -1.
         -2   -1    0    0    0  501 -0.00000000000E+00 -0.00000000000E+00 -0.27330330602E+02  0.27330330602E+02  0.00000000000E+00 0.  1.
         23    2    1    2    0    0 -0.44602359735E+02 -0.13448944173E+02  0.24283768734E+03  0.27225185818E+03  0.11393281923E+03 0.  0.
          5    1    3    3  502    0 -0.24793373762E+00  0.45797521991E+02  0.12288789596E+03  0.13122880577E+03  0.47000000000E+01 0. -1.
         -5    1    3    3    0  502 -0.44354425997E+02 -0.59246466164E+02  0.11994979138E+03  0.14102305241E+03  0.47000000000E+01 0.  1.
        -11    1    1    2    0    0  0.58181044911E+01  0.95224057631E+01  0.50867228207E+01  0.12263820793E+02  0.00000000000E+00 0.  1.
         11    1    1    2    0    0  0.38784255244E+02  0.39265384099E+01  0.33015310965E+02  0.51084703355E+02  0.00000000000E+00 0. -1.
<mgrwt>
<rscale>  0 0.98564764E+02</rscale>
<asrwt>0</asrwt>
<pdfrwt beam="1">  1        2 0.47426159E-01 0.12308912E+03</pdfrwt>
<pdfrwt beam="2">  1       -2 0.42046665E-02 0.12308912E+03</pdfrwt>
<totfact> 0.24943135E+04</totfact>
</mgrwt>
</event>
<event>
 7    1  0.6419647E-006  0.1418162E+03  0.7546771E-02  0.1223777E+00
          2   -1    0    0  501    0  0.00000000000E+00  0.00000000000E+00  0.10679659148E+04  0.10679659148E+04  0.00000000000E+00 0. -1.
         -2   -1    0    0    0  501 -0.00000000000E+00 -0.00000000000E+00 -0.16203409431E+02  0.16203409431E+02  0.00000000000E+00 0.  1.
         23    2    1    2    0    0 -0.65727942698E+02 -0.12573330370E+02  0.75791757742E+03  0.77107126007E+03  0.12503432668E+03 0.  0.
          5    1    3    3  502    0 -0.31227612234E+02  0.45562027797E+02  0.54056118961E+03  0.54339631196E+03  0.47000000000E+01 0. -1.
         -5    1    3    3    0  502 -0.34500330463E+02 -0.58135358167E+02  0.21735638782E+03  0.22767494811E+03  0.47000000000E+01 0. -1.
        -11    1    1    2    0    0  0.18502296807E+02  0.22846455995E+02  0.21307362427E+02  0.36308390659E+02  0.00000000000E+00 0.  1.
         11    1    1    2    0    0  0.47225645890E+02 -0.10273125625E+02  0.27253756556E+03  0.27678967354E+03  0.00000000000E+00 0. -1.
<mgrwt>
<rscale>  0 0.13251058E+03</rscale>
<asrwt>0</asrwt>
<pdfrwt beam="1">  1        2 0.16430239E+00 0.14181620E+03</pdfrwt>
<pdfrwt beam="2">  1       -2 0.24928331E-02 0.14181620E+03</pdfrwt>
<totfact> 0.12849584E+04</totfact>
</mgrwt>
</event>
<event>
 7    1  0.6419647E-006  0.1420570E+03  0.7546771E-02  0.1221914E+00
          2   -1    0    0  501    0  0.00000000000E+00  0.00000000000E+00  0.23457723174E+03  0.23457723174E+03  0.00000000000E+00 0. -1.
         -2   -1    0    0    0  501 -0.00000000000E+00 -0.00000000000E+00 -0.69678440425E+02  0.69678440425E+02  0.00000000000E+00 0.  1.
         23    2    1    2    0    0  0.20440515613E+02  0.64322279330E+02  0.11010049287E+03  0.17972846673E+03  0.12500013170E+03 0.  0.
          5    1    3    3  502    0 -0.13208504485E+02  0.52884966388E+02 -0.89129877843E+01  0.55432983068E+02  0.47000000000E+01 0. -1.
         -5    1    3    3    0  502  0.33649020099E+02  0.11437312942E+02  0.11901348065E+03  0.12429548366E+03  0.47000000000E+01 0. -1.
        -11    1    1    2    0    0 -0.23000036492E+02 -0.51511531626E+02 -0.10973545508E+02  0.57470499129E+02  0.00000000000E+00 0.  1.
         11    1    1    2    0    0  0.25595208790E+01 -0.12810747703E+02  0.65771843951E+02  0.67056706306E+02  0.00000000000E+00 0. -1.
<mgrwt>
<rscale>  0 0.13380703E+03</rscale>
<asrwt>0</asrwt>
<pdfrwt beam="1">  1        2 0.36088804E-01 0.14205704E+03</pdfrwt>
<pdfrwt beam="2">  1       -2 0.10719760E-01 0.14205704E+03</pdfrwt>
<totfact> 0.80730337E+03</totfact>
</mgrwt>
</event>
<event>
 7    1  0.6419647E-006  0.2654628E+03  0.7546771E-02  0.1106196E+00
          3   -1    0    0  501    0  0.00000000000E+00  0.00000000000E+00  0.33672854103E+03  0.33672854103E+03  0.00000000000E+00 0.  1.
         -3   -1    0    0    0  501 -0.00000000000E+00 -0.00000000000E+00 -0.35564175741E+03  0.35564175741E+03  0.00000000000E+00 0. -1.
         23    2    1    2    0    0  0.17011147318E+03  0.16095844323E+03  0.22119523381E+03  0.34553990584E+03  0.12499984525E+03 0.  0.
          5    1    3    3  502    0  0.16831476327E+02  0.39082974069E+02 -0.85148254430E+01  0.43650540773E+02  0.47000000000E+01 0. -1.
         -5    1    3    3    0  502  0.15327999685E+03  0.12187546916E+03  0.22971005926E+03  0.30188936507E+03  0.47000000000E+01 0. -1.
        -11    1    1    2    0    0 -0.17601878089E+03 -0.13180353265E+03 -0.20301546192E+03  0.29928257587E+03  0.00000000000E+00 0. -1.
         11    1    1    2    0    0  0.59073077062E+01 -0.29154910577E+02 -0.37092988282E+02  0.47547816720E+02  0.00000000000E+00 0.  1.
<mgrwt>
<rscale>  0 0.26158243E+03</rscale>
<asrwt>0</asrwt>
<pdfrwt beam="1">  1        3 0.51804391E-01 0.26546279E+03</pdfrwt>
<pdfrwt beam="2">  1       -3 0.54714117E-01 0.26546279E+03</pdfrwt>
<totfact> 0.30772573E+01</totfact>
</mgrwt>
</event>
<event>
 7    1  0.6419647E-006  0.1353710E+03  0.7546771E-02  0.1233780E+00
          4   -1    0    0  501    0  0.00000000000E+00  0.00000000000E+00  0.70264877544E+03  0.70264877544E+03  0.00000000000E+00 0. -1.
         -4   -1    0    0    0  501 -0.00000000000E+00 -0.00000000000E+00 -0.21411472053E+02  0.21411472053E+02  0.00000000000E+00 0.  1.
         23    2    1    2    0    0 -0.47551777992E+02  0.66727263689E+01  0.48218558232E+03  0.50082755546E+03  0.12656858869E+03 0.  0.
          5    1    3    3  502    0 -0.79962282795E+02 -0.30554178501E+02  0.31257401462E+03  0.32411746191E+03  0.47000000000E+01 0.  1.
         -5    1    3    3    0  502  0.32410504803E+02  0.37226904870E+02  0.16961156769E+03  0.17671009355E+03  0.47000000000E+01 0.  1.
        -11    1    1    2    0    0  0.15427171572E+02  0.40030230992E+02  0.67380316108E+02  0.79878182345E+02  0.00000000000E+00 0.  1.
         11    1    1    2    0    0  0.32124606420E+02 -0.46702957361E+02  0.13167140496E+03  0.14335450969E+03  0.00000000000E+00 0. -1.
<mgrwt>
<rscale>  0 0.12582851E+03</rscale>
<asrwt>0</asrwt>
<pdfrwt beam="1">  1        4 0.10809979E+00 0.13537099E+03</pdfrwt>
<pdfrwt beam="2">  1       -4 0.32940732E-02 0.13537099E+03</pdfrwt>
<totfact> 0.55072969E+02</totfact>
</mgrwt>
</event>
<event>
 7    1  0.6419647E-006  0.1455756E+03  0.7546771E-02  0.1215861E+00
          2   -1    0    0  501    0  0.00000000000E+00  0.00000000000E+00  0.69045921791E+02  0.69045921791E+02  0.00000000000E+00 0. -1.
         -2   -1    0    0    0  501 -0.00000000000E+00 -0.00000000000E+00 -0.26411734415E+03  0.26411734415E+03  0.00000000000E+00 0.  1.
         23    2    1    2    0    0 -0.14544440788E+02  0.73309636238E+02 -0.71139594650E+02  0.16202812009E+03  0.12492568290E+03 0.  0.
          5    1    3    3  502    0  0.19189950952E+02  0.98108581148E+02 -0.33512387669E+02  0.10554012526E+03  0.47000000000E+01 0.  1.
         -5    1    3    3    0  502 -0.33734391740E+02 -0.24798944909E+02 -0.37627206982E+02  0.56487994830E+02  0.47000000000E+01 0.  1.
        -11    1    1    2    0    0  0.22380812324E+02  0.15450974320E+02 -0.42308128922E+02  0.50295239741E+02  0.00000000000E+00 0.  1.
         11    1    1    2    0    0 -0.78363715364E+01 -0.88760610559E+02 -0.81623698790E+02  0.12083990611E+03  0.00000000000E+00 0. -1.
<mgrwt>
<rscale>  0 0.13813483E+03</rscale>
<asrwt>0</asrwt>
<pdfrwt beam="1">  1        2 0.10622450E-01 0.14557565E+03</pdfrwt>
<pdfrwt beam="2">  1       -2 0.40633437E-01 0.14557565E+03</pdfrwt>
<totfact> 0.33058719E+03</totfact>
</mgrwt>
</event>
<event>
 7    1  0.6419647E-006  0.1550400E+03  0.7546771E-02  0.1202616E+00
         -2   -1    0    0    0  501 -0.00000000000E+00  0.00000000000E+00  0.40972861455E+03  0.40972861455E+03  0.00000000000E+00 0. -1.
          2   -1    0    0  501    0  0.00000000000E+00 -0.00000000000E+00 -0.70937802377E+02  0.70937802377E+02  0.00000000000E+00 0.  1.
         23    2    1    2    0    0 -0.49506303169E+02 -0.77220436400E+02  0.48049216219E+02  0.16231489348E+03  0.12499411032E+03 0.  0.
          5    1    3    3  502    0  0.11777448244E+02  0.28029702013E+02  0.21614483306E+02  0.37598515538E+02  0.47000000000E+01 0. -1.
         -5    1    3    3    0  502 -0.61283751412E+02 -0.10525013841E+03  0.26434732913E+02  0.12471637794E+03  0.47000000000E+01 0. -1.
        -11    1    1    2    0    0 -0.11170751113E+02  0.60473816356E+02  0.99033193925E+02  0.11657376053E+03  0.00000000000E+00 0.  1.
         11    1    1    2    0    0  0.60677054282E+02  0.16746620043E+02  0.19170840203E+03  0.20177776292E+03  0.00000000000E+00 0. -1.
<mgrwt>
<rscale>  0 0.14826936E+03</rscale>
<asrwt>0</asrwt>
<pdfrwt beam="2">  1        2 0.10913508E-01 0.15503999E+03</pdfrwt>
<pdfrwt beam="1">  1       -2 0.63035170E-01 0.15503999E+03</pdfrwt>
<totfact> 0.13405677E+03</totfact>
</mgrwt>
</event>
<event>
 7    1  0.6419647E-006  0.1371335E+03  0.7546771E-02  0.1229744E+00
         -2   -1    0    0    0  501 -0.00000000000E+00  0.00000000000E+00  0.13662717630E+02  0.13662717630E+02  0.00000000000E+00 0.  1.
          2   -1    0    0  501    0  0.00000000000E+00 -0.00000000000E+00 -0.10922990317E+04  0.10922990317E+04  0.00000000000E+00 0. -1.
         23    2    1    2    0    0 -0.51571515837E+02  0.22851428418E+02 -0.67039961369E+03  0.68428155793E+03  0.12499519770E+03 0.  0.
          5    1    3    3  502    0 -0.72584580764E+02  0.15031035181E+02 -0.64799724810E+03  0.65223996882E+03  0.47000000000E+01 0.  1.
         -5    1    3    3    0  502  0.21013064927E+02  0.78203932362E+01 -0.22402365593E+02  0.32041589102E+02  0.47000000000E+01 0.  1.
        -11    1    1    2    0    0  0.67171380028E+02  0.10939376456E+01 -0.35457255249E+03  0.36088070879E+03  0.00000000000E+00 0. -1.
         11    1    1    2    0    0 -0.15599864191E+02 -0.23945366063E+02 -0.53664147900E+02  0.60799482633E+02  0.00000000000E+00 0.  1.
<mgrwt>
<rscale>  0 0.12846982E+03</rscale>
<asrwt>0</asrwt>
<pdfrwt beam="2">  1        2 0.16804602E+00 0.13713354E+03</pdfrwt>
<pdfrwt beam="1">  1       -2 0.21019563E-02 0.13713354E+03</pdfrwt>
<totfact> 0.15920576E+04</totfact>
</mgrwt>
</event>
<event>
 7    1  0.6419647E-006  0.1893324E+03  0.7546771E-02  0.1163924E+00
         -2   -1    0    0    0  501 -0.00000000000E+00  0.00000000000E+00  0.13870214209E+03  0.13870214209E+03  0.00000000000E+00 0. -1.
          2   -1    0    0  501    0  0.00000000000E+00 -0.00000000000E+00 -0.34265326657E+03  0.34265326657E+03  0.00000000000E+00 0.  1.
         23    2    1    2    0    0 -0.12290454386E+03  0.71545481070E+02 -0.24272632838E+03  0.30783573314E+03  0.12498994097E+03 0.  0.
          5    1    3    3  502    0 -0.48094321832E+02  0.97332642488E+02 -0.15849123400E+03  0.19216729259E+03  0.47000000000E+01 0. -1.
         -5    1    3    3    0  502 -0.74810222029E+02 -0.25787161417E+02 -0.84235094382E+02  0.11566844055E+03  0.47000000000E+01 0. -1.
        -11    1    1    2    0    0  0.99793182580E+02 -0.40514631495E+02  0.65901673092E+02  0.12626616796E+03  0.00000000000E+00 0. -1.
         11    1    1    2    0    0  0.23111361281E+02 -0.31030849576E+02 -0.27126469196E+02  0.47253507560E+02  0.00000000000E+00 0.  1.
<mgrwt>
<rscale>  0 0.18406663E+03</rscale>
<asrwt>0</asrwt>
<pdfrwt beam="2">  1        2 0.52715887E-01 0.18933243E+03</pdfrwt>
<pdfrwt beam="1">  1       -2 0.21338791E-01 0.18933243E+03</pdfrwt>
<totfact> 0.17590864E+03</totfact>
</mgrwt>
</event>
<event>
 7    1  0.6419647E-006  0.1346810E+03  0.7546771E-02  0.1233731E+00
         -3   -1    0    0    0  501 -0.00000000000E+00  0.00000000000E+00  0.18703116799E+03  0.18703116799E+03  0.00000000000E+00 0.  1.
          3   -1    0    0  501    0  0.00000000000E+00 -0.00000000000E+00 -0.88478876327E+02  0.88478876327E+02  0.00000000000E+00 0. -1.
         23    2    1    2    0    0 -0.49795429752E+02  0.58744807715E+01  0.22341683199E+01  0.13469948610E+03  0.12499946280E+03 0.  0.
          5    1    3    3  502    0 -0.72314293769E+02  0.30429918480E+02 -0.33659457360E+02  0.85500795855E+02  0.47000000000E+01 0.  1.
         -5    1    3    3    0  502  0.22518864017E+02 -0.24555437709E+02  0.35893625680E+02  0.49198690249E+02  0.47000000000E+01 0.  1.
        -11    1    1    2    0    0  0.17305153348E+02 -0.21906948911E+02  0.10053143934E+03  0.10433577066E+03  0.00000000000E+00 0.  1.
         11    1    1    2    0    0  0.32490276404E+02  0.16032468139E+02 -0.42133159985E+01  0.36474787554E+02  0.00000000000E+00 0. -1.
<mgrwt>
<rscale>  0 0.12586020E+03</rscale>
<asrwt>0</asrwt>
<pdfrwt beam="2">  1        3 0.13612135E-01 0.13468096E+03</pdfrwt>
<pdfrwt beam="1">  1       -3 0.28774026E-01 0.13468096E+03</pdfrwt>
<totfact> 0.11702247E+03</totfact>
</mgrwt>
</event>
<event>
 7    1  0.6419647E-006  0.1271587E+03  0.7546771E-02  0.1246503E+00
          1   -1    0    0  501    0  0.00000000000E+00  0.00000000000E+00  0.74270034331E+02  0.74270034331E+02  0.00000000000E+00 0. -1.
         -1   -1    0    0    0  501 -0.00000000000E+00 -0.00000000000E+00 -0.17618689172E+03  0.17618689172E+03  0.00000000000E+00 0.  1.
         23    2    1    2    0    0  0.40520526664E+01 -0.22949707476E+02 -0.26681041726E+02  0.12992775980E+03  0.12500494621E+03 0.  0.
          5    1    3    3  502    0  0.49191983821E+02  0.26754153932E+02 -0.27620002495E+02  0.62614619401E+02  0.47000000000E+01 0. -1.
         -5    1    3    3    0  502 -0.45139931155E+02 -0.49703861408E+02  0.93896076973E+00  0.67313140403E+02  0.47000000000E+01 0. -1.
        -11    1    1    2    0    0 -0.14683059431E+02  0.50986464312E+02 -0.73291927590E+02  0.90481591648E+02  0.00000000000E+00 0. -1.
         11    1    1    2    0    0  0.10631006764E+02 -0.28036756836E+02 -0.19438880783E+01  0.30047574604E+02  0.00000000000E+00 0.  1.
<mgrwt>
<rscale>  0 0.11795893E+03</rscale>
<asrwt>0</asrwt>
<pdfrwt beam="1">  1        1 0.11426159E-01 0.12715874E+03</pdfrwt>
<pdfrwt beam="2">  1       -1 0.27105675E-01 0.12715874E+03</pdfrwt>
<totfact> 0.61528045E+03</totfact>
</mgrwt>
</event>
<event>
 7    1  0.6419647E-006  0.1880435E+03  0.7546771E-02  0.1165777E+00
          2   -1    0    0  501    0  0.00000000000E+00  0.00000000000E+00  0.78281139665E+03  0.78281139665E+03  0.00000000000E+00 0. -1.
         -2   -1    0    0    0  501 -0.00000000000E+00 -0.00000000000E+00 -0.43265973866E+02  0.43265973866E+02  0.00000000000E+00 0.  1.
         23    2    1    2    0    0 -0.13731893761E+03  0.29693705531E+02  0.50664429161E+03  0.54041538890E+03  0.12498858975E+03 0.  0.
          5    1    3    3  502    0 -0.10706113279E+03  0.31028447160E+01  0.16761306354E+03  0.19896719044E+03  0.47000000000E+01 0.  1.
         -5    1    3    3    0  502 -0.30257804818E+02  0.26590860815E+02  0.33903122806E+03  0.34144819846E+03  0.47000000000E+01 0.  1.
        -11    1    1    2    0    0  0.80899468298E+02  0.25817412920E+02  0.13860866822E+03  0.16255345486E+03  0.00000000000E+00 0.  1.
         11    1    1    2    0    0  0.56419469314E+02 -0.55511118451E+02  0.94292462956E+02  0.12310852675E+03  0.00000000000E+00 0. -1.
<mgrwt>
<rscale>  0 0.18210963E+03</rscale>
<asrwt>0</asrwt>
<pdfrwt beam="1">  1        2 0.12043251E+00 0.18804349E+03</pdfrwt>
<pdfrwt beam="2">  1       -2 0.66563042E-02 0.18804349E+03</pdfrwt>
<totfact> 0.45292805E+03</totfact>
</mgrwt>
</event>
<event>
 7    1  0.6419647E-006  0.1251865E+03  0.7546771E-02  0.1249912E+00
          2   -1    0    0  501    0  0.00000000000E+00  0.00000000000E+00  0.45543070655E+03  0.45543070655E+03  0.00000000000E+00 0. -1.
         -2   -1    0    0    0  501 -0.00000000000E+00 -0.00000000000E+00 -0.26364313854E+02  0.26364313854E+02  0.00000000000E+00 0.  1.
         23    2    1    2    0    0  0.54669520502E+00  0.68027636520E+01  0.27703853869E+03  0.30400990103E+03  0.12500036615E+03 0.  0.
          5    1    3    3  502    0 -0.92367600108E+01  0.51406193079E+02  0.23812433867E+03  0.24383027927E+03  0.47000000000E+01 0.  1.
         -5    1    3    3    0  502  0.97834552158E+01 -0.44603429427E+02  0.38914200023E+02  0.60179621767E+02  0.47000000000E+01 0.  1.
        -11    1    1    2    0    0  0.40899647812E+02 -0.23697276542E+02  0.83022017115E+02  0.95535320340E+02  0.00000000000E+00 0. -1.
         11    1    1    2    0    0 -0.41446343017E+02  0.16894512890E+02  0.69005836890E+02  0.82249799028E+02  0.00000000000E+00 0.  1.
<mgrwt>
<rscale>  0 0.11596159E+03</rscale>
<asrwt>0</asrwt>
<pdfrwt beam="1">  1        2 0.70066257E-01 0.12518653E+03</pdfrwt>
<pdfrwt beam="2">  1       -2 0.40560486E-02 0.12518653E+03</pdfrwt>
<totfact> 0.17400454E+04</totfact>
</mgrwt>
</event>
<event>
 6    1  0.6419647E-006  0.1840756E+03  0.7546771E-02  0.1183120E+00
         -1   -1    0    0    0  501 -0.00000000000E+00  0.00000000000E+00  0.31850826425E+02  0.31850826425E+02  0.00000000000E+00 0.  1.
          1   -1    0    0  501    0  0.00000000000E+00 -0.00000000000E+00 -0.79424607208E+03  0.79424607208E+03  0.00000000000E+00 0. -1.
          5    1    1    2  502    0 -0.73719298882E+02  0.84547468476E+01 -0.52496065758E+03  0.53019977347E+03  0.47000000000E+01 0. -1.
         -5    1    1    2    0  502  0.14019278516E+02 -0.53160772899E+02 -0.53554453150E+02  0.76894586269E+02  0.47000000000E+01 0.  1.
        -11    1    1    2    0    0  0.67787738576E+02  0.24978514572E+02 -0.61787016169E+02  0.95061764441E+02  0.00000000000E+00 0.  1.
         11    1    1    2    0    0 -0.80877182100E+01  0.19727511479E+02 -0.12209311875E+03  0.12394077433E+03  0.00000000000E+00 0. -1.
<mgrwt>
<rscale>  0 0.16504126E+03</rscale>
<asrwt>0</asrwt>
<pdfrwt beam="2">  1        1 0.12219170E+00 0.18407560E+03</pdfrwt>
<pdfrwt beam="1">  1       -1 0.49001271E-02 0.18407560E+03</pdfrwt>
<totfact> 0.41677805E+03</totfact>
</mgrwt>
</event>
<event>
 7    1  0.6419647E-006  0.1398660E+03  0.7546771E-02  0.1225212E+00
          1   -1    0    0  501    0  0.00000000000E+00  0.00000000000E+00  0.34444979163E+02  0.34444979163E+02  0.00000000000E+00 0. -1.
         -1   -1    0    0    0  501 -0.00000000000E+00 -0.00000000000E+00 -0.45249714874E+03  0.45249714874E+03  0.00000000000E+00 0.  1.
         23    2    1    2    0    0  0.82493795991E+01  0.62219192765E+02 -0.21987479378E+03  0.26059054862E+03  0.12499291531E+03 0.  0.
          5    1    3    3  502    0 -0.47570319959E+02  0.49519878688E+02 -0.17387695240E+03  0.18700384569E+03  0.47000000000E+01 0.  1.
         -5    1    3    3    0  502  0.55819699558E+02  0.12699314078E+02 -0.45997841379E+02  0.73586702932E+02  0.47000000000E+01 0.  1.
        -11    1    1    2    0    0  0.10684452696E+02 -0.98240031581E+01  0.52490401425E+01  0.15434409282E+02  0.00000000000E+00 0. -1.
         11    1    1    2    0    0 -0.18933832295E+02 -0.52395189607E+02 -0.20342641594E+03  0.21091717000E+03  0.00000000000E+00 0.  1.
<mgrwt>
<rscale>  0 0.13152372E+03</rscale>
<asrwt>0</asrwt>
<pdfrwt beam="1">  1        1 0.52992276E-02 0.13986604E+03</pdfrwt>
<pdfrwt beam="2">  1       -1 0.69614945E-01 0.13986604E+03</pdfrwt>
<totfact> 0.32092924E+03</totfact>
</mgrwt>
</event>
<event>
 7    1  0.6419647E-006  0.1284400E+03  0.7546771E-02  0.1250699E+00
         -2   -1    0    0    0  501 -0.00000000000E+00  0.00000000000E+00  0.44082630785E+02  0.44082630785E+02  0.00000000000E+00 0.  1.
          2   -1    0    0  501    0  0.00000000000E+00 -0.00000000000E+00 -0.67911125745E+03  0.67911125745E+03  0.00000000000E+00 0. -1.
         23    2    1    2    0    0  0.25246531422E+02  0.15301821693E+02 -0.62560879325E+03  0.63865733282E+03  0.12500117391E+03 0.  0.
          5    1    3    3  502    0 -0.49667705880E+02  0.11504843921E+02 -0.19912337143E+03  0.20560021763E+03  0.47000000000E+01 0. -1.
         -5    1    3    3    0  502  0.74914237302E+02  0.37969777722E+01 -0.42648542182E+03  0.43305711519E+03  0.47000000000E+01 0. -1.
        -11    1    1    2    0    0  0.37416940337E+01 -0.37370868767E+02  0.15251367757E+02  0.40536234718E+02  0.00000000000E+00 0.  1.
         11    1    1    2    0    0 -0.28988225455E+02  0.22069047074E+02 -0.24671201168E+02  0.44000320691E+02  0.00000000000E+00 0. -1.
<mgrwt>
<rscale>  0 0.11550692E+03</rscale>
<asrwt>0</asrwt>
<pdfrwt beam="2">  1        2 0.10447865E+00 0.12843997E+03</pdfrwt>
<pdfrwt beam="1">  1       -2 0.67819435E-02 0.12843997E+03</pdfrwt>
<totfact> 0.51456419E+03</totfact>
</mgrwt>
</event>
<event>
 7    1  0.6419647E-006  0.1440151E+03  0.7546771E-02  0.1218722E+00
         -4   -1    0    0    0  501 -0.00000000000E+00  0.00000000000E+00  0.12449677117E+03  0.12449677117E+03  0.00000000000E+00 0.  1.
          4   -1    0    0  501    0  0.00000000000E+00 -0.00000000000E+00 -0.19405243612E+03  0.19405243612E+03  0.00000000000E+00 0. -1.
         23    2    1    2    0    0  0.88027531028E+01  0.70973245671E+02 -0.12536855259E+03  0.19093882393E+03  0.12500268174E+03 0.  0.
          5    1    3    3  502    0 -0.18902572247E+02  0.78196173807E+01 -0.11976311329E+03  0.12158843266E+03  0.47000000000E+01 0. -1.
         -5    1    3    3    0  502  0.27705325350E+02  0.63153628291E+02 -0.56054393021E+01  0.69350391266E+02  0.47000000000E+01 0. -1.
        -11    1    1    2    0    0 -0.17888316405E+02  0.11310248764E+02 -0.84731906187E+01  0.22797117146E+02  0.00000000000E+00 0. -1.
         11    1    1    2    0    0  0.90855633020E+01 -0.82283494435E+02  0.64286078260E+02  0.10481326622E+03  0.00000000000E+00 0.  1.
<mgrwt>
<rscale>  0 0.13606661E+03</rscale>
<asrwt>0</asrwt>
<pdfrwt beam="2">  1        4 0.29854221E-01 0.14401514E+03</pdfrwt>
<pdfrwt beam="1">  1       -4 0.19153350E-01 0.14401514E+03</pdfrwt>
<totfact> 0.43957578E+02</totfact>
</mgrwt>
</event>
<event>
 7    1  0.6419647E-006  0.1417697E+03  0.7546771E-02  0.1221573E+00
         -1   -1    0    0    0  501 -0.00000000000E+00  0.00000000000E+00  0.59411514235E+02  0.59411514235E+02  0.00000000000E+00 0.  1.
          1   -1    0    0  501    0  0.00000000000E+00 -0.00000000000E+00 -0.27389090976E+03  0.27389090976E+03  0.00000000000E+00 0. -1.
         23    2    1    2    0    0 -0.45091569740E+02 -0.49359265902E+02 -0.12242693804E+03  0.18731523100E+03  0.12501621421E+03 0.  0.
          5    1    3    3  502    0 -0.89495127950E+01  0.18700513196E+02  0.17479073922E+02  0.27521100964E+02  0.47000000000E+01 0. -1.
         -5    1    3    3    0  502 -0.36142056945E+02 -0.68059779097E+02 -0.13990601196E+03  0.15979413003E+03  0.47000000000E+01 0. -1.
        -11    1    1    2    0    0  0.27346495783E+02  0.75076242644E+02 -0.52601038342E+02  0.95661602934E+02  0.00000000000E+00 0.  1.
         11    1    1    2    0    0  0.17745073956E+02 -0.25716976743E+02 -0.39451419141E+02  0.50325590058E+02  0.00000000000E+00 0. -1.
<mgrwt>
<rscale>  0 0.13404550E+03</rscale>
<asrwt>0</asrwt>
<pdfrwt beam="2">  1        1 0.42137062E-01 0.14176967E+03</pdfrwt>
<pdfrwt beam="1">  1       -1 0.91402331E-02 0.14176967E+03</pdfrwt>
<totfact> 0.65875522E+03</totfact>
</mgrwt>
</event>
<event>
 7    1  0.6419647E-006  0.1491220E+03  0.7546771E-02  0.1209904E+00
         -3   -1    0    0    0  501 -0.00000000000E+00  0.00000000000E+00  0.41426901928E+02  0.41426901928E+02  0.00000000000E+00 0.  1.
          3   -1    0    0  501    0  0.00000000000E+00 -0.00000000000E+00 -0.45294153980E+03  0.45294153980E+03  0.00000000000E+00 0. -1.
         23    2    1    2    0    0 -0.15211705521E+02  0.79875876081E+02 -0.23423032975E+03  0.27767104033E+03  0.12500323075E+03 0.  0.
          5    1    3    3  502    0 -0.51994078674E+02  0.94845843897E+02 -0.15712390689E+03  0.19081176703E+03  0.47000000000E+01 0. -1.
         -5    1    3    3    0  502  0.36782373152E+02 -0.14969967816E+02 -0.77106422864E+02  0.86859273299E+02  0.47000000000E+01 0. -1.
        -11    1    1    2    0    0  0.25112100461E+02  0.38496546731E+01 -0.64800546629E+01  0.26218858463E+02  0.00000000000E+00 0.  1.
         11    1    1    2    0    0 -0.99003949395E+01 -0.83725530754E+02 -0.17080425346E+03  0.19047854294E+03  0.00000000000E+00 0. -1.
<mgrwt>
<rscale>  0 0.14257579E+03</rscale>
<asrwt>0</asrwt>
<pdfrwt beam="2">  1        3 0.69683307E-01 0.14912196E+03</pdfrwt>
<pdfrwt beam="1">  1       -3 0.63733702E-02 0.14912196E+03</pdfrwt>
<totfact> 0.72847139E+02</totfact>
</mgrwt>
</event>
<event>
 7    1  0.1894130E-005  0.2218202E+03  0.7546771E-02  0.1135870E+00
         -1   -1    0    0    0  501 -0.00000000000E+00  0.00000000000E+00  0.30367140074E+03  0.30367140074E+03  0.00000000000E+00 0.  1.
          1   -1    0    0  501    0  0.00000000000E+00 -0.00000000000E+00 -0.18652797259E+03  0.18652797259E+03  0.00000000000E+00 0. -1.
         23    2    1    2    0    0 -0.13004056424E+03 -0.12910673190E+03 -0.48468966390E+02  0.22705386172E+03  0.12500047539E+03 0.  0.
          5    1    3    3  502    0  0.13379278314E+02 -0.54815695266E+02  0.50227748629E+01  0.56842623119E+02  0.47000000000E+01 0. -1.
         -5    1    3    3    0  502 -0.14341984256E+03 -0.74291036635E+02 -0.53491741253E+02  0.17021123860E+03  0.47000000000E+01 0. -1.
        -11    1    1    2    0    0 -0.32523252159E+01  0.44534391314E+02  0.52631253638E+02  0.69021290111E+02  0.00000000000E+00 0.  1.
         11    1    1    2    0    0  0.13329288946E+03  0.84572340587E+02  0.11298114091E+03  0.19412422150E+03  0.00000000000E+00 0. -1.
<mgrwt>
<rscale>  0 0.21735588E+03</rscale>
<asrwt>0</asrwt>
<pdfrwt beam="2">  1        1 0.28696611E-01 0.22182023E+03</pdfrwt>
<pdfrwt beam="1">  1       -1 0.46718677E-01 0.22182023E+03</pdfrwt>
<totfact> 0.74759808E+02</totfact>
</mgrwt>
</event>
<event>
 7    1  0.6419647E-006  0.1319975E+03  0.7546771E-02  0.1237822E+00
         -1   -1    0    0    0  501 -0.00000000000E+00  0.00000000000E+00  0.13699811660E+03  0.13699811660E+03  0.00000000000E+00 0.  1.
          1   -1    0    0  501    0  0.00000000000E+00 -0.00000000000E+00 -0.10018971865E+03  0.10018971865E+03  0.00000000000E+00 0. -1.
         23    2    1    2    0    0 -0.30380627411E+02 -0.29628330943E+02  0.36056981623E+02  0.13683361538E+03  0.12499004704E+03 0.  0.
          5    1    3    3  502    0 -0.76240475473E+02 -0.15717780440E+02  0.22867325801E+01  0.78019086563E+02  0.47000000000E+01 0.  1.
         -5    1    3    3    0  502  0.45859848062E+02 -0.13910550503E+02  0.33770249042E+02  0.58814528817E+02  0.47000000000E+01 0.  1.
        -11    1    1    2    0    0  0.12351726400E+02  0.16979495491E+02  0.45704110837E+02  0.50296462694E+02  0.00000000000E+00 0.  1.
         11    1    1    2    0    0  0.18028901011E+02  0.12648835452E+02 -0.44952694510E+02  0.50057757178E+02  0.00000000000E+00 0. -1.
<mgrwt>
<rscale>  0 0.12325515E+03</rscale>
<asrwt>0</asrwt>
<pdfrwt beam="2">  1        1 0.15413803E-01 0.13199747E+03</pdfrwt>
<pdfrwt beam="1">  1       -1 0.21076633E-01 0.13199747E+03</pdfrwt>
<totfact> 0.63003485E+03</totfact>
</mgrwt>
</event>
<event>
 7    1  0.6419647E-006  0.2654089E+03  0.7546771E-02  0.1105845E+00
         -2   -1    0    0    0  501 -0.00000000000E+00  0.00000000000E+00  0.17824645039E+03  0.17824645039E+03  0.00000000000E+00 0. -1.
          2   -1    0    0  501    0  0.00000000000E+00 -0.00000000000E+00 -0.60400949434E+03  0.60400949434E+03  0.00000000000E+00 0.  1.
         23    2    1    2    0    0  0.49965077432E+01 -0.23408289536E+03 -0.45614564019E+03  0.52774118128E+03  0.12498856896E+03 0.  0.
          5    1    3    3  502    0 -0.36279653418E+02 -0.20527495058E+03 -0.31447034058E+03  0.37731645033E+03  0.47000000000E+01 0. -1.
         -5    1    3    3    0  502  0.41276161162E+02 -0.28807944781E+02 -0.14167529961E+03  0.15042473095E+03  0.47000000000E+01 0. -1.
        -11    1    1    2    0    0 -0.19779880044E+02  0.99102198075E+02  0.57173857253E+02  0.11610916963E+03  0.00000000000E+00 0.  1.
         11    1    1    2    0    0  0.14783372300E+02  0.13498069728E+03 -0.26791261013E+02  0.13840559382E+03  0.00000000000E+00 0. -1.
<mgrwt>
<rscale>  0 0.26217166E+03</rscale>
<asrwt>0</asrwt>
<pdfrwt beam="2">  1        2 0.92924537E-01 0.26540895E+03</pdfrwt>
<pdfrwt beam="1">  1       -2 0.27422531E-01 0.26540895E+03</pdfrwt>
<totfact> 0.60572924E+02</totfact>
</mgrwt>
</event>
<event>
 7    1  0.6419647E-006  0.1466146E+03  0.7546771E-02  0.1214368E+00
          1   -1    0    0  501    0  0.00000000000E+00  0.00000000000E+00  0.13747716190E+03  0.13747716190E+03  0.00000000000E+00 0. -1.
         -1   -1    0    0    0  501 -0.00000000000E+00 -0.00000000000E+00 -0.23377120762E+03  0.23377120762E+03  0.00000000000E+00 0.  1.
         23    2    1    2    0    0  0.62908708716E+02 -0.43745520130E+02  0.73313726158E+02  0.16392296310E+03  0.12499863689E+03 0.  0.
          5    1    3    3  502    0  0.27127175230E+01  0.22852924537E+02  0.70144567475E+02  0.73972733778E+02  0.47000000000E+01 0.  1.
         -5    1    3    3    0  502  0.60195991193E+02 -0.66598444667E+02  0.31691586832E+01  0.89950229319E+02  0.47000000000E+01 0.  1.
        -11    1    1    2    0    0 -0.83243975393E+02  0.41678811758E+02 -0.15911813204E+03  0.18435092278E+03  0.00000000000E+00 0.  1.
         11    1    1    2    0    0  0.20335266677E+02  0.20667083726E+01 -0.10489639850E+02  0.22974483639E+02  0.00000000000E+00 0. -1.
<mgrwt>
<rscale>  0 0.13923037E+03</rscale>
<asrwt>0</asrwt>
<pdfrwt beam="1">  1        1 0.21150333E-01 0.14661458E+03</pdfrwt>
<pdfrwt beam="2">  1       -1 0.35964801E-01 0.14661458E+03</pdfrwt>
<totfact> 0.17354530E+03</totfact>
</mgrwt>
</event>
<event>
 7    1  0.6419647E-006  0.1354435E+03  0.7546771E-02  0.1226713E+00
          2   -1    0    0  501    0  0.00000000000E+00  0.00000000000E+00  0.20114941154E+04  0.20114941154E+04  0.00000000000E+00 0.  1.
         -2   -1    0    0    0  501 -0.00000000000E+00 -0.00000000000E+00 -0.36776972318E+02  0.36776972318E+02  0.00000000000E+00 0. -1.
         23    2    1    2    0    0  0.27107834101E+02  0.71236279129E+02  0.19100065695E+04  0.19148028709E+04  0.11196203173E+03 0.  0.
          5    1    3    3  502    0 -0.88096176045E+01 -0.25091669115E+02  0.21746360379E+03  0.21913400055E+03  0.47000000000E+01 0. -1.
         -5    1    3    3    0  502  0.35917451705E+02  0.96327948243E+02  0.16925429657E+04  0.16956688703E+04  0.47000000000E+01 0.  1.
        -11    1    1    2    0    0  0.20431809763E+02  0.94070201579E+01  0.72769537146E+01  0.23641170314E+02  0.00000000000E+00 0.  1.
         11    1    1    2    0    0 -0.47539643863E+02 -0.80643299286E+02  0.57433619817E+02  0.10982704650E+03  0.00000000000E+00 0. -1.
<mgrwt>
<rscale>  0 0.13050161E+03</rscale>
<asrwt>0</asrwt>
<pdfrwt beam="1">  1        2 0.30946055E+00 0.13544349E+03</pdfrwt>
<pdfrwt beam="2">  1       -2 0.56579973E-02 0.13544349E+03</pdfrwt>
<totfact> 0.12085611E+03</totfact>
</mgrwt>
</event>
<event>
 7    1  0.6419647E-006  0.2653116E+03  0.7546771E-02  0.1106041E+00
         -2   -1    0    0    0  501 -0.00000000000E+00  0.00000000000E+00  0.57614583116E+02  0.57614583116E+02  0.00000000000E+00 0.  1.
          2   -1    0    0  501    0  0.00000000000E+00 -0.00000000000E+00 -0.20983121140E+04  0.20983121140E+04  0.00000000000E+00 0. -1.
         23    2    1    2    0    0  0.21628914424E+03 -0.89363113877E+02 -0.17559357175E+04  0.17758661269E+04  0.12499398601E+03 0.  0.
          5    1    3    3  502    0  0.13245558409E+03 -0.76839590163E+02 -0.14593535382E+04  0.14673730418E+04  0.47000000000E+01 0. -1.
         -5    1    3    3    0  502  0.83833560150E+02 -0.12523523714E+02 -0.29658217938E+03  0.30849308514E+03  0.47000000000E+01 0. -1.
        -11    1    1    2    0    0 -0.72211225008E+02 -0.42336304397E-01 -0.13822908396E+03  0.15595429607E+03  0.00000000000E+00 0.  1.
         11    1    1    2    0    0 -0.14407791923E+03  0.89405450181E+02 -0.14653272941E+03  0.22410627416E+03  0.00000000000E+00 0. -1.
<mgrwt>
<rscale>  0 0.26184321E+03</rscale>
<asrwt>0</asrwt>
<pdfrwt beam="2">  1        2 0.32281723E+00 0.26531162E+03</pdfrwt>
<pdfrwt beam="1">  1       -2 0.88637825E-02 0.26531162E+03</pdfrwt>
<totfact> 0.53148642E+02</totfact>
</mgrwt>
</event>
<event>
 7    1  0.6419647E-006  0.1221072E+03  0.7546771E-02  0.1246694E+00
         -1   -1    0    0    0  501 -0.00000000000E+00  0.00000000000E+00  0.40621701519E+03  0.40621701519E+03  0.00000000000E+00 0.  1.
          1   -1    0    0  501    0  0.00000000000E+00 -0.00000000000E+00 -0.33859904254E+02  0.33859904254E+02  0.00000000000E+00 0. -1.
         23    2    1    2    0    0  0.25819056230E+02  0.41270870981E+02  0.14726666482E+03  0.19130508797E+03  0.11198329188E+03 0.  0.
          5    1    3    3  502    0  0.51664178723E+02  0.42712498273E+02  0.34552477013E+02  0.75561289955E+02  0.47000000000E+01 0. -1.
         -5    1    3    3    0  502 -0.25845122493E+02 -0.14416272918E+01  0.11271418781E+03  0.11574379801E+03  0.47000000000E+01 0.  1.
        -11    1    1    2    0    0 -0.29499546796E+02  0.22396710905E+02  0.48546235712E+02  0.61062041583E+02  0.00000000000E+00 0. -1.
         11    1    1    2    0    0  0.36804905657E+01 -0.63667581886E+02  0.17654421041E+03  0.18770978989E+03  0.00000000000E+00 0.  1.
<mgrwt>
<rscale>  0 0.11784559E+03</rscale>
<asrwt>0</asrwt>
<pdfrwt beam="2">  1        1 0.52092163E-02 0.12210719E+03</pdfrwt>
<pdfrwt beam="1">  1       -1 0.62494922E-01 0.12210719E+03</pdfrwt>
<totfact> 0.40169543E+03</totfact>
</mgrwt>
</event>
<event>
 7    1  0.6419647E-006  0.1932198E+03  0.7546771E-02  0.1160244E+00
          2   -1    0    0  501    0  0.00000000000E+00  0.00000000000E+00  0.23421859679E+03  0.23421859679E+03  0.00000000000E+00 0.  1.
         -2   -1    0    0    0  501 -0.00000000000E+00 -0.00000000000E+00 -0.16031955173E+03  0.16031955173E+03  0.00000000000E+00 0. -1.
         23    2    1    2    0    0  0.14695496345E+03  0.10718599659E+02  0.10275792951E+03  0.21884490037E+03  0.12499299453E+03 0.  0.
          5    1    3    3  502    0  0.16446838618E+03  0.28263465858E+02  0.81141104920E+02  0.18561961766E+03  0.47000000000E+01 0. -1.
         -5    1    3    3    0  502 -0.17513422731E+02 -0.17544866199E+02  0.21616824591E+02  0.33225282709E+02  0.47000000000E+01 0. -1.
        -11    1    1    2    0    0 -0.84214109415E+02 -0.47158911379E+02  0.27334193523E+01  0.96558017422E+02  0.00000000000E+00 0.  1.
         11    1    1    2    0    0 -0.62740854032E+02  0.36440311720E+02 -0.31592303801E+02  0.79135230728E+02  0.00000000000E+00 0. -1.
<mgrwt>
<rscale>  0 0.18803674E+03</rscale>
<asrwt>0</asrwt>
<pdfrwt beam="1">  1        2 0.36033630E-01 0.19321982E+03</pdfrwt>
<pdfrwt beam="2">  1       -2 0.24664546E-01 0.19321982E+03</pdfrwt>
<totfact> 0.20589555E+03</totfact>
</mgrwt>
</event>
<event>
 7    1  0.6419647E-006  0.1942110E+03  0.7546771E-02  0.1159347E+00
          2   -1    0    0  501    0  0.00000000000E+00  0.00000000000E+00  0.60083387314E+02  0.60083387314E+02  0.00000000000E+00 0. -1.
         -2   -1    0    0    0  501 -0.00000000000E+00 -0.00000000000E+00 -0.64570068729E+03  0.64570068729E+03  0.00000000000E+00 0.  1.
         23    2    1    2    0    0  0.12259440189E+03  0.84059021858E+02 -0.18204430719E+03  0.26619176140E+03  0.12499046975E+03 0.  0.
          5    1    3    3  502    0  0.44285786057E+02  0.52885467591E+02 -0.41250743211E+01  0.69261892605E+02  0.47000000000E+01 0. -1.
         -5    1    3    3    0  502  0.78308615831E+02  0.31173554267E+02 -0.17791923287E+03  0.19692986880E+03  0.47000000000E+01 0. -1.
        -11    1    1    2    0    0 -0.27125579538E+02 -0.53577008853E+02 -0.24301100171E+03  0.25032107362E+03  0.00000000000E+00 0.  1.
         11    1    1    2    0    0 -0.95468822351E+02 -0.30482013006E+02 -0.16056199107E+03  0.18927123959E+03  0.00000000000E+00 0. -1.
<mgrwt>
<rscale>  0 0.18902161E+03</rscale>
<asrwt>0</asrwt>
<pdfrwt beam="1">  1        2 0.92435983E-02 0.19421103E+03</pdfrwt>
<pdfrwt beam="2">  1       -2 0.99338564E-01 0.19421103E+03</pdfrwt>
<totfact> 0.61155067E+02</totfact>
</mgrwt>
</event>
<event>
 6    1  0.6419647E-006  0.4499179E+03  0.7546771E-02  0.1074341E+00
          1   -1    0    0  501    0  0.00000000000E+00  0.00000000000E+00  0.72712615177E+03  0.72712615177E+03  0.00000000000E+00 0. -1.
         -1   -1    0    0    0  501 -0.00000000000E+00 -0.00000000000E+00 -0.32419122397E+03  0.32419122397E+03  0.00000000000E+00 0.  1.
          5    1    1    2  502    0  0.14363861025E+03  0.83575785638E+02  0.64968925422E+03  0.67062297854E+03  0.47000000000E+01 0. -1.
         -5    1    1    2    0  502 -0.11208787986E+03 -0.14863463932E+02 -0.75847208284E+01  0.11342060378E+03  0.47000000000E+01 0.  1.
        -11    1    1    2    0    0 -0.28818653617E+02 -0.87884404765E+02 -0.22502991763E+03  0.24329539088E+03  0.00000000000E+00 0.  1.
         11    1    1    2    0    0 -0.27320767699E+01  0.19172083059E+02 -0.14139687967E+02  0.23978402535E+02  0.00000000000E+00 0. -1.
<mgrwt>
<rscale>  0 0.32285885E+03</rscale>
<asrwt>0</asrwt>
<pdfrwt beam="1">  1        1 0.11186556E+00 0.44991789E+03</pdfrwt>
<pdfrwt beam="2">  1       -1 0.49875573E-01 0.44991789E+03</pdfrwt>
<totfact> 0.10844982E+02</totfact>
</mgrwt>
</event>
<event>
 7    1  0.6419647E-006  0.1686169E+03  0.7546771E-02  0.1184655E+00
          1   -1    0    0  501    0  0.00000000000E+00  0.00000000000E+00  0.10683681410E+03  0.10683681410E+03  0.00000000000E+00 0. -1.
         -1   -1    0    0    0  501 -0.00000000000E+00 -0.00000000000E+00 -0.36266292927E+03  0.36266292927E+03  0.00000000000E+00 0.  1.
         23    2    1    2    0    0  0.91793290638E+02  0.75824671763E+02  0.51690674523E+01  0.16869606525E+03  0.11939955661E+03 0.  0.
          5    1    3    3  502    0  0.11109270867E+03  0.90552764848E+02 -0.16249472312E+00  0.14339982408E+03  0.47000000000E+01 0. -1.
         -5    1    3    3    0  502 -0.19299418029E+02 -0.14728093085E+02  0.53315621754E+01  0.25296241171E+02  0.47000000000E+01 0.  1.
        -11    1    1    2    0    0 -0.78705430683E+02 -0.93096569322E+02 -0.24569439995E+03  0.27427587244E+03  0.00000000000E+00 0.  1.
         11    1    1    2    0    0 -0.13087859955E+02  0.17271897558E+02 -0.15300782671E+02  0.26527805673E+02  0.00000000000E+00 0. -1.
<mgrwt>
<rscale>  0 0.16363278E+03</rscale>
<asrwt>0</asrwt>
<pdfrwt beam="1">  1        1 0.16436433E-01 0.16861685E+03</pdfrwt>
<pdfrwt beam="2">  1       -1 0.55794296E-01 0.16861685E+03</pdfrwt>
<totfact> 0.10935977E+03</totfact>
</mgrwt>
</event>
<event>
 7    1  0.6419647E-006  0.1391063E+03  0.7546771E-02  0.1225833E+00
          1   -1    0    0  501    0  0.00000000000E+00  0.00000000000E+00  0.79696062396E+03  0.79696062396E+03  0.00000000000E+00 0. -1.
         -1   -1    0    0    0  501 -0.00000000000E+00 -0.00000000000E+00 -0.21809329758E+02  0.21809329758E+02  0.00000000000E+00 0.  1.
         23    2    1    2    0    0 -0.37796743505E+02 -0.47928010596E+02  0.56282429148E+03  0.57976006989E+03  0.12499947018E+03 0.  0.
          5    1    3    3  502    0 -0.83886405411E+02 -0.27662907381E+02  0.34829493511E+03  0.35935166242E+03  0.47000000000E+01 0.  1.
         -5    1    3    3    0  502  0.46089661906E+02 -0.20265103215E+02  0.21452935637E+03  0.22040840748E+03  0.47000000000E+01 0.  1.
        -11    1    1    2    0    0 -0.22991733180E+02  0.32270957359E+02  0.43251508260E+02  0.58657714329E+02  0.00000000000E+00 0.  1.
         11    1    1    2    0    0  0.60788476685E+02  0.15657053237E+02  0.16907549446E+03  0.18035216950E+03  0.00000000000E+00 0. -1.
<mgrwt>
<rscale>  0 0.13109971E+03</rscale>
<asrwt>0</asrwt>
<pdfrwt beam="1">  1        1 0.12260930E+00 0.13910627E+03</pdfrwt>
<pdfrwt beam="2">  1       -1 0.33552821E-02 0.13910627E+03</pdfrwt>
<totfact> 0.71618849E+03</totfact>
</mgrwt>
</event>
<event>
 7    1  0.6419647E-006  0.1265337E+03  0.7546771E-02  0.1246865E+00
         -2   -1    0    0    0  501 -0.00000000000E+00  0.00000000000E+00  0.13436953952E+03  0.13436953952E+03  0.00000000000E+00 0.  1.
          2   -1    0    0  501    0  0.00000000000E+00 -0.00000000000E+00 -0.17083471820E+03  0.17083471820E+03  0.00000000000E+00 0. -1.
         23    2    1    2    0    0  0.81163675190E+01 -0.17871807062E+02 -0.12324002270E+03  0.17663201704E+03  0.12500195735E+03 0.  0.
          5    1    3    3  502    0 -0.43192723934E+02  0.26869300080E+02 -0.82858176840E+02  0.97340321332E+02  0.47000000000E+01 0.  1.
         -5    1    3    3    0  502  0.51309091453E+02 -0.44741107143E+02 -0.40381845855E+02  0.79291695711E+02  0.47000000000E+01 0.  1.
        -11    1    1    2    0    0 -0.25164513274E+02  0.38866288627E+02  0.90122975846E+02  0.10132123122E+03  0.00000000000E+00 0.  1.
         11    1    1    2    0    0  0.17048145755E+02 -0.20994481565E+02 -0.33481318347E+01  0.27251009462E+02  0.00000000000E+00 0. -1.
<mgrwt>
<rscale>  0 0.11774448E+03</rscale>
<asrwt>0</asrwt>
<pdfrwt beam="2">  1        2 0.26282264E-01 0.12653366E+03</pdfrwt>
<pdfrwt beam="1">  1       -2 0.20672237E-01 0.12653366E+03</pdfrwt>
<totfact> 0.38597196E+03</totfact>
</mgrwt>
</event>
<event>
 7    1  0.6419647E-006  0.1283808E+03  0.7546771E-02  0.1244504E+00
         -1   -1    0    0    0  501 -0.00000000000E+00  0.00000000000E+00  0.39649488210E+02  0.39649488210E+02  0.00000000000E+00 0.  1.
          1   -1    0    0  501    0  0.00000000000E+00 -0.00000000000E+00 -0.31713486567E+03  0.31713486567E+03  0.00000000000E+00 0. -1.
         23    2    1    2    0    0 -0.66899681237E+01  0.28522737717E+02 -0.14592898269E+03  0.19436282761E+03  0.12499335393E+03 0.  0.
          5    1    3    3  502    0  0.43320321706E+02  0.43730645913E+02 -0.12190065661E+03  0.13664142764E+03  0.47000000000E+01 0. -1.
         -5    1    3    3    0  502 -0.50010289829E+02 -0.15207908196E+02 -0.24028326084E+02  0.57721399974E+02  0.47000000000E+01 0. -1.
        -11    1    1    2    0    0 -0.99486854404E+01 -0.25995983555E+02 -0.14059133035E+03  0.14332023469E+03  0.00000000000E+00 0. -1.
         11    1    1    2    0    0  0.16638653564E+02 -0.25267541613E+01  0.90349355816E+01  0.19101291579E+02  0.00000000000E+00 0.  1.
<mgrwt>
<rscale>  0 0.11915109E+03</rscale>
<asrwt>0</asrwt>
<pdfrwt beam="2">  1        1 0.48789976E-01 0.12838084E+03</pdfrwt>
<pdfrwt beam="1">  1       -1 0.60999216E-02 0.12838084E+03</pdfrwt>
<totfact> 0.10024175E+04</totfact>
</mgrwt>
</event>
<event>
 7    1  0.6419647E-006  0.1964040E+03  0.7546771E-02  0.1159676E+00
          2   -1    0    0  501    0  0.00000000000E+00  0.00000000000E+00  0.59224579372E+03  0.59224579372E+03  0.00000000000E+00 0. -1.
         -2   -1    0    0    0  501 -0.00000000000E+00 -0.00000000000E+00 -0.85742589621E+02  0.85742589621E+02  0.00000000000E+00 0.  1.
         23    2    1    2    0    0  0.13767711350E+03 -0.63174970057E+02  0.46635602734E+03  0.50602614722E+03  0.12501381127E+03 0.  0.
          5    1    3    3  502    0  0.82759452450E+02 -0.79341758879E+02  0.17640404682E+03  0.21043934852E+03  0.47000000000E+01 0. -1.
         -5    1    3    3    0  502  0.54917661045E+02  0.16166788822E+02  0.28995198052E+03  0.29558679870E+03  0.47000000000E+01 0. -1.
        -11    1    1    2    0    0 -0.62785025385E+02 -0.72855971601E+01  0.54602499401E+01  0.63441734434E+02  0.00000000000E+00 0. -1.
         11    1    1    2    0    0 -0.74892088110E+02  0.70460567217E+02  0.34686926813E+02  0.10852050168E+03  0.00000000000E+00 0.  1.
<mgrwt>
<rscale>  0 0.18865934E+03</rscale>
<asrwt>0</asrwt>
<pdfrwt beam="1">  1        2 0.91114735E-01 0.19640396E+03</pdfrwt>
<pdfrwt beam="2">  1       -2 0.13191168E-01 0.19640396E+03</pdfrwt>
<totfact> 0.21518119E+03</totfact>
</mgrwt>
</event>
<event>
 7    1  0.6419647E-006  0.1601960E+03  0.7546771E-02  0.1198005E+00
         -1   -1    0    0    0  501 -0.00000000000E+00  0.00000000000E+00  0.91676693555E+02  0.91676693555E+02  0.00000000000E+00 0. -1.
          1   -1    0    0  501    0  0.00000000000E+00 -0.00000000000E+00 -0.25205349241E+03  0.25205349241E+03  0.00000000000E+00 0.  1.
         23    2    1    2    0    0  0.35245884050E+02  0.93792079389E+02 -0.13891286364E+03  0.21203661605E+03  0.12499406530E+03 0.  0.
          5    1    3    3  502    0 -0.38487183838E+02 -0.71133937899E+00 -0.22270172492E+02  0.44719345996E+02  0.47000000000E+01 0. -1.
         -5    1    3    3    0  502  0.73733067887E+02  0.94503418768E+02 -0.11664269115E+03  0.16731727005E+03  0.47000000000E+01 0. -1.
        -11    1    1    2    0    0  0.25442408738E+02 -0.26971073694E+02  0.55047477688E+01  0.37484092981E+02  0.00000000000E+00 0.  1.
         11    1    1    2    0    0 -0.60688292788E+02 -0.66821005695E+02 -0.26968682987E+02  0.94209476941E+02  0.00000000000E+00 0. -1.
<mgrwt>
<rscale>  0 0.15202613E+03</rscale>
<asrwt>0</asrwt>
<pdfrwt beam="2">  1        1 0.38777461E-01 0.16019595E+03</pdfrwt>
<pdfrwt beam="1">  1       -1 0.14104107E-01 0.16019595E+03</pdfrwt>
<totfact> 0.37662858E+03</totfact>
</mgrwt>
</event>
<event>
 7    1  0.6419647E-006  0.1481800E+03  0.7546771E-02  0.1213158E+00
         -1   -1    0    0    0  501 -0.00000000000E+00  0.00000000000E+00  0.72908540829E+02  0.72908540829E+02  0.00000000000E+00 0.  1.
          1   -1    0    0  501    0  0.00000000000E+00 -0.00000000000E+00 -0.33024797535E+03  0.33024797535E+03  0.00000000000E+00 0. -1.
         23    2    1    2    0    0 -0.63392837290E+02  0.48106740705E+02 -0.24186725741E+03  0.28364957867E+03  0.12499761178E+03 0.  0.
          5    1    3    3  502    0  0.49505266979E+01  0.55713164057E+02 -0.36325079777E+02  0.66858550573E+02  0.47000000000E+01 0.  1.
         -5    1    3    3    0  502 -0.68343363988E+02 -0.76064233529E+01 -0.20554217764E+03  0.21679102810E+03  0.47000000000E+01 0.  1.
        -11    1    1    2    0    0 -0.14633660321E+02 -0.10226515578E+02  0.19091538475E+02  0.26138333470E+02  0.00000000000E+00 0.  1.
         11    1    1    2    0    0  0.78026497610E+02 -0.37880225126E+02 -0.34563715586E+02  0.93368604038E+02  0.00000000000E+00 0. -1.
<mgrwt>
<rscale>  0 0.14012732E+03</rscale>
<asrwt>0</asrwt>
<pdfrwt beam="2">  1        1 0.50807381E-01 0.14818000E+03</pdfrwt>
<pdfrwt beam="1">  1       -1 0.11216699E-01 0.14818000E+03</pdfrwt>
<totfact> 0.38276307E+03</totfact>
</mgrwt>
</event>
<event>
 7    1  0.6419647E-006  0.1628672E+03  0.7546771E-02  0.1190193E+00
          2   -1    0    0  501    0  0.00000000000E+00  0.00000000000E+00  0.81287113907E+02  0.81287113907E+02  0.00000000000E+00 0. -1.
         -2   -1    0    0    0  501 -0.00000000000E+00 -0.00000000000E+00 -0.31821239569E+03  0.31821239569E+03  0.00000000000E+00 0.  1.
         23    2    1    2    0    0  0.18265455148E+02 -0.10278970975E+03 -0.70115036825E+02  0.17731846698E+03  0.12500547613E+03 0.  0.
          5    1    3    3  502    0 -0.52052677428E+00  0.20537083935E+02 -0.45406560821E+02  0.50058850669E+02  0.47000000000E+01 0. -1.
         -5    1    3    3    0  502  0.18785981922E+02 -0.12332679369E+03 -0.24708476003E+02  0.12725961631E+03  0.47000000000E+01 0. -1.
        -11    1    1    2    0    0 -0.13144798995E+02  0.21861738932E+02 -0.13113058705E+03  0.13358874290E+03  0.00000000000E+00 0.  1.
         11    1    1    2    0    0 -0.51206561528E+01  0.80927970820E+02 -0.35679657913E+02  0.88592299718E+02  0.00000000000E+00 0. -1.
<mgrwt>
<rscale>  0 0.15868204E+03</rscale>
<asrwt>0</asrwt>
<pdfrwt beam="1">  1        2 0.12505710E-01 0.16286719E+03</pdfrwt>
<pdfrwt beam="2">  1       -2 0.48955754E-01 0.16286719E+03</pdfrwt>
<totfact> 0.19016506E+03</totfact>
</mgrwt>
</event>
<event>
 7    1  0.6419647E-006  0.1253202E+03  0.7546771E-02  0.1248671E+00
          2   -1    0    0  501    0  0.00000000000E+00  0.00000000000E+00  0.45684665386E+03  0.45684665386E+03  0.00000000000E+00 0. -1.
         -2   -1    0    0    0  501 -0.00000000000E+00 -0.00000000000E+00 -0.36704319284E+02  0.36704319284E+02  0.00000000000E+00 0.  1.
         23    2    1    2    0    0 -0.70241878104E+01  0.55542925385E+01  0.36149245527E+03  0.38259895478E+03  0.12499990242E+03 0.  0.
          5    1    3    3  502    0 -0.18304349227E+00 -0.42052488724E+02  0.42522744660E+02  0.59989325102E+02  0.47000000000E+01 0. -1.
         -5    1    3    3    0  502 -0.68411443182E+01  0.47606781262E+02  0.31896971061E+03  0.32260962968E+03  0.47000000000E+01 0. -1.
        -11    1    1    2    0    0 -0.41497676340E+02 -0.41451016162E+01  0.43114920351E+02  0.59984459370E+02  0.00000000000E+00 0. -1.
         11    1    1    2    0    0  0.48521864151E+02 -0.14091909223E+01  0.15534958958E+02  0.50967558992E+02  0.00000000000E+00 0.  1.
<mgrwt>
<rscale>  0 0.11668357E+03</rscale>
<asrwt>0</asrwt>
<pdfrwt beam="1">  1        2 0.70284097E-01 0.12532025E+03</pdfrwt>
<pdfrwt beam="2">  1       -2 0.56468186E-02 0.12532025E+03</pdfrwt>
<totfact> 0.10574250E+04</totfact>
</mgrwt>
</event>
<event>
 7    1  0.6419647E-006  0.2023262E+03  0.7546771E-02  0.1152170E+00
          3   -1    0    0  501    0  0.00000000000E+00  0.00000000000E+00  0.15430353783E+03  0.15430353783E+03  0.00000000000E+00 0. -1.
         -3   -1    0    0    0  501 -0.00000000000E+00 -0.00000000000E+00 -0.26658444037E+03  0.26658444037E+03  0.00000000000E+00 0.  1.
         23    2    1    2    0    0 -0.98756916012E+02 -0.12473343928E+03  0.78785643556E+01  0.20247955892E+03  0.12499816267E+03 0.  0.
          5    1    3    3  502    0 -0.63822636684E+01  0.12374587124E+02  0.32120579086E+02  0.35322589045E+02  0.47000000000E+01 0. -1.
         -5    1    3    3    0  502 -0.92374652344E+02 -0.13710802641E+03 -0.24242014730E+02  0.16715696988E+03  0.47000000000E+01 0. -1.
        -11    1    1    2    0    0  0.65817924674E+02  0.10315819378E+03 -0.12926079182E+03  0.17799428209E+03  0.00000000000E+00 0.  1.
         11    1    1    2    0    0  0.32938991338E+02  0.21575245499E+02  0.91013249272E+01  0.40414137182E+02  0.00000000000E+00 0. -1.
<mgrwt>
<rscale>  0 0.19714503E+03</rscale>
<asrwt>0</asrwt>
<pdfrwt beam="1">  1        3 0.23739006E-01 0.20232622E+03</pdfrwt>
<pdfrwt beam="2">  1       -3 0.41012991E-01 0.20232622E+03</pdfrwt>
<totfact> 0.23869623E+02</totfact>
</mgrwt>
</event>
<event>
 7    1  0.6419647E-006  0.1335904E+03  0.7546771E-02  0.1234292E+00
         -2   -1    0    0    0  501 -0.00000000000E+00  0.00000000000E+00  0.94270043172E+02  0.94270043172E+02  0.00000000000E+00 0.  1.
          2   -1    0    0  501    0  0.00000000000E+00 -0.00000000000E+00 -0.14995942188E+03  0.14995942188E+03  0.00000000000E+00 0. -1.
         23    2    1    2    0    0  0.23417879239E+02 -0.40867813580E+02 -0.35719489277E+02  0.13828329786E+03  0.12501125269E+03 0.  0.
          5    1    3    3  502    0  0.53201017639E+02 -0.23962447079E+02 -0.68871672470E+02  0.90387744836E+02  0.47000000000E+01 0. -1.
         -5    1    3    3    0  502 -0.29783138400E+02 -0.16905366501E+02  0.33152183192E+02  0.47895553028E+02  0.47000000000E+01 0. -1.
        -11    1    1    2    0    0 -0.22103993500E+02  0.13560101087E+02 -0.55415014770E+02  0.61182405413E+02  0.00000000000E+00 0. -1.
         11    1    1    2    0    0 -0.13138857386E+01  0.27307712493E+02  0.35445125343E+02  0.44763761771E+02  0.00000000000E+00 0.  1.
<mgrwt>
<rscale>  0 0.12549859E+03</rscale>
<asrwt>0</asrwt>
<pdfrwt beam="2">  1        2 0.23070680E-01 0.13359038E+03</pdfrwt>
<pdfrwt beam="1">  1       -2 0.14503084E-01 0.13359038E+03</pdfrwt>
<totfact> 0.80570533E+03</totfact>
</mgrwt>
</event>
<event>
 7    1  0.6419647E-006  0.1442087E+03  0.7546771E-02  0.1216720E+00
          1   -1    0    0  501    0  0.00000000000E+00  0.00000000000E+00  0.42659072194E+03  0.42659072194E+03  0.00000000000E+00 0. -1.
         -1   -1    0    0    0  501 -0.00000000000E+00 -0.00000000000E+00 -0.43230804542E+02  0.43230804542E+02  0.00000000000E+00 0.  1.
         23    2    1    2    0    0  0.55771853513E+02  0.45501398403E+02  0.26573065768E+03  0.30233912379E+03  0.12496113972E+03 0.  0.
          5    1    3    3  502    0 -0.35033854856E+02  0.36131320563E+02  0.12133518290E+03  0.13144261075E+03  0.47000000000E+01 0.  1.
         -5    1    3    3    0  502  0.90805708369E+02  0.93700778392E+01  0.14439547477E+03  0.17089651303E+03  0.47000000000E+01 0.  1.
        -11    1    1    2    0    0 -0.21690046741E+02  0.29159303431E+02  0.27421096908E+02  0.45526252425E+02  0.00000000000E+00 0.  1.
         11    1    1    2    0    0 -0.34081806772E+02 -0.74660701833E+02  0.90208162815E+02  0.12195615027E+03  0.00000000000E+00 0. -1.
<mgrwt>
<rscale>  0 0.13750932E+03</rscale>
<asrwt>0</asrwt>
<pdfrwt beam="1">  1        1 0.65629339E-01 0.14420875E+03</pdfrwt>
<pdfrwt beam="2">  1       -1 0.66508933E-02 0.14420875E+03</pdfrwt>
<totfact> 0.61235728E+03</totfact>
</mgrwt>
</event>
<event>
 7    1  0.6419647E-006  0.1264469E+03  0.7546771E-02  0.1248101E+00
         -2   -1    0    0    0  501 -0.00000000000E+00  0.00000000000E+00  0.65454266513E+02  0.65454266513E+02  0.00000000000E+00 0.  1.
          2   -1    0    0  501    0  0.00000000000E+00 -0.00000000000E+00 -0.18363993661E+03  0.18363993661E+03  0.00000000000E+00 0. -1.
         23    2    1    2    0    0  0.32867676515E+01  0.18792235967E+02 -0.64748636889E+02  0.14206059158E+03  0.12499949891E+03 0.  0.
          5    1    3    3  502    0  0.37969758070E+02 -0.16280265261E+02 -0.80048760289E+02  0.90203345773E+02  0.47000000000E+01 0. -1.
         -5    1    3    3    0  502 -0.34682990418E+02  0.35072501228E+02  0.15300123400E+02  0.51857245808E+02  0.47000000000E+01 0. -1.
        -11    1    1    2    0    0 -0.15807704092E+02 -0.47144655236E+02 -0.57223401181E+02  0.75809100170E+02  0.00000000000E+00 0. -1.
         11    1    1    2    0    0  0.12520936440E+02  0.28352419269E+02  0.37863679766E+01  0.31224511368E+02  0.00000000000E+00 0.  1.
<mgrwt>
<rscale>  0 0.11701669E+03</rscale>
<asrwt>0</asrwt>
<pdfrwt beam="2">  1        2 0.28252297E-01 0.12644693E+03</pdfrwt>
<pdfrwt beam="1">  1       -2 0.10069887E-01 0.12644693E+03</pdfrwt>
<totfact> 0.11495777E+04</totfact>
</mgrwt>
</event>
<event>
 7    1  0.6419647E-006  0.1414896E+03  0.7546771E-02  0.1222085E+00
          1   -1    0    0  501    0  0.00000000000E+00  0.00000000000E+00  0.12290797461E+03  0.12290797461E+03  0.00000000000E+00 0. -1.
         -1   -1    0    0    0  501 -0.00000000000E+00 -0.00000000000E+00 -0.19652747536E+03  0.19652747536E+03  0.00000000000E+00 0.  1.
         23    2    1    2    0    0 -0.19806028881E+01 -0.66256007801E+02  0.51892162731E+02  0.15070530639E+03  0.12500204584E+03 0.  0.
          5    1    3    3  502    0 -0.45075977376E+02 -0.12314330402E+02 -0.19885909673E+02  0.51000253658E+02  0.47000000000E+01 0.  1.
         -5    1    3    3    0  502  0.43095374488E+02 -0.53941677398E+02  0.71778072404E+02  0.99705052735E+02  0.47000000000E+01 0.  1.
        -11    1    1    2    0    0 -0.12908332783E+02 -0.20711717172E+02 -0.23933503147E+02  0.34182054595E+02  0.00000000000E+00 0.  1.
         11    1    1    2    0    0  0.14888935671E+02  0.86967724972E+02 -0.10157816033E+03  0.13454808898E+03  0.00000000000E+00 0. -1.
<mgrwt>
<rscale>  0 0.13368726E+03</rscale>
<asrwt>0</asrwt>
<pdfrwt beam="1">  1        1 0.18908919E-01 0.14148955E+03</pdfrwt>
<pdfrwt beam="2">  1       -1 0.30234996E-01 0.14148955E+03</pdfrwt>
<totfact> 0.26864686E+03</totfact>
</mgrwt>
</event>
<event>
 7    1  0.6419647E-006  0.1287711E+03  0.7546771E-02  0.1244221E+00
         -1   -1    0    0    0  501 -0.00000000000E+00  0.00000000000E+00  0.63339496655E+03  0.63339496655E+03  0.00000000000E+00 0.  1.
          1   -1    0    0  501    0  0.00000000000E+00 -0.00000000000E+00 -0.20063246550E+02  0.20063246550E+02  0.00000000000E+00 0. -1.
         23    2    1    2    0    0  0.45326316206E+01 -0.30633686805E+02  0.39256791155E+03  0.41314834612E+03  0.12499209258E+03 0.  0.
          5    1    3    3  502    0 -0.56961565515E+02 -0.32855273077E+02  0.22996348585E+03  0.23922663676E+03  0.47000000000E+01 0. -1.
         -5    1    3    3    0  502  0.61494197135E+02  0.22215862725E+01  0.16260442571E+03  0.17392170936E+03  0.47000000000E+01 0. -1.
        -11    1    1    2    0    0  0.25038109627E+02  0.26235194782E+02  0.20151663151E+03  0.20475386481E+03  0.00000000000E+00 0.  1.
         11    1    1    2    0    0 -0.29570741247E+02  0.43984920227E+01  0.19247176929E+02  0.35556002162E+02  0.00000000000E+00 0. -1.
<mgrwt>
<rscale>  0 0.11932115E+03</rscale>
<asrwt>0</asrwt>
<pdfrwt beam="2">  1        1 0.30866538E-02 0.12877108E+03</pdfrwt>
<pdfrwt beam="1">  1       -1 0.97445364E-01 0.12877108E+03</pdfrwt>
<totfact> 0.33501534E+03</totfact>
</mgrwt>
</event>
<event>
 7    1  0.6419647E-006  0.1930987E+03  0.7546771E-02  0.1160460E+00
          2   -1    0    0  501    0  0.00000000000E+00  0.00000000000E+00  0.16335967703E+04  0.16335967703E+04  0.00000000000E+00 0. -1.
         -2   -1    0    0    0  501 -0.00000000000E+00 -0.00000000000E+00 -0.24783472278E+02  0.24783472278E+02  0.00000000000E+00 0.  1.
         23    2    1    2    0    0 -0.42154138193E+02  0.14101929425E+03  0.11862660524E+04  0.12018794751E+04  0.12499485161E+03 0.  0.
          5    1    3    3  502    0 -0.41521442548E+02  0.52801886045E+01  0.12383422399E+03  0.13080105357E+03  0.47000000000E+01 0.  1.
         -5    1    3    3    0  502 -0.63269564497E+00  0.13573910564E+03  0.10624318284E+04  0.10710784215E+04  0.47000000000E+01 0.  1.
        -11    1    1    2    0    0 -0.73521751131E+01 -0.51398304694E+02  0.25432210296E+03  0.25956804937E+03  0.00000000000E+00 0.  1.
         11    1    1    2    0    0  0.49506313306E+02 -0.89620989555E+02  0.16822514267E+03  0.19693271809E+03  0.00000000000E+00 0. -1.
<mgrwt>
<rscale>  0 0.18780051E+03</rscale>
<asrwt>0</asrwt>
<pdfrwt beam="1">  1        2 0.25132250E+00 0.19309875E+03</pdfrwt>
<pdfrwt beam="2">  1       -2 0.38128432E-02 0.19309875E+03</pdfrwt>
<totfact> 0.34154913E+03</totfact>
</mgrwt>
</event>
<event>
 7    1  0.6419647E-006  0.1496787E+03  0.7546771E-02  0.1210259E+00
          1   -1    0    0  501    0  0.00000000000E+00  0.00000000000E+00  0.12162847093E+04  0.12162847093E+04  0.00000000000E+00 0. -1.
         -1   -1    0    0    0  501 -0.00000000000E+00 -0.00000000000E+00 -0.35474485965E+02  0.35474485965E+02  0.00000000000E+00 0.  1.
         23    2    1    2    0    0 -0.50439842477E+01  0.82177354467E+02  0.10879643360E+04  0.10982122400E+04  0.12500067335E+03 0.  0.
          5    1    3    3  502    0  0.17680086450E+02 -0.22904453705E+02  0.47267166435E+03  0.47357976280E+03  0.47000000000E+01 0.  1.
         -5    1    3    3    0  502 -0.22724070698E+02  0.10508180817E+03  0.61529267167E+03  0.62463247723E+03  0.47000000000E+01 0.  1.
        -11    1    1    2    0    0 -0.13131154193E+02 -0.59137645488E+00  0.63674186826E+02  0.65016759413E+02  0.00000000000E+00 0. -1.
         11    1    1    2    0    0  0.18175138441E+02 -0.81585978012E+02  0.29171700512E+02  0.88530195845E+02  0.00000000000E+00 0.  1.
<mgrwt>
<rscale>  0 0.14230598E+03</rscale>
<asrwt>0</asrwt>
<pdfrwt beam="1">  1        1 0.18712069E+00 0.14967875E+03</pdfrwt>
<pdfrwt beam="2">  1       -1 0.54576142E-02 0.14967875E+03</pdfrwt>
<totfact> 0.17177446E+03</totfact>
</mgrwt>
</event>
<event>
 7    1  0.6419647E-006  0.1354587E+03  0.7546771E-02  0.1231947E+00
         -1   -1    0    0    0  501 -0.00000000000E+00  0.00000000000E+00  0.87483990072E+02  0.87483990072E+02  0.00000000000E+00 0.  1.
          1   -1    0    0  501    0  0.00000000000E+00 -0.00000000000E+00 -0.17383431936E+03  0.17383431936E+03  0.00000000000E+00 0. -1.
         23    2    1    2    0    0 -0.50949736848E+02  0.11289128117E+02 -0.77875131824E+02  0.15624850528E+03  0.12500295655E+03 0.  0.
          5    1    3    3  502    0 -0.22669909367E+02  0.65671795864E+02 -0.21605001698E+02  0.72907994494E+02  0.47000000000E+01 0. -1.
         -5    1    3    3    0  502 -0.28279827481E+02 -0.54382667746E+02 -0.56270130125E+02  0.83340510785E+02  0.47000000000E+01 0. -1.
        -11    1    1    2    0    0 -0.66928747446E+01  0.29801433235E+02  0.95864042879E+01  0.32012796541E+02  0.00000000000E+00 0.  1.
         11    1    1    2    0    0  0.57642611593E+02 -0.41090561352E+02 -0.18061601752E+02  0.73057007613E+02  0.00000000000E+00 0. -1.
<mgrwt>
<rscale>  0 0.12701947E+03</rscale>
<asrwt>0</asrwt>
<pdfrwt beam="2">  1        1 0.26743741E-01 0.13545870E+03</pdfrwt>
<pdfrwt beam="1">  1       -1 0.13459075E-01 0.13545870E+03</pdfrwt>
<totfact> 0.63723426E+03</totfact>
</mgrwt>
</event>
<event>
 7    1  0.6419647E-006  0.1322222E+03  0.7546771E-02  0.1256481E+00
          2   -1    0    0  501    0  0.00000000000E+00  0.00000000000E+00  0.17524451345E+03  0.17524451345E+03  0.00000000000E+00 0. -1.
         -2   -1    0    0    0  501 -0.00000000000E+00 -0.00000000000E+00 -0.64763136000E+02  0.64763136000E+02  0.00000000000E+00 0.  1.
         23    2    1    2    0    0  0.45886392954E+02 -0.47684348068E+02  0.10897138639E+03  0.17134021276E+03  0.11446985345E+03 0.  0.
          5    1    3    3  502    0 -0.32787736500E+02  0.34800942124E+01  0.51061761152E+02  0.60963433077E+02  0.47000000000E+01 0. -1.
         -5    1    3    3    0  502  0.78674129454E+02 -0.51164442280E+02  0.57909625236E+02  0.11037677969E+03  0.47000000000E+01 0.  1.
        -11    1    1    2    0    0 -0.98945732223E+01  0.15208597378E+01 -0.11137131195E+01  0.10072534463E+02  0.00000000000E+00 0.  1.
         11    1    1    2    0    0 -0.35991819732E+02  0.46163488330E+02  0.26237041764E+01  0.58594902219E+02  0.00000000000E+00 0. -1.
<mgrwt>
<rscale>  0 0.11223794E+03</rscale>
<asrwt>0</asrwt>
<pdfrwt beam="1">  1        2 0.26960694E-01 0.13222218E+03</pdfrwt>
<pdfrwt beam="2">  1       -2 0.99635595E-02 0.13222218E+03</pdfrwt>
<totfact> 0.12347547E+04</totfact>
</mgrwt>
</event>
<event>
 7    1  0.6419647E-006  0.1305414E+03  0.7546771E-02  0.1238077E+00
         -2   -1    0    0    0  501 -0.00000000000E+00  0.00000000000E+00  0.38727048736E+03  0.38727048736E+03  0.00000000000E+00 0.  1.
          2   -1    0    0  501    0  0.00000000000E+00 -0.00000000000E+00 -0.36871873180E+02  0.36871873180E+02  0.00000000000E+00 0. -1.
         23    2    1    2    0    0 -0.12108013209E+02 -0.35418357623E+02  0.15090831634E+03  0.19953540765E+03  0.12505996532E+03 0.  0.
          5    1    3    3  502    0 -0.13959363914E+01  0.15721666372E+02 -0.16972362897E+02  0.23648901332E+02  0.47000000000E+01 0.  1.
         -5    1    3    3    0  502 -0.10712076818E+02 -0.51140023994E+02  0.16788067924E+03  0.17588650632E+03  0.47000000000E+01 0.  1.
        -11    1    1    2    0    0 -0.18964164666E+02  0.31665349814E+01 -0.92489793928E+00  0.19248945983E+02  0.00000000000E+00 0. -1.
         11    1    1    2    0    0  0.31072177875E+02  0.32251822641E+02  0.20041519578E+03  0.20535800691E+03  0.00000000000E+00 0.  1.
<mgrwt>
<rscale>  0 0.12309478E+03</rscale>
<asrwt>0</asrwt>
<pdfrwt beam="2">  1        2 0.56725961E-02 0.13054141E+03</pdfrwt>
<pdfrwt beam="1">  1       -2 0.59580072E-01 0.13054141E+03</pdfrwt>
<totfact> 0.33976616E+03</totfact>
</mgrwt>
</event>
