<event>
 7    1  0.7017065E-006  0.1918036E+03  0.7561462E-02  0.1156845E+00
          1   -1    0    0  501    0  0.00000000000E+00  0.00000000000E+00  0.50675841478E+03  0.50675841478E+03  0.00000000000E+00 0. -1.
         -1   -1    0    0    0  501 -0.00000000000E+00 -0.00000000000E+00 -0.94729056027E+02  0.94729056027E+02  0.00000000000E+00 0.  1.
         23    2    1    2    0    0  0.15756744629E+03  0.44131392274E+02  0.86964577517E+02  0.22357306799E+03  0.12508796535E+03 0.  0.
          5    1    3    3  502    0  0.17012807811E+03  0.11886803803E+02  0.66119308285E+02  0.18295926976E+03  0.41800000000E+01 0. -1.
         -5    1    3    3    0  502 -0.12560631814E+02  0.32244588471E+02  0.20845269232E+02  0.40613798229E+02  0.41800000000E+01 0. -1.
        -11    1    1    2    0    0 -0.59823309046E+02 -0.53115712780E+02  0.22018264622E+03  0.23426588515E+03  0.00000000000E+00 0. -1.
         11    1    1    2    0    0 -0.97744137246E+02  0.89843205066E+01  0.10488213501E+03  0.14364851766E+03  0.00000000000E+00 0.  1.
</event>
<event>
 7    1  0.8386304E-006  0.2038869E+03  0.7561462E-02  0.1146500E+00
          2   -1    0    0  501    0  0.00000000000E+00  0.00000000000E+00  0.38253269974E+03  0.38253269974E+03  0.00000000000E+00 0.  1.
         -2   -1    0    0    0  501 -0.00000000000E+00 -0.00000000000E+00 -0.11872661996E+03  0.11872661996E+03  0.00000000000E+00 0. -1.
         23    2    1    2    0    0  0.16079997496E+03  0.77318913774E+02  0.88072131713E+02  0.23503017104E+03  0.12509050539E+03 0.  0.
          5    1    3    3  502    0  0.16073158724E+03  0.10121407419E+03  0.90884496583E+02  0.21060958209E+03  0.41800000000E+01 0. -1.
         -5    1    3    3    0  502  0.68387726528E-01 -0.23895160418E+02 -0.28123648699E+01  0.24420588946E+02  0.41800000000E+01 0. -1.
        -11    1    1    2    0    0 -0.97643428691E+02 -0.53728149867E+01  0.12230912909E+03  0.15659702860E+03  0.00000000000E+00 0.  1.
         11    1    1    2    0    0 -0.63156546272E+02 -0.71946098787E+02  0.53424818971E+02  0.10963212006E+03  0.00000000000E+00 0. -1.
</event>
<event>
 7    1  0.7017065E-006  0.1516246E+03  0.7561462E-02  0.1198491E+00
          2   -1    0    0  501    0  0.00000000000E+00  0.00000000000E+00  0.18241207052E+03  0.18241207052E+03  0.00000000000E+00 0.  1.
         -2   -1    0    0    0  501 -0.00000000000E+00 -0.00000000000E+00 -0.29513804461E+03  0.29513804461E+03  0.00000000000E+00 0. -1.
         23    2    1    2    0    0 -0.13907126121E+03 -0.59217147732E+01 -0.19240615020E+03  0.26840828185E+03  0.12508795597E+03 0.  0.
          5    1    3    3  502    0 -0.59849011015E+02  0.29747076875E+02 -0.11867068180E+02  0.68008031947E+02  0.41800000000E+01 0. -1.
         -5    1    3    3    0  502 -0.79222250200E+02 -0.35668791648E+02 -0.18053908202E+03  0.20040024991E+03  0.41800000000E+01 0. -1.
        -11    1    1    2    0    0  0.42074138325E+02 -0.23175862320E+02  0.95257357074E+02  0.10668325917E+03  0.00000000000E+00 0.  1.
         11    1    1    2    0    0  0.96997122889E+02  0.29097577093E+02 -0.15577180967E+02  0.10245857411E+03  0.00000000000E+00 0. -1.
</event>
<event>
 7    1  0.7017065E-006  0.1193253E+03  0.7561462E-02  0.1244214E+00
          2   -1    0    0  501    0  0.00000000000E+00  0.00000000000E+00  0.14337880179E+03  0.14337880179E+03  0.00000000000E+00 0. -1.
         -2   -1    0    0    0  501 -0.00000000000E+00 -0.00000000000E+00 -0.17118651751E+03  0.17118651751E+03  0.00000000000E+00 0.  1.
         23    2    1    2    0    0 -0.10060837435E+03 -0.44688026902E+02 -0.41821046740E+02  0.17180044319E+03  0.12508927849E+03 0.  0.
          5    1    3    3  502    0  0.74096655851E+01 -0.91214507105E+01 -0.55771224146E+02  0.57148979430E+02  0.41800000000E+01 0.  1.
         -5    1    3    3    0  502 -0.10801803994E+03 -0.35566576191E+02  0.13950177406E+02  0.11465146376E+03  0.41800000000E+01 0.  1.
        -11    1    1    2    0    0  0.61473976765E+02  0.39078634166E+02 -0.34152068745E+02  0.80452180002E+02  0.00000000000E+00 0.  1.
         11    1    1    2    0    0  0.39134397585E+02  0.56093927357E+01  0.48165399766E+02  0.62312696105E+02  0.00000000000E+00 0. -1.
</event>
<event>
 7    1  0.7017065E-006  0.2097444E+03  0.7561462E-02  0.1141769E+00
          1   -1    0    0  501    0  0.00000000000E+00  0.00000000000E+00  0.37821495984E+03  0.37821495984E+03  0.00000000000E+00 0. -1.
         -1   -1    0    0    0  501 -0.00000000000E+00 -0.00000000000E+00 -0.12068014162E+03  0.12068014162E+03  0.00000000000E+00 0.  1.
         23    2    1    2    0    0 -0.25390569485E+02  0.17808071400E+03  0.91775540187E+02  0.23754704883E+03  0.12509368056E+03 0.  0.
          5    1    3    3  502    0  0.38099933283E+01  0.18673564089E+03  0.68482886616E+02  0.19897762132E+03  0.41800000000E+01 0.  1.
         -5    1    3    3    0  502 -0.29200562813E+02 -0.86549268904E+01  0.23292653572E+02  0.38569427511E+02  0.41800000000E+01 0.  1.
        -11    1    1    2    0    0 -0.63967999833E+01 -0.16864691255E+03  0.13499156087E+03  0.21611437173E+03  0.00000000000E+00 0.  1.
         11    1    1    2    0    0  0.31787369468E+02 -0.94338014518E+01  0.30767717170E+02  0.45233680896E+02  0.00000000000E+00 0. -1.
</event>
<event>
 7    1  0.7017065E-006  0.1853452E+03  0.7561462E-02  0.1162728E+00
          1   -1    0    0  501    0  0.00000000000E+00  0.00000000000E+00  0.14217013126E+04  0.14217013126E+04  0.00000000000E+00 0. -1.
         -1   -1    0    0    0  501 -0.00000000000E+00 -0.00000000000E+00 -0.29950902586E+02  0.29950902586E+02  0.00000000000E+00 0.  1.
         23    2    1    2    0    0 -0.13487184859E+03 -0.96350458655E+02  0.52793427898E+03  0.56730626481E+03  0.12509184127E+03 0.  0.
          5    1    3    3  502    0 -0.11176948865E+03 -0.37615581895E+02  0.45823096981E+03  0.47318119646E+03  0.41800000000E+01 0.  1.
         -5    1    3    3    0  502 -0.23102359937E+02 -0.58734876760E+02  0.69703309167E+02  0.94125068348E+02  0.41800000000E+01 0.  1.
        -11    1    1    2    0    0  0.95017476394E+02  0.11177047986E+03  0.66486476468E+03  0.68085689855E+03  0.00000000000E+00 0.  1.
         11    1    1    2    0    0  0.39854372191E+02 -0.15420021209E+02  0.19895136632E+03  0.20348905178E+03  0.00000000000E+00 0. -1.
</event>
<event>
 7    1  0.7017065E-006  0.9282533E+02  0.7561462E-02  0.1296150E+00
         -2   -1    0    0    0  501 -0.00000000000E+00  0.00000000000E+00  0.34047167006E+03  0.34047167006E+03  0.00000000000E+00 0.  1.
          2   -1    0    0  501    0  0.00000000000E+00 -0.00000000000E+00 -0.58832393950E+02  0.58832393950E+02  0.00000000000E+00 0. -1.
         23    2    1    2    0    0 -0.51607829717E+02 -0.42063188036E+02  0.24189314360E+03  0.28034283949E+03  0.12508850808E+03 0.  0.
          5    1    3    3  502    0 -0.39104482773E+01  0.87708614205E+01  0.19710150168E+03  0.19737956830E+03  0.41800000000E+01 0. -1.
         -5    1    3    3    0  502 -0.47697381440E+02 -0.50834049456E+02  0.44791641919E+02  0.82963271187E+02  0.41800000000E+01 0. -1.
        -11    1    1    2    0    0  0.40636446605E+02 -0.17886799637E+02  0.37265188663E+02  0.57965098809E+02  0.00000000000E+00 0.  1.
         11    1    1    2    0    0  0.10971383112E+02  0.59949987673E+02  0.24809438412E+01  0.60996125711E+02  0.00000000000E+00 0. -1.
</event>
<event>
 7    1  0.7017065E-006  0.1036358E+03  0.7561462E-02  0.1272831E+00
         -1   -1    0    0    0  501 -0.00000000000E+00  0.00000000000E+00  0.34251987001E+02  0.34251987001E+02  0.00000000000E+00 0.  1.
          1   -1    0    0  501    0  0.00000000000E+00 -0.00000000000E+00 -0.45293952370E+03  0.45293952370E+03  0.00000000000E+00 0. -1.
         23    2    1    2    0    0 -0.27113234717E+02  0.48087773040E+02 -0.18211535691E+03  0.22773139383E+03  0.12509205850E+03 0.  0.
          5    1    3    3  502    0 -0.57649216552E+02  0.30039371503E+02 -0.30429501315E+02  0.71897308431E+02  0.41800000000E+01 0.  1.
         -5    1    3    3    0  502  0.30535981834E+02  0.18048401536E+02 -0.15168585559E+03  0.15583408539E+03  0.41800000000E+01 0.  1.
        -11    1    1    2    0    0 -0.26514273114E+01 -0.69624907810E+02 -0.16104378995E+03  0.17547011181E+03  0.00000000000E+00 0.  1.
         11    1    1    2    0    0  0.29764662029E+02  0.21537134770E+02 -0.75528389843E+02  0.83990005072E+02  0.00000000000E+00 0. -1.
</event>
<event>
 7    1  0.7017065E-006  0.4662218E+02  0.7561462E-02  0.1464462E+00
         -1   -1    0    0    0  501 -0.00000000000E+00  0.00000000000E+00  0.12859501470E+03  0.12859501470E+03  0.00000000000E+00 0.  1.
          1   -1    0    0  501    0  0.00000000000E+00 -0.00000000000E+00 -0.11242469872E+03  0.11242469872E+03  0.00000000000E+00 0. -1.
         23    2    1    2    0    0  0.11810706973E+02 -0.35843961667E+02  0.49731015890E+02  0.13980600607E+03  0.12509301741E+03 0.  0.
          5    1    3    3  502    0  0.39420142721E+01 -0.16108770102E+02  0.91325348391E+02  0.92912989455E+02  0.41800000000E+01 0. -1.
         -5    1    3    3    0  502  0.78686927014E+01 -0.19735191565E+02 -0.41594332501E+02  0.46893016614E+02  0.41800000000E+01 0. -1.
        -11    1    1    2    0    0 -0.21227476216E+02  0.44187633103E+01  0.25610806221E+02  0.33556588191E+02  0.00000000000E+00 0.  1.
         11    1    1    2    0    0  0.94167692428E+01  0.31425198356E+02 -0.59171506133E+02  0.67657119158E+02  0.00000000000E+00 0. -1.
</event>
<event>
 7    1  0.7017065E-006  0.9842225E+02  0.7561462E-02  0.1283649E+00
         -3   -1    0    0    0  501 -0.00000000000E+00  0.00000000000E+00  0.53522406641E+03  0.53522406641E+03  0.00000000000E+00 0.  1.
          3   -1    0    0  501    0  0.00000000000E+00 -0.00000000000E+00 -0.31781599239E+02  0.31781599239E+02  0.00000000000E+00 0. -1.
         23    2    1    2    0    0 -0.29500089004E+02  0.22317726786E+02  0.41862694547E+03  0.43848217251E+03  0.12509900059E+03 0.  0.
          5    1    3    3  502    0  0.26539340598E+02  0.35262273384E+02  0.32855128508E+03  0.33152855661E+03  0.41800000000E+01 0. -1.
         -5    1    3    3    0  502 -0.56039429602E+02 -0.12944546598E+02  0.90075660397E+02  0.10695361589E+03  0.41800000000E+01 0. -1.
        -11    1    1    2    0    0  0.60353519355E+02 -0.81689600403E+01  0.65623105702E+02  0.89530280959E+02  0.00000000000E+00 0. -1.
         11    1    1    2    0    0 -0.30853430351E+02 -0.14148766745E+02  0.19192415999E+02  0.38993212188E+02  0.00000000000E+00 0.  1.
</event>
<event>
 7    1  0.7017065E-006  0.1120677E+03  0.7561462E-02  0.1256788E+00
          3   -1    0    0  501    0  0.00000000000E+00  0.00000000000E+00  0.37077396945E+03  0.37077396945E+03  0.00000000000E+00 0. -1.
         -3   -1    0    0    0  501 -0.00000000000E+00 -0.00000000000E+00 -0.53059889755E+02  0.53059889755E+02  0.00000000000E+00 0.  1.
         23    2    1    2    0    0  0.67305398004E+02 -0.44667265204E+02  0.11408756692E+03  0.18758559596E+03  0.12508877529E+03 0.  0.
          5    1    3    3  502    0  0.28415531168E+02  0.19136168848E+02 -0.15583834166E+02  0.37867712594E+02  0.41800000000E+01 0.  1.
         -5    1    3    3    0  502  0.38889866835E+02 -0.63803434052E+02  0.12967140109E+03  0.14971788337E+03  0.41800000000E+01 0.  1.
        -11    1    1    2    0    0 -0.41969541212E+02 -0.19142623883E+02  0.50282877841E+02  0.68236722098E+02  0.00000000000E+00 0.  1.
         11    1    1    2    0    0 -0.25335856792E+02  0.63809889086E+02  0.15334363494E+03  0.16801154115E+03  0.00000000000E+00 0. -1.
</event>
<event>
 7    1  0.7017065E-006  0.8713073E+02  0.7561462E-02  0.1309953E+00
          2   -1    0    0  501    0  0.00000000000E+00  0.00000000000E+00  0.72356656641E+03  0.72356656641E+03  0.00000000000E+00 0. -1.
         -2   -1    0    0    0  501 -0.00000000000E+00 -0.00000000000E+00 -0.20299810823E+02  0.20299810823E+02  0.00000000000E+00 0.  1.
         23    2    1    2    0    0  0.13751266550E+02 -0.49184607749E+02  0.36254889880E+03  0.38690617840E+03  0.12508582611E+03 0.  0.
          5    1    3    3  502    0 -0.57571197947E+01  0.13817831258E+02  0.28326647444E+03  0.28369251811E+03  0.41800000000E+01 0. -1.
         -5    1    3    3    0  502  0.19508386345E+02 -0.63002439007E+02  0.79282424359E+02  0.10321366029E+03  0.41800000000E+01 0. -1.
        -11    1    1    2    0    0 -0.43953572940E+02  0.13706836581E+02  0.25752853573E+03  0.26161181292E+03  0.00000000000E+00 0. -1.
         11    1    1    2    0    0  0.30202306390E+02  0.35477771168E+02  0.83189321062E+02  0.95348385918E+02  0.00000000000E+00 0.  1.
</event>
<event>
 7    1  0.7017065E-006  0.1205816E+03  0.7561462E-02  0.1242141E+00
          2   -1    0    0  501    0  0.00000000000E+00  0.00000000000E+00  0.33803561421E+02  0.33803561421E+02  0.00000000000E+00 0. -1.
         -2   -1    0    0    0  501 -0.00000000000E+00 -0.00000000000E+00 -0.56175666864E+03  0.56175666864E+03  0.00000000000E+00 0.  1.
         23    2    1    2    0    0 -0.68020244700E+02  0.53152577375E+01 -0.39549391464E+03  0.42037710166E+03  0.12508583227E+03 0.  0.
          5    1    3    3  502    0 -0.78238727099E+02 -0.35113835470E+02 -0.34093410952E+03  0.35157903705E+03  0.41800000000E+01 0. -1.
         -5    1    3    3    0  502  0.10218482399E+02  0.40429093207E+02 -0.54559805123E+02  0.68798064618E+02  0.41800000000E+01 0. -1.
        -11    1    1    2    0    0 -0.13978863192E+02  0.22770699277E+02 -0.42970888654E+02  0.50600500328E+02  0.00000000000E+00 0.  1.
         11    1    1    2    0    0  0.81999107892E+02 -0.28085957015E+02 -0.89488303923E+02  0.12458262806E+03  0.00000000000E+00 0. -1.
</event>
<event>
 7    1  0.7017065E-006  0.1430596E+03  0.7561462E-02  0.1209270E+00
         -1   -1    0    0    0  501 -0.00000000000E+00  0.00000000000E+00  0.75345018404E+02  0.75345018404E+02  0.00000000000E+00 0.  1.
          1   -1    0    0  501    0  0.00000000000E+00 -0.00000000000E+00 -0.34197551530E+03  0.34197551530E+03  0.00000000000E+00 0. -1.
         23    2    1    2    0    0 -0.10655983507E+03 -0.54885779535E+00 -0.78358978158E+02  0.18204945541E+03  0.12508627048E+03 0.  0.
          5    1    3    3  502    0 -0.96318374073E+01 -0.49711221491E+02 -0.46094679698E+02  0.68601528630E+02  0.41800000000E+01 0.  1.
         -5    1    3    3    0  502 -0.96927997666E+02  0.49162363696E+02 -0.32264298460E+02  0.11344792678E+03  0.41800000000E+01 0.  1.
        -11    1    1    2    0    0  0.95294504095E+02 -0.25091029259E+02 -0.18139537203E+03  0.20643372606E+03  0.00000000000E+00 0. -1.
         11    1    1    2    0    0  0.11265330979E+02  0.25639887055E+02 -0.68761467039E+01  0.28837352232E+02  0.00000000000E+00 0.  1.
</event>
<event>
 7    1  0.7017065E-006  0.5977121E+02  0.7561462E-02  0.1398794E+00
         -2   -1    0    0    0  501 -0.00000000000E+00  0.00000000000E+00  0.84690879565E+02  0.84690879565E+02  0.00000000000E+00 0.  1.
          2   -1    0    0  501    0  0.00000000000E+00 -0.00000000000E+00 -0.15635905318E+03  0.15635905318E+03  0.00000000000E+00 0. -1.
         23    2    1    2    0    0  0.12040004437E+02 -0.10977878733E+02 -0.79152999923E+01  0.12639728733E+03  0.12509255270E+03 0.  0.
          5    1    3    3  502    0  0.38633670995E+02 -0.12298152783E+02  0.48812628419E+02  0.63592060744E+02  0.41800000000E+01 0.  1.
         -5    1    3    3    0  502 -0.26593666558E+02  0.13202740492E+01 -0.56727928412E+02  0.62805226585E+02  0.41800000000E+01 0.  1.
        -11    1    1    2    0    0 -0.16683276741E+02  0.28871375585E+02  0.12936641977E+02  0.35766531236E+02  0.00000000000E+00 0.  1.
         11    1    1    2    0    0  0.46432723042E+01 -0.17893496852E+02 -0.76689515601E+02  0.78886114180E+02  0.00000000000E+00 0. -1.
</event>
<event>
 7    1  0.7017065E-006  0.1028056E+03  0.7561462E-02  0.1274504E+00
         -3   -1    0    0    0  501 -0.00000000000E+00  0.00000000000E+00  0.12577595025E+03  0.12577595025E+03  0.00000000000E+00 0.  1.
          3   -1    0    0  501    0  0.00000000000E+00 -0.00000000000E+00 -0.99388930376E+02  0.99388930376E+02  0.00000000000E+00 0. -1.
         23    2    1    2    0    0 -0.25026378274E+02  0.75795824678E+01  0.29027596366E+02  0.13105106363E+03  0.12509200713E+03 0.  0.
          5    1    3    3  502    0  0.43669471099E+02  0.11245650883E+02 -0.16779935760E+02  0.48296231882E+02  0.41800000000E+01 0. -1.
         -5    1    3    3    0  502 -0.68695849373E+02 -0.36660684154E+01  0.45807532125E+02  0.82754831751E+02  0.41800000000E+01 0. -1.
        -11    1    1    2    0    0 -0.30347442759E+02  0.12051039310E+02  0.97372174466E+01  0.34073570903E+02  0.00000000000E+00 0.  1.
         11    1    1    2    0    0  0.55373821033E+02 -0.19630621778E+02 -0.12377793943E+02  0.60040246086E+02  0.00000000000E+00 0. -1.
</event>
<event>
 7    1  0.7017065E-006  0.1014462E+03  0.7561462E-02  0.1277284E+00
          2   -1    0    0  501    0  0.00000000000E+00  0.00000000000E+00  0.12967298078E+03  0.12967298078E+03  0.00000000000E+00 0.  1.
         -2   -1    0    0    0  501 -0.00000000000E+00 -0.00000000000E+00 -0.11286886047E+03  0.11286886047E+03  0.00000000000E+00 0. -1.
         23    2    1    2    0    0  0.47466510242E+02  0.75924026080E+01 -0.15895287892E+02  0.13495754331E+03  0.12510061609E+03 0.  0.
          5    1    3    3  502    0  0.71503951667E+02 -0.79359206987E+01  0.32125347002E+02  0.78900597345E+02  0.41800000000E+01 0. -1.
         -5    1    3    3    0  502 -0.24037441425E+02  0.15528323307E+02 -0.48020634893E+02  0.56056945962E+02  0.41800000000E+01 0. -1.
        -11    1    1    2    0    0 -0.74433417133E+02 -0.85543155071E+01  0.18871315541E+02  0.77263422459E+02  0.00000000000E+00 0. -1.
         11    1    1    2    0    0  0.26966906891E+02  0.96191289903E+00  0.13828092657E+02  0.30320875486E+02  0.00000000000E+00 0.  1.
</event>
<event>
 7    1  0.7017065E-006  0.8416599E+02  0.7561462E-02  0.1317628E+00
          2   -1    0    0  501    0  0.00000000000E+00  0.00000000000E+00  0.51835361699E+02  0.51835361699E+02  0.00000000000E+00 0. -1.
         -2   -1    0    0    0  501 -0.00000000000E+00 -0.00000000000E+00 -0.31163158730E+03  0.31163158730E+03  0.00000000000E+00 0.  1.
         23    2    1    2    0    0  0.88723083782E+01  0.50788644205E+02 -0.19117283247E+03  0.23420769040E+03  0.12509191073E+03 0.  0.
          5    1    3    3  502    0 -0.42610374363E+02  0.14081773205E+02 -0.15461781916E+03  0.16105304325E+03  0.41800000000E+01 0.  1.
         -5    1    3    3    0  502  0.51482682741E+02  0.36706871000E+02 -0.36555013317E+02  0.73154647148E+02  0.41800000000E+01 0.  1.
        -11    1    1    2    0    0  0.38020645777E+01 -0.46288763714E+02  0.11636561042E+02  0.47880214015E+02  0.00000000000E+00 0. -1.
         11    1    1    2    0    0 -0.12674372956E+02 -0.44998804912E+01 -0.80259954174E+02  0.81379044589E+02  0.00000000000E+00 0.  1.
</event>
<event>
 7    1  0.9007144E-006  0.1715282E+03  0.7561462E-02  0.1176264E+00
         -1   -1    0    0    0  501 -0.00000000000E+00  0.00000000000E+00  0.30524571703E+02  0.30524571703E+02  0.00000000000E+00 0.  1.
          1   -1    0    0  501    0  0.00000000000E+00 -0.00000000000E+00 -0.13438154748E+04  0.13438154748E+04  0.00000000000E+00 0. -1.
         23    2    1    2    0    0 -0.12215245385E+03  0.10445647307E+03 -0.49275898106E+03  0.53318959645E+03  0.12508939041E+03 0.  0.
          5    1    3    3  502    0 -0.78416813159E+02  0.69857876147E+02 -0.45181930317E+03  0.46388303974E+03  0.41800000000E+01 0. -1.
         -5    1    3    3    0  502 -0.43735640692E+02  0.34598596925E+02 -0.40939677891E+02  0.69306556701E+02  0.41800000000E+01 0. -1.
        -11    1    1    2    0    0  0.39118912766E+02  0.10235847025E+02 -0.12590233218E+03  0.13223637604E+03  0.00000000000E+00 0.  1.
         11    1    1    2    0    0  0.83033541085E+02 -0.11469232010E+03 -0.69462958983E+03  0.70891407399E+03  0.00000000000E+00 0. -1.
</event>
<event>
 7    1  0.7017065E-006  0.1440164E+03  0.7561462E-02  0.1208025E+00
          2   -1    0    0  501    0  0.00000000000E+00  0.00000000000E+00  0.32234619649E+03  0.32234619649E+03  0.00000000000E+00 0.  1.
         -2   -1    0    0    0  501 -0.00000000000E+00 -0.00000000000E+00 -0.94919560210E+02  0.94919560210E+02  0.00000000000E+00 0. -1.
         23    2    1    2    0    0 -0.13587049618E+02 -0.12547440696E+03  0.58517911219E+02  0.18708505908E+03  0.12509212077E+03 0.  0.
          5    1    3    3  502    0 -0.12551472613E+02 -0.12780311422E+03  0.12375897381E+00  0.12848604276E+03  0.41800000000E+01 0. -1.
         -5    1    3    3    0  502 -0.10355770046E+01  0.23287072601E+01  0.58394152245E+02  0.58599016320E+02  0.41800000000E+01 0. -1.
        -11    1    1    2    0    0  0.43907416489E+02  0.11411873239E+03  0.14641311609E+03  0.19075572565E+03  0.00000000000E+00 0.  1.
         11    1    1    2    0    0 -0.30320366871E+02  0.11355674569E+02  0.22495608972E+02  0.39424971974E+02  0.00000000000E+00 0. -1.
</event>
<event>
 7    1  0.7017065E-006  0.8417737E+02  0.7561462E-02  0.1317598E+00
         -2   -1    0    0    0  501 -0.00000000000E+00  0.00000000000E+00  0.17907919225E+03  0.17907919225E+03  0.00000000000E+00 0.  1.
          2   -1    0    0  501    0  0.00000000000E+00 -0.00000000000E+00 -0.64094220876E+02  0.64094220876E+02  0.00000000000E+00 0. -1.
         23    2    1    2    0    0 -0.41981691072E+01 -0.92522514732E+01  0.77778713734E+02  0.14764578900E+03  0.12508605805E+03 0.  0.
          5    1    3    3  502    0  0.35334084082E+02  0.16308421866E+02 -0.16272448165E+02  0.42387817719E+02  0.41800000000E+01 0.  1.
         -5    1    3    3    0  502 -0.39532253189E+02 -0.25560673339E+02  0.94051161899E+02  0.10525797128E+03  0.41800000000E+01 0.  1.
        -11    1    1    2    0    0  0.42680208110E+02  0.15500208711E+01  0.19198538499E+01  0.42751474452E+02  0.00000000000E+00 0.  1.
         11    1    1    2    0    0 -0.38482039003E+02  0.77022306021E+01  0.35286403794E+02  0.52776149678E+02  0.00000000000E+00 0. -1.
</event>
<event>
 7    1  0.7017065E-006  0.1514027E+03  0.7561462E-02  0.1198760E+00
          1   -1    0    0  501    0  0.00000000000E+00  0.00000000000E+00  0.25825194897E+03  0.25825194897E+03  0.00000000000E+00 0. -1.
         -1   -1    0    0    0  501 -0.00000000000E+00 -0.00000000000E+00 -0.11787482580E+03  0.11787482580E+03  0.00000000000E+00 0.  1.
         23    2    1    2    0    0 -0.96025794485E+01 -0.13514235356E+03  0.87539068791E+02  0.20412346827E+03  0.12509051313E+03 0.  0.
          5    1    3    3  502    0  0.41131614485E+02 -0.84721755108E+02  0.44050440642E+01  0.94374055290E+02  0.41800000000E+01 0. -1.
         -5    1    3    3    0  502 -0.50734193933E+02 -0.50420598454E+02  0.83134024727E+02  0.10974941298E+03  0.41800000000E+01 0. -1.
        -11    1    1    2    0    0 -0.23772068738E+01  0.94087093510E+02 -0.11427179040E+02  0.94808294461E+02  0.00000000000E+00 0.  1.
         11    1    1    2    0    0  0.11979786322E+02  0.41055260051E+02  0.64265233421E+02  0.77195012046E+02  0.00000000000E+00 0. -1.
</event>
<event>
 7    1  0.7017065E-006  0.1472516E+03  0.7561462E-02  0.1203891E+00
          2   -1    0    0  501    0  0.00000000000E+00  0.00000000000E+00  0.59204423688E+02  0.59204423688E+02  0.00000000000E+00 0. -1.
         -2   -1    0    0    0  501 -0.00000000000E+00 -0.00000000000E+00 -0.51925092778E+03  0.51925092778E+03  0.00000000000E+00 0.  1.
         23    2    1    2    0    0 -0.16510971459E+02 -0.98523659246E+02 -0.39774346747E+03  0.42874981805E+03  0.12508803681E+03 0.  0.
          5    1    3    3  502    0  0.46235670930E+02 -0.80938554250E+02 -0.26195620400E+03  0.27807788845E+03  0.41800000000E+01 0. -1.
         -5    1    3    3    0  502 -0.62746642389E+02 -0.17585104996E+02 -0.13578726347E+03  0.15067192960E+03  0.41800000000E+01 0. -1.
        -11    1    1    2    0    0 -0.38064257718E+02  0.31095504420E+02 -0.18405393747E+02  0.52484060721E+02  0.00000000000E+00 0. -1.
         11    1    1    2    0    0  0.54575229178E+02  0.67428154826E+02 -0.43897642873E+02  0.97221472694E+02  0.00000000000E+00 0.  1.
</event>
<event>
 7    1  0.7017065E-006  0.1053683E+03  0.7561462E-02  0.1269396E+00
         -1   -1    0    0    0  501 -0.00000000000E+00  0.00000000000E+00  0.49933336102E+03  0.49933336102E+03  0.00000000000E+00 0.  1.
          1   -1    0    0  501    0  0.00000000000E+00 -0.00000000000E+00 -0.55490655753E+02  0.55490655753E+02  0.00000000000E+00 0. -1.
         23    2    1    2    0    0 -0.23204100127E+01 -0.50557076111E+01  0.44389966229E+03  0.46122034863E+03  0.12508539216E+03 0.  0.
          5    1    3    3  502    0  0.55855025712E+02 -0.26550573979E+02  0.25163554067E+03  0.25915754784E+03  0.41800000000E+01 0. -1.
         -5    1    3    3    0  502 -0.58175435725E+02  0.21494866368E+02  0.19226412162E+03  0.20206280079E+03  0.41800000000E+01 0. -1.
        -11    1    1    2    0    0  0.13278402782E+02 -0.38997098291E+02 -0.17783296663E+02  0.44870204989E+02  0.00000000000E+00 0. -1.
         11    1    1    2    0    0 -0.10957992769E+02  0.44052805902E+02  0.17726339640E+02  0.48733463148E+02  0.00000000000E+00 0.  1.
</event>
<event>
 7    1  0.7017065E-006  0.8682199E+02  0.7561462E-02  0.1310735E+00
          1   -1    0    0  501    0  0.00000000000E+00  0.00000000000E+00  0.55177814959E+02  0.55177814959E+02  0.00000000000E+00 0. -1.
         -1   -1    0    0    0  501 -0.00000000000E+00 -0.00000000000E+00 -0.23677182840E+03  0.23677182840E+03  0.00000000000E+00 0.  1.
         23    2    1    2    0    0  0.28355714486E+02  0.19653898138E+02 -0.12045337867E+03  0.17708196210E+03  0.12513465792E+03 0.  0.
          5    1    3    3  502    0 -0.16541644876E+02  0.57459088578E+02 -0.24988223683E+02  0.64938868163E+02  0.41800000000E+01 0. -1.
         -5    1    3    3    0  502  0.44897359362E+02 -0.37805190440E+02 -0.95465154986E+02  0.11214309394E+03  0.41800000000E+01 0. -1.
        -11    1    1    2    0    0  0.38084648001E+01 -0.22268856000E+02  0.18331361383E+02  0.29093730627E+02  0.00000000000E+00 0. -1.
         11    1    1    2    0    0 -0.32164179286E+02  0.26149578617E+01 -0.79471996158E+02  0.85773950632E+02  0.00000000000E+00 0.  1.
</event>
<event>
 6    1  0.7017065E-006  0.1187921E+03  0.7561462E-02  0.1245103E+00
          3   -1    0    0  501    0  0.00000000000E+00  0.00000000000E+00  0.19829659562E+03  0.19829659562E+03  0.00000000000E+00 0. -1.
         -3   -1    0    0    0  501 -0.00000000000E+00 -0.00000000000E+00 -0.98575953237E+02  0.98575953237E+02  0.00000000000E+00 0.  1.
          5    1    1    2  502    0 -0.48498600835E+02  0.57148042174E+02  0.17153689738E+02  0.77004769196E+02  0.41800000000E+01 0. -1.
         -5    1    1    2    0  502  0.90568755285E+02 -0.54291916408E+01  0.36676666051E+02  0.97953181615E+02  0.41800000000E+01 0.  1.
        -11    1    1    2    0    0 -0.17618556662E+02 -0.39982296244E+01 -0.26350200143E+02  0.31948903371E+02  0.00000000000E+00 0.  1.
         11    1    1    2    0    0 -0.24451597788E+02 -0.47720620909E+02  0.72240486733E+02  0.89965694671E+02  0.00000000000E+00 0. -1.
</event>
<event>
 7    1  0.7017065E-006  0.1467408E+03  0.7561462E-02  0.1204536E+00
         -1   -1    0    0    0  501 -0.00000000000E+00  0.00000000000E+00  0.15584659465E+04  0.15584659465E+04  0.00000000000E+00 0.  1.
          1   -1    0    0  501    0  0.00000000000E+00 -0.00000000000E+00 -0.27198579958E+02  0.27198579958E+02  0.00000000000E+00 0. -1.
         23    2    1    2    0    0 -0.99008776695E+02 -0.79977603358E+02  0.12598172707E+04  0.12723946123E+04  0.12509731787E+03 0.  0.
          5    1    3    3  502    0 -0.11485841277E+03 -0.38564893823E+02  0.10941154961E+04  0.11008114722E+04  0.41800000000E+01 0.  1.
         -5    1    3    3    0  502  0.15849636074E+02 -0.41412709535E+02  0.16570177460E+03  0.17158314014E+03  0.41800000000E+01 0.  1.
        -11    1    1    2    0    0  0.77232216319E+02  0.56526245089E+02  0.98335627146E+02  0.13722218183E+03  0.00000000000E+00 0. -1.
         11    1    1    2    0    0  0.21776560376E+02  0.23451358269E+02  0.17311446867E+03  0.17604773231E+03  0.00000000000E+00 0.  1.
</event>
<event>
 7    1  0.7017065E-006  0.1688777E+03  0.7561462E-02  0.1179023E+00
          2   -1    0    0  501    0  0.00000000000E+00  0.00000000000E+00  0.53867845695E+03  0.53867845695E+03  0.00000000000E+00 0. -1.
         -2   -1    0    0    0  501 -0.00000000000E+00 -0.00000000000E+00 -0.72678701953E+02  0.72678701953E+02  0.00000000000E+00 0.  1.
         23    2    1    2    0    0  0.13699934186E+03  0.80123853955E+02  0.31567211115E+03  0.37481347209E+03  0.12509038916E+03 0.  0.
          5    1    3    3  502    0  0.47963690347E+02  0.87851207748E+01  0.22143098079E+03  0.22677487867E+03  0.41800000000E+01 0.  1.
         -5    1    3    3    0  502  0.89035651515E+02  0.71338733180E+02  0.94241130355E+02  0.14803859342E+03  0.41800000000E+01 0.  1.
        -11    1    1    2    0    0 -0.11243551838E+03 -0.93896805663E+02  0.14807900467E+03  0.20829245673E+03  0.00000000000E+00 0. -1.
         11    1    1    2    0    0 -0.24563823485E+02  0.13772951708E+02  0.22486391747E+01  0.28251230081E+02  0.00000000000E+00 0.  1.
</event>
<event>
 7    1  0.7017065E-006  0.1274485E+03  0.7561462E-02  0.1231292E+00
         -2   -1    0    0    0  501 -0.00000000000E+00  0.00000000000E+00  0.95993635020E+02  0.95993635020E+02  0.00000000000E+00 0.  1.
          2   -1    0    0  501    0  0.00000000000E+00 -0.00000000000E+00 -0.20909571660E+03  0.20909571660E+03  0.00000000000E+00 0. -1.
         23    2    1    2    0    0  0.23433982194E+02  0.68483974731E+02  0.73584241518E+00  0.14452707354E+03  0.12509327402E+03 0.  0.
          5    1    3    3  502    0 -0.50254212735E+02  0.20615757023E+02 -0.11587460197E+02  0.55697728581E+02  0.41800000000E+01 0. -1.
         -5    1    3    3    0  502  0.73688194929E+02  0.47868217708E+02  0.12323302613E+02  0.88829344958E+02  0.41800000000E+01 0. -1.
        -11    1    1    2    0    0 -0.16766523650E+02  0.18638640533E+02 -0.17945041648E+02  0.30830824770E+02  0.00000000000E+00 0. -1.
         11    1    1    2    0    0 -0.66674585446E+01 -0.87122615263E+02 -0.95892882349E+02  0.12973145331E+03  0.00000000000E+00 0.  1.
</event>
<event>
 7    1  0.7017065E-006  0.7063933E+02  0.7561462E-02  0.1357932E+00
         -1   -1    0    0    0  501 -0.00000000000E+00  0.00000000000E+00  0.94886490974E+02  0.94886490974E+02  0.00000000000E+00 0.  1.
          1   -1    0    0  501    0  0.00000000000E+00 -0.00000000000E+00 -0.14797104000E+03  0.14797104000E+03  0.00000000000E+00 0. -1.
         23    2    1    2    0    0  0.11488614916E+02 -0.20627879190E+02  0.12528862768E+02  0.12791164627E+03  0.12508764597E+03 0.  0.
          5    1    3    3  502    0  0.30568781544E+02  0.51200021786E+01 -0.49162582028E+02  0.58267458320E+02  0.41800000000E+01 0.  1.
         -5    1    3    3    0  502 -0.19080166628E+02 -0.25747881369E+02  0.61691444796E+02  0.69644187946E+02  0.41800000000E+01 0.  1.
        -11    1    1    2    0    0 -0.46599727289E+01 -0.28098619032E+02  0.49628286262E+01  0.28911544499E+02  0.00000000000E+00 0.  1.
         11    1    1    2    0    0 -0.68286421868E+01  0.48726498223E+02 -0.70576240418E+02  0.86034340206E+02  0.00000000000E+00 0. -1.
</event>
<event>
 7    1  0.7017065E-006  0.1021530E+03  0.7561462E-02  0.1275833E+00
         -3   -1    0    0    0  501 -0.00000000000E+00  0.00000000000E+00  0.18858938519E+03  0.18858938519E+03  0.00000000000E+00 0.  1.
          3   -1    0    0  501    0  0.00000000000E+00 -0.00000000000E+00 -0.11924642782E+03  0.11924642782E+03  0.00000000000E+00 0. -1.
         23    2    1    2    0    0  0.29722320550E+02  0.28609218996E+02  0.13475674613E+03  0.18827617644E+03  0.12484644263E+03 0.  0.
          5    1    3    3  502    0 -0.43988532353E+01 -0.41108297379E+02  0.12486816016E+02  0.43389341980E+02  0.41800000000E+01 0. -1.
         -5    1    3    3    0  502  0.34121173785E+02  0.69717516375E+02  0.12226993012E+03  0.14488683446E+03  0.41800000000E+01 0.  1.
        -11    1    1    2    0    0 -0.13216165880E+02 -0.53525270452E+02 -0.70231283722E+02  0.89286364193E+02  0.00000000000E+00 0. -1.
         11    1    1    2    0    0 -0.16506154669E+02  0.24916051456E+02  0.48174949601E+01  0.30273272367E+02  0.00000000000E+00 0.  1.
</event>
<event>
 7    1  0.7017065E-006  0.7714102E+02  0.7561462E-02  0.1337366E+00
         -2   -1    0    0    0  501 -0.00000000000E+00  0.00000000000E+00  0.30197882505E+02  0.30197882505E+02  0.00000000000E+00 0.  1.
          2   -1    0    0  501    0  0.00000000000E+00 -0.00000000000E+00 -0.44241759369E+03  0.44241759369E+03  0.00000000000E+00 0. -1.
         23    2    1    2    0    0 -0.19661545366E+02 -0.47377481110E+02 -0.21293497112E+03  0.25223147689E+03  0.12509282124E+03 0.  0.
          5    1    3    3  502    0  0.11406702966E+02 -0.23524386516E+02  0.81207559585E+01  0.27693477767E+02  0.41800000000E+01 0. -1.
         -5    1    3    3    0  502 -0.31068248332E+02 -0.23853094594E+02 -0.22105572708E+03  0.22453799912E+03  0.41800000000E+01 0. -1.
        -11    1    1    2    0    0 -0.23540718932E+02  0.37211312686E+02 -0.61574739901E+02  0.75698717516E+02  0.00000000000E+00 0.  1.
         11    1    1    2    0    0  0.43202264298E+02  0.10166168424E+02 -0.13771000016E+03  0.14468528179E+03  0.00000000000E+00 0. -1.
</event>
<event>
 7    1  0.7017065E-006  0.8102304E+02  0.7561462E-02  0.1326173E+00
          1   -1    0    0  501    0  0.00000000000E+00  0.00000000000E+00  0.16130460805E+03  0.16130460805E+03  0.00000000000E+00 0. -1.
         -1   -1    0    0    0  501 -0.00000000000E+00 -0.00000000000E+00 -0.98691630061E+02  0.98691630061E+02  0.00000000000E+00 0.  1.
         23    2    1    2    0    0 -0.73814422344E+01 -0.64445844934E+02  0.23440678853E+02  0.14284695161E+03  0.12509210023E+03 0.  0.
          5    1    3    3  502    0 -0.37756813351E+02 -0.50422584415E+02 -0.37335758651E+02  0.73344701564E+02  0.41800000000E+01 0. -1.
         -5    1    3    3    0  502  0.30375371117E+02 -0.14023260519E+02  0.60776437504E+02  0.69502250048E+02  0.41800000000E+01 0. -1.
        -11    1    1    2    0    0  0.65016441431E+01  0.28090261746E+02  0.65957023173E+02  0.71983769611E+02  0.00000000000E+00 0. -1.
         11    1    1    2    0    0  0.87979809132E+00  0.36355583187E+02 -0.26784724040E+02  0.45165516885E+02  0.00000000000E+00 0.  1.
</event>
<event>
 7    1  0.7017065E-006  0.2133796E+03  0.7561462E-02  0.1138917E+00
         -1   -1    0    0    0  501 -0.00000000000E+00  0.00000000000E+00  0.25158725041E+03  0.25158725041E+03  0.00000000000E+00 0.  1.
          1   -1    0    0  501    0  0.00000000000E+00 -0.00000000000E+00 -0.23581105748E+03  0.23581105748E+03  0.00000000000E+00 0. -1.
         23    2    1    2    0    0 -0.13574264851E+03 -0.13876584944E+03  0.10591690227E+03  0.25406104721E+03  0.12508636188E+03 0.  0.
          5    1    3    3  502    0 -0.52998413445E+02  0.14049517048E+02  0.11255521599E+02  0.56128245327E+02  0.41800000000E+01 0. -1.
         -5    1    3    3    0  502 -0.82744235066E+02 -0.15281536649E+03  0.94661380674E+02  0.19793280188E+03  0.41800000000E+01 0. -1.
        -11    1    1    2    0    0  0.69574154499E+02  0.98130355658E+02 -0.83860290003E+01  0.12058380969E+03  0.00000000000E+00 0.  1.
         11    1    1    2    0    0  0.66168494012E+02  0.40635493780E+02 -0.81754680340E+02  0.11275345100E+03  0.00000000000E+00 0. -1.
</event>
<event>
 6    1  0.7017065E-006  0.1103946E+03  0.7561462E-02  0.1259841E+00
          2   -1    0    0  501    0  0.00000000000E+00  0.00000000000E+00  0.20646379043E+03  0.20646379043E+03  0.00000000000E+00 0. -1.
         -2   -1    0    0    0  501 -0.00000000000E+00 -0.00000000000E+00 -0.96316001026E+02  0.96316001026E+02  0.00000000000E+00 0.  1.
          5    1    1    2  502    0  0.73898256188E+02 -0.13341361043E+02  0.24307942374E+02  0.79039816830E+02  0.41800000000E+01 0. -1.
         -5    1    1    2    0  502 -0.39441085360E+02  0.65751722055E+02 -0.10627676935E+02  0.77519727068E+02  0.41800000000E+01 0.  1.
        -11    1    1    2    0    0 -0.13704889052E+02 -0.14657837443E+01 -0.15941123707E+02  0.21073488818E+02  0.00000000000E+00 0.  1.
         11    1    1    2    0    0 -0.20752281776E+02 -0.50944577268E+02  0.11240864767E+03  0.12514675874E+03  0.00000000000E+00 0. -1.
</event>
<event>
 7    1  0.7017065E-006  0.1176030E+03  0.7561462E-02  0.1247105E+00
         -3   -1    0    0    0  501 -0.00000000000E+00  0.00000000000E+00  0.77873684750E+03  0.77873684750E+03  0.00000000000E+00 0.  1.
          3   -1    0    0  501    0  0.00000000000E+00 -0.00000000000E+00 -0.25131436628E+02  0.25131436628E+02  0.00000000000E+00 0. -1.
         23    2    1    2    0    0  0.78428357085E+02  0.91592139379E+01  0.52411059730E+03  0.54459346841E+03  0.12512085853E+03 0.  0.
          5    1    3    3  502    0  0.95562894765E+02  0.23360578844E+02  0.50629580645E+03  0.51578183327E+03  0.41800000000E+01 0.  1.
         -5    1    3    3    0  502 -0.17134537679E+02 -0.14201364906E+02  0.17814790854E+02  0.28811635147E+02  0.41800000000E+01 0.  1.
        -11    1    1    2    0    0 -0.75594505439E+02 -0.38351893334E+02  0.12718918971E+03  0.15284792100E+03  0.00000000000E+00 0. -1.
         11    1    1    2    0    0 -0.28338516459E+01  0.29192679396E+02  0.10230562386E+03  0.10642689472E+03  0.00000000000E+00 0.  1.
</event>
<event>
 7    1  0.7017065E-006  0.1275148E+03  0.7561462E-02  0.1231191E+00
         -2   -1    0    0    0  501 -0.00000000000E+00  0.00000000000E+00  0.73453376925E+02  0.73453376925E+02  0.00000000000E+00 0.  1.
          2   -1    0    0  501    0  0.00000000000E+00 -0.00000000000E+00 -0.23818047009E+03  0.23818047009E+03  0.00000000000E+00 0. -1.
         23    2    1    2    0    0 -0.51252494524E+02  0.51508791433E+02 -0.91540653729E+02  0.17119134775E+03  0.12508721945E+03 0.  0.
          5    1    3    3  502    0 -0.54641916988E+01 -0.40883159969E+02 -0.25769962112E+02  0.48814480508E+02  0.41800000000E+01 0.  1.
         -5    1    3    3    0  502 -0.45788302825E+02  0.92391951402E+02 -0.65770691617E+02  0.12237686724E+03  0.41800000000E+01 0.  1.
        -11    1    1    2    0    0  0.67154338656E+01  0.22783226471E+02  0.43997152584E+01  0.24156364685E+02  0.00000000000E+00 0.  1.
         11    1    1    2    0    0  0.44537060658E+02 -0.74292017904E+02 -0.77586154698E+02  0.11628613459E+03  0.00000000000E+00 0. -1.
</event>
<event>
 7    1  0.7017065E-006  0.1248309E+03  0.7561462E-02  0.1235334E+00
          2   -1    0    0  501    0  0.00000000000E+00  0.00000000000E+00  0.35437830093E+03  0.35437830093E+03  0.00000000000E+00 0. -1.
         -2   -1    0    0    0  501 -0.00000000000E+00 -0.00000000000E+00 -0.86173449714E+02  0.86173449714E+02  0.00000000000E+00 0.  1.
         23    2    1    2    0    0  0.38251626428E+02 -0.58154899469E+02 -0.38994807195E+01  0.14320743807E+03  0.12509190666E+03 0.  0.
          5    1    3    3  502    0  0.74160198743E+02 -0.17793003625E+02 -0.31233480470E+02  0.82518657030E+02  0.41800000000E+01 0. -1.
         -5    1    3    3    0  502 -0.35908572316E+02 -0.40361895843E+02  0.27333999751E+02  0.60688781041E+02  0.41800000000E+01 0. -1.
        -11    1    1    2    0    0 -0.21229531306E+02 -0.25813206058E+02  0.92468772964E+02  0.98323387756E+02  0.00000000000E+00 0. -1.
         11    1    1    2    0    0 -0.17022095122E+02  0.83968105527E+02  0.17963555897E+03  0.19902092482E+03  0.00000000000E+00 0.  1.
</event>
<event>
 7    1  0.7017065E-006  0.1050549E+03  0.7561462E-02  0.1270011E+00
          1   -1    0    0  501    0  0.00000000000E+00  0.00000000000E+00  0.61517072580E+03  0.61517072580E+03  0.00000000000E+00 0. -1.
         -1   -1    0    0    0  501 -0.00000000000E+00 -0.00000000000E+00 -0.22705308443E+02  0.22705308443E+02  0.00000000000E+00 0.  1.
         23    2    1    2    0    0  0.38256723677E+02 -0.98777221625E+01  0.27619475595E+03  0.30576462400E+03  0.12508923124E+03 0.  0.
          5    1    3    3  502    0 -0.32749873992E+02 -0.24987011920E+02  0.36209700959E+02  0.55004725749E+02  0.41800000000E+01 0. -1.
         -5    1    3    3    0  502  0.71006597669E+02  0.15109289757E+02  0.23998505499E+03  0.25075989825E+03  0.41800000000E+01 0. -1.
        -11    1    1    2    0    0  0.27490290643E+01 -0.35051835333E+02  0.17173560346E+03  0.17529776329E+03  0.00000000000E+00 0. -1.
         11    1    1    2    0    0 -0.41005752742E+02  0.44929557496E+02  0.14453505795E+03  0.15681364695E+03  0.00000000000E+00 0.  1.
</event>
<event>
 7    1  0.7017065E-006  0.1263435E+03  0.7561462E-02  0.1232984E+00
         -2   -1    0    0    0  501 -0.00000000000E+00  0.00000000000E+00  0.59345741780E+02  0.59345741780E+02  0.00000000000E+00 0. -1.
          2   -1    0    0  501    0  0.00000000000E+00 -0.00000000000E+00 -0.37369319418E+03  0.37369319418E+03  0.00000000000E+00 0.  1.
         23    2    1    2    0    0 -0.51939074275E-03  0.81704366871E+02 -0.76216093030E+02  0.16772484629E+03  0.12508847932E+03 0.  0.
          5    1    3    3  502    0  0.60705519086E+01 -0.26373951220E+02  0.10125431317E+02  0.29196466615E+02  0.41800000000E+01 0. -1.
         -5    1    3    3    0  502 -0.60710712993E+01  0.10807831809E+03 -0.86341524347E+02  0.13852837967E+03  0.41800000000E+01 0. -1.
        -11    1    1    2    0    0  0.23583057152E+02  0.74664004645E+01 -0.48968753827E+02  0.54862068608E+02  0.00000000000E+00 0.  1.
         11    1    1    2    0    0 -0.23582537761E+02 -0.89170767336E+02 -0.18916260554E+03  0.21045202106E+03  0.00000000000E+00 0. -1.
</event>
<event>
 7    1  0.7017065E-006  0.1478753E+03  0.7561462E-02  0.1203108E+00
         -2   -1    0    0    0  501 -0.00000000000E+00  0.00000000000E+00  0.62393321550E+02  0.62393321550E+02  0.00000000000E+00 0.  1.
          2   -1    0    0  501    0  0.00000000000E+00 -0.00000000000E+00 -0.43358909277E+03  0.43358909277E+03  0.00000000000E+00 0. -1.
         23    2    1    2    0    0 -0.45126864033E+02  0.11257358184E+03 -0.15976127183E+03  0.23639269043E+03  0.12509434410E+03 0.  0.
          5    1    3    3  502    0  0.29159811243E+02  0.80745040989E+02 -0.11605892339E+03  0.14442022827E+03  0.41800000000E+01 0.  1.
         -5    1    3    3    0  502 -0.74286675276E+02  0.31828540854E+02 -0.43702348447E+02  0.91972462163E+02  0.41800000000E+01 0.  1.
        -11    1    1    2    0    0  0.71200798734E+00 -0.60195225581E+02 -0.16768561152E+03  0.17816407171E+03  0.00000000000E+00 0. -1.
         11    1    1    2    0    0  0.44414856046E+02 -0.52378356262E+02 -0.43748887864E+02  0.81425652172E+02  0.00000000000E+00 0.  1.
</event>
<event>
 6    1  0.7017065E-006  0.1454079E+03  0.7561462E-02  0.1206232E+00
          2   -1    0    0  501    0  0.00000000000E+00  0.00000000000E+00  0.31183945244E+03  0.31183945244E+03  0.00000000000E+00 0. -1.
         -2   -1    0    0    0  501 -0.00000000000E+00 -0.00000000000E+00 -0.20167576746E+03  0.20167576746E+03  0.00000000000E+00 0.  1.
          5    1    1    2  502    0 -0.63483963214E+01 -0.33674744291E+02  0.99430340706E+02  0.10525281750E+03  0.41800000000E+01 0. -1.
         -5    1    1    2    0  502 -0.47998835324E+02 -0.91677837676E+02 -0.14784542712E+03  0.18051165291E+03  0.41800000000E+01 0.  1.
        -11    1    1    2    0    0  0.47283919808E+02  0.13368644268E+03  0.11426640773E+03  0.18211163050E+03  0.00000000000E+00 0. -1.
         11    1    1    2    0    0  0.70633118365E+01 -0.83338607171E+01  0.44312363671E+02  0.45639118995E+02  0.00000000000E+00 0.  1.
</event>
<event>
 7    1  0.7017065E-006  0.1334264E+03  0.7561462E-02  0.1222458E+00
         -2   -1    0    0    0  501 -0.00000000000E+00  0.00000000000E+00  0.78531285415E+02  0.78531285415E+02  0.00000000000E+00 0.  1.
          2   -1    0    0  501    0  0.00000000000E+00 -0.00000000000E+00 -0.46357662940E+03  0.46357662940E+03  0.00000000000E+00 0. -1.
         23    2    1    2    0    0  0.12859817793E+03 -0.14908786919E+02 -0.76375809319E+02  0.19555144477E+03  0.12508932812E+03 0.  0.
          5    1    3    3  502    0 -0.16403138237E+01  0.33642798097E+01 -0.63048509390E+02  0.63297677243E+02  0.41800000000E+01 0. -1.
         -5    1    3    3    0  502  0.13023849176E+03 -0.18273066729E+02 -0.13327299929E+02  0.13225376753E+03  0.41800000000E+01 0. -1.
        -11    1    1    2    0    0 -0.84846135419E+02  0.13279102455E+02 -0.93404769883E+02  0.12688440524E+03  0.00000000000E+00 0.  1.
         11    1    1    2    0    0 -0.43752042513E+02  0.16296844643E+01 -0.21526476478E+03  0.21967206479E+03  0.00000000000E+00 0. -1.
</event>
<event>
 7    1  0.7017065E-006  0.7257715E+02  0.7561462E-02  0.1351542E+00
         -1   -1    0    0    0  501 -0.00000000000E+00  0.00000000000E+00  0.43019580257E+03  0.43019580257E+03  0.00000000000E+00 0.  1.
          1   -1    0    0  501    0  0.00000000000E+00 -0.00000000000E+00 -0.30216022433E+02  0.30216022433E+02  0.00000000000E+00 0. -1.
         23    2    1    2    0    0 -0.16266686619E+02 -0.20854962136E+02  0.26260652951E+03  0.29207790404E+03  0.12509107941E+03 0.  0.
          5    1    3    3  502    0  0.18983912478E+02 -0.18079123782E+02 -0.52163101548E+00  0.26551612919E+02  0.41800000000E+01 0. -1.
         -5    1    3    3    0  502 -0.35250599097E+02 -0.27758383538E+01  0.26312816053E+03  0.26552629112E+03  0.41800000000E+01 0. -1.
        -11    1    1    2    0    0 -0.27850732732E+02  0.26599172816E+02  0.10890881601E+03  0.11551757231E+03  0.00000000000E+00 0.  1.
         11    1    1    2    0    0  0.44117419350E+02 -0.57442106803E+01  0.28464434615E+02  0.52816348647E+02  0.00000000000E+00 0. -1.
</event>
<event>
 7    1  0.7017065E-006  0.9925807E+02  0.7561462E-02  0.1281864E+00
          2   -1    0    0  501    0  0.00000000000E+00  0.00000000000E+00  0.22374731549E+02  0.22374731549E+02  0.00000000000E+00 0. -1.
         -2   -1    0    0    0  501 -0.00000000000E+00 -0.00000000000E+00 -0.11296522152E+04  0.11296522152E+04  0.00000000000E+00 0.  1.
         23    2    1    2    0    0  0.86482404993E+02 -0.10693077179E+02 -0.86935125697E+03  0.88261966021E+03  0.12510918556E+03 0.  0.
          5    1    3    3  502    0  0.41072943141E+02 -0.80983529470E+00 -0.78610260319E+03  0.78718639319E+03  0.41800000000E+01 0.  1.
         -5    1    3    3    0  502  0.45409461852E+02 -0.98832418848E+01 -0.83248653788E+02  0.95433267016E+02  0.41800000000E+01 0.  1.
        -11    1    1    2    0    0 -0.98250408902E+02  0.88010458391E+01 -0.23784322532E+03  0.25748786590E+03  0.00000000000E+00 0.  1.
         11    1    1    2    0    0  0.11768003909E+02  0.18920313404E+01 -0.83001337511E-01  0.11919420616E+02  0.00000000000E+00 0. -1.
</event>
<event>
 7    1  0.7017065E-006  0.1261621E+03  0.7561462E-02  0.1233264E+00
          2   -1    0    0  501    0  0.00000000000E+00  0.00000000000E+00  0.41036344781E+03  0.41036344781E+03  0.00000000000E+00 0. -1.
         -2   -1    0    0    0  501 -0.00000000000E+00 -0.00000000000E+00 -0.58901196997E+02  0.58901196997E+02  0.00000000000E+00 0.  1.
         23    2    1    2    0    0 -0.10781343524E+03 -0.31928415472E+02  0.16747223290E+03  0.23735436763E+03  0.12508791512E+03 0.  0.
          5    1    3    3  502    0 -0.54865033301E+02 -0.12474601093E+02  0.17160288925E+03  0.18064000540E+03  0.41800000000E+01 0. -1.
         -5    1    3    3    0  502 -0.52948401940E+02 -0.19453814379E+02 -0.41306563503E+01  0.56714362235E+02  0.41800000000E+01 0. -1.
        -11    1    1    2    0    0  0.11768250471E+03  0.13524625689E+02  0.16821564170E+03  0.20573912979E+03  0.00000000000E+00 0. -1.
         11    1    1    2    0    0 -0.98690694691E+01  0.18403789782E+02  0.15774376223E+02  0.26171147391E+02  0.00000000000E+00 0.  1.
</event>
<event>
 7    1  0.7801505E-006  0.1820492E+03  0.7561462E-02  0.1165834E+00
         -3   -1    0    0    0  501 -0.00000000000E+00  0.00000000000E+00  0.34842094677E+03  0.34842094677E+03  0.00000000000E+00 0.  1.
          3   -1    0    0  501    0  0.00000000000E+00 -0.00000000000E+00 -0.12576048163E+03  0.12576048163E+03  0.00000000000E+00 0. -1.
         23    2    1    2    0    0 -0.16453380907E+03 -0.68785043547E+02  0.12850763675E+03  0.25291208506E+03  0.12509018156E+03 0.  0.
          5    1    3    3  502    0 -0.97877559092E+02 -0.45454038742E+02  0.14448328767E+03  0.18038563975E+03  0.41800000000E+01 0.  1.
         -5    1    3    3    0  502 -0.66656249977E+02 -0.23331004805E+02 -0.15975650927E+02  0.72526445306E+02  0.41800000000E+01 0.  1.
        -11    1    1    2    0    0  0.88922929946E+02  0.98056729017E+01  0.87510513019E+02  0.12514602902E+03  0.00000000000E+00 0.  1.
         11    1    1    2    0    0  0.75610879122E+02  0.58979370645E+02  0.66423153699E+01  0.96123314325E+02  0.00000000000E+00 0. -1.
</event>
<event>
 7    1  0.7017065E-006  0.1164272E+03  0.7561462E-02  0.1249110E+00
          1   -1    0    0  501    0  0.00000000000E+00  0.00000000000E+00  0.86957212182E+03  0.86957212182E+03  0.00000000000E+00 0. -1.
         -1   -1    0    0    0  501 -0.00000000000E+00 -0.00000000000E+00 -0.17745764569E+02  0.17745764569E+02  0.00000000000E+00 0.  1.
         23    2    1    2    0    0 -0.92696749234E+01 -0.72366953778E+02  0.43002508707E+03  0.45005395643E+03  0.11092378159E+03 0.  0.
          5    1    3    3  502    0 -0.44264107104E+02  0.78224941633E+01  0.15084055996E+03  0.15745110200E+03  0.41800000000E+01 0. -1.
         -5    1    3    3    0  502  0.34994432181E+02 -0.80189447941E+02  0.27918452710E+03  0.29260285443E+03  0.41800000000E+01 0.  1.
        -11    1    1    2    0    0  0.31576424975E+02  0.71075476864E+02  0.39396853358E+03  0.40157191072E+03  0.00000000000E+00 0. -1.
         11    1    1    2    0    0 -0.22306750052E+02  0.12914769135E+01  0.27832736605E+02  0.35692019240E+02  0.00000000000E+00 0.  1.
</event>
<event>
 7    1  0.7017065E-006  0.1335582E+03  0.7561462E-02  0.1222270E+00
          2   -1    0    0  501    0  0.00000000000E+00  0.00000000000E+00  0.40203595213E+03  0.40203595213E+03  0.00000000000E+00 0. -1.
         -2   -1    0    0    0  501 -0.00000000000E+00 -0.00000000000E+00 -0.49188668123E+02  0.49188668123E+02  0.00000000000E+00 0.  1.
         23    2    1    2    0    0  0.39232052810E+02  0.71022137361E+02  0.13422449765E+03  0.20061336881E+03  0.12508481128E+03 0.  0.
          5    1    3    3  502    0  0.68562467229E+02  0.89626017449E+02  0.11270172266E+03  0.15953929173E+03  0.41800000000E+01 0.  1.
         -5    1    3    3    0  502 -0.29330414419E+02 -0.18603880088E+02  0.21522774987E+02  0.41074077073E+02  0.41800000000E+01 0.  1.
        -11    1    1    2    0    0 -0.67482853522E+02 -0.50944824573E+02  0.12623156897E+03  0.15193327375E+03  0.00000000000E+00 0.  1.
         11    1    1    2    0    0  0.28250800712E+02 -0.20077312788E+02  0.92391217396E+02  0.98677977693E+02  0.00000000000E+00 0. -1.
</event>
<event>
 7    1  0.7017065E-006  0.1007219E+03  0.7561462E-02  0.1278785E+00
          1   -1    0    0  501    0  0.00000000000E+00  0.00000000000E+00  0.69297304767E+02  0.69297304767E+02  0.00000000000E+00 0. -1.
         -1   -1    0    0    0  501 -0.00000000000E+00 -0.00000000000E+00 -0.18693500586E+03  0.18693500586E+03  0.00000000000E+00 0.  1.
         23    2    1    2    0    0 -0.39960024556E+01 -0.29444371616E+02 -0.10971088852E+03  0.16026302764E+03  0.11298150253E+03 0.  0.
          5    1    3    3  502    0  0.12452075270E+02  0.37817353015E+02 -0.69158378554E+02  0.79909699610E+02  0.41800000000E+01 0. -1.
         -5    1    3    3    0  502 -0.16448077726E+02 -0.67261724630E+02 -0.40552509968E+02  0.80353328032E+02  0.41800000000E+01 0.  1.
        -11    1    1    2    0    0  0.38365195796E+01 -0.31180420949E+02  0.96209965018E+01  0.32855762155E+02  0.00000000000E+00 0.  1.
         11    1    1    2    0    0  0.15948287594E+00  0.60624792565E+02 -0.17547809071E+02  0.63113520830E+02  0.00000000000E+00 0. -1.
</event>
<event>
 7    1  0.7017065E-006  0.1179262E+03  0.7561462E-02  0.1246558E+00
          2   -1    0    0  501    0  0.00000000000E+00  0.00000000000E+00  0.68023764129E+03  0.68023764129E+03  0.00000000000E+00 0. -1.
         -2   -1    0    0    0  501 -0.00000000000E+00 -0.00000000000E+00 -0.22144113807E+02  0.22144113807E+02  0.00000000000E+00 0.  1.
         23    2    1    2    0    0 -0.48605530832E+02  0.25057954500E+02  0.32261940167E+03  0.35031582390E+03  0.12508996537E+03 0.  0.
          5    1    3    3  502    0 -0.87216690542E+02  0.26633284475E+02  0.17155772787E+03  0.19433375760E+03  0.41800000000E+01 0.  1.
         -5    1    3    3    0  502  0.38611159710E+02 -0.15753299747E+01  0.15106167379E+03  0.15598206630E+03  0.41800000000E+01 0.  1.
        -11    1    1    2    0    0  0.16053943332E+02 -0.57523208311E+02  0.21421329413E+03  0.22238251724E+03  0.00000000000E+00 0. -1.
         11    1    1    2    0    0  0.32551587500E+02  0.32465253811E+02  0.12126083168E+03  0.12968341395E+03  0.00000000000E+00 0.  1.
</event>
<event>
 7    1  0.7017065E-006  0.9083624E+02  0.7561462E-02  0.1300839E+00
          4   -1    0    0  501    0  0.00000000000E+00  0.00000000000E+00  0.31913438261E+03  0.31913438261E+03  0.00000000000E+00 0. -1.
         -4   -1    0    0    0  501 -0.00000000000E+00 -0.00000000000E+00 -0.37563539061E+02  0.37563539061E+02  0.00000000000E+00 0.  1.
         23    2    1    2    0    0  0.73686921738E+01 -0.12009374631E+02  0.14340403584E+03  0.19081649093E+03  0.12509073912E+03 0.  0.
          5    1    3    3  502    0 -0.58682709453E+02 -0.24215409033E+01  0.62892265620E+02  0.86153547367E+02  0.41800000000E+01 0.  1.
         -5    1    3    3    0  502  0.66051401627E+02 -0.95878337272E+01  0.80511770217E+02  0.10466294357E+03  0.41800000000E+01 0.  1.
        -11    1    1    2    0    0 -0.37656456335E+01 -0.21695540135E+02  0.12886301638E+03  0.13073084387E+03  0.00000000000E+00 0. -1.
         11    1    1    2    0    0 -0.36030465403E+01  0.33704914766E+02  0.93037913274E+01  0.35150586863E+02  0.00000000000E+00 0.  1.
</event>
<event>
 7    1  0.1332188E-005  0.1842185E+03  0.7561462E-02  0.1163782E+00
         -3   -1    0    0    0  501 -0.00000000000E+00  0.00000000000E+00  0.76886134194E+02  0.76886134194E+02  0.00000000000E+00 0.  1.
          3   -1    0    0  501    0  0.00000000000E+00 -0.00000000000E+00 -0.60061217191E+03  0.60061217191E+03  0.00000000000E+00 0. -1.
         23    2    1    2    0    0 -0.95230305862E+02  0.14695195428E+03 -0.17825879497E+03  0.27944076214E+03  0.12508898250E+03 0.  0.
          5    1    3    3  502    0 -0.32247879667E+02  0.44200884597E+02 -0.14396591728E+03  0.15406914577E+03  0.41800000000E+01 0. -1.
         -5    1    3    3    0  502 -0.62982426195E+02  0.10275106968E+03 -0.34292877692E+02  0.12537161637E+03  0.41800000000E+01 0. -1.
        -11    1    1    2    0    0  0.11092267424E+02 -0.91580112633E+02 -0.20891991106E+03  0.22838013194E+03  0.00000000000E+00 0.  1.
         11    1    1    2    0    0  0.84138038438E+02 -0.55371841649E+02 -0.13654733169E+03  0.16967741202E+03  0.00000000000E+00 0. -1.
</event>
<event>
 7    1  0.7017065E-006  0.8594274E+02  0.7561462E-02  0.1312985E+00
         -2   -1    0    0    0  501 -0.00000000000E+00  0.00000000000E+00  0.33327602386E+02  0.33327602386E+02  0.00000000000E+00 0. -1.
          2   -1    0    0  501    0  0.00000000000E+00 -0.00000000000E+00 -0.54815832205E+03  0.54815832205E+03  0.00000000000E+00 0.  1.
         23    2    1    2    0    0 -0.76171129792E+02  0.14378770889E+02 -0.23883367009E+03  0.28053112026E+03  0.12508955753E+03 0.  0.
          5    1    3    3  502    0  0.73559603236E+01 -0.25684754694E+01 -0.17177691910E+03  0.17200433004E+03  0.41800000000E+01 0.  1.
         -5    1    3    3    0  502 -0.83527090115E+02  0.16947246358E+02 -0.67056750988E+02  0.10852679022E+03  0.41800000000E+01 0.  1.
        -11    1    1    2    0    0  0.45654852615E+02 -0.11359496109E+02 -0.26378451939E+03  0.26794715224E+03  0.00000000000E+00 0.  1.
         11    1    1    2    0    0  0.30516277177E+02 -0.30192747793E+01 -0.12212530181E+02  0.33007651936E+02  0.00000000000E+00 0. -1.
</event>
<event>
 7    1  0.7017065E-006  0.1019897E+03  0.7561462E-02  0.1276167E+00
         -4   -1    0    0    0  501 -0.00000000000E+00  0.00000000000E+00  0.90818191654E+02  0.90818191654E+02  0.00000000000E+00 0.  1.
          4   -1    0    0  501    0  0.00000000000E+00 -0.00000000000E+00 -0.23561617832E+03  0.23561617832E+03  0.00000000000E+00 0. -1.
         23    2    1    2    0    0 -0.25122441518E+02 -0.40054410637E+02  0.14332281409E+02  0.13450615166E+03  0.12510394743E+03 0.  0.
          5    1    3    3  502    0 -0.64207067310E+02  0.73261917925E-01  0.36666091059E+02  0.74056920631E+02  0.41800000000E+01 0. -1.
         -5    1    3    3    0  502  0.39084625791E+02 -0.40127672555E+02 -0.22333809650E+02  0.60449231024E+02  0.41800000000E+01 0. -1.
        -11    1    1    2    0    0 -0.24043759661E+02  0.13958135952E+02 -0.12173788625E+03  0.12487211413E+03  0.00000000000E+00 0. -1.
         11    1    1    2    0    0  0.49166201180E+02  0.26096274685E+02 -0.37392381826E+02  0.67056104193E+02  0.00000000000E+00 0.  1.
</event>
<event>
 7    1  0.7017065E-006  0.1118399E+03  0.7561462E-02  0.1257200E+00
         -1   -1    0    0    0  501 -0.00000000000E+00  0.00000000000E+00  0.30817879584E+03  0.30817879584E+03  0.00000000000E+00 0.  1.
          1   -1    0    0  501    0  0.00000000000E+00 -0.00000000000E+00 -0.48118008250E+02  0.48118008250E+02  0.00000000000E+00 0. -1.
         23    2    1    2    0    0 -0.11357056678E+01 -0.33751869220E+02  0.20956408851E+03  0.24638365777E+03  0.12508925261E+03 0.  0.
          5    1    3    3  502    0  0.19223275362E+02 -0.78076374250E+02  0.13488089562E+03  0.15708527281E+03  0.41800000000E+01 0.  1.
         -5    1    3    3    0  502 -0.20358981029E+02  0.44324505030E+02  0.74683192889E+02  0.89298384951E+02  0.41800000000E+01 0.  1.
        -11    1    1    2    0    0 -0.39387563581E+02 -0.29992322560E+01  0.35694239393E+02  0.53239593207E+02  0.00000000000E+00 0.  1.
         11    1    1    2    0    0  0.40523269249E+02  0.36751101476E+02  0.14802459687E+02  0.56673553119E+02  0.00000000000E+00 0. -1.
</event>
<event>
 7    1  0.7017065E-006  0.1691260E+03  0.7561462E-02  0.1178762E+00
         -2   -1    0    0    0  501 -0.00000000000E+00  0.00000000000E+00  0.27548218331E+02  0.27548218331E+02  0.00000000000E+00 0. -1.
          2   -1    0    0  501    0  0.00000000000E+00 -0.00000000000E+00 -0.14335741077E+04  0.14335741077E+04  0.00000000000E+00 0.  1.
         23    2    1    2    0    0 -0.15359710668E+03  0.51301831589E+02 -0.62819153491E+03  0.66067829455E+03  0.12508898932E+03 0.  0.
          5    1    3    3  502    0 -0.15082287442E+03  0.31799134322E+02 -0.35873376476E+03  0.39046909068E+03  0.41800000000E+01 0.  1.
         -5    1    3    3    0  502 -0.27742322642E+01  0.19502697267E+02 -0.26945777015E+03  0.27020920388E+03  0.41800000000E+01 0.  1.
        -11    1    1    2    0    0  0.13314933642E+03 -0.34743619730E+02 -0.74847689707E+03  0.76102137312E+03  0.00000000000E+00 0.  1.
         11    1    1    2    0    0  0.20447770264E+02 -0.16558211859E+02 -0.29357457434E+02  0.39422658405E+02  0.00000000000E+00 0. -1.
</event>
<event>
 7    1  0.7017065E-006  0.8409849E+02  0.7561462E-02  0.1317807E+00
         -2   -1    0    0    0  501 -0.00000000000E+00  0.00000000000E+00  0.68441562181E+02  0.68441562181E+02  0.00000000000E+00 0.  1.
          2   -1    0    0  501    0  0.00000000000E+00 -0.00000000000E+00 -0.20858408299E+03  0.20858408299E+03  0.00000000000E+00 0. -1.
         23    2    1    2    0    0 -0.38414843489E+01  0.40646253581E+02 -0.23788243737E+02  0.13371758001E+03  0.12509051016E+03 0.  0.
          5    1    3    3  502    0 -0.20588951818E+02 -0.39779586026E+02 -0.24969838368E+02  0.51451779653E+02  0.41800000000E+01 0. -1.
         -5    1    3    3    0  502  0.16747467469E+02  0.80425839607E+02  0.11815946311E+01  0.82265800361E+02  0.41800000000E+01 0. -1.
        -11    1    1    2    0    0  0.33637991042E+01 -0.18604616181E+02  0.53295832037E+01  0.19643099164E+02  0.00000000000E+00 0.  1.
         11    1    1    2    0    0  0.47768524468E+00 -0.22041637400E+02 -0.12168386027E+03  0.12366496599E+03  0.00000000000E+00 0. -1.
</event>
<event>
 7    1  0.7017065E-006  0.1246543E+03  0.7561462E-02  0.1235611E+00
         -2   -1    0    0    0  501 -0.00000000000E+00  0.00000000000E+00  0.84667149475E+03  0.84667149475E+03  0.00000000000E+00 0.  1.
          2   -1    0    0  501    0  0.00000000000E+00 -0.00000000000E+00 -0.48583734588E+02  0.48583734588E+02  0.00000000000E+00 0. -1.
         23    2    1    2    0    0 -0.47008278680E+02  0.64368659752E+02  0.75179201277E+03  0.76628416485E+03  0.12508832165E+03 0.  0.
          5    1    3    3  502    0  0.39960751042E+02  0.35872269371E+02  0.20979663962E+03  0.21660051646E+03  0.41800000000E+01 0. -1.
         -5    1    3    3    0  502 -0.86969029722E+02  0.28496390381E+02  0.54199537315E+03  0.54968364840E+03  0.41800000000E+01 0. -1.
        -11    1    1    2    0    0 -0.14826377212E+02 -0.35494570389E+00  0.36541723749E+02  0.39436594962E+02  0.00000000000E+00 0.  1.
         11    1    1    2    0    0  0.61834655892E+02 -0.64013714048E+02  0.97540236417E+01  0.89534469523E+02  0.00000000000E+00 0. -1.
</event>
<event>
 7    1  0.7017065E-006  0.9598548E+02  0.7561462E-02  0.1288972E+00
          1   -1    0    0  501    0  0.00000000000E+00  0.00000000000E+00  0.19487236636E+02  0.19487236636E+02  0.00000000000E+00 0. -1.
         -1   -1    0    0    0  501 -0.00000000000E+00 -0.00000000000E+00 -0.89621814502E+03  0.89621814502E+03  0.00000000000E+00 0.  1.
         23    2    1    2    0    0  0.53057583613E+02  0.25310978331E+01 -0.67401968611E+03  0.68758370542E+03  0.12508917243E+03 0.  0.
          5    1    3    3  502    0  0.36581760078E+01  0.56911043747E+02 -0.20496278255E+03  0.21278971728E+03  0.41800000000E+01 0.  1.
         -5    1    3    3    0  502  0.49399407605E+02 -0.54379945914E+02 -0.46905690356E+03  0.47479398814E+03  0.41800000000E+01 0.  1.
        -11    1    1    2    0    0 -0.50589182055E+02  0.72583890491E+01 -0.20970313851E+03  0.21584104302E+03  0.00000000000E+00 0.  1.
         11    1    1    2    0    0 -0.24684015575E+01 -0.97894868822E+01  0.69919162309E+01  0.12280633218E+02  0.00000000000E+00 0. -1.
</event>
<event>
 7    1  0.7017065E-006  0.1140142E+03  0.7561462E-02  0.1253312E+00
         -4   -1    0    0    0  501 -0.00000000000E+00  0.00000000000E+00  0.39638251831E+02  0.39638251831E+02  0.00000000000E+00 0.  1.
          4   -1    0    0  501    0  0.00000000000E+00 -0.00000000000E+00 -0.44341664681E+03  0.44341664681E+03  0.00000000000E+00 0. -1.
         23    2    1    2    0    0 -0.66506549441E+02  0.61273157418E+01 -0.15967247177E+03  0.21355374958E+03  0.12509692483E+03 0.  0.
          5    1    3    3  502    0  0.78230465551E+01 -0.48486090037E+02 -0.60872465616E+02  0.78326435222E+02  0.41800000000E+01 0.  1.
         -5    1    3    3    0  502 -0.74329595996E+02  0.54613405779E+02 -0.98800006154E+02  0.13522731436E+03  0.41800000000E+01 0.  1.
        -11    1    1    2    0    0  0.14203427264E+01 -0.19840820990E+02 -0.39186066176E+01  0.20273900188E+02  0.00000000000E+00 0.  1.
         11    1    1    2    0    0  0.65086206715E+02  0.13713505248E+02 -0.24018731659E+03  0.24922724888E+03  0.00000000000E+00 0. -1.
</event>
<event>
 7    1  0.7017065E-006  0.1201571E+03  0.7561462E-02  0.1242838E+00
         -3   -1    0    0    0  501 -0.00000000000E+00  0.00000000000E+00  0.11840172955E+03  0.11840172955E+03  0.00000000000E+00 0.  1.
          3   -1    0    0  501    0  0.00000000000E+00 -0.00000000000E+00 -0.13363712761E+03  0.13363712761E+03  0.00000000000E+00 0. -1.
         23    2    1    2    0    0  0.41430783144E+02  0.21034266357E+02 -0.44570922391E+00  0.13344445150E+03  0.12509305667E+03 0.  0.
          5    1    3    3  502    0 -0.23169878626E+02  0.53978732330E+02 -0.11410218861E+02  0.59985100766E+02  0.41800000000E+01 0. -1.
         -5    1    3    3    0  502  0.64600661769E+02 -0.32944465972E+02  0.10964509637E+02  0.73459350738E+02  0.41800000000E+01 0. -1.
        -11    1    1    2    0    0 -0.72534203935E+02 -0.26469648040E+02  0.10783583063E+02  0.77962418328E+02  0.00000000000E+00 0. -1.
         11    1    1    2    0    0  0.31103420792E+02  0.54353816827E+01 -0.25573271894E+02  0.40631987329E+02  0.00000000000E+00 0.  1.
</event>
<event>
 7    1  0.7017065E-006  0.1099225E+03  0.7561462E-02  0.1260713E+00
         -1   -1    0    0    0  501 -0.00000000000E+00  0.00000000000E+00  0.18900246803E+03  0.18900246803E+03  0.00000000000E+00 0.  1.
          1   -1    0    0  501    0  0.00000000000E+00 -0.00000000000E+00 -0.88175803309E+02  0.88175803309E+02  0.00000000000E+00 0. -1.
         23    2    1    2    0    0 -0.48191129297E+02  0.53127870437E+02  0.58687356950E+02  0.15568261346E+03  0.12509162525E+03 0.  0.
          5    1    3    3  502    0  0.24460243186E+02 -0.17566113753E+02  0.43536494284E+02  0.53101512066E+02  0.41800000000E+01 0.  1.
         -5    1    3    3    0  502 -0.72651372483E+02  0.70693984190E+02  0.15150862666E+02  0.10258110140E+03  0.41800000000E+01 0.  1.
        -11    1    1    2    0    0  0.12840111455E+02  0.95662930410E+01 -0.20547715950E+02  0.26049780335E+02  0.00000000000E+00 0. -1.
         11    1    1    2    0    0  0.35351017842E+02 -0.62694163478E+02  0.62687023719E+02  0.95445877540E+02  0.00000000000E+00 0.  1.
</event>
<event>
 7    1  0.7017065E-006  0.1194658E+03  0.7561462E-02  0.1243981E+00
         -1   -1    0    0    0  501 -0.00000000000E+00  0.00000000000E+00  0.66632911064E+02  0.66632911064E+02  0.00000000000E+00 0.  1.
          1   -1    0    0  501    0  0.00000000000E+00 -0.00000000000E+00 -0.33283690006E+03  0.33283690006E+03  0.00000000000E+00 0. -1.
         23    2    1    2    0    0  0.45557822945E+02 -0.91492025362E+02 -0.14427479087E+03  0.21658192236E+03  0.12508480274E+03 0.  0.
          5    1    3    3  502    0  0.20946462041E+02 -0.32067876955E+02 -0.14710276678E+03  0.15206511565E+03  0.41800000000E+01 0.  1.
         -5    1    3    3    0  502  0.24611360904E+02 -0.59424148407E+02  0.28279759156E+01  0.64516806703E+02  0.41800000000E+01 0.  1.
        -11    1    1    2    0    0  0.23929148230E+02  0.48910758106E+02 -0.55468667136E+02  0.77727983554E+02  0.00000000000E+00 0. -1.
         11    1    1    2    0    0 -0.69486971175E+02  0.42581267256E+02 -0.66460530993E+02  0.10515990521E+03  0.00000000000E+00 0.  1.
</event>
<event>
 7    1  0.7017065E-006  0.1017055E+03  0.7561462E-02  0.1276750E+00
         -1   -1    0    0    0  501 -0.00000000000E+00  0.00000000000E+00  0.10734443686E+03  0.10734443686E+03  0.00000000000E+00 0.  1.
          1   -1    0    0  501    0  0.00000000000E+00 -0.00000000000E+00 -0.15942459261E+03  0.15942459261E+03  0.00000000000E+00 0. -1.
         23    2    1    2    0    0 -0.43677312592E+02 -0.42738177275E+02  0.11646816754E+02  0.13970319716E+03  0.12508827093E+03 0.  0.
          5    1    3    3  502    0  0.15290294021E+02  0.17751792470E+02 -0.35599819940E+02  0.42822176578E+02  0.41800000000E+01 0.  1.
         -5    1    3    3    0  502 -0.58967606612E+02 -0.60489969745E+02  0.47246636694E+02  0.96881020578E+02  0.41800000000E+01 0.  1.
        -11    1    1    2    0    0 -0.11497855740E+02  0.37946034325E+02 -0.59527976882E+02  0.71523997646E+02  0.00000000000E+00 0. -1.
         11    1    1    2    0    0  0.55175168331E+02  0.47921429498E+01 -0.41989956159E+01  0.55541834671E+02  0.00000000000E+00 0.  1.
</event>
<event>
 7    1  0.7017065E-006  0.1002962E+03  0.7561462E-02  0.1279674E+00
         -1   -1    0    0    0  501 -0.00000000000E+00  0.00000000000E+00  0.90855901203E+02  0.90855901203E+02  0.00000000000E+00 0.  1.
          1   -1    0    0  501    0  0.00000000000E+00 -0.00000000000E+00 -0.21140017486E+03  0.21140017486E+03  0.00000000000E+00 0. -1.
         23    2    1    2    0    0 -0.64897735708E+02 -0.51288009158E+02 -0.38709754344E+02  0.15488259539E+03  0.12509195533E+03 0.  0.
          5    1    3    3  502    0 -0.12680495641E+01 -0.10889371601E+02 -0.71590432027E+02  0.72545494150E+02  0.41800000000E+01 0.  1.
         -5    1    3    3    0  502 -0.63629686144E+02 -0.40398637557E+02  0.32880677683E+02  0.82337101237E+02  0.41800000000E+01 0.  1.
        -11    1    1    2    0    0  0.35470519116E+02  0.70018346021E+02 -0.28218033996E+02  0.83408536425E+02  0.00000000000E+00 0.  1.
         11    1    1    2    0    0  0.29427216592E+02 -0.18730336863E+02 -0.53616485318E+02  0.63964944252E+02  0.00000000000E+00 0. -1.
</event>
<event>
 7    1  0.7017065E-006  0.1034850E+03  0.7561462E-02  0.1273134E+00
         -3   -1    0    0    0  501 -0.00000000000E+00  0.00000000000E+00  0.32465982984E+02  0.32465982984E+02  0.00000000000E+00 0. -1.
          3   -1    0    0  501    0  0.00000000000E+00 -0.00000000000E+00 -0.38804130823E+03  0.38804130823E+03  0.00000000000E+00 0.  1.
         23    2    1    2    0    0  0.16563611977E+02  0.24188085885E+02 -0.18460839232E+03  0.22491618891E+03  0.12509043439E+03 0.  0.
          5    1    3    3  502    0 -0.46464852679E+02  0.18482834300E+01 -0.13111610575E+03  0.13918083300E+03  0.41800000000E+01 0.  1.
         -5    1    3    3    0  502  0.63028464655E+02  0.22339802455E+02 -0.53492286571E+02  0.85735355910E+02  0.41800000000E+01 0.  1.
        -11    1    1    2    0    0  0.32954202070E+02  0.83911857191E+01 -0.45270928590E+02  0.56620212003E+02  0.00000000000E+00 0. -1.
         11    1    1    2    0    0 -0.49517814047E+02 -0.32579271604E+02 -0.12569600433E+03  0.13897089030E+03  0.00000000000E+00 0.  1.
</event>
<event>
 7    1  0.7017065E-006  0.1734999E+03  0.7561462E-02  0.1174246E+00
          1   -1    0    0  501    0  0.00000000000E+00  0.00000000000E+00  0.63937958187E+02  0.63937958187E+02  0.00000000000E+00 0. -1.
         -1   -1    0    0    0  501 -0.00000000000E+00 -0.00000000000E+00 -0.88382744276E+03  0.88382744276E+03  0.00000000000E+00 0.  1.
         23    2    1    2    0    0  0.14899552636E+03 -0.13465297379E+01 -0.72155167142E+03  0.74731924541E+03  0.12509100697E+03 0.  0.
          5    1    3    3  502    0  0.11755098431E+03 -0.39032703254E+02 -0.64122410906E+03  0.65309081779E+03  0.41800000000E+01 0.  1.
         -5    1    3    3    0  502  0.31444542050E+02  0.37686173516E+02 -0.80327562352E+02  0.94228427624E+02  0.41800000000E+01 0.  1.
        -11    1    1    2    0    0 -0.52391380552E+02  0.43798858679E+02 -0.48434812250E+02  0.83720534012E+02  0.00000000000E+00 0.  1.
         11    1    1    2    0    0 -0.96604145807E+02 -0.42452328941E+02 -0.49903000905E+02  0.11672562152E+03  0.00000000000E+00 0. -1.
</event>
<event>
 7    1  0.7017065E-006  0.9448837E+02  0.7561462E-02  0.1292333E+00
         -1   -1    0    0    0  501 -0.00000000000E+00  0.00000000000E+00  0.78773357139E+02  0.78773357139E+02  0.00000000000E+00 0.  1.
          1   -1    0    0  501    0  0.00000000000E+00 -0.00000000000E+00 -0.42891430976E+03  0.42891430976E+03  0.00000000000E+00 0. -1.
         23    2    1    2    0    0 -0.26442077937E+02  0.95514340028E+01  0.22078664952E+02  0.12244803103E+03  0.11711378860E+03 0.  0.
          5    1    3    3  502    0  0.18624049751E+02 -0.26750152443E+02 -0.29990876652E+02  0.44489897361E+02  0.41800000000E+01 0. -1.
         -5    1    3    3    0  502 -0.45066127687E+02  0.36301586446E+02  0.52069541603E+02  0.77958133674E+02  0.41800000000E+01 0.  1.
        -11    1    1    2    0    0 -0.32283117116E+02  0.13521513398E+02 -0.16288433184E+03  0.16660233051E+03  0.00000000000E+00 0.  1.
         11    1    1    2    0    0  0.58725195053E+02 -0.23072947401E+02 -0.20933528574E+03  0.21863730535E+03  0.00000000000E+00 0. -1.
</event>
<event>
 7    1  0.7017065E-006  0.2320611E+03  0.7561462E-02  0.1125197E+00
          4   -1    0    0  501    0  0.00000000000E+00  0.00000000000E+00  0.22098724009E+03  0.22098724009E+03  0.00000000000E+00 0.  1.
         -4   -1    0    0    0  501 -0.00000000000E+00 -0.00000000000E+00 -0.52548385104E+03  0.52548385104E+03  0.00000000000E+00 0. -1.
         23    2    1    2    0    0 -0.20461869728E+03 -0.85705217423E+02 -0.41139003925E+03  0.48384201165E+03  0.12508849779E+03 0.  0.
          5    1    3    3  502    0 -0.73649134425E+02 -0.13504006065E+02 -0.26158522055E+03  0.27212286415E+03  0.41800000000E+01 0.  1.
         -5    1    3    3    0  502 -0.13096956286E+03 -0.72201211358E+02 -0.14980481870E+03  0.21171914751E+03  0.41800000000E+01 0.  1.
        -11    1    1    2    0    0  0.64880350516E+02  0.75294756772E+02  0.51606281496E+02  0.11199093075E+03  0.00000000000E+00 0. -1.
         11    1    1    2    0    0  0.13973834677E+03  0.10410460651E+02  0.55287146801E+02  0.15063814872E+03  0.00000000000E+00 0.  1.
</event>
<event>
 7    1  0.7017065E-006  0.8696252E+02  0.7561462E-02  0.1310379E+00
          2   -1    0    0  501    0  0.00000000000E+00  0.00000000000E+00  0.46291365457E+03  0.46291365457E+03  0.00000000000E+00 0. -1.
         -2   -1    0    0    0  501 -0.00000000000E+00 -0.00000000000E+00 -0.37893970440E+02  0.37893970440E+02  0.00000000000E+00 0.  1.
         23    2    1    2    0    0 -0.75030050020E+02 -0.29484289065E+02  0.20373493640E+03  0.25229744651E+03  0.12508895035E+03 0.  0.
          5    1    3    3  502    0 -0.60380353838E+02 -0.32101658638E+02  0.25052964159E+02  0.72948111902E+02  0.41800000000E+01 0. -1.
         -5    1    3    3    0  502 -0.14649696181E+02  0.26173695726E+01  0.17868197224E+03  0.17934933461E+03  0.41800000000E+01 0. -1.
        -11    1    1    2    0    0  0.60043573893E+02  0.37303267826E+01  0.20681227761E+03  0.21538445690E+03  0.00000000000E+00 0. -1.
         11    1    1    2    0    0  0.14986476127E+02  0.25753962283E+02  0.14472470120E+02  0.33125721597E+02  0.00000000000E+00 0.  1.
</event>
<event>
 7    1  0.7017065E-006  0.7136191E+02  0.7561462E-02  0.1355522E+00
         -2   -1    0    0    0  501 -0.00000000000E+00  0.00000000000E+00  0.16672673515E+02  0.16672673515E+02  0.00000000000E+00 0.  1.
          2   -1    0    0  501    0  0.00000000000E+00 -0.00000000000E+00 -0.66034034475E+03  0.66034034475E+03  0.00000000000E+00 0. -1.
         23    2    1    2    0    0  0.13207010532E+01  0.64395292047E+02 -0.40003600557E+03  0.42405748927E+03  0.12508977002E+03 0.  0.
          5    1    3    3  502    0  0.77738904042E+01 -0.13586501307E+01  0.72026021114E+01  0.11472976047E+02  0.41800000000E+01 0.  1.
         -5    1    3    3    0  502 -0.64531893509E+01  0.65753942178E+02 -0.40723860769E+03  0.41258451323E+03  0.41800000000E+01 0.  1.
        -11    1    1    2    0    0 -0.10401685959E+02 -0.44838790416E+02 -0.17892791085E+03  0.18475364537E+03  0.00000000000E+00 0. -1.
         11    1    1    2    0    0  0.90809849054E+01 -0.19556501632E+02 -0.64703754808E+02  0.68201883619E+02  0.00000000000E+00 0.  1.
</event>
<event>
 7    1  0.7017065E-006  0.1089989E+03  0.7561462E-02  0.1262435E+00
         -1   -1    0    0    0  501 -0.00000000000E+00  0.00000000000E+00  0.12541420936E+02  0.12541420936E+02  0.00000000000E+00 0.  1.
          1   -1    0    0  501    0  0.00000000000E+00 -0.00000000000E+00 -0.10135449764E+04  0.10135449764E+04  0.00000000000E+00 0. -1.
         23    2    1    2    0    0 -0.77617290300E+01 -0.24687288049E+02 -0.49170502822E+03  0.50802689753E+03  0.12509111563E+03 0.  0.
          5    1    3    3  502    0 -0.48875360321E+02 -0.53665652615E+02 -0.35335270072E+03  0.36075532792E+03  0.41800000000E+01 0.  1.
         -5    1    3    3    0  502  0.41113631291E+02  0.28978364566E+02 -0.13835232750E+03  0.14727156961E+03  0.41800000000E+01 0.  1.
        -11    1    1    2    0    0 -0.31639667879E+02  0.41326052412E+02 -0.28823542744E+03  0.29289686380E+03  0.00000000000E+00 0.  1.
         11    1    1    2    0    0  0.39401396909E+02 -0.16638764363E+02 -0.22106309977E+03  0.22516263597E+03  0.00000000000E+00 0. -1.
</event>
<event>
 7    1  0.7017065E-006  0.1036777E+03  0.7561462E-02  0.1272747E+00
          1   -1    0    0  501    0  0.00000000000E+00  0.00000000000E+00  0.84459914106E+02  0.84459914106E+02  0.00000000000E+00 0. -1.
         -1   -1    0    0    0  501 -0.00000000000E+00 -0.00000000000E+00 -0.28950864201E+03  0.28950864201E+03  0.00000000000E+00 0.  1.
         23    2    1    2    0    0  0.95502951688E+01 -0.43419820699E+02 -0.23789959512E+03  0.26864361606E+03  0.11660482890E+03 0.  0.
          5    1    3    3  502    0 -0.36490177350E+02  0.87009003063E+01 -0.26658275203E+02  0.46210115191E+02  0.41800000000E+01 0. -1.
         -5    1    3    3    0  502  0.46040472519E+02 -0.52120721005E+02 -0.21124131992E+03  0.22243350087E+03  0.41800000000E+01 0.  1.
        -11    1    1    2    0    0  0.14418398603E+02 -0.24216213338E+02  0.68692348010E+01  0.29008646874E+02  0.00000000000E+00 0.  1.
         11    1    1    2    0    0 -0.23968693772E+02  0.67636034037E+02  0.25981632421E+02  0.76316293179E+02  0.00000000000E+00 0. -1.
</event>
<event>
 6    1  0.7017065E-006  0.9284116E+02  0.7561462E-02  0.1296114E+00
          2   -1    0    0  501    0  0.00000000000E+00  0.00000000000E+00  0.10330570676E+04  0.10330570676E+04  0.00000000000E+00 0. -1.
         -2   -1    0    0    0  501 -0.00000000000E+00 -0.00000000000E+00 -0.16612794636E+02  0.16612794636E+02  0.00000000000E+00 0.  1.
          5    1    1    2  502    0 -0.56303667427E+02 -0.27055477300E+02  0.64580914468E+03  0.64883667095E+03  0.41800000000E+01 0. -1.
         -5    1    1    2    0  502  0.51502771157E+02  0.26168445872E+02  0.60058839804E+02  0.83437759047E+02  0.41800000000E+01 0.  1.
        -11    1    1    2    0    0  0.31329773283E+02 -0.14461374464E+02  0.14967097084E+03  0.15359715349E+03  0.00000000000E+00 0. -1.
         11    1    1    2    0    0 -0.26528877014E+02  0.15348405892E+02  0.16090531759E+03  0.16379827871E+03  0.00000000000E+00 0.  1.
</event>
<event>
 7    1  0.7017065E-006  0.1072811E+03  0.7561462E-02  0.1265689E+00
          1   -1    0    0  501    0  0.00000000000E+00  0.00000000000E+00  0.38414024083E+02  0.38414024083E+02  0.00000000000E+00 0. -1.
         -1   -1    0    0    0  501 -0.00000000000E+00 -0.00000000000E+00 -0.33890845318E+03  0.33890845318E+03  0.00000000000E+00 0.  1.
         23    2    1    2    0    0 -0.10916050005E+02 -0.31655029918E+02 -0.16903974470E+03  0.21293857094E+03  0.12508876304E+03 0.  0.
          5    1    3    3  502    0 -0.20035341675E+02 -0.75214496757E+02 -0.72065461975E+02  0.10615808329E+03  0.41800000000E+01 0. -1.
         -5    1    3    3    0  502  0.91192916691E+01  0.43559466839E+02 -0.96974282727E+02  0.10678048765E+03  0.41800000000E+01 0. -1.
        -11    1    1    2    0    0  0.34451473432E+02 -0.16586714062E+02 -0.85735964776E+02  0.93875868896E+02  0.00000000000E+00 0. -1.
         11    1    1    2    0    0 -0.23535423426E+02  0.48241743981E+02 -0.45718719619E+02  0.70508037426E+02  0.00000000000E+00 0.  1.
</event>
<event>
 7    1  0.7017065E-006  0.6285808E+02  0.7561462E-02  0.1386215E+00
          1   -1    0    0  501    0  0.00000000000E+00  0.00000000000E+00  0.90302596932E+02  0.90302596932E+02  0.00000000000E+00 0.  1.
         -1   -1    0    0    0  501 -0.00000000000E+00 -0.00000000000E+00 -0.16062162171E+03  0.16062162171E+03  0.00000000000E+00 0. -1.
         23    2    1    2    0    0  0.10714100054E+02  0.20925832234E+02 -0.89171427213E+02  0.15540958020E+03  0.12509161360E+03 0.  0.
          5    1    3    3  502    0 -0.12727140356E+02 -0.14300523404E+02  0.26047912047E+02  0.32595263356E+02  0.41800000000E+01 0. -1.
         -5    1    3    3    0  502  0.23441240410E+02  0.35226355638E+02 -0.11521933926E+03  0.12281431685E+03  0.41800000000E+01 0. -1.
        -11    1    1    2    0    0 -0.26730191090E+02 -0.33772476278E+02 -0.23051292804E+02  0.48851257605E+02  0.00000000000E+00 0. -1.
         11    1    1    2    0    0  0.16016091035E+02  0.12846644044E+02  0.41903695243E+02  0.46663380828E+02  0.00000000000E+00 0.  1.
</event>
<event>
 7    1  0.7017065E-006  0.1575739E+03  0.7561462E-02  0.1191463E+00
          2   -1    0    0  501    0  0.00000000000E+00  0.00000000000E+00  0.42423399826E+03  0.42423399826E+03  0.00000000000E+00 0. -1.
         -2   -1    0    0    0  501 -0.00000000000E+00 -0.00000000000E+00 -0.69989383017E+02  0.69989383017E+02  0.00000000000E+00 0.  1.
         23    2    1    2    0    0  0.19796199068E+02  0.12664156809E+03  0.14376031618E+03  0.22966237818E+03  0.12509117946E+03 0.  0.
          5    1    3    3  502    0 -0.51301113742E+02  0.51601464518E+02  0.79594919730E+02  0.10792283845E+03  0.41800000000E+01 0. -1.
         -5    1    3    3    0  502  0.71097312811E+02  0.75040103572E+02  0.64165396448E+02  0.12173953973E+03  0.41800000000E+01 0. -1.
        -11    1    1    2    0    0 -0.30454842608E+02 -0.34366564268E+02  0.15300032177E+02  0.48400921091E+02  0.00000000000E+00 0.  1.
         11    1    1    2    0    0  0.10658643539E+02 -0.92275003822E+02  0.19518426689E+03  0.21616008201E+03  0.00000000000E+00 0. -1.
</event>
<event>
 7    1  0.7017065E-006  0.1294993E+03  0.7561462E-02  0.1228201E+00
          1   -1    0    0  501    0  0.00000000000E+00  0.00000000000E+00  0.32746068841E+03  0.32746068841E+03  0.00000000000E+00 0. -1.
         -1   -1    0    0    0  501 -0.00000000000E+00 -0.00000000000E+00 -0.54962799395E+02  0.54962799395E+02  0.00000000000E+00 0.  1.
         23    2    1    2    0    0 -0.74648256480E+02  0.26663071998E+02  0.15706979233E+03  0.21588187716E+03  0.12510309197E+03 0.  0.
          5    1    3    3  502    0 -0.10326439259E+03  0.45809813248E+02  0.12646625385E+03  0.16962682432E+03  0.41800000000E+01 0.  1.
         -5    1    3    3    0  502  0.28616136105E+02 -0.19146741249E+02  0.30603538475E+02  0.46255052840E+02  0.41800000000E+01 0.  1.
        -11    1    1    2    0    0  0.82823163360E+02  0.57999673404E+00  0.10981873241E+03  0.13755059714E+03  0.00000000000E+00 0. -1.
         11    1    1    2    0    0 -0.81749068795E+01 -0.27243068732E+02  0.56093642775E+01  0.28991013505E+02  0.00000000000E+00 0.  1.
</event>
<event>
 6    1  0.7017065E-006  0.1171752E+03  0.7561462E-02  0.1247831E+00
         -2   -1    0    0    0  501 -0.00000000000E+00  0.00000000000E+00  0.35955738789E+02  0.35955738789E+02  0.00000000000E+00 0.  1.
          2   -1    0    0  501    0  0.00000000000E+00 -0.00000000000E+00 -0.48984284590E+03  0.48984284590E+03  0.00000000000E+00 0. -1.
          5    1    1    2  502    0  0.38145160662E+01 -0.53844584064E+02 -0.29580445226E+02  0.61694934197E+02  0.41800000000E+01 0. -1.
         -5    1    1    2    0  502 -0.15360523375E+02  0.81889706332E+02 -0.13203233676E+03  0.15617899997E+03  0.41800000000E+01 0.  1.
        -11    1    1    2    0    0  0.46482411461E+02  0.73427027962E+01 -0.15016413286E+03  0.15736516977E+03  0.00000000000E+00 0.  1.
         11    1    1    2    0    0 -0.34936404153E+02 -0.35387825064E+02 -0.14211019227E+03  0.15055948075E+03  0.00000000000E+00 0. -1.
</event>
<event>
 7    1  0.7017065E-006  0.1157587E+03  0.7561462E-02  0.1250263E+00
         -1   -1    0    0    0  501 -0.00000000000E+00  0.00000000000E+00  0.31584972919E+03  0.31584972919E+03  0.00000000000E+00 0.  1.
          1   -1    0    0  501    0  0.00000000000E+00 -0.00000000000E+00 -0.46098066955E+02  0.46098066955E+02  0.00000000000E+00 0. -1.
         23    2    1    2    0    0  0.38374728409E+00 -0.47432429201E+02  0.18941317706E+03  0.23189372770E+03  0.12508943481E+03 0.  0.
          5    1    3    3  502    0  0.57637121706E+02  0.19051690247E+01  0.74824340599E+02  0.94561206706E+02  0.41800000000E+01 0. -1.
         -5    1    3    3    0  502 -0.57253374422E+02 -0.49337598226E+02  0.11458883646E+03  0.13733252099E+03  0.41800000000E+01 0. -1.
        -11    1    1    2    0    0 -0.30210169468E+02 -0.11200740989E+02  0.45100523152E+02  0.55427142508E+02  0.00000000000E+00 0.  1.
         11    1    1    2    0    0  0.29826422183E+02  0.58633170191E+02  0.35237962019E+02  0.74626925933E+02  0.00000000000E+00 0. -1.
</event>
<event>
 7    1  0.7017065E-006  0.1130067E+03  0.7561462E-02  0.1255101E+00
         -4   -1    0    0    0  501 -0.00000000000E+00  0.00000000000E+00  0.91520336398E+02  0.91520336398E+02  0.00000000000E+00 0.  1.
          4   -1    0    0  501    0  0.00000000000E+00 -0.00000000000E+00 -0.18032905798E+03  0.18032905798E+03  0.00000000000E+00 0. -1.
         23    2    1    2    0    0 -0.56320019904E+02  0.33551551247E+02 -0.23213945911E+02  0.14312567640E+03  0.12509364783E+03 0.  0.
          5    1    3    3  502    0 -0.78288972936E+02 -0.55852700963E+01 -0.47587410135E+02  0.91882493048E+02  0.41800000000E+01 0.  1.
         -5    1    3    3    0  502  0.21968953031E+02  0.39136821344E+02  0.24373464224E+02  0.51243183356E+02  0.41800000000E+01 0.  1.
        -11    1    1    2    0    0 -0.68907710683E+01  0.18952577525E+02  0.45623197361E+01  0.20676017076E+02  0.00000000000E+00 0.  1.
         11    1    1    2    0    0  0.63210790973E+02 -0.52504128772E+02 -0.70157095410E+02  0.10804770090E+03  0.00000000000E+00 0. -1.
</event>
<event>
 7    1  0.7017065E-006  0.1028402E+03  0.7561462E-02  0.1274434E+00
          2   -1    0    0  501    0  0.00000000000E+00  0.00000000000E+00  0.16462679185E+03  0.16462679185E+03  0.00000000000E+00 0. -1.
         -2   -1    0    0    0  501 -0.00000000000E+00 -0.00000000000E+00 -0.91217435547E+02  0.91217435547E+02  0.00000000000E+00 0.  1.
         23    2    1    2    0    0  0.16906584944E+02 -0.13146390122E+02 -0.16310886926E+02  0.12795401987E+03  0.12509007148E+03 0.  0.
          5    1    3    3  502    0  0.70147942505E+02 -0.29533192967E+01 -0.20947326071E+02  0.73387456708E+02  0.41800000000E+01 0.  1.
         -5    1    3    3    0  502 -0.53241357562E+02 -0.10193070825E+02  0.46364391445E+01  0.54566563167E+02  0.41800000000E+01 0.  1.
        -11    1    1    2    0    0  0.29270043622E+02 -0.77699347626E+01  0.73371561776E+01  0.31159929406E+02  0.00000000000E+00 0.  1.
         11    1    1    2    0    0 -0.46176628565E+02  0.20916324884E+02  0.82383087055E+02  0.96730278119E+02  0.00000000000E+00 0. -1.
</event>
<event>
 7    1  0.7017065E-006  0.1319753E+03  0.7561462E-02  0.1224554E+00
          2   -1    0    0  501    0  0.00000000000E+00  0.00000000000E+00  0.71730041209E+03  0.71730041209E+03  0.00000000000E+00 0. -1.
         -2   -1    0    0    0  501 -0.00000000000E+00 -0.00000000000E+00 -0.31250453619E+02  0.31250453619E+02  0.00000000000E+00 0.  1.
         23    2    1    2    0    0  0.50056695074E+02 -0.90909439085E+02  0.38415311581E+03  0.41712267026E+03  0.12508999488E+03 0.  0.
          5    1    3    3  502    0 -0.34274118673E+02 -0.61271032547E+02  0.13208819803E+03  0.14964497686E+03  0.41800000000E+01 0.  1.
         -5    1    3    3    0  502  0.84330813747E+02 -0.29638406537E+02  0.25206491779E+03  0.26747769340E+03  0.41800000000E+01 0.  1.
        -11    1    1    2    0    0 -0.15398339101E+02  0.36625673771E+02  0.24554925075E+02  0.46706457495E+02  0.00000000000E+00 0.  1.
         11    1    1    2    0    0 -0.34658355973E+02  0.54283765313E+02  0.27734191758E+03  0.28472173795E+03  0.00000000000E+00 0. -1.
</event>
<event>
 7    1  0.7017065E-006  0.1106058E+03  0.7561462E-02  0.1259452E+00
         -2   -1    0    0    0  501 -0.00000000000E+00  0.00000000000E+00  0.97835128231E+02  0.97835128231E+02  0.00000000000E+00 0.  1.
          2   -1    0    0  501    0  0.00000000000E+00 -0.00000000000E+00 -0.13980656242E+03  0.13980656242E+03  0.00000000000E+00 0. -1.
         23    2    1    2    0    0  0.15539859026E+02 -0.20315633188E+02  0.10034880120E+02  0.12806348134E+03  0.12508135058E+03 0.  0.
          5    1    3    3  502    0 -0.47953573320E+02  0.19430840104E+02  0.10866163963E+02  0.53034410155E+02  0.41800000000E+01 0.  1.
         -5    1    3    3    0  502  0.63493432345E+02 -0.39746473291E+02 -0.83128384281E+00  0.75029071185E+02  0.41800000000E+01 0.  1.
        -11    1    1    2    0    0  0.93078842874E+01 -0.33624895576E+02 -0.83623631137E+01  0.35877561640E+02  0.00000000000E+00 0.  1.
         11    1    1    2    0    0 -0.24847743313E+02  0.53940528763E+02 -0.43643951194E+02  0.73700647669E+02  0.00000000000E+00 0. -1.
</event>
<event>
 7    1  0.7017065E-006  0.1083691E+03  0.7561462E-02  0.1263620E+00
         -2   -1    0    0    0  501 -0.00000000000E+00  0.00000000000E+00  0.39108673941E+03  0.39108673941E+03  0.00000000000E+00 0.  1.
          2   -1    0    0  501    0  0.00000000000E+00 -0.00000000000E+00 -0.44995852555E+02  0.44995852555E+02  0.00000000000E+00 0. -1.
         23    2    1    2    0    0  0.12302522383E+02  0.39189246310E+02  0.29767559209E+03  0.32549275484E+03  0.12509047222E+03 0.  0.
          5    1    3    3  502    0 -0.39980413370E+02  0.59883345910E+02  0.13105744353E+03  0.14959269526E+03  0.41800000000E+01 0.  1.
         -5    1    3    3    0  502  0.52282935753E+02 -0.20694099600E+02  0.16661814856E+03  0.17590005957E+03  0.41800000000E+01 0.  1.
        -11    1    1    2    0    0 -0.20997233803E+02  0.19646066992E+02 -0.66766954709E+01  0.29519993870E+02  0.00000000000E+00 0. -1.
         11    1    1    2    0    0  0.86947114199E+01 -0.58835313302E+02  0.55091990237E+02  0.81069843261E+02  0.00000000000E+00 0.  1.
</event>
<event>
 7    1  0.7017065E-006  0.1475683E+03  0.7561462E-02  0.1203493E+00
         -1   -1    0    0    0  501 -0.00000000000E+00  0.00000000000E+00  0.51452375350E+03  0.51452375350E+03  0.00000000000E+00 0.  1.
          1   -1    0    0  501    0  0.00000000000E+00 -0.00000000000E+00 -0.49525882136E+02  0.49525882136E+02  0.00000000000E+00 0. -1.
         23    2    1    2    0    0  0.11479617053E+03 -0.99284503546E+01  0.21361267653E+03  0.27304297301E+03  0.12508139206E+03 0.  0.
          5    1    3    3  502    0  0.88055978087E+02  0.41577152857E+02  0.18290295751E+03  0.20725221152E+03  0.41800000000E+01 0.  1.
         -5    1    3    3    0  502  0.26740192446E+02 -0.51505603211E+02  0.30709719027E+02  0.65790761486E+02  0.41800000000E+01 0.  1.
        -11    1    1    2    0    0 -0.11977399205E+03 -0.88091049619E+01  0.17532295738E+03  0.21251246761E+03  0.00000000000E+00 0.  1.
         11    1    1    2    0    0  0.49778215202E+01  0.18737555317E+02  0.76062237443E+02  0.78494195015E+02  0.00000000000E+00 0. -1.
</event>
<event>
 7    1  0.7017065E-006  0.9190739E+02  0.7561462E-02  0.1298297E+00
          1   -1    0    0  501    0  0.00000000000E+00  0.00000000000E+00  0.79024693581E+03  0.79024693581E+03  0.00000000000E+00 0. -1.
         -1   -1    0    0    0  501 -0.00000000000E+00 -0.00000000000E+00 -0.14523530274E+02  0.14523530274E+02  0.00000000000E+00 0.  1.
         23    2    1    2    0    0  0.15823619886E+01  0.17586675992E+01  0.43166561871E+03  0.44942743840E+03  0.12507685329E+03 0.  0.
          5    1    3    3  502    0 -0.46065557132E+02 -0.74834361247E+01  0.35836326437E+03  0.36141352910E+03  0.41800000000E+01 0.  1.
         -5    1    3    3    0  502  0.47647919120E+02  0.92421037239E+01  0.73302354344E+02  0.88013909299E+02  0.41800000000E+01 0.  1.
        -11    1    1    2    0    0 -0.42791818962E+02  0.12592251743E+02  0.19449154202E+03  0.19954113483E+03  0.00000000000E+00 0.  1.
         11    1    1    2    0    0  0.41209456973E+02 -0.14350919342E+02  0.14956624481E+03  0.15580189285E+03  0.00000000000E+00 0. -1.
</event>
<event>
 7    1  0.7017065E-006  0.1033555E+03  0.7561462E-02  0.1273394E+00
         -2   -1    0    0    0  501 -0.00000000000E+00  0.00000000000E+00  0.25512027171E+03  0.25512027171E+03  0.00000000000E+00 0.  1.
          2   -1    0    0  501    0  0.00000000000E+00 -0.00000000000E+00 -0.55859375416E+02  0.55859375416E+02  0.00000000000E+00 0. -1.
         23    2    1    2    0    0 -0.28794849945E+02 -0.19733395318E+02  0.15970174254E+03  0.20584206996E+03  0.12509101056E+03 0.  0.
          5    1    3    3  502    0 -0.35507380941E+02  0.39486903918E+02  0.12702995233E+03  0.13774640057E+03  0.41800000000E+01 0. -1.
         -5    1    3    3    0  502  0.67125309962E+01 -0.59220299236E+02  0.32671790207E+02  0.68095669387E+02  0.41800000000E+01 0. -1.
        -11    1    1    2    0    0 -0.22360722150E+02  0.33905253743E+02  0.31604072298E+02  0.51462467025E+02  0.00000000000E+00 0.  1.
         11    1    1    2    0    0  0.51155572095E+02 -0.14171858426E+02  0.79550814623E+01  0.53675110141E+02  0.00000000000E+00 0. -1.
</event>
<event>
 7    1  0.7017065E-006  0.1261674E+03  0.7561462E-02  0.1233256E+00
         -2   -1    0    0    0  501 -0.00000000000E+00  0.00000000000E+00  0.29193059683E+02  0.29193059683E+02  0.00000000000E+00 0.  1.
          2   -1    0    0  501    0  0.00000000000E+00 -0.00000000000E+00 -0.64061134809E+03  0.64061134809E+03  0.00000000000E+00 0. -1.
         23    2    1    2    0    0 -0.13025830377E+02  0.72866007061E+02 -0.24615856754E+03  0.28584252094E+03  0.12503111279E+03 0.  0.
          5    1    3    3  502    0  0.40713566146E+02  0.71022944225E+02 -0.19490125858E+03  0.21143752285E+03  0.41800000000E+01 0.  1.
         -5    1    3    3    0  502 -0.53739396523E+02  0.18430628360E+01 -0.51257308957E+02  0.74404998090E+02  0.41800000000E+01 0.  1.
        -11    1    1    2    0    0  0.33178921654E+02  0.71285086729E+01 -0.77353923791E+02  0.84470622135E+02  0.00000000000E+00 0.  1.
         11    1    1    2    0    0 -0.20153091277E+02 -0.79994515734E+02 -0.28790579708E+03  0.29949126469E+03  0.00000000000E+00 0. -1.
</event>
<event>
 7    1  0.7017065E-006  0.2634183E+03  0.7561462E-02  0.1105107E+00
         -1   -1    0    0    0  501 -0.00000000000E+00  0.00000000000E+00  0.18324879902E+03  0.18324879902E+03  0.00000000000E+00 0.  1.
          1   -1    0    0  501    0  0.00000000000E+00 -0.00000000000E+00 -0.52464736168E+03  0.52464736168E+03  0.00000000000E+00 0. -1.
         23    2    1    2    0    0 -0.11374334645E+03  0.21540756406E+03  0.64348597329E+01  0.27390917557E+03  0.12508741553E+03 0.  0.
          5    1    3    3  502    0 -0.48578214304E+02  0.19978856600E+03  0.15127641657E+02  0.20620773980E+03  0.41800000000E+01 0. -1.
         -5    1    3    3    0  502 -0.65165132146E+02  0.15618998063E+02 -0.86927819245E+01  0.67701435772E+02  0.41800000000E+01 0. -1.
        -11    1    1    2    0    0  0.18612817339E+02 -0.11199149210E+03 -0.20036131252E+03  0.23028935456E+03  0.00000000000E+00 0.  1.
         11    1    1    2    0    0  0.95130529110E+02 -0.10341607196E+03 -0.14747210988E+03  0.20369763057E+03  0.00000000000E+00 0. -1.
</event>
<event>
 7    1  0.7017065E-006  0.1287983E+03  0.7561462E-02  0.1229250E+00
          1   -1    0    0  501    0  0.00000000000E+00  0.00000000000E+00  0.55007501282E+02  0.55007501282E+02  0.00000000000E+00 0. -1.
         -1   -1    0    0    0  501 -0.00000000000E+00 -0.00000000000E+00 -0.44913424840E+03  0.44913424840E+03  0.00000000000E+00 0.  1.
         23    2    1    2    0    0  0.30743037794E+02 -0.78426103237E+02 -0.33202823221E+03  0.36467268527E+03  0.12509049668E+03 0.  0.
          5    1    3    3  502    0  0.76221495594E+02 -0.70796929985E+02 -0.24164847461E+03  0.26312236577E+03  0.41800000000E+01 0.  1.
         -5    1    3    3    0  502 -0.45478457800E+02 -0.76291732521E+01 -0.90379757597E+02  0.10155031951E+03  0.41800000000E+01 0.  1.
        -11    1    1    2    0    0  0.16503951097E+02  0.10711876134E+01  0.13570345506E+02  0.21393506535E+02  0.00000000000E+00 0. -1.
         11    1    1    2    0    0 -0.47246988891E+02  0.77354915624E+02 -0.75668860420E+02  0.11807555788E+03  0.00000000000E+00 0.  1.
</event>
<event>
 7    1  0.7017065E-006  0.1460433E+03  0.7561462E-02  0.1205421E+00
          1   -1    0    0  501    0  0.00000000000E+00  0.00000000000E+00  0.17300380800E+03  0.17300380800E+03  0.00000000000E+00 0. -1.
         -1   -1    0    0    0  501 -0.00000000000E+00 -0.00000000000E+00 -0.16196246220E+03  0.16196246220E+03  0.00000000000E+00 0.  1.
         23    2    1    2    0    0  0.55484496660E+01  0.12126626336E+03 -0.28486151623E+02  0.17378426173E+03  0.12105047239E+03 0.  0.
          5    1    3    3  502    0 -0.51849249075E+02  0.92811382264E+02 -0.94084728595E+01  0.10680959259E+03  0.41800000000E+01 0. -1.
         -5    1    3    3    0  502  0.57397698741E+02  0.28454881097E+02 -0.19077678763E+02  0.66974669137E+02  0.41800000000E+01 0.  1.
        -11    1    1    2    0    0  0.14336412024E+00 -0.49621360897E+02  0.67741752512E+02  0.83971691920E+02  0.00000000000E+00 0. -1.
         11    1    1    2    0    0 -0.56918137863E+01 -0.71644902464E+02 -0.28214255086E+02  0.77210316560E+02  0.00000000000E+00 0.  1.
</event>
<event>
 7    1  0.7017065E-006  0.1001059E+03  0.7561462E-02  0.1280073E+00
          3   -1    0    0  501    0  0.00000000000E+00  0.00000000000E+00  0.27906655107E+02  0.27906655107E+02  0.00000000000E+00 0. -1.
         -3   -1    0    0    0  501 -0.00000000000E+00 -0.00000000000E+00 -0.43427649463E+03  0.43427649463E+03  0.00000000000E+00 0.  1.
         23    2    1    2    0    0  0.63597056981E+01  0.77804621722E+01 -0.27539811445E+03  0.30263730084E+03  0.12507690822E+03 0.  0.
          5    1    3    3  502    0 -0.27653713976E+02 -0.50563334795E+02 -0.13033846194E+03  0.14257266843E+03  0.41800000000E+01 0.  1.
         -5    1    3    3    0  502  0.34013419674E+02  0.58343796967E+02 -0.14505965251E+03  0.16006463241E+03  0.41800000000E+01 0.  1.
        -11    1    1    2    0    0  0.55048158319E+01  0.32402812781E+02 -0.10552611087E+03  0.11052603923E+03  0.00000000000E+00 0. -1.
         11    1    1    2    0    0 -0.11864521530E+02 -0.40183274953E+02 -0.25445614201E+02  0.49019809661E+02  0.00000000000E+00 0.  1.
</event>
<event>
 7    1  0.7017065E-006  0.1025632E+03  0.7561462E-02  0.1274996E+00
          1   -1    0    0  501    0  0.00000000000E+00  0.00000000000E+00  0.44690530873E+02  0.44690530873E+02  0.00000000000E+00 0. -1.
         -1   -1    0    0    0  501 -0.00000000000E+00 -0.00000000000E+00 -0.30307311970E+03  0.30307311970E+03  0.00000000000E+00 0.  1.
         23    2    1    2    0    0  0.21661311911E+02  0.43151552721E+02 -0.15916069271E+03  0.20811236313E+03  0.12508941062E+03 0.  0.
          5    1    3    3  502    0 -0.16481677074E+02  0.73063532671E+02 -0.54586443440E+02  0.92774337470E+02  0.41800000000E+01 0.  1.
         -5    1    3    3    0  502  0.38142988984E+02 -0.29911979950E+02 -0.10457424927E+03  0.11533802566E+03  0.41800000000E+01 0.  1.
        -11    1    1    2    0    0 -0.39446649769E+02 -0.55148884792E+01 -0.98047454186E+01  0.41019327221E+02  0.00000000000E+00 0. -1.
         11    1    1    2    0    0  0.17785337858E+02 -0.37636664241E+02 -0.89417150701E+02  0.98631960223E+02  0.00000000000E+00 0.  1.
</event>
<event>
 7    1  0.7017065E-006  0.1522720E+03  0.7561462E-02  0.1197709E+00
         -1   -1    0    0    0  501 -0.00000000000E+00  0.00000000000E+00  0.42332484801E+03  0.42332484801E+03  0.00000000000E+00 0.  1.
          1   -1    0    0  501    0  0.00000000000E+00 -0.00000000000E+00 -0.74610250470E+02  0.74610250470E+02  0.00000000000E+00 0. -1.
         23    2    1    2    0    0  0.99142212901E+02  0.86939814133E+02  0.25644232586E+03  0.31432148311E+03  0.12509044165E+03 0.  0.
          5    1    3    3  502    0 -0.45810703779E+01  0.45593753268E+02  0.16075531538E+03  0.16721100552E+03  0.41800000000E+01 0.  1.
         -5    1    3    3    0  502  0.10372328328E+03  0.41346060865E+02  0.95687010478E+02  0.14711047759E+03  0.41800000000E+01 0.  1.
        -11    1    1    2    0    0 -0.66369543425E+02 -0.15444042766E+02  0.78185088202E+02  0.10371278980E+03  0.00000000000E+00 0.  1.
         11    1    1    2    0    0 -0.32772669476E+02 -0.71495771367E+02  0.14087183478E+02  0.79900825567E+02  0.00000000000E+00 0. -1.
</event>
<event>
 7    1  0.7017065E-006  0.1483298E+03  0.7561462E-02  0.1202541E+00
          2   -1    0    0  501    0  0.00000000000E+00  0.00000000000E+00  0.12398937571E+03  0.12398937571E+03  0.00000000000E+00 0.  1.
         -2   -1    0    0    0  501 -0.00000000000E+00 -0.00000000000E+00 -0.20310269728E+03  0.20310269728E+03  0.00000000000E+00 0. -1.
         23    2    1    2    0    0  0.11336881969E+03  0.20155995279E+02 -0.50347794114E+02  0.17731725621E+03  0.12509098910E+03 0.  0.
          5    1    3    3  502    0  0.80549164999E+02 -0.44702375258E+02 -0.67743973380E+01  0.92465318878E+02  0.41800000000E+01 0.  1.
         -5    1    3    3    0  502  0.32819654694E+02  0.64858370537E+02 -0.43573396776E+02  0.84851937335E+02  0.41800000000E+01 0.  1.
        -11    1    1    2    0    0  0.34115616513E+01  0.10380302258E+02 -0.26921055393E+02  0.29053961027E+02  0.00000000000E+00 0. -1.
         11    1    1    2    0    0 -0.11678038134E+03 -0.30536297537E+02 -0.18444720625E+01  0.12072085574E+03  0.00000000000E+00 0.  1.
</event>
<event>
 7    1  0.7017065E-006  0.1249957E+03  0.7561462E-02  0.1235076E+00
         -1   -1    0    0    0  501 -0.00000000000E+00  0.00000000000E+00  0.26914365602E+03  0.26914365602E+03  0.00000000000E+00 0.  1.
          1   -1    0    0  501    0  0.00000000000E+00 -0.00000000000E+00 -0.90923859513E+02  0.90923859513E+02  0.00000000000E+00 0. -1.
         23    2    1    2    0    0  0.10939305092E+03 -0.50158513002E+01  0.12249828646E+03  0.20650942536E+03  0.12509322214E+03 0.  0.
          5    1    3    3  502    0 -0.76811386258E+01 -0.56346184205E+01 -0.19694474547E+02  0.22273157455E+02  0.41800000000E+01 0. -1.
         -5    1    3    3    0  502  0.11707418954E+03  0.61876712036E+00  0.14219276100E+03  0.18423626791E+03  0.41800000000E+01 0. -1.
        -11    1    1    2    0    0 -0.23238010591E+02 -0.22148124890E+02  0.54455306516E+02  0.63213329133E+02  0.00000000000E+00 0.  1.
         11    1    1    2    0    0 -0.86155040327E+02  0.27163976190E+02  0.12662035386E+01  0.90344761042E+02  0.00000000000E+00 0. -1.
</event>
<event>
 7    1  0.7017065E-006  0.9801541E+02  0.7561462E-02  0.1284525E+00
          1   -1    0    0  501    0  0.00000000000E+00  0.00000000000E+00  0.58721473417E+03  0.58721473417E+03  0.00000000000E+00 0. -1.
         -1   -1    0    0    0  501 -0.00000000000E+00 -0.00000000000E+00 -0.24531407722E+02  0.24531407722E+02  0.00000000000E+00 0.  1.
         23    2    1    2    0    0 -0.62907167029E+01  0.66564353502E+01  0.13567384547E+03  0.17491614862E+03  0.11001993208E+03 0.  0.
          5    1    3    3  502    0 -0.54822030244E+02  0.24657798879E+01  0.10085298257E+03  0.11489269587E+03  0.41800000000E+01 0. -1.
         -5    1    3    3    0  502  0.48531313541E+02  0.41906554623E+01  0.34820862897E+02  0.60023452751E+02  0.41800000000E+01 0.  1.
        -11    1    1    2    0    0  0.42703771202E+02  0.19823074837E+02  0.21956411073E+03  0.22455503800E+03  0.00000000000E+00 0.  1.
         11    1    1    2    0    0 -0.36413054499E+02 -0.26479510187E+02  0.20744537025E+03  0.21227495528E+03  0.00000000000E+00 0. -1.
</event>
<event>
 7    1  0.7017065E-006  0.1330224E+03  0.7561462E-02  0.1223039E+00
         -1   -1    0    0    0  501 -0.00000000000E+00  0.00000000000E+00  0.34053752072E+02  0.34053752072E+02  0.00000000000E+00 0.  1.
          1   -1    0    0  501    0  0.00000000000E+00 -0.00000000000E+00 -0.67969720598E+03  0.67969720598E+03  0.00000000000E+00 0. -1.
         23    2    1    2    0    0 -0.39678901560E+02 -0.85206877976E+02 -0.23243672933E+03  0.28019641208E+03  0.12509424015E+03 0.  0.
          5    1    3    3  502    0 -0.74687975445E+02 -0.20890734108E+02 -0.82651154524E+02  0.11341693962E+03  0.41800000000E+01 0. -1.
         -5    1    3    3    0  502  0.35009073884E+02 -0.64316143868E+02 -0.14978557480E+03  0.16677947246E+03  0.41800000000E+01 0. -1.
        -11    1    1    2    0    0 -0.15137997129E+02  0.18293552246E+01 -0.10119860689E+02  0.18300739820E+02  0.00000000000E+00 0.  1.
         11    1    1    2    0    0  0.54816898689E+02  0.83377522751E+02 -0.40308686389E+03  0.41525380615E+03  0.00000000000E+00 0. -1.
</event>
<event>
 7    1  0.7017065E-006  0.8410183E+02  0.7561462E-02  0.1317798E+00
         -2   -1    0    0    0  501 -0.00000000000E+00  0.00000000000E+00  0.47543103185E+02  0.47543103185E+02  0.00000000000E+00 0.  1.
          2   -1    0    0  501    0  0.00000000000E+00 -0.00000000000E+00 -0.29906658073E+03  0.29906658073E+03  0.00000000000E+00 0. -1.
         23    2    1    2    0    0  0.42928058270E+00  0.19271343422E+02 -0.75767492236E+02  0.14751432940E+03  0.12509274775E+03 0.  0.
          5    1    3    3  502    0  0.56326547029E+02 -0.14663449380E+02 -0.50884768053E+02  0.77423695777E+02  0.41800000000E+01 0. -1.
         -5    1    3    3    0  502 -0.55897266447E+02  0.33934792802E+02 -0.24882724183E+02  0.70090633622E+02  0.41800000000E+01 0. -1.
        -11    1    1    2    0    0  0.68487686406E+01  0.11127756078E+02  0.62078964345E+01  0.14466186967E+02  0.00000000000E+00 0.  1.
         11    1    1    2    0    0 -0.72780492233E+01 -0.30399099500E+02 -0.18196388174E+03  0.18462916755E+03  0.00000000000E+00 0. -1.
</event>
<event>
 7    1  0.7017065E-006  0.8243577E+02  0.7561462E-02  0.1322278E+00
          2   -1    0    0  501    0  0.00000000000E+00  0.00000000000E+00  0.23339554611E+03  0.23339554611E+03  0.00000000000E+00 0.  1.
         -2   -1    0    0    0  501 -0.00000000000E+00 -0.00000000000E+00 -0.57161516878E+02  0.57161516878E+02  0.00000000000E+00 0. -1.
         23    2    1    2    0    0 -0.13077302438E+02 -0.14784840348E+02  0.56898057834E+02  0.13882892193E+03  0.12508586346E+03 0.  0.
          5    1    3    3  502    0  0.13985823991E+02 -0.35683480454E+02  0.85670494014E+02  0.93945835430E+02  0.41800000000E+01 0.  1.
         -5    1    3    3    0  502 -0.27063126429E+02  0.20898640106E+02 -0.28772436180E+02  0.44883086504E+02  0.41800000000E+01 0.  1.
        -11    1    1    2    0    0 -0.37604545266E+01  0.51416654538E+02  0.51858325546E+02  0.73123862798E+02  0.00000000000E+00 0. -1.
         11    1    1    2    0    0  0.16837756965E+02 -0.36631814189E+02  0.67477645851E+02  0.78604278255E+02  0.00000000000E+00 0.  1.
</event>
<event>
 7    1  0.7017065E-006  0.1111805E+03  0.7561462E-02  0.1258399E+00
          2   -1    0    0  501    0  0.00000000000E+00  0.00000000000E+00  0.28999847682E+03  0.28999847682E+03  0.00000000000E+00 0.  1.
         -2   -1    0    0    0  501 -0.00000000000E+00 -0.00000000000E+00 -0.78585036928E+02  0.78585036928E+02  0.00000000000E+00 0. -1.
         23    2    1    2    0    0  0.65325524347E+02  0.42691222257E+02  0.28676283052E+02  0.15020181984E+03  0.12509313683E+03 0.  0.
          5    1    3    3  502    0  0.40096132810E+02  0.73286448382E+02  0.57063665095E+02  0.10125382786E+03  0.41800000000E+01 0.  1.
         -5    1    3    3    0  502  0.25229391538E+02 -0.30595226125E+02 -0.28387382043E+02  0.48947991973E+02  0.41800000000E+01 0.  1.
        -11    1    1    2    0    0 -0.12195563036E+02 -0.44038265701E+02  0.14798901905E+03  0.15488334437E+03  0.00000000000E+00 0.  1.
         11    1    1    2    0    0 -0.53129961312E+02  0.13470434448E+01  0.34748137794E+02  0.63498349547E+02  0.00000000000E+00 0. -1.
</event>
<event>
 7    1  0.7017065E-006  0.1252044E+03  0.7561462E-02  0.1234750E+00
         -1   -1    0    0    0  501 -0.00000000000E+00  0.00000000000E+00  0.23622611555E+02  0.23622611555E+02  0.00000000000E+00 0.  1.
          1   -1    0    0  501    0  0.00000000000E+00 -0.00000000000E+00 -0.73147026786E+03  0.73147026786E+03  0.00000000000E+00 0. -1.
         23    2    1    2    0    0  0.50346518471E+01  0.73573081696E+02 -0.38242945905E+03  0.40907075789E+03  0.12509295639E+03 0.  0.
          5    1    3    3  502    0 -0.54347523060E+02  0.82785029154E+01 -0.17855006411E+03  0.18686836187E+03  0.41800000000E+01 0. -1.
         -5    1    3    3    0  502  0.59382174907E+02  0.65294578781E+02 -0.20387939494E+03  0.22220239602E+03  0.41800000000E+01 0. -1.
        -11    1    1    2    0    0 -0.26363597789E+02 -0.80328927784E+02 -0.30209696472E+03  0.31370424291E+03  0.00000000000E+00 0. -1.
         11    1    1    2    0    0  0.21328945942E+02  0.67558460880E+01 -0.23321232525E+02  0.32317878610E+02  0.00000000000E+00 0.  1.
</event>
<event>
 7    1  0.7017065E-006  0.9805928E+02  0.7561462E-02  0.1284431E+00
          2   -1    0    0  501    0  0.00000000000E+00  0.00000000000E+00  0.17220430977E+03  0.17220430977E+03  0.00000000000E+00 0. -1.
         -2   -1    0    0    0  501 -0.00000000000E+00 -0.00000000000E+00 -0.72260798815E+02  0.72260798815E+02  0.00000000000E+00 0.  1.
         23    2    1    2    0    0 -0.29829970385E+02 -0.15041726059E+02  0.53293051139E+02  0.14001160662E+03  0.12508804912E+03 0.  0.
          5    1    3    3  502    0  0.49150988251E+02 -0.87736803977E+01  0.22106716745E+02  0.54762911163E+02  0.41800000000E+01 0. -1.
         -5    1    3    3    0  502 -0.78980958637E+02 -0.62680456611E+01  0.31186334394E+02  0.85248695454E+02  0.41800000000E+01 0. -1.
        -11    1    1    2    0    0  0.35152497752E+02  0.32836129196E+02  0.63304484882E+02  0.79507026639E+02  0.00000000000E+00 0. -1.
         11    1    1    2    0    0 -0.53225273667E+01 -0.17794403138E+02 -0.16654025065E+02  0.24946475331E+02  0.00000000000E+00 0.  1.
</event>
<event>
 7    1  0.7017065E-006  0.1049935E+03  0.7561462E-02  0.1270132E+00
         -1   -1    0    0    0  501 -0.00000000000E+00  0.00000000000E+00  0.12788038388E+03  0.12788038388E+03  0.00000000000E+00 0.  1.
          1   -1    0    0  501    0  0.00000000000E+00 -0.00000000000E+00 -0.11789563337E+03  0.11789563337E+03  0.00000000000E+00 0. -1.
         23    2    1    2    0    0  0.49418169455E+02  0.27441910590E+02  0.15443161637E+02  0.13813496546E+03  0.12509022149E+03 0.  0.
          5    1    3    3  502    0  0.69121571837E+02  0.39376130236E+02  0.51707003743E+02  0.94970300419E+02  0.41800000000E+01 0.  1.
         -5    1    3    3    0  502 -0.19703402383E+02 -0.11934219645E+02 -0.36263842106E+02  0.43164665043E+02  0.41800000000E+01 0.  1.
        -11    1    1    2    0    0 -0.35523289544E+02  0.30813541563E+02  0.31750383174E+01  0.47132359500E+02  0.00000000000E+00 0.  1.
         11    1    1    2    0    0 -0.13894879911E+02 -0.58255452153E+02 -0.86334494486E+01  0.60508692291E+02  0.00000000000E+00 0. -1.
</event>
<event>
 7    1  0.7017065E-006  0.1110110E+03  0.7561462E-02  0.1258709E+00
          3   -1    0    0  501    0  0.00000000000E+00  0.00000000000E+00  0.31606359657E+02  0.31606359657E+02  0.00000000000E+00 0. -1.
         -3   -1    0    0    0  501 -0.00000000000E+00 -0.00000000000E+00 -0.40028969213E+03  0.40028969213E+03  0.00000000000E+00 0.  1.
         23    2    1    2    0    0 -0.57737022799E+01  0.25507379368E+02 -0.22336343929E+03  0.25733913997E+03  0.12509294509E+03 0.  0.
          5    1    3    3  502    0  0.52593530775E+02 -0.14949962897E+02 -0.76174412131E+02  0.93859439235E+02  0.41800000000E+01 0.  1.
         -5    1    3    3    0  502 -0.58367233054E+02  0.40457342265E+02 -0.14718902716E+03  0.16347970074E+03  0.41800000000E+01 0.  1.
        -11    1    1    2    0    0 -0.24617550796E+02 -0.50835698575E+02 -0.75246077262E+02  0.94086471929E+02  0.00000000000E+00 0.  1.
         11    1    1    2    0    0  0.30391253076E+02  0.25328319207E+02 -0.70073815927E+02  0.80470439889E+02  0.00000000000E+00 0. -1.
</event>
<event>
 7    1  0.7017065E-006  0.1001757E+03  0.7561462E-02  0.1279927E+00
          2   -1    0    0  501    0  0.00000000000E+00  0.00000000000E+00  0.58923809944E+02  0.58923809944E+02  0.00000000000E+00 0. -1.
         -2   -1    0    0    0  501 -0.00000000000E+00 -0.00000000000E+00 -0.40353144095E+03  0.40353144095E+03  0.00000000000E+00 0.  1.
         23    2    1    2    0    0 -0.65563986670E+01  0.74818442625E+02 -0.30419517903E+03  0.33737675385E+03  0.12509029287E+03 0.  0.
          5    1    3    3  502    0 -0.36366971879E+02  0.54043300213E+02 -0.29141041281E+03  0.29863143845E+03  0.41800000000E+01 0. -1.
         -5    1    3    3    0  502  0.29810573212E+02  0.20775142412E+02 -0.12784766222E+02  0.38745315392E+02  0.41800000000E+01 0. -1.
        -11    1    1    2    0    0  0.18597774859E+02 -0.82267137045E+02 -0.22489472893E+01  0.84373081200E+02  0.00000000000E+00 0. -1.
         11    1    1    2    0    0 -0.12041376192E+02  0.74486944202E+01 -0.38163504693E+02  0.40705415851E+02  0.00000000000E+00 0.  1.
</event>
<event>
 7    1  0.7017065E-006  0.2406127E+03  0.7561462E-02  0.1119385E+00
          1   -1    0    0  501    0  0.00000000000E+00  0.00000000000E+00  0.24515896014E+03  0.24515896014E+03  0.00000000000E+00 0.  1.
         -1   -1    0    0    0  501 -0.00000000000E+00 -0.00000000000E+00 -0.25914222602E+03  0.25914222602E+03  0.00000000000E+00 0. -1.
         23    2    1    2    0    0 -0.11718029614E+03  0.18476323086E+03 -0.67844005919E+02  0.26099800410E+03  0.12509386765E+03 0.  0.
          5    1    3    3  502    0 -0.14317515862E+03  0.14536961196E+03 -0.61795939002E+02  0.21323147189E+03  0.41800000000E+01 0.  1.
         -5    1    3    3    0  502  0.25994862486E+02  0.39393618895E+02 -0.60480669172E+01  0.47766532203E+02  0.41800000000E+01 0.  1.
        -11    1    1    2    0    0  0.31704316702E+02 -0.69288367471E+01  0.30639865106E+02  0.44631533807E+02  0.00000000000E+00 0.  1.
         11    1    1    2    0    0  0.85475979435E+02 -0.17783439411E+03  0.23220874930E+02  0.19867164826E+03  0.00000000000E+00 0. -1.
</event>
<event>
 7    1  0.7017065E-006  0.2157749E+03  0.7561462E-02  0.1137073E+00
         -2   -1    0    0    0  501 -0.00000000000E+00  0.00000000000E+00  0.84691749604E+02  0.84691749604E+02  0.00000000000E+00 0.  1.
          2   -1    0    0  501    0  0.00000000000E+00 -0.00000000000E+00 -0.60045911380E+03  0.60045911380E+03  0.00000000000E+00 0. -1.
         23    2    1    2    0    0  0.11589446092E+03 -0.15762210559E+03 -0.22633945311E+03  0.32427302877E+03  0.12508874813E+03 0.  0.
          5    1    3    3  502    0  0.64634341909E+02  0.15134916648E+01 -0.57438108316E+02  0.86582316312E+02  0.41800000000E+01 0. -1.
         -5    1    3    3    0  502  0.51260119015E+02 -0.15913559726E+03 -0.16890134479E+03  0.23769071246E+03  0.41800000000E+01 0. -1.
        -11    1    1    2    0    0 -0.84155914877E+02  0.81953075103E+02 -0.99359288808E+02  0.15385315336E+03  0.00000000000E+00 0. -1.
         11    1    1    2    0    0 -0.31738546047E+02  0.75669030490E+02 -0.19006862228E+03  0.20702468127E+03  0.00000000000E+00 0.  1.
</event>
<event>
 7    1  0.7017065E-006  0.1027997E+03  0.7561462E-02  0.1274516E+00
         -2   -1    0    0    0  501 -0.00000000000E+00  0.00000000000E+00  0.91747642388E+02  0.91747642388E+02  0.00000000000E+00 0. -1.
          2   -1    0    0  501    0  0.00000000000E+00 -0.00000000000E+00 -0.16662064549E+03  0.16662064549E+03  0.00000000000E+00 0.  1.
         23    2    1    2    0    0  0.33631079581E+02 -0.45239188705E+02 -0.17880732487E+02  0.13836236517E+03  0.12508712881E+03 0.  0.
          5    1    3    3  502    0  0.46998515018E+02  0.19298498454E+02 -0.44004083238E+02  0.67343330762E+02  0.41800000000E+01 0. -1.
         -5    1    3    3    0  502 -0.13367435438E+02 -0.64537687160E+02  0.26123350751E+02  0.71019034410E+02  0.41800000000E+01 0. -1.
        -11    1    1    2    0    0 -0.53123966064E+02  0.20166974293E+02 -0.65906507252E+02  0.87020286834E+02  0.00000000000E+00 0.  1.
         11    1    1    2    0    0  0.19492886484E+02  0.25072214412E+02  0.89142366377E+01  0.32985635871E+02  0.00000000000E+00 0. -1.
</event>
<event>
 7    1  0.7017065E-006  0.1893442E+03  0.7561462E-02  0.1159054E+00
          2   -1    0    0  501    0  0.00000000000E+00  0.00000000000E+00  0.84353128078E+02  0.84353128078E+02  0.00000000000E+00 0. -1.
         -2   -1    0    0    0  501 -0.00000000000E+00 -0.00000000000E+00 -0.45898423878E+03  0.45898423878E+03  0.00000000000E+00 0.  1.
         23    2    1    2    0    0  0.14838766154E+03  0.53077874397E+02 -0.26150318796E+03  0.32995187526E+03  0.12509262098E+03 0.  0.
          5    1    3    3  502    0  0.14810032384E+03  0.24214474857E+00 -0.19568481427E+03  0.24544609081E+03  0.41800000000E+01 0.  1.
         -5    1    3    3    0  502  0.28733769979E+00  0.52835729649E+02 -0.65818373686E+02  0.84505784447E+02  0.41800000000E+01 0.  1.
        -11    1    1    2    0    0 -0.27498410082E+02  0.22004988686E+02 -0.40312381188E+02  0.53530086504E+02  0.00000000000E+00 0.  1.
         11    1    1    2    0    0 -0.12088925146E+03 -0.75082863083E+02 -0.72815541560E+02  0.15985540510E+03  0.00000000000E+00 0. -1.
</event>
<event>
 7    1  0.7017065E-006  0.1302450E+03  0.7561462E-02  0.1227093E+00
          2   -1    0    0  501    0  0.00000000000E+00  0.00000000000E+00  0.91147933783E+03  0.91147933783E+03  0.00000000000E+00 0. -1.
         -2   -1    0    0    0  501 -0.00000000000E+00 -0.00000000000E+00 -0.30368001126E+02  0.30368001126E+02  0.00000000000E+00 0.  1.
         23    2    1    2    0    0  0.56362611839E+01 -0.12443396615E+03  0.42533187518E+03  0.46050989950E+03  0.12508630667E+03 0.  0.
          5    1    3    3  502    0  0.12079481674E+02 -0.12434898562E+03  0.43237886049E+03  0.45008614231E+03  0.41800000000E+01 0.  1.
         -5    1    3    3    0  502 -0.64432204897E+01 -0.84980530117E-01 -0.70469853069E+01  0.10423757187E+02  0.41800000000E+01 0.  1.
        -11    1    1    2    0    0 -0.16807067865E+02  0.56087938818E+02  0.35027191875E+03  0.35513201979E+03  0.00000000000E+00 0.  1.
         11    1    1    2    0    0  0.11170806681E+02  0.68346027328E+02  0.10550754277E+03  0.12620541967E+03  0.00000000000E+00 0. -1.
</event>
<event>
 6    1  0.7017065E-006  0.1532573E+03  0.7561462E-02  0.1196527E+00
          2   -1    0    0  501    0  0.00000000000E+00  0.00000000000E+00  0.74305082252E+02  0.74305082252E+02  0.00000000000E+00 0. -1.
         -2   -1    0    0    0  501 -0.00000000000E+00 -0.00000000000E+00 -0.36946209349E+03  0.36946209349E+03  0.00000000000E+00 0.  1.
          5    1    1    2  502    0  0.16884934681E+02 -0.20319979267E+02 -0.34573172349E+01  0.26970873532E+02  0.41800000000E+01 0. -1.
         -5    1    1    2    0  502 -0.51501920313E+02  0.12430749604E+03 -0.21171855866E+03  0.25089245076E+03  0.41800000000E+01 0.  1.
        -11    1    1    2    0    0  0.67339130597E+02 -0.59078199224E+02 -0.53611632956E+02  0.10439827260E+03  0.00000000000E+00 0.  1.
         11    1    1    2    0    0 -0.32722144966E+02 -0.44909317545E+02 -0.26369502381E+02  0.61505578847E+02  0.00000000000E+00 0. -1.
</event>
<event>
 7    1  0.7017065E-006  0.1621988E+03  0.7561462E-02  0.1186236E+00
          4   -1    0    0  501    0  0.00000000000E+00  0.00000000000E+00  0.85117148529E+02  0.85117148529E+02  0.00000000000E+00 0. -1.
         -4   -1    0    0    0  501 -0.00000000000E+00 -0.00000000000E+00 -0.33587751596E+03  0.33587751596E+03  0.00000000000E+00 0.  1.
         23    2    1    2    0    0  0.13397214703E+02  0.12843778595E+03 -0.14113218051E+03  0.22856400260E+03  0.12508981047E+03 0.  0.
          5    1    3    3  502    0 -0.51726630339E+02  0.30146904491E+02 -0.32819708444E+02  0.68403843452E+02  0.41800000000E+01 0.  1.
         -5    1    3    3    0  502  0.65123845042E+02  0.98290881464E+02 -0.10831247207E+03  0.16016015914E+03  0.41800000000E+01 0.  1.
        -11    1    1    2    0    0 -0.40086292607E+02 -0.98208398923E+02 -0.42810734662E+02  0.11438775929E+03  0.00000000000E+00 0.  1.
         11    1    1    2    0    0  0.26689077904E+02 -0.30229387031E+02 -0.66817452264E+02  0.78042902604E+02  0.00000000000E+00 0. -1.
</event>
<event>
 7    1  0.7017065E-006  0.8730208E+02  0.7561462E-02  0.1309520E+00
         -2   -1    0    0    0  501 -0.00000000000E+00  0.00000000000E+00  0.42329570754E+02  0.42329570754E+02  0.00000000000E+00 0.  1.
          2   -1    0    0  501    0  0.00000000000E+00 -0.00000000000E+00 -0.45558909842E+03  0.45558909842E+03  0.00000000000E+00 0. -1.
         23    2    1    2    0    0 -0.17470767674E+02  0.13634750814E+02 -0.48146895982E+02  0.12213160960E+03  0.11003123338E+03 0.  0.
          5    1    3    3  502    0  0.22956380055E+02  0.36401382947E+02 -0.60100283140E+02  0.74037642448E+02  0.41800000000E+01 0. -1.
         -5    1    3    3    0  502 -0.40427147729E+02 -0.22766632132E+02  0.11953387159E+02  0.48093967155E+02  0.41800000000E+01 0.  1.
        -11    1    1    2    0    0 -0.22740499276E+02  0.21565208470E+02 -0.84358570520E+02  0.89991982664E+02  0.00000000000E+00 0.  1.
         11    1    1    2    0    0  0.40211266950E+02 -0.35199959284E+02 -0.28075406116E+03  0.28579507691E+03  0.00000000000E+00 0. -1.
</event>
<event>
 6    1  0.7017065E-006  0.1239241E+03  0.7561462E-02  0.1236760E+00
          1   -1    0    0  501    0  0.00000000000E+00  0.00000000000E+00  0.41537751788E+02  0.41537751788E+02  0.00000000000E+00 0. -1.
         -1   -1    0    0    0  501 -0.00000000000E+00 -0.00000000000E+00 -0.10929442883E+04  0.10929442883E+04  0.00000000000E+00 0.  1.
          5    1    1    2  502    0  0.15425669391E+02 -0.31466784697E+02 -0.79197196906E+02  0.86705122184E+02  0.41800000000E+01 0. -1.
         -5    1    1    2    0  502 -0.14384085948E+01  0.10053429551E+03 -0.91375883835E+03  0.91928336254E+03  0.41800000000E+01 0.  1.
        -11    1    1    2    0    0 -0.48797826118E+02 -0.22374339258E+02 -0.41447199889E+02  0.67821156505E+02  0.00000000000E+00 0.  1.
         11    1    1    2    0    0  0.34810565322E+02 -0.46693171557E+02 -0.17003301404E+02  0.60672398887E+02  0.00000000000E+00 0. -1.
</event>
<event>
 7    1  0.7017065E-006  0.1111979E+03  0.7561462E-02  0.1258368E+00
          2   -1    0    0  501    0  0.00000000000E+00  0.00000000000E+00  0.10354030411E+04  0.10354030411E+04  0.00000000000E+00 0. -1.
         -2   -1    0    0    0  501 -0.00000000000E+00 -0.00000000000E+00 -0.20437598942E+02  0.20437598942E+02  0.00000000000E+00 0.  1.
         23    2    1    2    0    0  0.17954712170E+02 -0.95541992175E+02  0.50987200638E+03  0.53391894837E+03  0.12509730844E+03 0.  0.
          5    1    3    3  502    0  0.60344999033E+01 -0.87852765198E+01 -0.43721207592E+01  0.12254962772E+02  0.41800000000E+01 0. -1.
         -5    1    3    3    0  502  0.11920212267E+02 -0.86756715656E+02  0.51424412714E+03  0.52166398560E+03  0.41800000000E+01 0. -1.
        -11    1    1    2    0    0  0.28511260294E+02  0.20895273732E+02  0.74737821416E+02  0.82675548851E+02  0.00000000000E+00 0.  1.
         11    1    1    2    0    0 -0.46465972464E+02  0.74646718444E+02  0.43035561440E+03  0.43924614286E+03  0.00000000000E+00 0. -1.
</event>
<event>
 7    1  0.7017065E-006  0.1170605E+03  0.7561462E-02  0.1248027E+00
         -1   -1    0    0    0  501 -0.00000000000E+00  0.00000000000E+00  0.11075508879E+04  0.11075508879E+04  0.00000000000E+00 0.  1.
          1   -1    0    0  501    0  0.00000000000E+00 -0.00000000000E+00 -0.12502802270E+02  0.12502802270E+02  0.00000000000E+00 0. -1.
         23    2    1    2    0    0 -0.20745111332E+02 -0.39180364644E+02  0.61688864554E+03  0.63100279135E+03  0.12508981208E+03 0.  0.
          5    1    3    3  502    0 -0.36024390816E+02 -0.79934885178E+02  0.36976648655E+03  0.38004219447E+03  0.41800000000E+01 0.  1.
         -5    1    3    3    0  502  0.15279279485E+02  0.40754520535E+02  0.24712215898E+03  0.25096059688E+03  0.41800000000E+01 0.  1.
        -11    1    1    2    0    0 -0.31807002013E+02  0.38662242441E+02  0.22873767876E+03  0.23415247180E+03  0.00000000000E+00 0. -1.
         11    1    1    2    0    0  0.52552113345E+02  0.51812220311E+00  0.24942176135E+03  0.25489842703E+03  0.00000000000E+00 0.  1.
</event>
<event>
 7    1  0.7017065E-006  0.1599366E+03  0.7561462E-02  0.1188768E+00
         -2   -1    0    0    0  501 -0.00000000000E+00  0.00000000000E+00  0.36663590331E+02  0.36663590331E+02  0.00000000000E+00 0.  1.
          2   -1    0    0  501    0  0.00000000000E+00 -0.00000000000E+00 -0.75207488234E+03  0.75207488234E+03  0.00000000000E+00 0. -1.
         23    2    1    2    0    0  0.12477710666E+02 -0.12379411837E+03 -0.42002673807E+03  0.45557866134E+03  0.12509507973E+03 0.  0.
          5    1    3    3  502    0  0.58028244282E+02 -0.11558422346E+03 -0.29237113794E+03  0.31972698439E+03  0.41800000000E+01 0. -1.
         -5    1    3    3    0  502 -0.45550533616E+02 -0.82098949131E+01 -0.12765560013E+03  0.13585167696E+03  0.41800000000E+01 0. -1.
        -11    1    1    2    0    0 -0.41815564110E+02  0.90052681936E+02 -0.25201949787E+03  0.27087239474E+03  0.00000000000E+00 0.  1.
         11    1    1    2    0    0  0.29337853444E+02  0.33741436433E+02 -0.43365056078E+02  0.62287416593E+02  0.00000000000E+00 0. -1.
</event>
<event>
 7    1  0.7017065E-006  0.1875062E+03  0.7561462E-02  0.1160730E+00
          2   -1    0    0  501    0  0.00000000000E+00  0.00000000000E+00  0.48292988830E+03  0.48292988830E+03  0.00000000000E+00 0.  1.
         -2   -1    0    0    0  501 -0.00000000000E+00 -0.00000000000E+00 -0.91408491792E+02  0.91408491792E+02  0.00000000000E+00 0. -1.
         23    2    1    2    0    0  0.12530003069E+03 -0.12128904829E+03  0.14390261833E+03  0.25840581240E+03  0.12511782204E+03 0.  0.
          5    1    3    3  502    0  0.13017782332E+03 -0.83230606895E+02  0.59549518307E+02  0.16564183390E+03  0.41800000000E+01 0.  1.
         -5    1    3    3    0  502 -0.48777926292E+01 -0.38058441395E+02  0.84353100027E+02  0.92763978497E+02  0.41800000000E+01 0.  1.
        -11    1    1    2    0    0 -0.47827672722E+02  0.82130901060E+02  0.69354687915E+02  0.11765646571E+03  0.00000000000E+00 0. -1.
         11    1    1    2    0    0 -0.77472357966E+02  0.39158147230E+02  0.17826409026E+03  0.19827610199E+03  0.00000000000E+00 0.  1.
</event>
<event>
 6    1  0.7017065E-006  0.8003339E+02  0.7561462E-02  0.1328957E+00
         -1   -1    0    0    0  501 -0.00000000000E+00  0.00000000000E+00  0.77747294892E+03  0.77747294892E+03  0.00000000000E+00 0.  1.
          1   -1    0    0  501    0  0.00000000000E+00 -0.00000000000E+00 -0.39632114438E+02  0.39632114438E+02  0.00000000000E+00 0. -1.
          5    1    1    2  502    0  0.17192275791E+02 -0.10704506877E+02 -0.10336162184E+02  0.23118595612E+02  0.41800000000E+01 0. -1.
         -5    1    1    2    0  502  0.48166367131E+01 -0.37075944543E+02  0.65427362764E+03  0.65535431477E+03  0.41800000000E+01 0.  1.
        -11    1    1    2    0    0 -0.45689211835E+02 -0.29474811959E+01  0.46777779593E+02  0.65454964572E+02  0.00000000000E+00 0.  1.
         11    1    1    2    0    0  0.23680299331E+02  0.50727932616E+02  0.47125589426E+02  0.73177188404E+02  0.00000000000E+00 0. -1.
</event>
<event>
 7    1  0.7017065E-006  0.1147965E+03  0.7561462E-02  0.1251937E+00
         -4   -1    0    0    0  501 -0.00000000000E+00  0.00000000000E+00  0.28634557617E+03  0.28634557617E+03  0.00000000000E+00 0.  1.
          4   -1    0    0  501    0  0.00000000000E+00 -0.00000000000E+00 -0.56044616150E+02  0.56044616150E+02  0.00000000000E+00 0. -1.
         23    2    1    2    0    0  0.54480914065E+02  0.16425687135E+01  0.17005527031E+03  0.21803015063E+03  0.12508990205E+03 0.  0.
          5    1    3    3  502    0  0.66477105095E+02  0.41978185394E+02  0.15369390893E+03  0.17268660513E+03  0.41800000000E+01 0. -1.
         -5    1    3    3    0  502 -0.11996191030E+02 -0.40335616681E+02  0.16361361388E+02  0.45343545502E+02  0.41800000000E+01 0. -1.
        -11    1    1    2    0    0 -0.52266875243E+02 -0.42677126423E+02  0.33566035644E+02  0.75364727268E+02  0.00000000000E+00 0.  1.
         11    1    1    2    0    0 -0.22140388219E+01  0.41034557709E+02  0.26679654067E+02  0.48995314423E+02  0.00000000000E+00 0. -1.
</event>
<event>
 7    1  0.7017065E-006  0.9544082E+02  0.7561462E-02  0.1290186E+00
          1   -1    0    0  501    0  0.00000000000E+00  0.00000000000E+00  0.84465783547E+02  0.84465783547E+02  0.00000000000E+00 0. -1.
         -1   -1    0    0    0  501 -0.00000000000E+00 -0.00000000000E+00 -0.18100193710E+03  0.18100193710E+03  0.00000000000E+00 0.  1.
         23    2    1    2    0    0  0.46453600194E+02 -0.89540142144E+01 -0.91772944880E+02  0.16219835054E+03  0.12509164706E+03 0.  0.
          5    1    3    3  502    0  0.17529480601E+02  0.53048165115E+02 -0.71266851231E+02  0.90652231062E+02  0.41800000000E+01 0. -1.
         -5    1    3    3    0  502  0.28924119593E+02 -0.62002179329E+02 -0.20506093649E+02  0.71546119479E+02  0.41800000000E+01 0. -1.
        -11    1    1    2    0    0 -0.14756998815E+02 -0.18994271343E+02 -0.41044252644E+02  0.47572912807E+02  0.00000000000E+00 0.  1.
         11    1    1    2    0    0 -0.31696601379E+02  0.27948285558E+02  0.36281043967E+02  0.55696457302E+02  0.00000000000E+00 0. -1.
</event>
<event>
 7    1  0.7017065E-006  0.1391088E+03  0.7561462E-02  0.1214533E+00
         -1   -1    0    0    0  501 -0.00000000000E+00  0.00000000000E+00  0.20263188070E+03  0.20263188070E+03  0.00000000000E+00 0.  1.
          1   -1    0    0  501    0  0.00000000000E+00 -0.00000000000E+00 -0.25460538811E+03  0.25460538811E+03  0.00000000000E+00 0. -1.
         23    2    1    2    0    0  0.87397914235E+02 -0.80390833186E+02  0.13349548810E+03  0.21810469308E+03  0.12509008884E+03 0.  0.
          5    1    3    3  502    0 -0.42223614410E+01 -0.11606190599E+02  0.96883938664E+02  0.97757362728E+02  0.41800000000E+01 0.  1.
         -5    1    3    3    0  502  0.91620275676E+02 -0.68784642587E+02  0.36611549438E+02  0.12034733035E+03  0.41800000000E+01 0.  1.
        -11    1    1    2    0    0 -0.38379010941E+02 -0.16635976505E+02 -0.59689323966E+02  0.72887033076E+02  0.00000000000E+00 0.  1.
         11    1    1    2    0    0 -0.49018903294E+02  0.97026809691E+02 -0.12577967154E+03  0.16624554265E+03  0.00000000000E+00 0. -1.
</event>
<event>
 7    1  0.7017065E-006  0.1523768E+03  0.7561462E-02  0.1197582E+00
          1   -1    0    0  501    0  0.00000000000E+00  0.00000000000E+00  0.20580304695E+02  0.20580304695E+02  0.00000000000E+00 0. -1.
         -1   -1    0    0    0  501 -0.00000000000E+00 -0.00000000000E+00 -0.11541379115E+04  0.11541379115E+04  0.00000000000E+00 0.  1.
         23    2    1    2    0    0 -0.10752674897E+03 -0.39439850490E+02 -0.55038327989E+03  0.57345466400E+03  0.11318565867E+03 0.  0.
          5    1    3    3  502    0 -0.28295404021E+02 -0.70034976818E+02 -0.27768480263E+03  0.28780522906E+03  0.41800000000E+01 0. -1.
         -5    1    3    3    0  502 -0.79231344945E+02  0.30595126328E+02 -0.27269847727E+03  0.28564943494E+03  0.41800000000E+01 0.  1.
        -11    1    1    2    0    0  0.10704871054E+03  0.24526820660E+01 -0.38232179813E+03  0.39703324723E+03  0.00000000000E+00 0. -1.
         11    1    1    2    0    0  0.47803842346E+00  0.36987168424E+02 -0.20085252881E+03  0.20423030500E+03  0.00000000000E+00 0.  1.
</event>
<event>
 7    1  0.7017065E-006  0.8792480E+02  0.7561462E-02  0.1307956E+00
          1   -1    0    0  501    0  0.00000000000E+00  0.00000000000E+00  0.58563972911E+02  0.58563972911E+02  0.00000000000E+00 0. -1.
         -1   -1    0    0    0  501 -0.00000000000E+00 -0.00000000000E+00 -0.29408176166E+03  0.29408176166E+03  0.00000000000E+00 0.  1.
         23    2    1    2    0    0 -0.70941400326E+02  0.14612896015E+02 -0.10726953959E+03  0.17999960396E+03  0.12508750654E+03 0.  0.
          5    1    3    3  502    0 -0.33885739428E+02  0.38748898507E+02 -0.12257983734E+03  0.13301507206E+03  0.41800000000E+01 0. -1.
         -5    1    3    3    0  502 -0.37055660898E+02 -0.24136002493E+02  0.15310297750E+02  0.46984531903E+02  0.41800000000E+01 0. -1.
        -11    1    1    2    0    0  0.22306612405E+02 -0.21117319935E+02  0.45690881960E+01  0.31054834168E+02  0.00000000000E+00 0. -1.
         11    1    1    2    0    0  0.48634787920E+02  0.65044239200E+01 -0.13281733735E+03  0.14159129644E+03  0.00000000000E+00 0.  1.
</event>
<event>
 7    1  0.7017065E-006  0.1210797E+03  0.7561462E-02  0.1241326E+00
          3   -1    0    0  501    0  0.00000000000E+00  0.00000000000E+00  0.84864231409E+02  0.84864231409E+02  0.00000000000E+00 0. -1.
         -3   -1    0    0    0  501 -0.00000000000E+00 -0.00000000000E+00 -0.18250915525E+03  0.18250915525E+03  0.00000000000E+00 0.  1.
         23    2    1    2    0    0  0.54080175487E+02 -0.33820030502E+02 -0.56142625339E+02  0.15122017056E+03  0.12508831184E+03 0.  0.
          5    1    3    3  502    0 -0.17719339325E+02  0.32510021007E+02  0.21679039316E+01  0.37323567078E+02  0.41800000000E+01 0.  1.
         -5    1    3    3    0  502  0.71799514812E+02 -0.66330051509E+02 -0.58310529270E+02  0.11389660348E+03  0.41800000000E+01 0.  1.
        -11    1    1    2    0    0 -0.53737077622E+02 -0.16905796493E+02 -0.31179159732E+02  0.64386485135E+02  0.00000000000E+00 0. -1.
         11    1    1    2    0    0 -0.34309786436E+00  0.50725826995E+02 -0.10323138766E+02  0.51766730962E+02  0.00000000000E+00 0.  1.
</event>
<event>
 7    1  0.7017065E-006  0.1209507E+03  0.7561462E-02  0.1241537E+00
          1   -1    0    0  501    0  0.00000000000E+00  0.00000000000E+00  0.46237218283E+03  0.46237218283E+03  0.00000000000E+00 0. -1.
         -1   -1    0    0    0  501 -0.00000000000E+00 -0.00000000000E+00 -0.37407870150E+02  0.37407870150E+02  0.00000000000E+00 0.  1.
         23    2    1    2    0    0 -0.60550167979E+02 -0.32709745479E+02  0.17617848995E+03  0.22676553497E+03  0.12508995658E+03 0.  0.
          5    1    3    3  502    0 -0.10419246345E+02  0.42862622256E+02  0.95642173096E+02  0.10540712858E+03  0.41800000000E+01 0. -1.
         -5    1    3    3    0  502 -0.50130921635E+02 -0.75572367734E+02  0.80536316857E+02  0.12135840639E+03  0.41800000000E+01 0. -1.
        -11    1    1    2    0    0  0.56012046786E+02  0.58283766446E+02  0.21928088887E+03  0.23370591571E+03  0.00000000000E+00 0.  1.
         11    1    1    2    0    0  0.45381211937E+01 -0.25574020967E+02  0.29504933857E+02  0.39308602294E+02  0.00000000000E+00 0. -1.
</event>
<event>
 7    1  0.7017065E-006  0.1074942E+03  0.7561462E-02  0.1265282E+00
         -1   -1    0    0    0  501 -0.00000000000E+00  0.00000000000E+00  0.16956751866E+02  0.16956751866E+02  0.00000000000E+00 0.  1.
          1   -1    0    0  501    0  0.00000000000E+00 -0.00000000000E+00 -0.75721038873E+03  0.75721038873E+03  0.00000000000E+00 0. -1.
         23    2    1    2    0    0 -0.19177171478E+02 -0.19591539278E+02 -0.36083281107E+03  0.38288295287E+03  0.12508975071E+03 0.  0.
          5    1    3    3  502    0  0.52163076879E+02 -0.15866222676E+02 -0.12512693237E+03  0.13655381802E+03  0.41800000000E+01 0.  1.
         -5    1    3    3    0  502 -0.71340248357E+02 -0.37253166026E+01 -0.23570587870E+03  0.24632913484E+03  0.41800000000E+01 0.  1.
        -11    1    1    2    0    0  0.11571791400E+02 -0.33329607215E+02 -0.84719918378E+02  0.91772728211E+02  0.00000000000E+00 0.  1.
         11    1    1    2    0    0  0.76053800779E+01  0.52921146494E+02 -0.29470090741E+03  0.29951145952E+03  0.00000000000E+00 0. -1.
</event>
<event>
 7    1  0.7017065E-006  0.1014550E+03  0.7561462E-02  0.1277266E+00
         -2   -1    0    0    0  501 -0.00000000000E+00  0.00000000000E+00  0.15945179564E+03  0.15945179564E+03  0.00000000000E+00 0.  1.
          2   -1    0    0  501    0  0.00000000000E+00 -0.00000000000E+00 -0.12939375446E+03  0.12939375446E+03  0.00000000000E+00 0. -1.
         23    2    1    2    0    0  0.97003935515E+01  0.28657936749E+02  0.10591228486E+03  0.16666979090E+03  0.12508410027E+03 0.  0.
          5    1    3    3  502    0  0.37780268420E+00 -0.38771425558E+02  0.87853881305E+02  0.96120461063E+02  0.41800000000E+01 0.  1.
         -5    1    3    3    0  502  0.93225908673E+01  0.67429362308E+02  0.18058403556E+02  0.70549329839E+02  0.41800000000E+01 0.  1.
        -11    1    1    2    0    0 -0.35257601489E+02  0.20156855840E+02 -0.30006390390E+02  0.50495353889E+02  0.00000000000E+00 0.  1.
         11    1    1    2    0    0  0.25557207938E+02 -0.48814792589E+02 -0.45847853299E+02  0.71680405309E+02  0.00000000000E+00 0. -1.
</event>
<event>
 7    1  0.7017065E-006  0.1124702E+03  0.7561462E-02  0.1256063E+00
         -1   -1    0    0    0  501 -0.00000000000E+00  0.00000000000E+00  0.64519382100E+02  0.64519382100E+02  0.00000000000E+00 0.  1.
          1   -1    0    0  501    0  0.00000000000E+00 -0.00000000000E+00 -0.45809663900E+03  0.45809663900E+03  0.00000000000E+00 0. -1.
         23    2    1    2    0    0 -0.22257007165E+02  0.51893930366E+02 -0.25784731606E+02  0.13964474581E+03  0.12508976086E+03 0.  0.
          5    1    3    3  502    0 -0.62098411668E+02 -0.10338247983E+02 -0.15018455756E+02  0.64854595183E+02  0.41800000000E+01 0.  1.
         -5    1    3    3    0  502  0.39841404504E+02  0.62232178349E+02 -0.10766275850E+02  0.74790150626E+02  0.41800000000E+01 0.  1.
        -11    1    1    2    0    0  0.44367097840E+02 -0.48041423108E+02 -0.34440011942E+03  0.35055364777E+03  0.00000000000E+00 0. -1.
         11    1    1    2    0    0 -0.22110090676E+02 -0.38525072575E+01 -0.23392405874E+02  0.32417627526E+02  0.00000000000E+00 0.  1.
</event>
<event>
 7    1  0.7017065E-006  0.2063142E+03  0.7561462E-02  0.1144518E+00
          1   -1    0    0  501    0  0.00000000000E+00  0.00000000000E+00  0.20875198583E+03  0.20875198583E+03  0.00000000000E+00 0. -1.
         -1   -1    0    0    0  501 -0.00000000000E+00 -0.00000000000E+00 -0.23870061754E+03  0.23870061754E+03  0.00000000000E+00 0.  1.
         23    2    1    2    0    0 -0.17497543181E+03 -0.57139736870E+02 -0.80191528350E+02  0.23655784525E+03  0.12509029404E+03 0.  0.
          5    1    3    3  502    0 -0.17231012841E+03 -0.91863379797E+01 -0.74560820617E+02  0.18802116245E+03  0.41800000000E+01 0.  1.
         -5    1    3    3    0  502 -0.26653033998E+01 -0.47953398890E+02 -0.56307077331E+01  0.48536682797E+02  0.41800000000E+01 0.  1.
        -11    1    1    2    0    0  0.75292008516E+02  0.52942340541E+02 -0.12720079304E+02  0.92917051104E+02  0.00000000000E+00 0.  1.
         11    1    1    2    0    0  0.99683423291E+02  0.41973963290E+01  0.62962975943E+02  0.11797770702E+03  0.00000000000E+00 0. -1.
</event>
<event>
 7    1  0.7017065E-006  0.1159338E+03  0.7561462E-02  0.1249960E+00
          1   -1    0    0  501    0  0.00000000000E+00  0.00000000000E+00  0.11870872397E+03  0.11870872397E+03  0.00000000000E+00 0. -1.
         -1   -1    0    0    0  501 -0.00000000000E+00 -0.00000000000E+00 -0.16662714885E+03  0.16662714885E+03  0.00000000000E+00 0.  1.
         23    2    1    2    0    0 -0.66950847553E+02  0.57193274774E+02 -0.36894711079E+02  0.15736256139E+03  0.12509304279E+03 0.  0.
          5    1    3    3  502    0 -0.78335780441E+02  0.17736533208E+02  0.23877629255E+02  0.83896917025E+02  0.41800000000E+01 0. -1.
         -5    1    3    3    0  502  0.11384932888E+02  0.39456741566E+02 -0.60772340334E+02  0.73465644362E+02  0.41800000000E+01 0. -1.
        -11    1    1    2    0    0 -0.13093491506E+02 -0.14148494999E+02 -0.29490184535E+02  0.35231951613E+02  0.00000000000E+00 0. -1.
         11    1    1    2    0    0  0.80044339059E+02 -0.43044779775E+02  0.18466470733E+02  0.92741359827E+02  0.00000000000E+00 0.  1.
</event>
<event>
 7    1  0.7017065E-006  0.1028501E+03  0.7561462E-02  0.1274414E+00
          2   -1    0    0  501    0  0.00000000000E+00  0.00000000000E+00  0.24683944937E+03  0.24683944937E+03  0.00000000000E+00 0. -1.
         -2   -1    0    0    0  501 -0.00000000000E+00 -0.00000000000E+00 -0.47198040286E+02  0.47198040286E+02  0.00000000000E+00 0.  1.
         23    2    1    2    0    0  0.28290134070E+02 -0.23141091017E+02  0.10118881385E+03  0.15602899438E+03  0.11300455416E+03 0.  0.
          5    1    3    3  502    0 -0.42962385582E+02 -0.18024400174E+02  0.46582710716E+02  0.66015656584E+02  0.41800000000E+01 0. -1.
         -5    1    3    3    0  502  0.71252519652E+02 -0.51166908431E+01  0.54606103129E+02  0.90013337794E+02  0.41800000000E+01 0.  1.
        -11    1    1    2    0    0  0.13368319501E+02  0.40188188465E+02  0.18417478237E+02  0.46184477511E+02  0.00000000000E+00 0.  1.
         11    1    1    2    0    0 -0.41658453571E+02 -0.17047097447E+02  0.80035116998E+02  0.91824017764E+02  0.00000000000E+00 0. -1.
</event>
<event>
 7    1  0.7017065E-006  0.9065585E+02  0.7561462E-02  0.1301271E+00
          1   -1    0    0  501    0  0.00000000000E+00  0.00000000000E+00  0.19378606190E+03  0.19378606190E+03  0.00000000000E+00 0. -1.
         -1   -1    0    0    0  501 -0.00000000000E+00 -0.00000000000E+00 -0.74599355657E+02  0.74599355657E+02  0.00000000000E+00 0.  1.
         23    2    1    2    0    0 -0.29280503695E+02 -0.41505268343E+02  0.50363916862E+02  0.14410133641E+03  0.12509450762E+03 0.  0.
          5    1    3    3  502    0  0.37929836407E+02  0.95574928244E+01 -0.95821970449E+01  0.40488381780E+02  0.41800000000E+01 0.  1.
         -5    1    3    3    0  502 -0.67210340102E+02 -0.51062761168E+02  0.59946113907E+02  0.10361295463E+03  0.41800000000E+01 0.  1.
        -11    1    1    2    0    0  0.27136161001E+02  0.15265487315E+02 -0.16327475809E+02  0.35156689308E+02  0.00000000000E+00 0.  1.
         11    1    1    2    0    0  0.21443426945E+01  0.26239781028E+02  0.85150265186E+02  0.89127391834E+02  0.00000000000E+00 0. -1.
</event>
<event>
 7    1  0.7017065E-006  0.7361128E+02  0.7561462E-02  0.1348226E+00
          1   -1    0    0  501    0  0.00000000000E+00  0.00000000000E+00  0.11825623941E+03  0.11825623941E+03  0.00000000000E+00 0. -1.
         -1   -1    0    0    0  501 -0.00000000000E+00 -0.00000000000E+00 -0.10536032986E+03  0.10536032986E+03  0.00000000000E+00 0.  1.
         23    2    1    2    0    0 -0.45848387308E-01 -0.99861498050E+01 -0.14592685714E+02  0.12633269238E+03  0.12508907785E+03 0.  0.
          5    1    3    3  502    0  0.35291120370E+02  0.12663823293E+02 -0.55805050637E+02  0.67361054579E+02  0.41800000000E+01 0.  1.
         -5    1    3    3    0  502 -0.35336968758E+02 -0.22649973098E+02  0.41212364923E+02  0.58971637800E+02  0.41800000000E+01 0.  1.
        -11    1    1    2    0    0 -0.76065449495E+01 -0.27769251714E+02  0.46215198142E+02  0.54450302167E+02  0.00000000000E+00 0. -1.
         11    1    1    2    0    0  0.76523933368E+01  0.37755401519E+02 -0.18726602882E+02  0.42833574718E+02  0.00000000000E+00 0.  1.
</event>
<event>
 7    1  0.7017065E-006  0.1028253E+03  0.7561462E-02  0.1274464E+00
         -1   -1    0    0    0  501 -0.00000000000E+00  0.00000000000E+00  0.16559962814E+03  0.16559962814E+03  0.00000000000E+00 0.  1.
          1   -1    0    0  501    0  0.00000000000E+00 -0.00000000000E+00 -0.85189124421E+02  0.85189124421E+02  0.00000000000E+00 0. -1.
         23    2    1    2    0    0 -0.30936248733E+02  0.34490848402E+02  0.57564441247E+02  0.14528512222E+03  0.12508969475E+03 0.  0.
          5    1    3    3  502    0 -0.58078546654E+02  0.67433786811E+02  0.28760458722E+02  0.93621950263E+02  0.41800000000E+01 0. -1.
         -5    1    3    3    0  502  0.27142297921E+02 -0.32942938409E+02  0.28803982525E+02  0.51663171958E+02  0.41800000000E+01 0. -1.
        -11    1    1    2    0    0 -0.15439267844E+02 -0.19619078177E+02 -0.26335919363E+02  0.36288563884E+02  0.00000000000E+00 0. -1.
         11    1    1    2    0    0  0.46375516576E+02 -0.14871770226E+02  0.49181981837E+02  0.69215066458E+02  0.00000000000E+00 0.  1.
</event>
<event>
 7    1  0.7017065E-006  0.1076091E+03  0.7561462E-02  0.1265063E+00
         -1   -1    0    0    0  501 -0.00000000000E+00  0.00000000000E+00  0.69345032898E+03  0.69345032898E+03  0.00000000000E+00 0.  1.
          1   -1    0    0  501    0  0.00000000000E+00 -0.00000000000E+00 -0.24820599948E+02  0.24820599948E+02  0.00000000000E+00 0. -1.
         23    2    1    2    0    0 -0.59458001424E+02  0.26033179036E+02  0.47560330319E+03  0.49604052103E+03  0.12507883978E+03 0.  0.
          5    1    3    3  502    0 -0.79339439166E+02  0.52474378709E+01  0.45095727125E+03  0.45793254428E+03  0.41800000000E+01 0. -1.
         -5    1    3    3    0  502  0.19881437742E+02  0.20785741165E+02  0.24646031931E+02  0.38107976756E+02  0.41800000000E+01 0. -1.
        -11    1    1    2    0    0  0.80361742271E+02 -0.11757864161E+02  0.16816409200E+03  0.18674961534E+03  0.00000000000E+00 0.  1.
         11    1    1    2    0    0 -0.20903740847E+02 -0.14275314875E+02  0.24862333847E+02  0.35480792558E+02  0.00000000000E+00 0. -1.
</event>
<event>
 7    1  0.7017065E-006  0.2715738E+03  0.7561462E-02  0.1100382E+00
         -2   -1    0    0    0  501 -0.00000000000E+00  0.00000000000E+00  0.34177506460E+03  0.34177506460E+03  0.00000000000E+00 0.  1.
          2   -1    0    0  501    0  0.00000000000E+00 -0.00000000000E+00 -0.28270415622E+03  0.28270415622E+03  0.00000000000E+00 0. -1.
         23    2    1    2    0    0  0.25305557015E+03 -0.22951589027E+01  0.17623720380E+03  0.33279140817E+03  0.12509268567E+03 0.  0.
          5    1    3    3  502    0  0.15325172822E+03  0.59738227600E+02  0.10850871119E+03  0.19709480167E+03  0.41800000000E+01 0. -1.
         -5    1    3    3    0  502  0.99803841921E+02 -0.62033386502E+02  0.67728492617E+02  0.13569660650E+03  0.41800000000E+01 0. -1.
        -11    1    1    2    0    0 -0.17514167566E+03 -0.28121130253E+02 -0.49663799061E+02  0.18420612763E+03  0.00000000000E+00 0.  1.
         11    1    1    2    0    0 -0.77913894484E+02  0.30416289156E+02 -0.67502496364E+02  0.10748168502E+03  0.00000000000E+00 0. -1.
</event>
<event>
 7    1  0.7017065E-006  0.1120224E+03  0.7561462E-02  0.1256870E+00
          2   -1    0    0  501    0  0.00000000000E+00  0.00000000000E+00  0.20062858147E+03  0.20062858147E+03  0.00000000000E+00 0. -1.
         -2   -1    0    0    0  501 -0.00000000000E+00 -0.00000000000E+00 -0.99227845898E+02  0.99227845898E+02  0.00000000000E+00 0.  1.
         23    2    1    2    0    0  0.31340270168E+02  0.47318704538E+02 -0.99038767051E+01  0.13772539188E+03  0.12509566124E+03 0.  0.
          5    1    3    3  502    0  0.58716084493E+01 -0.41388260649E+02  0.10079777256E+02  0.43203451423E+02  0.41800000000E+01 0.  1.
         -5    1    3    3    0  502  0.25468661718E+02  0.88706965187E+02 -0.19983653961E+02  0.94521940459E+02  0.41800000000E+01 0.  1.
        -11    1    1    2    0    0  0.21865341953E+02 -0.72270071909E+01 -0.89090129592E+01  0.24691968807E+02  0.00000000000E+00 0.  1.
         11    1    1    2    0    0 -0.53205612121E+02 -0.40091697347E+02  0.12021362524E+03  0.13743906668E+03  0.00000000000E+00 0. -1.
</event>
<event>
 7    1  0.7017065E-006  0.1618624E+03  0.7561462E-02  0.1186610E+00
          1   -1    0    0  501    0  0.00000000000E+00  0.00000000000E+00  0.51047197329E+03  0.51047197329E+03  0.00000000000E+00 0. -1.
         -1   -1    0    0    0  501 -0.00000000000E+00 -0.00000000000E+00 -0.10870178363E+03  0.10870178363E+03  0.00000000000E+00 0.  1.
         23    2    1    2    0    0 -0.27021161749E+02  0.14855820761E+03  0.17910255547E+02  0.19689741047E+03  0.12509248085E+03 0.  0.
          5    1    3    3  502    0 -0.48246283870E+01  0.22584231405E+02 -0.47637968260E+02  0.53105300744E+02  0.41800000000E+01 0. -1.
         -5    1    3    3    0  502 -0.22196533363E+02  0.12597397620E+03  0.65548223807E+02  0.14379210972E+03  0.41800000000E+01 0. -1.
        -11    1    1    2    0    0  0.51723650837E+02 -0.54966854631E+02  0.21195735836E+03  0.22499469533E+03  0.00000000000E+00 0. -1.
         11    1    1    2    0    0 -0.24702489088E+02 -0.93591352978E+02  0.17190257575E+03  0.19728165112E+03  0.00000000000E+00 0.  1.
</event>
<event>
 7    1  0.7017065E-006  0.1254605E+03  0.7561462E-02  0.1234351E+00
         -1   -1    0    0    0  501 -0.00000000000E+00  0.00000000000E+00  0.45860355076E+02  0.45860355076E+02  0.00000000000E+00 0.  1.
          1   -1    0    0  501    0  0.00000000000E+00 -0.00000000000E+00 -0.43737551374E+03  0.43737551374E+03  0.00000000000E+00 0. -1.
         23    2    1    2    0    0  0.43317833615E+02 -0.77455110762E+02 -0.24234207481E+03  0.28679763082E+03  0.12508985143E+03 0.  0.
          5    1    3    3  502    0 -0.20431500006E+02 -0.55867464870E+02 -0.19626397517E+03  0.20512347543E+03  0.41800000000E+01 0.  1.
         -5    1    3    3    0  502  0.63749333621E+02 -0.21587645892E+02 -0.46078099638E+02  0.81674155390E+02  0.41800000000E+01 0.  1.
        -11    1    1    2    0    0 -0.68159125341E+02  0.70490482010E+02 -0.95444050070E+02  0.13683618350E+03  0.00000000000E+00 0.  1.
         11    1    1    2    0    0  0.24841291726E+02  0.69646287530E+01 -0.53729033780E+02  0.59602054488E+02  0.00000000000E+00 0. -1.
</event>
<event>
 7    1  0.7017065E-006  0.1995025E+03  0.7561462E-02  0.1150159E+00
         -1   -1    0    0    0  501 -0.00000000000E+00  0.00000000000E+00  0.32672437270E+03  0.32672437270E+03  0.00000000000E+00 0.  1.
          1   -1    0    0  501    0  0.00000000000E+00 -0.00000000000E+00 -0.14089933999E+03  0.14089933999E+03  0.00000000000E+00 0. -1.
         23    2    1    2    0    0  0.12278042849E+03  0.11618992427E+03  0.17918130665E+03  0.27627631496E+03  0.12509008528E+03 0.  0.
          5    1    3    3  502    0 -0.17359506978E+02  0.51784952611E+02  0.34314928642E+02  0.64637609231E+02  0.41800000000E+01 0.  1.
         -5    1    3    3    0  502  0.14013993546E+03  0.64404971657E+02  0.14486637801E+03  0.21163870573E+03  0.41800000000E+01 0.  1.
        -11    1    1    2    0    0 -0.45267735125E+01 -0.57943927720E+02  0.12293248462E+02  0.59406349794E+02  0.00000000000E+00 0.  1.
         11    1    1    2    0    0 -0.11825365497E+03 -0.58245996548E+02 -0.56495224045E+01  0.13194104794E+03  0.00000000000E+00 0. -1.
</event>
<event>
 7    1  0.7017065E-006  0.8357643E+02  0.7561462E-02  0.1319198E+00
         -2   -1    0    0    0  501 -0.00000000000E+00  0.00000000000E+00  0.79017361766E+02  0.79017361766E+02  0.00000000000E+00 0.  1.
          2   -1    0    0  501    0  0.00000000000E+00 -0.00000000000E+00 -0.16544238172E+03  0.16544238172E+03  0.00000000000E+00 0. -1.
         23    2    1    2    0    0 -0.15482332279E+02  0.34624453356E+02 -0.46078859227E+02  0.13859513365E+03  0.12508714730E+03 0.  0.
          5    1    3    3  502    0  0.29923061739E+02 -0.19358492991E+02 -0.56737760708E+02  0.67132605825E+02  0.41800000000E+01 0.  1.
         -5    1    3    3    0  502 -0.45405394018E+02  0.53982946346E+02  0.10658901481E+02  0.71462527824E+02  0.41800000000E+01 0.  1.
        -11    1    1    2    0    0  0.16126187511E+02  0.79830741809E+01 -0.57258063775E+02  0.60018907557E+02  0.00000000000E+00 0. -1.
         11    1    1    2    0    0 -0.64385523210E+00 -0.42607527536E+02  0.16911903052E+02  0.45845702276E+02  0.00000000000E+00 0.  1.
</event>
<event>
 7    1  0.7017065E-006  0.1082116E+03  0.7561462E-02  0.1263918E+00
         -2   -1    0    0    0  501 -0.00000000000E+00  0.00000000000E+00  0.30185316646E+03  0.30185316646E+03  0.00000000000E+00 0. -1.
          2   -1    0    0  501    0  0.00000000000E+00 -0.00000000000E+00 -0.62632652660E+02  0.62632652660E+02  0.00000000000E+00 0.  1.
         23    2    1    2    0    0 -0.23251962125E+02  0.74062576513E+02  0.17360971668E+03  0.22762691896E+03  0.12509101298E+03 0.  0.
          5    1    3    3  502    0  0.20641787680E+02  0.89346706991E+02  0.75022723783E+02  0.11855293726E+03  0.41800000000E+01 0. -1.
         -5    1    3    3    0  502 -0.43893749805E+02 -0.15284130478E+02  0.98586992896E+02  0.10907398170E+03  0.41800000000E+01 0. -1.
        -11    1    1    2    0    0  0.14401454142E+01 -0.13767591891E+02 -0.23382471859E+02  0.27172791456E+02  0.00000000000E+00 0.  1.
         11    1    1    2    0    0  0.21811816710E+02 -0.60294984622E+02  0.88993268977E+02  0.10968610870E+03  0.00000000000E+00 0. -1.
</event>
<event>
 7    1  0.7017065E-006  0.1957394E+03  0.7561462E-02  0.1153384E+00
          1   -1    0    0  501    0  0.00000000000E+00  0.00000000000E+00  0.27428959967E+03  0.27428959967E+03  0.00000000000E+00 0. -1.
         -1   -1    0    0    0  501 -0.00000000000E+00 -0.00000000000E+00 -0.14700547545E+03  0.14700547545E+03  0.00000000000E+00 0.  1.
         23    2    1    2    0    0  0.92570065739E+01 -0.16778695390E+03  0.69474360414E+02  0.22071073708E+03  0.12509351955E+03 0.  0.
          5    1    3    3  502    0  0.56639528222E+02 -0.64381332064E+02  0.63406219986E+02  0.10672775276E+03  0.41800000000E+01 0.  1.
         -5    1    3    3    0  502 -0.47382521648E+02 -0.10340562184E+03  0.60681404275E+01  0.11398298432E+03  0.41800000000E+01 0.  1.
        -11    1    1    2    0    0  0.41749663249E+02  0.69622962582E+02  0.19254864081E+02  0.83433453068E+02  0.00000000000E+00 0.  1.
         11    1    1    2    0    0 -0.51006669823E+02  0.98163991322E+02  0.38554899717E+02  0.11715088498E+03  0.00000000000E+00 0. -1.
</event>
<event>
 7    1  0.7017065E-006  0.1085018E+03  0.7561462E-02  0.1263370E+00
         -2   -1    0    0    0  501 -0.00000000000E+00  0.00000000000E+00  0.11758440779E+03  0.11758440779E+03  0.00000000000E+00 0. -1.
          2   -1    0    0  501    0  0.00000000000E+00 -0.00000000000E+00 -0.11949792378E+03  0.11949792378E+03  0.00000000000E+00 0.  1.
         23    2    1    2    0    0  0.32058821240E+02  0.27517410051E+02  0.20308076527E+02  0.13358823822E+03  0.12509365909E+03 0.  0.
          5    1    3    3  502    0  0.73910483665E+02 -0.71583927708E+00  0.33473978914E+02  0.81248087275E+02  0.41800000000E+01 0.  1.
         -5    1    3    3    0  502 -0.41851662425E+02  0.28233249328E+02 -0.13165902387E+02  0.52340150946E+02  0.41800000000E+01 0.  1.
        -11    1    1    2    0    0 -0.96018239682E+01 -0.55562449219E+02 -0.33806921971E+02  0.65744115781E+02  0.00000000000E+00 0.  1.
         11    1    1    2    0    0 -0.22456997271E+02  0.28045039168E+02  0.11585329450E+02  0.37749977574E+02  0.00000000000E+00 0. -1.
</event>
<event>
 7    1  0.7017065E-006  0.1326953E+03  0.7561462E-02  0.1223510E+00
         -3   -1    0    0    0  501 -0.00000000000E+00  0.00000000000E+00  0.20001948867E+03  0.20001948867E+03  0.00000000000E+00 0.  1.
          3   -1    0    0  501    0  0.00000000000E+00 -0.00000000000E+00 -0.10332447921E+03  0.10332447921E+03  0.00000000000E+00 0. -1.
         23    2    1    2    0    0 -0.72356299269E+02 -0.46590750606E+02  0.93230603023E+02  0.17817370103E+03  0.12509112804E+03 0.  0.
          5    1    3    3  502    0 -0.40876176033E+02 -0.83730034369E+02  0.29413088687E+02  0.97796639046E+02  0.41800000000E+01 0. -1.
         -5    1    3    3    0  502 -0.31480123235E+02  0.37139283763E+02  0.63817514336E+02  0.80377061985E+02  0.41800000000E+01 0. -1.
        -11    1    1    2    0    0  0.93230017038E+02  0.37495486050E+02  0.11230314025E+02  0.10111314209E+03  0.00000000000E+00 0. -1.
         11    1    1    2    0    0 -0.20873717769E+02  0.90952645567E+01 -0.77659075884E+01  0.24057124756E+02  0.00000000000E+00 0.  1.
</event>
<event>
 7    1  0.7017065E-006  0.1170569E+03  0.7561462E-02  0.1248033E+00
          2   -1    0    0  501    0  0.00000000000E+00  0.00000000000E+00  0.35205387047E+03  0.35205387047E+03  0.00000000000E+00 0. -1.
         -2   -1    0    0    0  501 -0.00000000000E+00 -0.00000000000E+00 -0.48166372531E+02  0.48166372531E+02  0.00000000000E+00 0.  1.
         23    2    1    2    0    0  0.57245097787E+02  0.43932701298E+02  0.16061596276E+03  0.21599031574E+03  0.12508895049E+03 0.  0.
          5    1    3    3  502    0 -0.72608437251E+01  0.55999401924E+02  0.18785677276E+02  0.59657580727E+02  0.41800000000E+01 0.  1.
         -5    1    3    3    0  502  0.64505941513E+02 -0.12066700626E+02  0.14183028549E+03  0.15633273501E+03  0.41800000000E+01 0.  1.
        -11    1    1    2    0    0 -0.68503249357E+02 -0.22320247475E+01  0.11042139634E+03  0.12996369446E+03  0.00000000000E+00 0.  1.
         11    1    1    2    0    0  0.11258151570E+02 -0.41700676550E+02  0.32850138834E+02  0.54266232806E+02  0.00000000000E+00 0. -1.
</event>
<event>
 7    1  0.7017065E-006  0.1194672E+03  0.7561462E-02  0.1243979E+00
          2   -1    0    0  501    0  0.00000000000E+00  0.00000000000E+00  0.31810158176E+03  0.31810158176E+03  0.00000000000E+00 0. -1.
         -2   -1    0    0    0  501 -0.00000000000E+00 -0.00000000000E+00 -0.89429717356E+02  0.89429717356E+02  0.00000000000E+00 0.  1.
         23    2    1    2    0    0  0.26724351567E+02  0.91996246062E+02  0.17069322760E+02  0.15847632573E+03  0.12508350724E+03 0.  0.
          5    1    3    3  502    0  0.16853410064E+02 -0.88131150874E+01 -0.38298279845E+02  0.42964393018E+02  0.41800000000E+01 0. -1.
         -5    1    3    3    0  502  0.98709415032E+01  0.10080936115E+03  0.55367602605E+02  0.11551193272E+03  0.41800000000E+01 0. -1.
        -11    1    1    2    0    0 -0.15572113955E+02 -0.10195217144E+03  0.21007663496E+03  0.23402762348E+03  0.00000000000E+00 0. -1.
         11    1    1    2    0    0 -0.11152237613E+02  0.99559253782E+01  0.15259066827E+01  0.15027349903E+02  0.00000000000E+00 0.  1.
</event>
<event>
 7    1  0.7017065E-006  0.1091252E+03  0.7561462E-02  0.1262199E+00
          2   -1    0    0  501    0  0.00000000000E+00  0.00000000000E+00  0.59056968112E+03  0.59056968112E+03  0.00000000000E+00 0. -1.
         -2   -1    0    0    0  501 -0.00000000000E+00 -0.00000000000E+00 -0.33599035907E+02  0.33599035907E+02  0.00000000000E+00 0.  1.
         23    2    1    2    0    0  0.17901689577E+02  0.88508636429E+02  0.25235564784E+03  0.29577765544E+03  0.12508716661E+03 0.  0.
          5    1    3    3  502    0  0.29436510608E+02  0.59540734312E+02  0.33194890371E+02  0.74370561017E+02  0.41800000000E+01 0.  1.
         -5    1    3    3    0  502 -0.11534821032E+02  0.28967902117E+02  0.21916075746E+03  0.22140709442E+03  0.41800000000E+01 0.  1.
        -11    1    1    2    0    0 -0.49563918686E+02 -0.57659171263E+02  0.15956741951E+03  0.17675667862E+03  0.00000000000E+00 0. -1.
         11    1    1    2    0    0  0.31662229109E+02 -0.30849465167E+02  0.14504757787E+03  0.15163438297E+03  0.00000000000E+00 0.  1.
</event>
<event>
 7    1  0.7017065E-006  0.9773882E+02  0.7561462E-02  0.1285124E+00
         -1   -1    0    0    0  501 -0.00000000000E+00  0.00000000000E+00  0.52625176758E+02  0.52625176758E+02  0.00000000000E+00 0.  1.
          1   -1    0    0  501    0  0.00000000000E+00 -0.00000000000E+00 -0.22776823399E+03  0.22776823399E+03  0.00000000000E+00 0. -1.
         23    2    1    2    0    0 -0.33984352076E+01 -0.41291707828E+02 -0.96010936836E+02  0.15283667833E+03  0.11146477359E+03 0.  0.
          5    1    3    3  502    0 -0.49873463505E+02 -0.84540949978E+01 -0.77891720918E+02  0.92970031041E+02  0.41800000000E+01 0. -1.
         -5    1    3    3    0  502  0.46475028297E+02 -0.32837612830E+02 -0.18119215918E+02  0.59866647284E+02  0.41800000000E+01 0.  1.
        -11    1    1    2    0    0  0.28312854293E+02  0.53034161215E+02 -0.79914315345E+02  0.10000268882E+03  0.00000000000E+00 0.  1.
         11    1    1    2    0    0 -0.24914419085E+02 -0.11742453387E+02  0.78219495031E+00  0.27554043602E+02  0.00000000000E+00 0. -1.
</event>
<event>
 7    1  0.7017065E-006  0.1627550E+03  0.7561462E-02  0.1185621E+00
          2   -1    0    0  501    0  0.00000000000E+00  0.00000000000E+00  0.12028414525E+03  0.12028414525E+03  0.00000000000E+00 0.  1.
         -2   -1    0    0    0  501 -0.00000000000E+00 -0.00000000000E+00 -0.30122586573E+03  0.30122586573E+03  0.00000000000E+00 0. -1.
         23    2    1    2    0    0 -0.91302529965E+02  0.86243757060E+02 -0.19775628697E+03  0.26557364018E+03  0.12509065397E+03 0.  0.
          5    1    3    3  502    0 -0.11871907669E+03  0.89226718167E+02 -0.15666792559E+03  0.21591187488E+03  0.41800000000E+01 0.  1.
         -5    1    3    3    0  502  0.27416546727E+02 -0.29829611062E+01 -0.41088361384E+02  0.49661765299E+02  0.41800000000E+01 0.  1.
        -11    1    1    2    0    0 -0.10974930150E+02 -0.30823578598E+02  0.22108829562E+02  0.39488510152E+02  0.00000000000E+00 0.  1.
         11    1    1    2    0    0  0.10227746012E+03 -0.55420178462E+02 -0.52942630796E+01  0.11644786065E+03  0.00000000000E+00 0. -1.
</event>
<event>
 7    1  0.7017065E-006  0.7746005E+02  0.7561462E-02  0.1336418E+00
         -1   -1    0    0    0  501 -0.00000000000E+00  0.00000000000E+00  0.21908751176E+03  0.21908751176E+03  0.00000000000E+00 0.  1.
          1   -1    0    0  501    0  0.00000000000E+00 -0.00000000000E+00 -0.73297830689E+02  0.73297830689E+02  0.00000000000E+00 0. -1.
         23    2    1    2    0    0 -0.51600482105E+02 -0.15767049795E+02  0.11536213161E+03  0.17850950679E+03  0.12508402372E+03 0.  0.
          5    1    3    3  502    0 -0.34091309013E+02 -0.39088155051E+02 -0.71334806578E+01  0.52521044942E+02  0.41800000000E+01 0.  1.
         -5    1    3    3    0  502 -0.17509173091E+02  0.23321105256E+02  0.12249561227E+03  0.12598846184E+03  0.41800000000E+01 0.  1.
        -11    1    1    2    0    0 -0.49319912131E+01 -0.10112263336E+02  0.47971824982E+02  0.49273506057E+02  0.00000000000E+00 0.  1.
         11    1    1    2    0    0  0.56532473318E+02  0.25879313131E+02 -0.17544275518E+02  0.64602329610E+02  0.00000000000E+00 0. -1.
</event>
<event>
 7    1  0.7017065E-006  0.1514776E+03  0.7561462E-02  0.1198669E+00
          2   -1    0    0  501    0  0.00000000000E+00  0.00000000000E+00  0.17013725930E+03  0.17013725930E+03  0.00000000000E+00 0. -1.
         -2   -1    0    0    0  501 -0.00000000000E+00 -0.00000000000E+00 -0.18092022480E+03  0.18092022480E+03  0.00000000000E+00 0.  1.
         23    2    1    2    0    0 -0.68813263886E+02  0.96612179319E+02 -0.75402584485E+02  0.18815593458E+03  0.12509167635E+03 0.  0.
          5    1    3    3  502    0 -0.12567440623E+01  0.92788990894E+02 -0.76524555848E+02  0.12035304851E+03  0.41800000000E+01 0.  1.
         -5    1    3    3    0  502 -0.67556519823E+02  0.38231884253E+01  0.11219713635E+01  0.67802886075E+02  0.41800000000E+01 0.  1.
        -11    1    1    2    0    0  0.53338736605E+02 -0.99770986491E+01  0.93843780007E+00  0.54271944737E+02  0.00000000000E+00 0.  1.
         11    1    1    2    0    0  0.15474527280E+02 -0.86635080670E+02  0.63681181181E+02  0.10862960478E+03  0.00000000000E+00 0. -1.
</event>
<event>
 7    1  0.7017065E-006  0.2502978E+03  0.7561462E-02  0.1113117E+00
         -1   -1    0    0    0  501 -0.00000000000E+00  0.00000000000E+00  0.11022172696E+03  0.11022172696E+03  0.00000000000E+00 0.  1.
          1   -1    0    0  501    0  0.00000000000E+00 -0.00000000000E+00 -0.67988740221E+03  0.67988740221E+03  0.00000000000E+00 0. -1.
         23    2    1    2    0    0  0.18756927514E+03  0.13443125510E+03 -0.15143975482E+03  0.30304388479E+03  0.12509037311E+03 0.  0.
          5    1    3    3  502    0  0.47777295206E+02 -0.21787361987E+02 -0.26494660310E+02  0.58964383356E+02  0.41800000000E+01 0.  1.
         -5    1    3    3    0  502  0.13979197993E+03  0.15621861709E+03 -0.12494509451E+03  0.24407950144E+03  0.41800000000E+01 0.  1.
        -11    1    1    2    0    0 -0.16389935983E+03 -0.87766016152E+02 -0.25446571721E+03  0.31514865536E+03  0.00000000000E+00 0.  1.
         11    1    1    2    0    0 -0.23669915307E+02 -0.46665238953E+02 -0.16376020322E+03  0.17191658901E+03  0.00000000000E+00 0. -1.
</event>
<event>
 7    1  0.7017065E-006  0.1402428E+03  0.7561462E-02  0.1213003E+00
          2   -1    0    0  501    0  0.00000000000E+00  0.00000000000E+00  0.65832923812E+03  0.65832923812E+03  0.00000000000E+00 0. -1.
         -2   -1    0    0    0  501 -0.00000000000E+00 -0.00000000000E+00 -0.42253026583E+02  0.42253026583E+02  0.00000000000E+00 0.  1.
         23    2    1    2    0    0 -0.82090084029E+02 -0.95859364169E+02  0.32935585283E+03  0.37423351277E+03  0.12509054597E+03 0.  0.
          5    1    3    3  502    0 -0.17434506585E+02 -0.18905997990E+02  0.23458198702E+03  0.23602453223E+03  0.41800000000E+01 0. -1.
         -5    1    3    3    0  502 -0.64655577444E+02 -0.76953366178E+02  0.94773865804E+02  0.13820898053E+03  0.41800000000E+01 0. -1.
        -11    1    1    2    0    0  0.98627466071E+02  0.95509173336E+02  0.26958770002E+03  0.30253414230E+03  0.00000000000E+00 0. -1.
         11    1    1    2    0    0 -0.16537382042E+02  0.35019083266E+00  0.17132658689E+02  0.23814609637E+02  0.00000000000E+00 0.  1.
</event>
<event>
 7    1  0.7017065E-006  0.1546580E+03  0.7561462E-02  0.1194863E+00
          2   -1    0    0  501    0  0.00000000000E+00  0.00000000000E+00  0.12223863979E+03  0.12223863979E+03  0.00000000000E+00 0.  1.
         -2   -1    0    0    0  501 -0.00000000000E+00 -0.00000000000E+00 -0.28041555061E+03  0.28041555061E+03  0.00000000000E+00 0. -1.
         23    2    1    2    0    0  0.12165380595E+03  0.38635583419E+02 -0.16861727214E+03  0.24570648457E+03  0.12509010867E+03 0.  0.
          5    1    3    3  502    0  0.23043433942E+02  0.69524268950E+02 -0.88056131392E+02  0.11461229645E+03  0.41800000000E+01 0. -1.
         -5    1    3    3    0  502  0.98610372008E+02 -0.30888685531E+02 -0.80561140752E+02  0.13109418813E+03  0.41800000000E+01 0. -1.
        -11    1    1    2    0    0 -0.78135728300E+02 -0.42319374647E+02  0.46517984831E+02  0.10029977278E+03  0.00000000000E+00 0.  1.
         11    1    1    2    0    0 -0.43518077651E+02  0.36837912277E+01 -0.36077623505E+02  0.56647933043E+02  0.00000000000E+00 0. -1.
</event>
<event>
 7    1  0.7017065E-006  0.1228613E+03  0.7561462E-02  0.1238450E+00
         -2   -1    0    0    0  501 -0.00000000000E+00  0.00000000000E+00  0.46448249615E+02  0.46448249615E+02  0.00000000000E+00 0.  1.
          2   -1    0    0  501    0  0.00000000000E+00 -0.00000000000E+00 -0.35015018711E+03  0.35015018711E+03  0.00000000000E+00 0. -1.
         23    2    1    2    0    0  0.23915490778E+01 -0.67158665576E+02 -0.16187450680E+03  0.21532957667E+03  0.12508982680E+03 0.  0.
          5    1    3    3  502    0  0.43205551249E+02  0.18329960361E+02 -0.50921185193E+02  0.69376844891E+02  0.41800000000E+01 0.  1.
         -5    1    3    3    0  502 -0.40814002172E+02 -0.85488625937E+02 -0.11095332160E+03  0.14595273177E+03  0.41800000000E+01 0.  1.
        -11    1    1    2    0    0 -0.19361958521E+02 -0.12028917991E+02 -0.67475115086E+01  0.23772025942E+02  0.00000000000E+00 0.  1.
         11    1    1    2    0    0  0.16970409444E+02  0.79187583567E+02 -0.13507991919E+03  0.15749683411E+03  0.00000000000E+00 0. -1.
</event>
<event>
 7    1  0.7017065E-006  0.1013821E+03  0.7561462E-02  0.1277416E+00
         -1   -1    0    0    0  501 -0.00000000000E+00  0.00000000000E+00  0.56094783605E+02  0.56094783605E+02  0.00000000000E+00 0.  1.
          1   -1    0    0  501    0  0.00000000000E+00 -0.00000000000E+00 -0.27702764273E+03  0.27702764273E+03  0.00000000000E+00 0. -1.
         23    2    1    2    0    0 -0.10250330792E+02  0.13344240744E+02 -0.45588256533E+02  0.13419102011E+03  0.12508318313E+03 0.  0.
          5    1    3    3  502    0  0.32338291995E+02 -0.34641615515E+02 -0.50906434458E+02  0.69675993885E+02  0.41800000000E+01 0. -1.
         -5    1    3    3    0  502 -0.42588622787E+02  0.47985856259E+02  0.53181779246E+01  0.64515026221E+02  0.41800000000E+01 0. -1.
        -11    1    1    2    0    0  0.13718627730E+02  0.37500956439E+02 -0.52700234672E+02  0.66119870048E+02  0.00000000000E+00 0. -1.
         11    1    1    2    0    0 -0.34682969382E+01 -0.50845197183E+02 -0.12264436792E+03  0.13281153618E+03  0.00000000000E+00 0.  1.
</event>
<event>
 7    1  0.7017065E-006  0.9894642E+02  0.7561462E-02  0.1282527E+00
          2   -1    0    0  501    0  0.00000000000E+00  0.00000000000E+00  0.39588887123E+03  0.39588887123E+03  0.00000000000E+00 0. -1.
         -2   -1    0    0    0  501 -0.00000000000E+00 -0.00000000000E+00 -0.28931931155E+02  0.28931931155E+02  0.00000000000E+00 0.  1.
         23    2    1    2    0    0  0.10873565370E+02  0.14536839722E+02  0.19452938596E+03  0.22851069378E+03  0.11851540423E+03 0.  0.
          5    1    3    3  502    0 -0.72816402839E+01 -0.49653269614E+02  0.10808016466E+03  0.11923616843E+03  0.41800000000E+01 0. -1.
         -5    1    3    3    0  502  0.18155205654E+02  0.64190109336E+02  0.86449221294E+02  0.10927452535E+03  0.41800000000E+01 0.  1.
        -11    1    1    2    0    0 -0.35244056476E+02 -0.34404819256E+02  0.14947642534E+03  0.15738181863E+03  0.00000000000E+00 0.  1.
         11    1    1    2    0    0  0.24370491106E+02  0.19867979534E+02  0.22951128784E+02  0.38928289969E+02  0.00000000000E+00 0. -1.
</event>
<event>
 7    1  0.7017065E-006  0.1082363E+03  0.7561462E-02  0.1263871E+00
          1   -1    0    0  501    0  0.00000000000E+00  0.00000000000E+00  0.31497051624E+03  0.31497051624E+03  0.00000000000E+00 0. -1.
         -1   -1    0    0    0  501 -0.00000000000E+00 -0.00000000000E+00 -0.52673611732E+02  0.52673611732E+02  0.00000000000E+00 0.  1.
         23    2    1    2    0    0  0.14553069568E+02  0.44839632146E+02  0.72486642274E+02  0.15207910890E+03  0.12510538602E+03 0.  0.
          5    1    3    3  502    0  0.65428346480E+02  0.22396515676E+02  0.66438256919E+02  0.95989514115E+02  0.41800000000E+01 0.  1.
         -5    1    3    3    0  502 -0.50875276912E+02  0.22443116470E+02  0.60483853550E+01  0.56089594785E+02  0.41800000000E+01 0.  1.
        -11    1    1    2    0    0 -0.26195500961E+02  0.15189427935E+02  0.11512556854E+03  0.11904125135E+03  0.00000000000E+00 0.  1.
         11    1    1    2    0    0  0.11642431392E+02 -0.60029060081E+02  0.74684693700E+02  0.96523767726E+02  0.00000000000E+00 0. -1.
</event>
<event>
 7    1  0.7017065E-006  0.1226731E+03  0.7561462E-02  0.1238751E+00
          2   -1    0    0  501    0  0.00000000000E+00  0.00000000000E+00  0.63873339587E+02  0.63873339587E+02  0.00000000000E+00 0. -1.
         -2   -1    0    0    0  501 -0.00000000000E+00 -0.00000000000E+00 -0.28949541006E+03  0.28949541006E+03  0.00000000000E+00 0.  1.
         23    2    1    2    0    0  0.41052782555E+02  0.70496931367E+02 -0.12660931020E+03  0.19578559251E+03  0.12508769930E+03 0.  0.
          5    1    3    3  502    0  0.62240432601E+01 -0.28425168807E+02  0.23755301521E+01  0.29493125974E+02  0.41800000000E+01 0.  1.
         -5    1    3    3    0  502  0.34828739295E+02  0.98922100174E+02 -0.12898484036E+03  0.16629246653E+03  0.41800000000E+01 0.  1.
        -11    1    1    2    0    0 -0.63389731734E+02 -0.52386103341E+02 -0.38952890504E+02  0.90993898648E+02  0.00000000000E+00 0. -1.
         11    1    1    2    0    0  0.22336949179E+02 -0.18110828026E+02 -0.60059869768E+02  0.66589258495E+02  0.00000000000E+00 0.  1.
</event>
<event>
 7    1  0.7017065E-006  0.1952665E+03  0.7561462E-02  0.1153795E+00
         -1   -1    0    0    0  501 -0.00000000000E+00  0.00000000000E+00  0.53538384331E+02  0.53538384331E+02  0.00000000000E+00 0.  1.
          1   -1    0    0  501    0  0.00000000000E+00 -0.00000000000E+00 -0.77943801919E+03  0.77943801919E+03  0.00000000000E+00 0. -1.
         23    2    1    2    0    0 -0.13625478608E+03  0.79412689775E+02 -0.25181064919E+03  0.32237805794E+03  0.12508903696E+03 0.  0.
          5    1    3    3  502    0  0.21517487135E+02 -0.46693257301E+01 -0.25744199329E+02  0.34132697732E+02  0.41800000000E+01 0.  1.
         -5    1    3    3    0  502 -0.15777227321E+03  0.84082015505E+02 -0.22606644986E+03  0.28824536021E+03  0.41800000000E+01 0.  1.
        -11    1    1    2    0    0 -0.80680772923E+01 -0.38425965329E+02 -0.11067121402E+03  0.11742983563E+03  0.00000000000E+00 0.  1.
         11    1    1    2    0    0  0.14432286337E+03 -0.40986724446E+02 -0.36341777164E+03  0.39316850995E+03  0.00000000000E+00 0. -1.
</event>
<event>
 7    1  0.7017065E-006  0.6149865E+02  0.7561462E-02  0.1391648E+00
          2   -1    0    0  501    0  0.00000000000E+00  0.00000000000E+00  0.16345920084E+03  0.16345920084E+03  0.00000000000E+00 0.  1.
         -2   -1    0    0    0  501 -0.00000000000E+00 -0.00000000000E+00 -0.10938213760E+03  0.10938213760E+03  0.00000000000E+00 0. -1.
         23    2    1    2    0    0 -0.42306706808E+02  0.10433768633E+02 -0.36829560058E+02  0.13748828904E+03  0.12509153513E+03 0.  0.
          5    1    3    3  502    0 -0.30312253030E+02  0.22929357295E+02  0.41925161253E+02  0.56743102275E+02  0.41800000000E+01 0. -1.
         -5    1    3    3    0  502 -0.11994453778E+02 -0.12495588662E+02 -0.78754721310E+02  0.80745186767E+02  0.41800000000E+01 0. -1.
        -11    1    1    2    0    0  0.49999846808E+02 -0.20698487844E+02  0.10386657135E+03  0.11711821687E+03  0.00000000000E+00 0.  1.
         11    1    1    2    0    0 -0.76931400001E+01  0.10264719211E+02 -0.12959948050E+02  0.18234832519E+02  0.00000000000E+00 0. -1.
</event>
<event>
 7    1  0.7017065E-006  0.1111030E+03  0.7561462E-02  0.1258541E+00
         -2   -1    0    0    0  501 -0.00000000000E+00  0.00000000000E+00  0.19800240183E+03  0.19800240183E+03  0.00000000000E+00 0. -1.
          2   -1    0    0  501    0  0.00000000000E+00 -0.00000000000E+00 -0.14323988817E+03  0.14323988817E+03  0.00000000000E+00 0.  1.
         23    2    1    2    0    0  0.68701406912E+02 -0.61064560328E+02  0.12044983415E+03  0.19648040455E+03  0.12509045921E+03 0.  0.
          5    1    3    3  502    0  0.13624663051E+02 -0.68176785716E+01  0.11796889290E+03  0.11902203274E+03  0.41800000000E+01 0.  1.
         -5    1    3    3    0  502  0.55076743861E+02 -0.54246881757E+02  0.24809412497E+01  0.77458371814E+02  0.41800000000E+01 0.  1.
        -11    1    1    2    0    0 -0.30664474145E+02  0.80594790479E+02 -0.42999760710E+02  0.96357717117E+02  0.00000000000E+00 0. -1.
         11    1    1    2    0    0 -0.38036932767E+02 -0.19530230151E+02 -0.22687559781E+02  0.48404168342E+02  0.00000000000E+00 0.  1.
</event>
<event>
 7    1  0.7017065E-006  0.1201275E+03  0.7561462E-02  0.1242887E+00
         -2   -1    0    0    0  501 -0.00000000000E+00  0.00000000000E+00  0.23733699282E+03  0.23733699282E+03  0.00000000000E+00 0.  1.
          2   -1    0    0  501    0  0.00000000000E+00 -0.00000000000E+00 -0.69390584595E+02  0.69390584595E+02  0.00000000000E+00 0. -1.
         23    2    1    2    0    0  0.38596370100E+02 -0.55660864058E+02  0.10304397049E+03  0.17565251904E+03  0.12509171043E+03 0.  0.
          5    1    3    3  502    0  0.63305528961E+02  0.34216122705E+01  0.12633254805E+02  0.64779386803E+02  0.41800000000E+01 0.  1.
         -5    1    3    3    0  502 -0.24709158861E+02 -0.59082476328E+02  0.90410715687E+02  0.11087313224E+03  0.41800000000E+01 0.  1.
        -11    1    1    2    0    0  0.11631028331E+02 -0.19166936345E+02  0.53346596036E+01  0.23045842618E+02  0.00000000000E+00 0. -1.
         11    1    1    2    0    0 -0.50227398431E+02  0.74827800402E+02  0.59567778130E+02  0.10802921576E+03  0.00000000000E+00 0.  1.
</event>
<event>
 7    1  0.7017065E-006  0.1108048E+03  0.7561462E-02  0.1259087E+00
         -2   -1    0    0    0  501 -0.00000000000E+00  0.00000000000E+00  0.39306850384E+02  0.39306850384E+02  0.00000000000E+00 0.  1.
          2   -1    0    0  501    0  0.00000000000E+00 -0.00000000000E+00 -0.48749508642E+03  0.48749508642E+03  0.00000000000E+00 0. -1.
         23    2    1    2    0    0 -0.18927395698E+02  0.16549062717E+02 -0.91902927106E+02  0.15724352316E+03  0.12508900743E+03 0.  0.
          5    1    3    3  502    0 -0.70724641062E+02 -0.46942517559E+01 -0.57817844077E+02  0.91566294817E+02  0.41800000000E+01 0.  1.
         -5    1    3    3    0  502  0.51797245364E+02  0.21243314473E+02 -0.34085083029E+02  0.65677228338E+02  0.41800000000E+01 0.  1.
        -11    1    1    2    0    0 -0.19100423761E+02  0.29252111169E+02 -0.86609037891E+02  0.93389708427E+02  0.00000000000E+00 0. -1.
         11    1    1    2    0    0  0.38027819459E+02 -0.45801173886E+02 -0.26967627103E+03  0.27616870522E+03  0.00000000000E+00 0.  1.
</event>
<event>
 6    1  0.7017065E-006  0.1721103E+03  0.7561462E-02  0.1175665E+00
         -1   -1    0    0    0  501 -0.00000000000E+00  0.00000000000E+00  0.21077062321E+03  0.21077062321E+03  0.00000000000E+00 0.  1.
          1   -1    0    0  501    0  0.00000000000E+00 -0.00000000000E+00 -0.57082104981E+03  0.57082104981E+03  0.00000000000E+00 0. -1.
          5    1    1    2  502    0  0.12403592890E+02 -0.35040606459E+02 -0.71089292274E+02  0.80329652642E+02  0.41800000000E+01 0. -1.
         -5    1    1    2    0  502  0.12862362322E+03  0.56804089290E+02  0.16467664855E+03  0.21657934340E+03  0.41800000000E+01 0.  1.
        -11    1    1    2    0    0  0.43853328064E+01  0.15437977168E+02 -0.19071628979E+02  0.24925675814E+02  0.00000000000E+00 0.  1.
         11    1    1    2    0    0 -0.14541254891E+03 -0.37201459998E+02 -0.43456615390E+03  0.45975700116E+03  0.00000000000E+00 0. -1.
</event>
<event>
 7    1  0.7017065E-006  0.1090920E+03  0.7561462E-02  0.1262261E+00
          2   -1    0    0  501    0  0.00000000000E+00  0.00000000000E+00  0.15317252857E+03  0.15317252857E+03  0.00000000000E+00 0.  1.
         -2   -1    0    0    0  501 -0.00000000000E+00 -0.00000000000E+00 -0.16994655517E+03  0.16994655517E+03  0.00000000000E+00 0. -1.
         23    2    1    2    0    0 -0.78052997484E+02  0.59438402736E+02 -0.77032958568E+02  0.17665260296E+03  0.12508745457E+03 0.  0.
          5    1    3    3  502    0 -0.78878044701E+02  0.71219482554E+02 -0.10285332484E+03  0.14795350439E+03  0.41800000000E+01 0. -1.
         -5    1    3    3    0  502  0.82504721644E+00 -0.11781079819E+02  0.25820366267E+02  0.28699098571E+02  0.41800000000E+01 0. -1.
        -11    1    1    2    0    0  0.17061460782E+02 -0.21599769914E+02 -0.23477703889E+02  0.36177977891E+02  0.00000000000E+00 0. -1.
         11    1    1    2    0    0  0.60991536703E+02 -0.37838632822E+02  0.83736635864E+02  0.11028850289E+03  0.00000000000E+00 0.  1.
</event>
<event>
 6    1  0.7017065E-006  0.1298259E+03  0.7561462E-02  0.1227714E+00
         -2   -1    0    0    0  501 -0.00000000000E+00  0.00000000000E+00  0.12469959652E+03  0.12469959652E+03  0.00000000000E+00 0.  1.
          2   -1    0    0  501    0  0.00000000000E+00 -0.00000000000E+00 -0.28101986295E+03  0.28101986295E+03  0.00000000000E+00 0. -1.
          5    1    1    2  502    0  0.32707517755E+02 -0.90430821327E+02 -0.12922681314E+03  0.16113521278E+03  0.41800000000E+01 0. -1.
         -5    1    1    2    0  502 -0.13371590015E+01 -0.23179277299E+02  0.62718611643E+02  0.67008682547E+02  0.41800000000E+01 0.  1.
        -11    1    1    2    0    0 -0.29663294595E+02  0.12490687684E+03 -0.99635456256E+02  0.16250804002E+03  0.00000000000E+00 0. -1.
         11    1    1    2    0    0 -0.17070641581E+01 -0.11296778218E+02  0.98233913212E+01  0.15067524123E+02  0.00000000000E+00 0.  1.
</event>
<event>
 7    1  0.7017065E-006  0.6522315E+02  0.7561462E-02  0.1377134E+00
          1   -1    0    0  501    0  0.00000000000E+00  0.00000000000E+00  0.88538890143E+03  0.88538890143E+03  0.00000000000E+00 0. -1.
         -1   -1    0    0    0  501 -0.00000000000E+00 -0.00000000000E+00 -0.14533173901E+02  0.14533173901E+02  0.00000000000E+00 0.  1.
         23    2    1    2    0    0  0.10259961260E+02  0.27824519741E+02  0.56647576195E+03  0.58088050095E+03  0.12509155370E+03 0.  0.
          5    1    3    3  502    0  0.31642746964E+01  0.30693123640E+02  0.26652169951E+02  0.40986473821E+02  0.41800000000E+01 0. -1.
         -5    1    3    3    0  502  0.70956865632E+01 -0.28686038989E+01  0.53982359200E+03  0.53989402713E+03  0.41800000000E+01 0. -1.
        -11    1    1    2    0    0 -0.48070041820E+02 -0.11637609688E+02  0.11394959020E+03  0.12422025594E+03  0.00000000000E+00 0.  1.
         11    1    1    2    0    0  0.37810080561E+02 -0.16186910053E+02  0.19043037538E+03  0.19482131844E+03  0.00000000000E+00 0. -1.
</event>
<event>
 7    1  0.7017065E-006  0.2533596E+03  0.7561462E-02  0.1111200E+00
          2   -1    0    0  501    0  0.00000000000E+00  0.00000000000E+00  0.16129022034E+03  0.16129022034E+03  0.00000000000E+00 0. -1.
         -2   -1    0    0    0  501 -0.00000000000E+00 -0.00000000000E+00 -0.44279224242E+03  0.44279224242E+03  0.00000000000E+00 0.  1.
         23    2    1    2    0    0 -0.16557481801E+03 -0.17733128629E+03 -0.11804283931E+03  0.29739745932E+03  0.12509888664E+03 0.  0.
          5    1    3    3  502    0 -0.51909332081E+02 -0.89823694294E+02  0.10991288998E+02  0.10440859949E+03  0.41800000000E+01 0. -1.
         -5    1    3    3    0  502 -0.11366548593E+03 -0.87507591994E+02 -0.12903412831E+03  0.19298885982E+03  0.41800000000E+01 0. -1.
        -11    1    1    2    0    0  0.16820389452E+03  0.13158133284E+03 -0.13110051638E+03  0.25058639763E+03  0.00000000000E+00 0.  1.
         11    1    1    2    0    0 -0.26290765057E+01  0.45749953446E+02 -0.32358666392E+02  0.56098605814E+02  0.00000000000E+00 0. -1.
</event>
<event>
 6    1  0.7017065E-006  0.1386130E+03  0.7561462E-02  0.1215208E+00
         -2   -1    0    0    0  501 -0.00000000000E+00  0.00000000000E+00  0.18306861022E+02  0.18306861022E+02  0.00000000000E+00 0. -1.
          2   -1    0    0  501    0  0.00000000000E+00 -0.00000000000E+00 -0.12269423745E+04  0.12269423745E+04  0.00000000000E+00 0.  1.
          5    1    1    2  502    0  0.11562918269E+01  0.10357995680E+03 -0.32304653595E+03  0.33927375561E+03  0.41800000000E+01 0. -1.
         -5    1    1    2    0  502 -0.44702732910E+02 -0.69627218336E+02 -0.51239513256E+03  0.51904963938E+03  0.41800000000E+01 0.  1.
        -11    1    1    2    0    0 -0.15216048622E+02  0.92189641623E+01 -0.22256314781E+02  0.28493174333E+02  0.00000000000E+00 0.  1.
         11    1    1    2    0    0  0.58762489705E+02 -0.43171702628E+02 -0.35093753016E+03  0.35843266617E+03  0.00000000000E+00 0. -1.
</event>
<event>
 7    1  0.7017065E-006  0.9578834E+02  0.7561462E-02  0.1289410E+00
          2   -1    0    0  501    0  0.00000000000E+00  0.00000000000E+00  0.63867589900E+03  0.63867589900E+03  0.00000000000E+00 0. -1.
         -2   -1    0    0    0  501 -0.00000000000E+00 -0.00000000000E+00 -0.23878496194E+02  0.23878496194E+02  0.00000000000E+00 0.  1.
         23    2    1    2    0    0 -0.54171352857E+02 -0.22069735464E+02  0.33672745453E+03  0.36394478454E+03  0.12509523917E+03 0.  0.
          5    1    3    3  502    0 -0.54887685163E+02 -0.49023264982E+02  0.92878864608E+02  0.11857442550E+03  0.41800000000E+01 0. -1.
         -5    1    3    3    0  502  0.71633230635E+00  0.26953529518E+02  0.24384858993E+03  0.24537035904E+03  0.41800000000E+01 0. -1.
        -11    1    1    2    0    0 -0.15387280189E+02  0.13547173048E+02  0.12640276459E+02  0.24084660641E+02  0.00000000000E+00 0.  1.
         11    1    1    2    0    0  0.69558633046E+02  0.85225624156E+01  0.26542967181E+03  0.27452495001E+03  0.00000000000E+00 0. -1.
</event>
<event>
 7    1  0.7017065E-006  0.1002586E+03  0.7561462E-02  0.1279753E+00
         -2   -1    0    0    0  501 -0.00000000000E+00  0.00000000000E+00  0.16627726987E+02  0.16627726987E+02  0.00000000000E+00 0.  1.
          2   -1    0    0  501    0  0.00000000000E+00 -0.00000000000E+00 -0.92506528985E+03  0.92506528985E+03  0.00000000000E+00 0. -1.
         23    2    1    2    0    0 -0.45585517153E+02 -0.14337490296E+02 -0.37640793663E+03  0.39951775308E+03  0.12509155552E+03 0.  0.
          5    1    3    3  502    0 -0.63655632906E+02 -0.31362131842E+02 -0.36503498785E+03  0.37189197042E+03  0.41800000000E+01 0. -1.
         -5    1    3    3    0  502  0.18070115753E+02  0.17024641545E+02 -0.11372948786E+02  0.27625782653E+02  0.41800000000E+01 0. -1.
        -11    1    1    2    0    0 -0.10887286555E+01  0.47175046674E+02 -0.22690226331E+03  0.23175700087E+03  0.00000000000E+00 0.  1.
         11    1    1    2    0    0  0.46674245809E+02 -0.32837556378E+02 -0.30512736292E+03  0.31041826289E+03  0.00000000000E+00 0. -1.
</event>
<event>
 7    1  0.7017065E-006  0.1519124E+03  0.7561462E-02  0.1198143E+00
          2   -1    0    0  501    0  0.00000000000E+00  0.00000000000E+00  0.52756625410E+03  0.52756625410E+03  0.00000000000E+00 0. -1.
         -2   -1    0    0    0  501 -0.00000000000E+00 -0.00000000000E+00 -0.60773038651E+02  0.60773038651E+02  0.00000000000E+00 0.  1.
         23    2    1    2    0    0  0.10160433440E+03  0.67530455939E+02  0.12752862820E+03  0.21631949373E+03  0.12508704613E+03 0.  0.
          5    1    3    3  502    0  0.76614149050E+02 -0.60640660821E+01  0.11364669148E+03  0.13725721699E+03  0.41800000000E+01 0.  1.
         -5    1    3    3    0  502  0.24990185349E+02  0.73594522021E+02  0.13881936715E+02  0.79062276733E+02  0.41800000000E+01 0.  1.
        -11    1    1    2    0    0 -0.69800955131E+02  0.48446847989E+01  0.19994180146E+03  0.21183098989E+03  0.00000000000E+00 0. -1.
         11    1    1    2    0    0 -0.31803379269E+02 -0.72375140738E+02  0.13932278579E+03  0.16018880913E+03  0.00000000000E+00 0.  1.
</event>
<event>
 7    1  0.7017065E-006  0.1068024E+03  0.7561462E-02  0.1266609E+00
          1   -1    0    0  501    0  0.00000000000E+00  0.00000000000E+00  0.17919278573E+03  0.17919278573E+03  0.00000000000E+00 0. -1.
         -1   -1    0    0    0  501 -0.00000000000E+00 -0.00000000000E+00 -0.67026090197E+02  0.67026090197E+02  0.00000000000E+00 0.  1.
         23    2    1    2    0    0 -0.14909808095E+02 -0.55394077962E+00  0.64323435227E+02  0.14144648095E+03  0.12508794277E+03 0.  0.
          5    1    3    3  502    0 -0.64831706212E+02 -0.18907363216E+02  0.16148115251E+02  0.69562005005E+02  0.41800000000E+01 0. -1.
         -5    1    3    3    0  502  0.49921898117E+02  0.18353422436E+02  0.48175319977E+02  0.71884475943E+02  0.41800000000E+01 0. -1.
        -11    1    1    2    0    0 -0.30249787287E+02  0.26751642716E+02  0.26893380438E+02  0.48517563111E+02  0.00000000000E+00 0. -1.
         11    1    1    2    0    0  0.45159595382E+02 -0.26197701936E+02  0.20949879864E+02  0.56254831865E+02  0.00000000000E+00 0.  1.
</event>
<event>
 6    1  0.7017065E-006  0.9376834E+02  0.7561462E-02  0.1293974E+00
         -1   -1    0    0    0  501 -0.00000000000E+00  0.00000000000E+00  0.13955649736E+03  0.13955649736E+03  0.00000000000E+00 0.  1.
          1   -1    0    0  501    0  0.00000000000E+00 -0.00000000000E+00 -0.11787227159E+03  0.11787227159E+03  0.00000000000E+00 0. -1.
          5    1    1    2  502    0  0.23286985803E+02 -0.77663523939E+02  0.53436220302E+02  0.97194694807E+02  0.41800000000E+01 0. -1.
         -5    1    1    2    0  502  0.19991175771E+02  0.34558343041E+02 -0.30692108148E+02  0.50531218914E+02  0.41800000000E+01 0.  1.
        -11    1    1    2    0    0 -0.32327394489E+01  0.19408256474E+02  0.41952255960E+02  0.46337056486E+02  0.00000000000E+00 0.  1.
         11    1    1    2    0    0 -0.40045422125E+02  0.23696924424E+02 -0.43012142353E+02  0.63365798742E+02  0.00000000000E+00 0. -1.
</event>
<event>
 7    1  0.7017065E-006  0.1013507E+03  0.7561462E-02  0.1277481E+00
          2   -1    0    0  501    0  0.00000000000E+00  0.00000000000E+00  0.34598518034E+03  0.34598518034E+03  0.00000000000E+00 0. -1.
         -2   -1    0    0    0  501 -0.00000000000E+00 -0.00000000000E+00 -0.66135509736E+02  0.66135509736E+02  0.00000000000E+00 0.  1.
         23    2    1    2    0    0 -0.23923894846E+01  0.39337271568E+01  0.83341318624E+01  0.12545285656E+03  0.12509102177E+03 0.  0.
          5    1    3    3  502    0  0.45645924728E+02  0.38441893101E+02  0.23459652575E+02  0.64258519190E+02  0.41800000000E+01 0. -1.
         -5    1    3    3    0  502 -0.48038314213E+02 -0.34508165945E+02 -0.15125520713E+02  0.61194337369E+02  0.41800000000E+01 0. -1.
        -11    1    1    2    0    0 -0.27076073203E+02  0.28806428896E+02  0.18941811497E+03  0.19349973221E+03  0.00000000000E+00 0. -1.
         11    1    1    2    0    0  0.29468462687E+02 -0.32740156053E+02  0.82097423775E+02  0.93168101311E+02  0.00000000000E+00 0.  1.
</event>
<event>
 7    1  0.7017065E-006  0.1476365E+03  0.7561462E-02  0.1203408E+00
          4   -1    0    0  501    0  0.00000000000E+00  0.00000000000E+00  0.30303758709E+02  0.30303758709E+02  0.00000000000E+00 0. -1.
         -4   -1    0    0    0  501 -0.00000000000E+00 -0.00000000000E+00 -0.86962238825E+03  0.86962238825E+03  0.00000000000E+00 0.  1.
         23    2    1    2    0    0 -0.50237174247E+02 -0.10894664290E+03 -0.42340977042E+03  0.45751328760E+03  0.12509768169E+03 0.  0.
          5    1    3    3  502    0 -0.60882925057E+02 -0.12965159787E+03 -0.30797185667E+03  0.33967691163E+03  0.41800000000E+01 0. -1.
         -5    1    3    3    0  502  0.10645750810E+02  0.20704954964E+02 -0.11543791375E+03  0.11783637597E+03  0.41800000000E+01 0. -1.
        -11    1    1    2    0    0  0.46694713862E+02  0.46921004277E+02 -0.32892990828E+03  0.33552475543E+03  0.00000000000E+00 0.  1.
         11    1    1    2    0    0  0.35424603853E+01  0.62025638628E+02 -0.86978950843E+02  0.10688810393E+03  0.00000000000E+00 0. -1.
</event>
<event>
 7    1  0.7017065E-006  0.1042235E+03  0.7561462E-02  0.1271657E+00
          2   -1    0    0  501    0  0.00000000000E+00  0.00000000000E+00  0.49502715880E+03  0.49502715880E+03  0.00000000000E+00 0.  1.
         -2   -1    0    0    0  501 -0.00000000000E+00 -0.00000000000E+00 -0.31520210320E+02  0.31520210320E+02  0.00000000000E+00 0. -1.
         23    2    1    2    0    0 -0.24553712081E+02  0.53014578630E+02  0.21493610229E+03  0.25546222810E+03  0.12509992642E+03 0.  0.
          5    1    3    3  502    0 -0.51628827752E+02  0.57508776718E+02  0.59655004595E+02  0.97718919498E+02  0.41800000000E+01 0.  1.
         -5    1    3    3    0  502  0.27075115671E+02 -0.44941980885E+01  0.15528109770E+03  0.15774330860E+03  0.41800000000E+01 0.  1.
        -11    1    1    2    0    0 -0.13499624561E+02  0.18131282625E+02  0.94508254109E+02  0.97174036489E+02  0.00000000000E+00 0.  1.
         11    1    1    2    0    0  0.38053336642E+02 -0.71145861254E+02  0.15406259208E+03  0.17391110454E+03  0.00000000000E+00 0. -1.
</event>
<event>
 7    1  0.7017065E-006  0.1708879E+03  0.7561462E-02  0.1176925E+00
         -2   -1    0    0    0  501 -0.00000000000E+00  0.00000000000E+00  0.12410946557E+03  0.12410946557E+03  0.00000000000E+00 0.  1.
          2   -1    0    0  501    0  0.00000000000E+00 -0.00000000000E+00 -0.29375133767E+03  0.29375133767E+03  0.00000000000E+00 0. -1.
         23    2    1    2    0    0  0.10057736575E+03 -0.11861258743E+03 -0.67369979315E+02  0.21064316352E+03  0.12508827214E+03 0.  0.
          5    1    3    3  502    0  0.80029160287E+02 -0.60433804269E+02  0.21232923434E+02  0.10259249793E+03  0.41800000000E+01 0. -1.
         -5    1    3    3    0  502  0.20548205462E+02 -0.58178783166E+02 -0.88602902749E+02  0.10805066559E+03  0.41800000000E+01 0. -1.
        -11    1    1    2    0    0 -0.78231155447E+02  0.23244868579E+02 -0.55330730848E+02  0.98599834554E+02  0.00000000000E+00 0.  1.
         11    1    1    2    0    0 -0.22346210303E+02  0.95367718856E+02 -0.46941161933E+02  0.10861780516E+03  0.00000000000E+00 0. -1.
</event>
<event>
 7    1  0.7017065E-006  0.1226302E+03  0.7561462E-02  0.1238820E+00
          4   -1    0    0  501    0  0.00000000000E+00  0.00000000000E+00  0.40093228128E+03  0.40093228128E+03  0.00000000000E+00 0. -1.
         -4   -1    0    0    0  501 -0.00000000000E+00 -0.00000000000E+00 -0.52953520008E+02  0.52953520008E+02  0.00000000000E+00 0.  1.
         23    2    1    2    0    0  0.96212826540E+02  0.55669310526E+02  0.16223406909E+03  0.23307246649E+03  0.12508757466E+03 0.  0.
          5    1    3    3  502    0  0.54680288644E+02 -0.57246579523E+01  0.53004331184E+00  0.55140357460E+02  0.41800000000E+01 0.  1.
         -5    1    3    3    0  502  0.41532537896E+02  0.61393968478E+02  0.16170402578E+03  0.17793210903E+03  0.41800000000E+01 0.  1.
        -11    1    1    2    0    0 -0.42991700940E+02 -0.43759243769E+02  0.71434773118E+02  0.94159888357E+02  0.00000000000E+00 0.  1.
         11    1    1    2    0    0 -0.53221125599E+02 -0.11910066756E+02  0.11430991906E+03  0.12665344644E+03  0.00000000000E+00 0. -1.
</event>
<event>
 7    1  0.7017065E-006  0.1016586E+03  0.7561462E-02  0.1276846E+00
          1   -1    0    0  501    0  0.00000000000E+00  0.00000000000E+00  0.67807827158E+02  0.67807827158E+02  0.00000000000E+00 0. -1.
         -1   -1    0    0    0  501 -0.00000000000E+00 -0.00000000000E+00 -0.26435875143E+03  0.26435875143E+03  0.00000000000E+00 0.  1.
         23    2    1    2    0    0 -0.70976017705E+02 -0.18547734716E+02 -0.14006840463E+03  0.20161903562E+03  0.12509781770E+03 0.  0.
          5    1    3    3  502    0 -0.26188781979E+02  0.38103688479E+02 -0.11670865159E+03  0.12560304588E+03  0.41800000000E+01 0.  1.
         -5    1    3    3    0  502 -0.44787235725E+02 -0.56651423195E+02 -0.23359753041E+02  0.76015989739E+02  0.41800000000E+01 0.  1.
        -11    1    1    2    0    0  0.66098782336E+01  0.19074040683E+02 -0.62709640442E+02  0.65878741052E+02  0.00000000000E+00 0.  1.
         11    1    1    2    0    0  0.64366139471E+02 -0.52630596650E+00  0.62271208025E+01  0.64668801921E+02  0.00000000000E+00 0. -1.
</event>
<event>
 7    1  0.7017065E-006  0.1013129E+03  0.7561462E-02  0.1277559E+00
         -2   -1    0    0    0  501 -0.00000000000E+00  0.00000000000E+00  0.15364581253E+03  0.15364581253E+03  0.00000000000E+00 0.  1.
          2   -1    0    0  501    0  0.00000000000E+00 -0.00000000000E+00 -0.84900056176E+02  0.84900056176E+02  0.00000000000E+00 0. -1.
         23    2    1    2    0    0 -0.15713690060E+02 -0.29235374336E+02  0.45487382303E+02  0.13717926139E+03  0.12508965040E+03 0.  0.
          5    1    3    3  502    0 -0.55481612584E+02  0.18315654614E+02  0.46892995378E+02  0.75033978666E+02  0.41800000000E+01 0. -1.
         -5    1    3    3    0  502  0.39767922524E+02 -0.47551028950E+02 -0.14056130753E+01  0.62145282719E+02  0.41800000000E+01 0. -1.
        -11    1    1    2    0    0  0.34755881987E+02  0.45237412771E+02  0.41479696089E+02  0.70533396590E+02  0.00000000000E+00 0.  1.
         11    1    1    2    0    0 -0.19042191927E+02 -0.16002038435E+02 -0.18221322035E+02  0.30833210734E+02  0.00000000000E+00 0. -1.
</event>
<event>
 7    1  0.7017065E-006  0.1656993E+03  0.7561462E-02  0.1182408E+00
         -2   -1    0    0    0  501 -0.00000000000E+00  0.00000000000E+00  0.10569149399E+03  0.10569149399E+03  0.00000000000E+00 0.  1.
          2   -1    0    0  501    0  0.00000000000E+00 -0.00000000000E+00 -0.27576232586E+03  0.27576232586E+03  0.00000000000E+00 0. -1.
         23    2    1    2    0    0 -0.99724046939E+02  0.86045326010E+02 -0.88261149262E+02  0.20195513190E+03  0.12508861325E+03 0.  0.
          5    1    3    3  502    0 -0.10775347203E+03  0.25059440859E+02 -0.24751200814E+02  0.11344108891E+03  0.41800000000E+01 0. -1.
         -5    1    3    3    0  502  0.80294250904E+01  0.60985885151E+02 -0.63509948448E+02  0.88514042992E+02  0.41800000000E+01 0. -1.
        -11    1    1    2    0    0  0.58819712352E+02 -0.99831982477E+02 -0.67090114720E+02  0.13389274357E+03  0.00000000000E+00 0. -1.
         11    1    1    2    0    0  0.40904334588E+02  0.13786656467E+02 -0.14719567893E+02  0.45605944388E+02  0.00000000000E+00 0.  1.
</event>
<event>
 7    1  0.7017065E-006  0.1503425E+03  0.7561462E-02  0.1200053E+00
          2   -1    0    0  501    0  0.00000000000E+00  0.00000000000E+00  0.14938529529E+03  0.14938529529E+03  0.00000000000E+00 0. -1.
         -2   -1    0    0    0  501 -0.00000000000E+00 -0.00000000000E+00 -0.24097089160E+03  0.24097089160E+03  0.00000000000E+00 0.  1.
         23    2    1    2    0    0 -0.13013600423E+03  0.39716052655E+02 -0.12522579946E+03  0.22325054601E+03  0.12508621429E+03 0.  0.
          5    1    3    3  502    0 -0.11508781713E+03  0.29815116788E+02 -0.15056013895E+03  0.19188531648E+03  0.41800000000E+01 0.  1.
         -5    1    3    3    0  502 -0.15048187099E+02  0.99009358670E+01  0.25334339485E+02  0.31365229525E+02  0.41800000000E+01 0.  1.
        -11    1    1    2    0    0  0.83071384518E+02  0.21697942341E+02  0.23886630622E+02  0.89119171619E+02  0.00000000000E+00 0.  1.
         11    1    1    2    0    0  0.47064619715E+02 -0.61413994996E+02  0.97535725380E+01  0.77986469260E+02  0.00000000000E+00 0. -1.
</event>
<event>
 7    1  0.7017065E-006  0.9180229E+02  0.7561462E-02  0.1298545E+00
          2   -1    0    0  501    0  0.00000000000E+00  0.00000000000E+00  0.23944620629E+03  0.23944620629E+03  0.00000000000E+00 0. -1.
         -2   -1    0    0    0  501 -0.00000000000E+00 -0.00000000000E+00 -0.53911400045E+02  0.53911400045E+02  0.00000000000E+00 0.  1.
         23    2    1    2    0    0 -0.26572255246E+02  0.24680672962E+02  0.10942024390E+03  0.17010484239E+03  0.12509055624E+03 0.  0.
          5    1    3    3  502    0  0.35603157351E+02  0.36768791421E+01  0.96605347624E+02  0.10310756443E+03  0.41800000000E+01 0. -1.
         -5    1    3    3    0  502 -0.62175412597E+02  0.21003793820E+02  0.12814896281E+02  0.66997277953E+02  0.41800000000E+01 0. -1.
        -11    1    1    2    0    0  0.51957040445E+02 -0.21482626858E+02  0.79576287793E+02  0.97434197730E+02  0.00000000000E+00 0. -1.
         11    1    1    2    0    0 -0.25384785199E+02 -0.31980461039E+01 -0.34617254531E+01  0.25818566219E+02  0.00000000000E+00 0.  1.
</event>
<event>
 7    1  0.7017065E-006  0.1424052E+03  0.7561462E-02  0.1210129E+00
          1   -1    0    0  501    0  0.00000000000E+00  0.00000000000E+00  0.67014841021E+02  0.67014841021E+02  0.00000000000E+00 0. -1.
         -1   -1    0    0    0  501 -0.00000000000E+00 -0.00000000000E+00 -0.42939924793E+03  0.42939924793E+03  0.00000000000E+00 0.  1.
         23    2    1    2    0    0  0.10248624220E+03  0.78454124969E+02 -0.24433229714E+03  0.30332139365E+03  0.12508843614E+03 0.  0.
          5    1    3    3  502    0  0.31359543598E+02  0.87373544781E+01 -0.18377920704E+03  0.18668698851E+03  0.41800000000E+01 0.  1.
         -5    1    3    3    0  502  0.71126698604E+02  0.69716770491E+02 -0.60553090096E+02  0.11663440514E+03  0.41800000000E+01 0.  1.
        -11    1    1    2    0    0 -0.30341282770E+02 -0.74051060069E+02 -0.69779175860E+02  0.10617573320E+03  0.00000000000E+00 0.  1.
         11    1    1    2    0    0 -0.72144959431E+02 -0.44030648999E+01 -0.48272933905E+02  0.86916962094E+02  0.00000000000E+00 0. -1.
</event>
<event>
 7    1  0.7017065E-006  0.7823159E+02  0.7561462E-02  0.1334146E+00
          4   -1    0    0  501    0  0.00000000000E+00  0.00000000000E+00  0.58001619580E+02  0.58001619580E+02  0.00000000000E+00 0.  1.
         -4   -1    0    0    0  501 -0.00000000000E+00 -0.00000000000E+00 -0.24377396346E+03  0.24377396346E+03  0.00000000000E+00 0. -1.
         23    2    1    2    0    0 -0.77590921933E+01 -0.10856213282E+02 -0.17382410418E+03  0.21457322003E+03  0.12509511053E+03 0.  0.
          5    1    3    3  502    0 -0.18919216195E+02 -0.38890156818E+02 -0.17853789924E+03  0.18374883647E+03  0.41800000000E+01 0.  1.
         -5    1    3    3    0  502  0.11160124002E+02  0.28033943536E+02  0.47137950570E+01  0.30824383558E+02  0.41800000000E+01 0.  1.
        -11    1    1    2    0    0 -0.34443073256E+02 -0.94537455352E+01  0.74899036958E+01  0.36493797519E+02  0.00000000000E+00 0.  1.
         11    1    1    2    0    0  0.42202165450E+02  0.20309958817E+02 -0.19438143392E+02  0.50708565493E+02  0.00000000000E+00 0. -1.
</event>
<event>
 7    1  0.7017065E-006  0.1092508E+03  0.7561462E-02  0.1261964E+00
         -2   -1    0    0    0  501 -0.00000000000E+00  0.00000000000E+00  0.56744081177E+02  0.56744081177E+02  0.00000000000E+00 0. -1.
          2   -1    0    0  501    0  0.00000000000E+00 -0.00000000000E+00 -0.30042384953E+03  0.30042384953E+03  0.00000000000E+00 0.  1.
         23    2    1    2    0    0 -0.45938154721E+02  0.40322213620E+02 -0.84114884341E+02  0.16267042312E+03  0.12510059081E+03 0.  0.
          5    1    3    3  502    0 -0.30558670643E+02 -0.34014932131E+02  0.42365438448E+01  0.46111480817E+02  0.41800000000E+01 0.  1.
         -5    1    3    3    0  502 -0.15379484079E+02  0.74337145751E+02 -0.88351428186E+02  0.11655894231E+03  0.41800000000E+01 0.  1.
        -11    1    1    2    0    0 -0.65344325377E+01 -0.43501842363E+02 -0.12254594255E+03  0.13020221632E+03  0.00000000000E+00 0.  1.
         11    1    1    2    0    0  0.52472587259E+02  0.31796287428E+01 -0.37018941463E+02  0.64295291271E+02  0.00000000000E+00 0. -1.
</event>
<event>
 7    1  0.7017065E-006  0.9905895E+02  0.7561462E-02  0.1282287E+00
         -2   -1    0    0    0  501 -0.00000000000E+00  0.00000000000E+00  0.28543782855E+03  0.28543782855E+03  0.00000000000E+00 0.  1.
          2   -1    0    0  501    0  0.00000000000E+00 -0.00000000000E+00 -0.61616299550E+02  0.61616299550E+02  0.00000000000E+00 0. -1.
         23    2    1    2    0    0 -0.25784531053E+02 -0.17104678491E+02  0.21558182045E+03  0.25118147691E+03  0.12513672910E+03 0.  0.
          5    1    3    3  502    0  0.55789427122E+01  0.49010856500E+02  0.12637268324E+03  0.13572293883E+03  0.41800000000E+01 0.  1.
         -5    1    3    3    0  502 -0.31363473765E+02 -0.66115534991E+02  0.89209137210E+02  0.11545853808E+03  0.41800000000E+01 0.  1.
        -11    1    1    2    0    0  0.20856330780E+02 -0.25208532638E+02  0.33107344910E+02  0.46546245158E+02  0.00000000000E+00 0.  1.
         11    1    1    2    0    0  0.49282002730E+01  0.42313211129E+02 -0.24867636356E+02  0.49326406031E+02  0.00000000000E+00 0. -1.
</event>
<event>
 7    1  0.7017065E-006  0.1896580E+03  0.7561462E-02  0.1158770E+00
          2   -1    0    0  501    0  0.00000000000E+00  0.00000000000E+00  0.10641599744E+04  0.10641599744E+04  0.00000000000E+00 0. -1.
         -2   -1    0    0    0  501 -0.00000000000E+00 -0.00000000000E+00 -0.34923852903E+02  0.34923852903E+02  0.00000000000E+00 0.  1.
         23    2    1    2    0    0  0.15270290247E+03  0.40485314712E+02  0.58840046015E+03  0.62194840185E+03  0.12508987139E+03 0.  0.
          5    1    3    3  502    0  0.77368158506E+01 -0.34144205890E+02  0.68153591700E+02  0.76733757740E+02  0.41800000000E+01 0. -1.
         -5    1    3    3    0  502  0.14496608662E+03  0.74629520602E+02  0.52024686845E+03  0.54521464411E+03  0.41800000000E+01 0. -1.
        -11    1    1    2    0    0 -0.46715902006E+02 -0.56991245196E+02  0.14936886629E+03  0.16655760489E+03  0.00000000000E+00 0.  1.
         11    1    1    2    0    0 -0.10598700047E+03  0.16505930484E+02  0.29146679508E+03  0.31057782059E+03  0.00000000000E+00 0. -1.
</event>
<event>
 7    1  0.7017065E-006  0.9720384E+02  0.7561462E-02  0.1286288E+00
         -2   -1    0    0    0  501 -0.00000000000E+00  0.00000000000E+00  0.17971819458E+03  0.17971819458E+03  0.00000000000E+00 0.  1.
          2   -1    0    0  501    0  0.00000000000E+00 -0.00000000000E+00 -0.82863079039E+02  0.82863079039E+02  0.00000000000E+00 0. -1.
         23    2    1    2    0    0  0.49079110850E+02 -0.37856039252E+02  0.70435448909E+02  0.15636763629E+03  0.12509135216E+03 0.  0.
          5    1    3    3  502    0 -0.19100656101E+02  0.23729456233E+02 -0.11857351021E+02  0.32954382558E+02  0.41800000000E+01 0. -1.
         -5    1    3    3    0  502  0.68179766950E+02 -0.61585495485E+02  0.82292799930E+02  0.12341325373E+03  0.41800000000E+01 0. -1.
        -11    1    1    2    0    0 -0.17754273718E+02 -0.51481739035E+01 -0.25751143832E+02  0.31699200912E+02  0.00000000000E+00 0. -1.
         11    1    1    2    0    0 -0.31324837132E+02  0.43004213156E+02  0.52170810459E+02  0.74514436416E+02  0.00000000000E+00 0.  1.
</event>
<event>
 7    1  0.7017065E-006  0.1165527E+03  0.7561462E-02  0.1248895E+00
         -1   -1    0    0    0  501 -0.00000000000E+00  0.00000000000E+00  0.22981298446E+02  0.22981298446E+02  0.00000000000E+00 0.  1.
          1   -1    0    0  501    0  0.00000000000E+00 -0.00000000000E+00 -0.72312888490E+03  0.72312888490E+03  0.00000000000E+00 0. -1.
         23    2    1    2    0    0  0.46416669561E+02 -0.11381670210E+01 -0.23850094437E+03  0.27328736646E+03  0.12508989394E+03 0.  0.
          5    1    3    3  502    0 -0.37052054188E+02 -0.25031488177E+02 -0.10215988945E+03  0.11159545481E+03  0.41800000000E+01 0. -1.
         -5    1    3    3    0  502  0.83468723748E+02  0.23893321156E+02 -0.13634105491E+03  0.16169191165E+03  0.41800000000E+01 0. -1.
        -11    1    1    2    0    0 -0.35322924493E+01 -0.40999710299E+02 -0.21948171909E+03  0.22330624341E+03  0.00000000000E+00 0.  1.
         11    1    1    2    0    0 -0.42884377111E+02  0.42137877320E+02 -0.24216492300E+03  0.24951657347E+03  0.00000000000E+00 0. -1.
</event>
<event>
 7    1  0.7017065E-006  0.1103457E+03  0.7561462E-02  0.1259931E+00
          1   -1    0    0  501    0  0.00000000000E+00  0.00000000000E+00  0.45357029909E+02  0.45357029909E+02  0.00000000000E+00 0. -1.
         -1   -1    0    0    0  501 -0.00000000000E+00 -0.00000000000E+00 -0.28846110220E+03  0.28846110220E+03  0.00000000000E+00 0.  1.
         23    2    1    2    0    0  0.24270024147E+02  0.24990837287E+02 -0.15370231320E+03  0.20121180405E+03  0.12509281749E+03 0.  0.
          5    1    3    3  502    0  0.33974067612E+02  0.70909187606E+02 -0.70969733246E+02  0.10600247919E+03  0.41800000000E+01 0.  1.
         -5    1    3    3    0  502 -0.97040434659E+01 -0.45918350319E+02 -0.82732579953E+02  0.95209324865E+02  0.41800000000E+01 0.  1.
        -11    1    1    2    0    0 -0.26648300388E+02 -0.56902850088E+02 -0.74044529983E+02  0.97111578518E+02  0.00000000000E+00 0.  1.
         11    1    1    2    0    0  0.23782762410E+01  0.31912012802E+02 -0.15357229109E+02  0.35494749539E+02  0.00000000000E+00 0. -1.
</event>
<event>
 7    1  0.7017065E-006  0.7452178E+02  0.7561462E-02  0.1345358E+00
         -2   -1    0    0    0  501 -0.00000000000E+00  0.00000000000E+00  0.26207479816E+02  0.26207479816E+02  0.00000000000E+00 0.  1.
          2   -1    0    0  501    0  0.00000000000E+00 -0.00000000000E+00 -0.52582735461E+03  0.52582735461E+03  0.00000000000E+00 0. -1.
         23    2    1    2    0    0  0.16274533584E+02  0.42843704847E+02 -0.28815880535E+03  0.31746511776E+03  0.12509260733E+03 0.  0.
          5    1    3    3  502    0 -0.20163405627E+02  0.18622005094E+02 -0.18748886579E+01  0.27826778608E+02  0.41800000000E+01 0.  1.
         -5    1    3    3    0  502  0.36437939211E+02  0.24221699753E+02 -0.28628391669E+03  0.28963833916E+03  0.41800000000E+01 0.  1.
        -11    1    1    2    0    0 -0.37076142605E+02 -0.99166583107E+01 -0.18127692457E+03  0.18529518030E+03  0.00000000000E+00 0. -1.
         11    1    1    2    0    0  0.20801609021E+02 -0.32927046536E+02 -0.30184144873E+02  0.49274536357E+02  0.00000000000E+00 0.  1.
</event>
<event>
 7    1  0.7017065E-006  0.1104376E+03  0.7561462E-02  0.1259762E+00
          3   -1    0    0  501    0  0.00000000000E+00  0.00000000000E+00  0.20672950775E+03  0.20672950775E+03  0.00000000000E+00 0. -1.
         -3   -1    0    0    0  501 -0.00000000000E+00 -0.00000000000E+00 -0.35092091664E+03  0.35092091664E+03  0.00000000000E+00 0.  1.
         23    2    1    2    0    0 -0.36294140228E+02 -0.38338956658E+02 -0.32379290287E+03  0.34791335937E+03  0.11582193863E+03 0.  0.
          5    1    3    3  502    0 -0.50499820700E+02  0.27705947957E+02 -0.17890510516E+03  0.18799563957E+03  0.41800000000E+01 0. -1.
         -5    1    3    3    0  502  0.14205680472E+02 -0.66044904615E+02 -0.14488779770E+03  0.15991771980E+03  0.41800000000E+01 0.  1.
        -11    1    1    2    0    0  0.50978578992E+02  0.53799118904E+02  0.17167211399E+03  0.18698790184E+03  0.00000000000E+00 0. -1.
         11    1    1    2    0    0 -0.14684438764E+02 -0.15460162246E+02  0.79293799833E+01  0.22749163181E+02  0.00000000000E+00 0.  1.
</event>
<event>
 6    1  0.7017065E-006  0.1862164E+03  0.7561462E-02  0.1161919E+00
         -2   -1    0    0    0  501 -0.00000000000E+00  0.00000000000E+00  0.56249239034E+02  0.56249239034E+02  0.00000000000E+00 0.  1.
          2   -1    0    0  501    0  0.00000000000E+00 -0.00000000000E+00 -0.66264278225E+03  0.66264278225E+03  0.00000000000E+00 0. -1.
          5    1    1    2  502    0  0.12672001971E+03  0.67241566014E+02 -0.16742773066E+03  0.22051963402E+03  0.41800000000E+01 0. -1.
         -5    1    1    2    0  502 -0.12538704835E+03 -0.14648346292E+02 -0.22579764844E+03  0.25872482753E+03  0.41800000000E+01 0.  1.
        -11    1    1    2    0    0 -0.30714016870E+02  0.10944406820E+02 -0.33150220384E+02  0.46498042802E+02  0.00000000000E+00 0.  1.
         11    1    1    2    0    0  0.29381045504E+02 -0.63537626542E+02 -0.18001794374E+03  0.19314951692E+03  0.00000000000E+00 0. -1.
</event>
<event>
 7    1  0.7017065E-006  0.9818564E+02  0.7561462E-02  0.1284158E+00
          2   -1    0    0  501    0  0.00000000000E+00  0.00000000000E+00  0.57366287562E+03  0.57366287562E+03  0.00000000000E+00 0. -1.
         -2   -1    0    0    0  501 -0.00000000000E+00 -0.00000000000E+00 -0.23980259789E+02  0.23980259789E+02  0.00000000000E+00 0.  1.
         23    2    1    2    0    0  0.24757089699E+02  0.43280996244E+02  0.31444011465E+03  0.34206474858E+03  0.12509815503E+03 0.  0.
          5    1    3    3  502    0 -0.33666239933E+02  0.30061079120E+02  0.37910961098E+02  0.59091433901E+02  0.41800000000E+01 0. -1.
         -5    1    3    3    0  502  0.58423329632E+02  0.13219917124E+02  0.27652915355E+03  0.28297331467E+03  0.41800000000E+01 0. -1.
        -11    1    1    2    0    0 -0.52303259783E+02 -0.25284895089E+02  0.93590455167E+02  0.11015502804E+03  0.00000000000E+00 0.  1.
         11    1    1    2    0    0  0.27546170084E+02 -0.17996101155E+02  0.14165204601E+03  0.14542335879E+03  0.00000000000E+00 0. -1.
</event>
<event>
 7    1  0.7017065E-006  0.1022615E+03  0.7561462E-02  0.1275611E+00
         -1   -1    0    0    0  501 -0.00000000000E+00  0.00000000000E+00  0.89837277447E+02  0.89837277447E+02  0.00000000000E+00 0.  1.
          1   -1    0    0  501    0  0.00000000000E+00 -0.00000000000E+00 -0.22516063067E+03  0.22516063067E+03  0.00000000000E+00 0. -1.
         23    2    1    2    0    0  0.38715712897E+02  0.77925588398E+02 -0.47488762456E+02  0.15960492499E+03  0.12508895143E+03 0.  0.
          5    1    3    3  502    0 -0.15919194384E+01 -0.15175819096E+02 -0.55538383815E+02  0.57747936495E+02  0.41800000000E+01 0. -1.
         -5    1    3    3    0  502  0.40307632335E+02  0.93101407494E+02  0.80496213585E+01  0.10185698850E+03  0.41800000000E+01 0. -1.
        -11    1    1    2    0    0 -0.23077061397E+02 -0.40719478981E+02 -0.10231706465E+03  0.11251403668E+03  0.00000000000E+00 0.  1.
         11    1    1    2    0    0 -0.15638651499E+02 -0.37206109417E+02  0.14482473881E+02  0.42878946447E+02  0.00000000000E+00 0. -1.
</event>
<event>
 7    1  0.7017065E-006  0.1276714E+03  0.7561462E-02  0.1230952E+00
         -2   -1    0    0    0  501 -0.00000000000E+00  0.00000000000E+00  0.62289182964E+02  0.62289182964E+02  0.00000000000E+00 0.  1.
          2   -1    0    0  501    0  0.00000000000E+00 -0.00000000000E+00 -0.41035385334E+03  0.41035385334E+03  0.00000000000E+00 0. -1.
         23    2    1    2    0    0 -0.10220917000E+03 -0.12798107485E+02 -0.10204542365E+03  0.19149917655E+03  0.12509260628E+03 0.  0.
          5    1    3    3  502    0 -0.54171012743E+01  0.30854070390E+02  0.13636023884E+02  0.34419938890E+02  0.41800000000E+01 0. -1.
         -5    1    3    3    0  502 -0.96792068725E+02 -0.43652177875E+02 -0.11568144753E+03  0.15707923766E+03  0.41800000000E+01 0. -1.
        -11    1    1    2    0    0  0.13404695593E+02  0.24477540696E+02 -0.11648826655E+02  0.30241214012E+02  0.00000000000E+00 0.  1.
         11    1    1    2    0    0  0.88804474406E+02 -0.11679433211E+02 -0.23437042007E+03  0.25090264574E+03  0.00000000000E+00 0. -1.
</event>
<event>
 7    1  0.7017065E-006  0.1606704E+03  0.7561462E-02  0.1187942E+00
          2   -1    0    0  501    0  0.00000000000E+00  0.00000000000E+00  0.41156404695E+03  0.41156404695E+03  0.00000000000E+00 0.  1.
         -2   -1    0    0    0  501 -0.00000000000E+00 -0.00000000000E+00 -0.85576115535E+02  0.85576115535E+02  0.00000000000E+00 0. -1.
         23    2    1    2    0    0  0.75796552163E+02 -0.12111051932E+03  0.98400799965E+02  0.21387556024E+03  0.12508861907E+03 0.  0.
          5    1    3    3  502    0  0.68220485655E+02 -0.44804397094E+02  0.10912535078E+03  0.13633518712E+03  0.41800000000E+01 0.  1.
         -5    1    3    3    0  502  0.75760665071E+01 -0.76306122228E+02 -0.10724550820E+02  0.77540373120E+02  0.41800000000E+01 0.  1.
        -11    1    1    2    0    0  0.13921689437E+02  0.38205086500E+02  0.93025924560E+02  0.10152470001E+03  0.00000000000E+00 0.  1.
         11    1    1    2    0    0 -0.89718241600E+02  0.82905432823E+02  0.13456120689E+03  0.18173990224E+03  0.00000000000E+00 0. -1.
</event>
<event>
 7    1  0.7017065E-006  0.1701737E+03  0.7561462E-02  0.1177667E+00
         -2   -1    0    0    0  501 -0.00000000000E+00  0.00000000000E+00  0.58392388832E+03  0.58392388832E+03  0.00000000000E+00 0.  1.
          2   -1    0    0  501    0  0.00000000000E+00 -0.00000000000E+00 -0.54166016257E+02  0.54166016257E+02  0.00000000000E+00 0. -1.
         23    2    1    2    0    0 -0.10032502301E+03  0.10212724743E+03  0.31771066378E+03  0.37024747082E+03  0.12509212147E+03 0.  0.
          5    1    3    3  502    0 -0.25540107995E+02  0.11160823418E+03  0.18756734754E+03  0.21979007557E+03  0.41800000000E+01 0. -1.
         -5    1    3    3    0  502 -0.74784915018E+02 -0.94809867450E+01  0.13014331624E+03  0.15045739525E+03  0.41800000000E+01 0. -1.
        -11    1    1    2    0    0 -0.25679774566E+01 -0.15685212861E+02  0.72059444447E+02  0.73791489650E+02  0.00000000000E+00 0.  1.
         11    1    1    2    0    0  0.10289300047E+03 -0.86442034572E+02  0.13998776383E+03  0.19405094411E+03  0.00000000000E+00 0. -1.
</event>
<event>
 7    1  0.7017065E-006  0.3218501E+03  0.7561462E-02  0.1074801E+00
         -2   -1    0    0    0  501 -0.00000000000E+00  0.00000000000E+00  0.55029724600E+03  0.55029724600E+03  0.00000000000E+00 0.  1.
          2   -1    0    0  501    0  0.00000000000E+00 -0.00000000000E+00 -0.21731709739E+03  0.21731709739E+03  0.00000000000E+00 0. -1.
         23    2    1    2    0    0  0.25977522239E+03 -0.17920264667E+03  0.26806100183E+03  0.43255059697E+03  0.12508622425E+03 0.  0.
          5    1    3    3  502    0  0.83416409567E+02 -0.12347894437E+02  0.22868420780E+02  0.87471166399E+02  0.41800000000E+01 0.  1.
         -5    1    3    3    0  502  0.17635881282E+03 -0.16685475223E+03  0.24519258105E+03  0.34507943057E+03  0.41800000000E+01 0.  1.
        -11    1    1    2    0    0 -0.79169422266E+02  0.41833265610E+02 -0.21780186559E+02  0.92153112048E+02  0.00000000000E+00 0. -1.
         11    1    1    2    0    0 -0.18060580012E+03  0.13736938106E+03  0.86699333351E+02  0.24291063438E+03  0.00000000000E+00 0.  1.
</event>
<event>
 7    1  0.7017065E-006  0.1922593E+03  0.7561462E-02  0.1156439E+00
         -2   -1    0    0    0  501 -0.00000000000E+00  0.00000000000E+00  0.24444982363E+03  0.24444982363E+03  0.00000000000E+00 0.  1.
          2   -1    0    0  501    0  0.00000000000E+00 -0.00000000000E+00 -0.20511671238E+03  0.20511671238E+03  0.00000000000E+00 0. -1.
         23    2    1    2    0    0  0.79163203774E+02 -0.14984395266E+03  0.11831084425E+03  0.24158586102E+03  0.12508496870E+03 0.  0.
          5    1    3    3  502    0  0.61876231555E+02 -0.16896189829E+02  0.78930830405E+02  0.10179242433E+03  0.41800000000E+01 0. -1.
         -5    1    3    3    0  502  0.17286972218E+02 -0.13294776283E+03  0.39380013849E+02  0.13979343669E+03  0.41800000000E+01 0. -1.
        -11    1    1    2    0    0 -0.83576045818E+02  0.78604472232E+02 -0.22396254383E+02  0.11689829212E+03  0.00000000000E+00 0.  1.
         11    1    1    2    0    0  0.44128420443E+01  0.71239480430E+02 -0.56581478619E+02  0.91082382871E+02  0.00000000000E+00 0. -1.
</event>
<event>
 6    1  0.7017065E-006  0.1433174E+03  0.7561462E-02  0.1208934E+00
          2   -1    0    0  501    0  0.00000000000E+00  0.00000000000E+00  0.44260634709E+03  0.44260634709E+03  0.00000000000E+00 0. -1.
         -2   -1    0    0    0  501 -0.00000000000E+00 -0.00000000000E+00 -0.55831464098E+02  0.55831464098E+02  0.00000000000E+00 0.  1.
          5    1    1    2  502    0 -0.23844438426E+02  0.98266416987E+02  0.53549780208E+02  0.11449845987E+03  0.41800000000E+01 0. -1.
         -5    1    1    2    0  502  0.51846681226E+02  0.17386556030E+00  0.11867188351E+03  0.12957081816E+03  0.41800000000E+01 0.  1.
        -11    1    1    2    0    0  0.57756596498E+01  0.14459772102E+02  0.47087771682E+02  0.49595377765E+02  0.00000000000E+00 0. -1.
         11    1    1    2    0    0 -0.33777902450E+02 -0.11290005465E+03  0.16746544760E+03  0.20477315540E+03  0.00000000000E+00 0.  1.
</event>
<event>
 7    1  0.7017065E-006  0.8497725E+02  0.7561462E-02  0.1315492E+00
         -1   -1    0    0    0  501 -0.00000000000E+00  0.00000000000E+00  0.40153301781E+02  0.40153301781E+02  0.00000000000E+00 0.  1.
          1   -1    0    0  501    0  0.00000000000E+00 -0.00000000000E+00 -0.36901914849E+03  0.36901914849E+03  0.00000000000E+00 0. -1.
         23    2    1    2    0    0  0.17390740990E+02  0.51166766232E+02 -0.15969310269E+03  0.20992818011E+03  0.12508987937E+03 0.  0.
          5    1    3    3  502    0  0.39562968028E+01 -0.30326629442E+02 -0.10817953358E+03  0.11249729162E+03  0.41800000000E+01 0.  1.
         -5    1    3    3    0  502  0.13434444187E+02  0.81493395674E+02 -0.51513569115E+02  0.97430888491E+02  0.41800000000E+01 0.  1.
        -11    1    1    2    0    0 -0.20097594580E+02 -0.38447760495E+02 -0.17820597664E+03  0.18341077859E+03  0.00000000000E+00 0. -1.
         11    1    1    2    0    0  0.27068535902E+01 -0.12719005737E+02  0.90332326242E+01  0.15833491559E+02  0.00000000000E+00 0.  1.
</event>
<event>
 7    1  0.7017065E-006  0.1081344E+03  0.7561462E-02  0.1264064E+00
         -2   -1    0    0    0  501 -0.00000000000E+00  0.00000000000E+00  0.39201986033E+02  0.39201986033E+02  0.00000000000E+00 0.  1.
          2   -1    0    0  501    0  0.00000000000E+00 -0.00000000000E+00 -0.49255097877E+03  0.49255097877E+03  0.00000000000E+00 0. -1.
         23    2    1    2    0    0 -0.64624091277E+02 -0.44104764228E+02 -0.17729785795E+03  0.23066102347E+03  0.12509386042E+03 0.  0.
          5    1    3    3  502    0 -0.38382666350E+02 -0.66012885620E+02 -0.34728177904E+02  0.83990766662E+02  0.41800000000E+01 0.  1.
         -5    1    3    3    0  502 -0.26241424927E+02  0.21908121391E+02 -0.14256968004E+03  0.14667025681E+03  0.41800000000E+01 0.  1.
        -11    1    1    2    0    0  0.21822925939E+02 -0.19113865369E+02 -0.15704837996E+03  0.15970527103E+03  0.00000000000E+00 0. -1.
         11    1    1    2    0    0  0.42801165338E+02  0.63218629598E+02 -0.11900275483E+03  0.14138667031E+03  0.00000000000E+00 0.  1.
</event>
<event>
 7    1  0.7017065E-006  0.9338762E+02  0.7561462E-02  0.1294849E+00
         -1   -1    0    0    0  501 -0.00000000000E+00  0.00000000000E+00  0.50771602509E+02  0.50771602509E+02  0.00000000000E+00 0.  1.
          1   -1    0    0  501    0  0.00000000000E+00 -0.00000000000E+00 -0.28276627817E+03  0.28276627817E+03  0.00000000000E+00 0. -1.
         23    2    1    2    0    0  0.27981169705E+02 -0.20825645905E+02 -0.77065724119E+02  0.15100810961E+03  0.12509064693E+03 0.  0.
          5    1    3    3  502    0 -0.43472260534E+02 -0.25226190652E+02 -0.57888798379E+02  0.76777493502E+02  0.41800000000E+01 0.  1.
         -5    1    3    3    0  502  0.71453430239E+02  0.44005447474E+01 -0.19176925740E+02  0.74230616108E+02  0.41800000000E+01 0.  1.
        -11    1    1    2    0    0 -0.44295782150E+02  0.19050974046E+02 -0.15855345907E+03  0.16572343018E+03  0.00000000000E+00 0. -1.
         11    1    1    2    0    0  0.16314612445E+02  0.17746718592E+01  0.36245075200E+01  0.16806340893E+02  0.00000000000E+00 0.  1.
</event>
<event>
 7    1  0.7017065E-006  0.8431497E+02  0.7561462E-02  0.1317234E+00
         -2   -1    0    0    0  501 -0.00000000000E+00  0.00000000000E+00  0.12448474183E+03  0.12448474183E+03  0.00000000000E+00 0.  1.
          2   -1    0    0  501    0  0.00000000000E+00 -0.00000000000E+00 -0.97338761212E+02  0.97338761212E+02  0.00000000000E+00 0. -1.
         23    2    1    2    0    0 -0.20338575939E+02 -0.65139520110E+00  0.16014758237E+02  0.12774301932E+03  0.12509086504E+03 0.  0.
          5    1    3    3  502    0 -0.11831605378E+02 -0.61918296147E+02  0.18079020752E+02  0.65712903412E+02  0.41800000000E+01 0. -1.
         -5    1    3    3    0  502 -0.85069705601E+01  0.61266900946E+02 -0.20642625146E+01  0.62030115906E+02  0.41800000000E+01 0. -1.
        -11    1    1    2    0    0  0.29725411897E+02 -0.79020512774E+01  0.46921410052E+02  0.56104021675E+02  0.00000000000E+00 0.  1.
         11    1    1    2    0    0 -0.93868359584E+01  0.85534464785E+01 -0.35790187673E+02  0.37976462048E+02  0.00000000000E+00 0. -1.
</event>
<event>
 7    1  0.7017065E-006  0.1003080E+03  0.7561462E-02  0.1279650E+00
          1   -1    0    0  501    0  0.00000000000E+00  0.00000000000E+00  0.32535864088E+03  0.32535864088E+03  0.00000000000E+00 0. -1.
         -1   -1    0    0    0  501 -0.00000000000E+00 -0.00000000000E+00 -0.41720357822E+02  0.41720357822E+02  0.00000000000E+00 0.  1.
         23    2    1    2    0    0  0.31632623345E+02 -0.20823907204E+02  0.16584359446E+03  0.21115337725E+03  0.12508953966E+03 0.  0.
          5    1    3    3  502    0 -0.42826377274E+02  0.14676687995E+02  0.80074428888E+02  0.92080890105E+02  0.41800000000E+01 0. -1.
         -5    1    3    3    0  502  0.74459000619E+02 -0.35500595200E+02  0.85769165573E+02  0.11907248715E+03  0.41800000000E+01 0. -1.
        -11    1    1    2    0    0  0.11342878484E+02  0.26862812129E+02 -0.12816393675E+01  0.29187568711E+02  0.00000000000E+00 0.  1.
         11    1    1    2    0    0 -0.42975501829E+02 -0.60389049249E+01  0.11907632797E+03  0.12673805274E+03  0.00000000000E+00 0. -1.
</event>
<event>
 7    1  0.7017065E-006  0.1496735E+03  0.7561462E-02  0.1200875E+00
         -2   -1    0    0    0  501 -0.00000000000E+00  0.00000000000E+00  0.24797418724E+02  0.24797418724E+02  0.00000000000E+00 0.  1.
          2   -1    0    0  501    0  0.00000000000E+00 -0.00000000000E+00 -0.10498980354E+04  0.10498980354E+04  0.00000000000E+00 0. -1.
         23    2    1    2    0    0  0.72514336591E+02  0.94418496140E+02 -0.59154977103E+03  0.61623993151E+03  0.12508932871E+03 0.  0.
          5    1    3    3  502    0  0.23197738233E+02 -0.19376001545E+02 -0.36916955021E+02  0.47894660068E+02  0.41800000000E+01 0.  1.
         -5    1    3    3    0  502  0.49316598358E+02  0.11379449768E+03 -0.55463281601E+03  0.56834527145E+03  0.41800000000E+01 0.  1.
        -11    1    1    2    0    0 -0.65032465778E+02 -0.10981359931E+03 -0.40955963697E+03  0.42898408412E+03  0.00000000000E+00 0. -1.
         11    1    1    2    0    0 -0.74818708128E+01  0.15395103175E+02 -0.23991208665E+02  0.29471438476E+02  0.00000000000E+00 0.  1.
</event>
<event>
 7    1  0.7017065E-006  0.1893513E+03  0.7561462E-02  0.1159048E+00
         -2   -1    0    0    0  501 -0.00000000000E+00  0.00000000000E+00  0.61367501044E+03  0.61367501044E+03  0.00000000000E+00 0.  1.
          2   -1    0    0  501    0  0.00000000000E+00 -0.00000000000E+00 -0.72588043666E+02  0.72588043666E+02  0.00000000000E+00 0. -1.
         23    2    1    2    0    0 -0.12175428874E+03  0.11945666610E+03  0.37645110923E+03  0.43180596764E+03  0.12508778579E+03 0.  0.
          5    1    3    3  502    0 -0.12941659605E+03  0.59432978469E+02  0.31367172263E+03  0.34451176503E+03  0.41800000000E+01 0.  1.
         -5    1    3    3    0  502  0.76623073062E+01  0.60023687626E+02  0.62779386594E+02  0.87294202617E+02  0.41800000000E+01 0.  1.
        -11    1    1    2    0    0  0.54498797265E+02 -0.82384294574E+02  0.14455085364E+03  0.17507781180E+03  0.00000000000E+00 0.  1.
         11    1    1    2    0    0  0.67255491477E+02 -0.37072371522E+02  0.20085003904E+02  0.79379274662E+02  0.00000000000E+00 0. -1.
</event>
<event>
 7    1  0.7017065E-006  0.1423511E+03  0.7561462E-02  0.1210200E+00
          1   -1    0    0  501    0  0.00000000000E+00  0.00000000000E+00  0.35752804640E+03  0.35752804640E+03  0.00000000000E+00 0. -1.
         -1   -1    0    0    0  501 -0.00000000000E+00 -0.00000000000E+00 -0.81580154537E+02  0.81580154537E+02  0.00000000000E+00 0.  1.
         23    2    1    2    0    0 -0.10318087536E+03  0.71880210792E+02  0.98318006021E+02  0.20279498558E+03  0.12508524344E+03 0.  0.
          5    1    3    3  502    0 -0.76299345778E+02  0.37835169985E+02 -0.10178971670E+02  0.85873011582E+02  0.41800000000E+01 0.  1.
         -5    1    3    3    0  502 -0.26881529582E+02  0.34045040808E+02  0.10849697769E+03  0.11692197400E+03  0.41800000000E+01 0.  1.
        -11    1    1    2    0    0  0.11958483206E+03 -0.52883550173E+02  0.14948049728E+03  0.19859914654E+03  0.00000000000E+00 0.  1.
         11    1    1    2    0    0 -0.16403956704E+02 -0.18996660620E+02  0.28149388566E+02  0.37714068819E+02  0.00000000000E+00 0. -1.
</event>
<event>
 7    1  0.7017065E-006  0.1048191E+03  0.7561462E-02  0.1270477E+00
          2   -1    0    0  501    0  0.00000000000E+00  0.00000000000E+00  0.28454155001E+03  0.28454155001E+03  0.00000000000E+00 0. -1.
         -2   -1    0    0    0  501 -0.00000000000E+00 -0.00000000000E+00 -0.48504317979E+02  0.48504317979E+02  0.00000000000E+00 0.  1.
         23    2    1    2    0    0 -0.10493172406E+02 -0.39921100704E+02  0.10640909312E+03  0.16933455642E+03  0.12508995144E+03 0.  0.
          5    1    3    3  502    0 -0.48998226098E+02  0.93729004601E+01  0.92412914008E+02  0.10510136298E+03  0.41800000000E+01 0. -1.
         -5    1    3    3    0  502  0.38505053692E+02 -0.49294001164E+02  0.13996179116E+02  0.64233193448E+02  0.41800000000E+01 0. -1.
        -11    1    1    2    0    0  0.46722831146E+02  0.57332923071E+01  0.83318689181E+02  0.95696904641E+02  0.00000000000E+00 0. -1.
         11    1    1    2    0    0 -0.36229658740E+02  0.34187808397E+02  0.46309449726E+02  0.68014406925E+02  0.00000000000E+00 0.  1.
</event>
<event>
 7    1  0.7017065E-006  0.1187316E+03  0.7561462E-02  0.1245204E+00
          1   -1    0    0  501    0  0.00000000000E+00  0.00000000000E+00  0.17919668886E+03  0.17919668886E+03  0.00000000000E+00 0. -1.
         -1   -1    0    0    0  501 -0.00000000000E+00 -0.00000000000E+00 -0.10937965444E+03  0.10937965444E+03  0.00000000000E+00 0.  1.
         23    2    1    2    0    0  0.42549787538E+02 -0.83656820976E+02  0.11360891947E+02  0.14587200600E+03  0.11108836192E+03 0.  0.
          5    1    3    3  502    0  0.75375449516E+02 -0.32799651140E+02  0.19681386479E+02  0.84629220003E+02  0.41800000000E+01 0. -1.
         -5    1    3    3    0  502 -0.32825661977E+02 -0.50857169837E+02 -0.83204945313E+01  0.61242786002E+02  0.41800000000E+01 0.  1.
        -11    1    1    2    0    0 -0.18577468162E+01  0.11416972505E+02  0.58662312907E+02  0.59791850950E+02  0.00000000000E+00 0. -1.
         11    1    1    2    0    0 -0.40692040722E+02  0.72239848472E+02 -0.20617044283E+00  0.82912486343E+02  0.00000000000E+00 0.  1.
</event>
<event>
 7    1  0.7017065E-006  0.2253415E+03  0.7561462E-02  0.1129962E+00
          2   -1    0    0  501    0  0.00000000000E+00  0.00000000000E+00  0.10996467640E+04  0.10996467640E+04  0.00000000000E+00 0. -1.
         -2   -1    0    0    0  501 -0.00000000000E+00 -0.00000000000E+00 -0.53299878749E+02  0.53299878749E+02  0.00000000000E+00 0.  1.
         23    2    1    2    0    0  0.18618353565E+03 -0.10417954087E+03  0.44898402743E+03  0.51259287140E+03  0.12508840570E+03 0.  0.
          5    1    3    3  502    0 -0.10989900175E+02 -0.13346909982E+01  0.33804834686E+00  0.11838326850E+02  0.41800000000E+01 0.  1.
         -5    1    3    3    0  502  0.19717343583E+03 -0.10284484987E+03  0.44864597908E+03  0.50075454455E+03  0.41800000000E+01 0.  1.
        -11    1    1    2    0    0 -0.83370014367E+02  0.26211817238E+02  0.13913519206E+03  0.16430526568E+03  0.00000000000E+00 0.  1.
         11    1    1    2    0    0 -0.10281352128E+03  0.77967723632E+02  0.45822766578E+03  0.47604850569E+03  0.00000000000E+00 0. -1.
</event>
<event>
 7    1  0.7017065E-006  0.1000822E+03  0.7561462E-02  0.1280123E+00
          1   -1    0    0  501    0  0.00000000000E+00  0.00000000000E+00  0.10680011740E+03  0.10680011740E+03  0.00000000000E+00 0. -1.
         -1   -1    0    0    0  501 -0.00000000000E+00 -0.00000000000E+00 -0.11085318777E+03  0.11085318777E+03  0.00000000000E+00 0.  1.
         23    2    1    2    0    0  0.14821061733E+02  0.58068484555E+01 -0.49692004524E+01  0.12618603467E+03  0.12507933096E+03 0.  0.
          5    1    3    3  502    0 -0.15195105747E+02 -0.53052050490E+02 -0.18997686881E+02  0.58513210531E+02  0.41800000000E+01 0.  1.
         -5    1    3    3    0  502  0.30016167480E+02  0.58858898945E+02  0.14028486429E+02  0.67672824137E+02  0.41800000000E+01 0.  1.
        -11    1    1    2    0    0 -0.43506404068E+02  0.11649303681E+02  0.23694193721E+02  0.50891338037E+02  0.00000000000E+00 0. -1.
         11    1    1    2    0    0  0.28685342334E+02 -0.17456152137E+02 -0.22778063635E+02  0.40575932463E+02  0.00000000000E+00 0.  1.
</event>
<event>
 6    1  0.7017065E-006  0.1376553E+03  0.7561462E-02  0.1216519E+00
         -1   -1    0    0    0  501 -0.00000000000E+00  0.00000000000E+00  0.31111072941E+03  0.31111072941E+03  0.00000000000E+00 0.  1.
          1   -1    0    0  501    0  0.00000000000E+00 -0.00000000000E+00 -0.81615606634E+02  0.81615606634E+02  0.00000000000E+00 0. -1.
          5    1    1    2  502    0  0.26421140950E+02  0.22758285611E+02  0.12955452502E+02  0.37434374612E+02  0.41800000000E+01 0. -1.
         -5    1    1    2    0  502 -0.10282311389E+03 -0.54675798788E+02  0.19293062347E+03  0.22539239916E+03  0.41800000000E+01 0.  1.
        -11    1    1    2    0    0  0.73177926555E+01  0.51369276521E+02 -0.60557723142E+01  0.52240071190E+02  0.00000000000E+00 0. -1.
         11    1    1    2    0    0  0.69084180284E+02 -0.19451763343E+02  0.29664819113E+02  0.77659491085E+02  0.00000000000E+00 0.  1.
</event>
<event>
 7    1  0.7017065E-006  0.2055639E+03  0.7561462E-02  0.1145128E+00
         -3   -1    0    0    0  501 -0.00000000000E+00  0.00000000000E+00  0.41236643488E+02  0.41236643488E+02  0.00000000000E+00 0.  1.
          3   -1    0    0  501    0  0.00000000000E+00 -0.00000000000E+00 -0.12815120215E+04  0.12815120215E+04  0.00000000000E+00 0. -1.
         23    2    1    2    0    0 -0.15518814563E+03  0.12219666578E+03 -0.52390551346E+03  0.57370804209E+03  0.12509414395E+03 0.  0.
          5    1    3    3  502    0 -0.12790651250E+03  0.11579672685E+03 -0.51628600660E+03  0.54436905763E+03  0.41800000000E+01 0. -1.
         -5    1    3    3    0  502 -0.27281633127E+02  0.63999389333E+01 -0.76195068588E+01  0.29338984461E+02  0.41800000000E+01 0. -1.
        -11    1    1    2    0    0  0.12904272582E+03 -0.59146581124E+02 -0.37620180920E+03  0.40209220881E+03  0.00000000000E+00 0. -1.
         11    1    1    2    0    0  0.26145419807E+02 -0.63050084658E+02 -0.34016805536E+03  0.34694841409E+03  0.00000000000E+00 0.  1.
</event>
<event>
 7    1  0.7017065E-006  0.1208480E+03  0.7561462E-02  0.1241705E+00
          2   -1    0    0  501    0  0.00000000000E+00  0.00000000000E+00  0.67476298777E+02  0.67476298777E+02  0.00000000000E+00 0. -1.
         -2   -1    0    0    0  501 -0.00000000000E+00 -0.00000000000E+00 -0.23127163986E+03  0.23127163986E+03  0.00000000000E+00 0.  1.
         23    2    1    2    0    0  0.49474356005E+02 -0.42322010064E+02 -0.98488966084E+02  0.17199942949E+03  0.12507942624E+03 0.  0.
          5    1    3    3  502    0  0.55111042093E+02 -0.78884179438E+02 -0.93851133248E+02  0.13448214877E+03  0.41800000000E+01 0. -1.
         -5    1    3    3    0  502 -0.56366860887E+01  0.36562169374E+02 -0.46378328362E+01  0.37517280723E+02  0.41800000000E+01 0. -1.
        -11    1    1    2    0    0  0.71865526341E+01  0.50403140536E+02 -0.24809172696E+02  0.56635838164E+02  0.00000000000E+00 0. -1.
         11    1    1    2    0    0 -0.56660908639E+02 -0.80811304720E+01 -0.40497202300E+02  0.70112670977E+02  0.00000000000E+00 0.  1.
</event>
<event>
 7    1  0.7017065E-006  0.1262757E+03  0.7561462E-02  0.1233089E+00
          2   -1    0    0  501    0  0.00000000000E+00  0.00000000000E+00  0.92622650778E+02  0.92622650778E+02  0.00000000000E+00 0.  1.
         -2   -1    0    0    0  501 -0.00000000000E+00 -0.00000000000E+00 -0.39235829593E+03  0.39235829593E+03  0.00000000000E+00 0. -1.
         23    2    1    2    0    0  0.10042478819E+03 -0.10239739070E+02 -0.30734918435E+03  0.34684493999E+03  0.12509157021E+03 0.  0.
          5    1    3    3  502    0 -0.20886209529E+02  0.88101394971E+01 -0.12405903985E+03  0.12618228907E+03  0.41800000000E+01 0.  1.
         -5    1    3    3    0  502  0.12131099772E+03 -0.19049878567E+02 -0.18329014450E+03  0.22066265092E+03  0.41800000000E+01 0.  1.
        -11    1    1    2    0    0 -0.27627415347E+02 -0.12559294967E+02 -0.38480213739E+02  0.49007517976E+02  0.00000000000E+00 0.  1.
         11    1    1    2    0    0 -0.72797372846E+02  0.22799034037E+02  0.46093752931E+02  0.89128488743E+02  0.00000000000E+00 0. -1.
</event>
<event>
 7    1  0.7017065E-006  0.9241034E+02  0.7561462E-02  0.1297117E+00
         -1   -1    0    0    0  501 -0.00000000000E+00  0.00000000000E+00  0.31364109225E+03  0.31364109225E+03  0.00000000000E+00 0.  1.
          1   -1    0    0  501    0  0.00000000000E+00 -0.00000000000E+00 -0.30123714046E+02  0.30123714046E+02  0.00000000000E+00 0. -1.
         23    2    1    2    0    0  0.17129893516E+01 -0.38818127292E+02  0.20134727026E+03  0.24020453073E+03  0.12509081502E+03 0.  0.
          5    1    3    3  502    0 -0.26131679317E+02  0.35345295656E+02  0.36593959768E+02  0.57347579551E+02  0.41800000000E+01 0.  1.
         -5    1    3    3    0  502  0.27844668669E+02 -0.74163422947E+02  0.16475331049E+03  0.18285695118E+03  0.41800000000E+01 0.  1.
        -11    1    1    2    0    0 -0.23798401464E+02  0.12178085653E+02  0.47918068913E+02  0.54870857573E+02  0.00000000000E+00 0.  1.
         11    1    1    2    0    0  0.22085412112E+02  0.26640041638E+02  0.34252039029E+02  0.48689417991E+02  0.00000000000E+00 0. -1.
</event>
<event>
 7    1  0.7017065E-006  0.1206223E+03  0.7561462E-02  0.1242074E+00
          1   -1    0    0  501    0  0.00000000000E+00  0.00000000000E+00  0.37023257747E+03  0.37023257747E+03  0.00000000000E+00 0. -1.
         -1   -1    0    0    0  501 -0.00000000000E+00 -0.00000000000E+00 -0.11126404050E+03  0.11126404050E+03  0.00000000000E+00 0.  1.
         23    2    1    2    0    0  0.65815897962E+02 -0.40390657692E+02 -0.47490612863E+02  0.15472145715E+03  0.12538035467E+03 0.  0.
          5    1    3    3  502    0  0.88015131258E+02 -0.53390655579E+02 -0.28950063666E+01  0.10306832149E+03  0.41800000000E+01 0. -1.
         -5    1    3    3    0  502 -0.22199233296E+02  0.12999997887E+02 -0.44595606496E+02  0.51653135653E+02  0.41800000000E+01 0. -1.
        -11    1    1    2    0    0 -0.10020040280E+02 -0.24561657076E+02  0.95085233157E+02  0.98716147464E+02  0.00000000000E+00 0. -1.
         11    1    1    2    0    0 -0.55795857682E+02  0.64952314768E+02  0.21137391668E+03  0.22805901337E+03  0.00000000000E+00 0.  1.
</event>
<event>
 7    1  0.7017065E-006  0.1066530E+03  0.7561462E-02  0.1266896E+00
         -1   -1    0    0    0  501 -0.00000000000E+00  0.00000000000E+00  0.18048236040E+03  0.18048236040E+03  0.00000000000E+00 0.  1.
          1   -1    0    0  501    0  0.00000000000E+00 -0.00000000000E+00 -0.11633115667E+03  0.11633115667E+03  0.00000000000E+00 0. -1.
         23    2    1    2    0    0  0.24994112562E+02 -0.62938092640E+01  0.12490537027E+03  0.17941369044E+03  0.12618875978E+03 0.  0.
          5    1    3    3  502    0  0.64168085519E+02 -0.36190287278E+02  0.48162861958E+02  0.88115910961E+02  0.41800000000E+01 0. -1.
         -5    1    3    3    0  502 -0.39173972958E+02  0.29896478014E+02  0.76742508312E+02  0.91297779475E+02  0.41800000000E+01 0.  1.
        -11    1    1    2    0    0 -0.30753009530E+02 -0.36017462261E+02 -0.56636926830E+01  0.47697825922E+02  0.00000000000E+00 0. -1.
         11    1    1    2    0    0  0.57588969684E+01  0.42311271525E+02 -0.55090473858E+02  0.69702000704E+02  0.00000000000E+00 0.  1.
</event>
<event>
 7    1  0.7017065E-006  0.1118659E+03  0.7561462E-02  0.1257153E+00
         -1   -1    0    0    0  501 -0.00000000000E+00  0.00000000000E+00  0.37653429894E+02  0.37653429894E+02  0.00000000000E+00 0.  1.
          1   -1    0    0  501    0  0.00000000000E+00 -0.00000000000E+00 -0.40919174651E+03  0.40919174651E+03  0.00000000000E+00 0. -1.
         23    2    1    2    0    0 -0.55294227749E+02 -0.35708409332E+02 -0.18508537900E+03  0.23289378701E+03  0.12510146438E+03 0.  0.
          5    1    3    3  502    0 -0.28915707670E+02 -0.72610308245E+02 -0.56646398926E+02  0.96616054177E+02  0.41800000000E+01 0. -1.
         -5    1    3    3    0  502 -0.26378520079E+02  0.36901898913E+02 -0.12843898007E+03  0.13627773283E+03  0.41800000000E+01 0. -1.
        -11    1    1    2    0    0  0.24484919245E+02  0.57284822418E+02 -0.82335692602E+02  0.10324838220E+03  0.00000000000E+00 0.  1.
         11    1    1    2    0    0  0.30809308504E+02 -0.21576413086E+02 -0.10411724502E+03  0.11070300720E+03  0.00000000000E+00 0. -1.
</event>
<event>
 6    1  0.7017065E-006  0.3400669E+03  0.7561462E-02  0.1066767E+00
         -2   -1    0    0    0  501 -0.00000000000E+00  0.00000000000E+00  0.12929377229E+03  0.12929377229E+03  0.00000000000E+00 0.  1.
          2   -1    0    0  501    0  0.00000000000E+00 -0.00000000000E+00 -0.92798563925E+03  0.92798563925E+03  0.00000000000E+00 0. -1.
          5    1    1    2  502    0 -0.33117476120E+03  0.12464153719E+02 -0.39996817064E+03  0.51944594281E+03  0.41800000000E+01 0. -1.
         -5    1    1    2    0  502  0.17484737617E+02  0.25831673778E+02 -0.44212759410E+02  0.54269990920E+02  0.41800000000E+01 0.  1.
        -11    1    1    2    0    0  0.10182685092E+03 -0.25533581089E+02 -0.61207787430E+02  0.12151981145E+03  0.00000000000E+00 0. -1.
         11    1    1    2    0    0  0.21186317266E+03 -0.12762246408E+02 -0.29330314947E+03  0.36204366636E+03  0.00000000000E+00 0.  1.
</event>
<event>
 7    1  0.7017065E-006  0.9868457E+02  0.7561462E-02  0.1283087E+00
          1   -1    0    0  501    0  0.00000000000E+00  0.00000000000E+00  0.21705654108E+03  0.21705654108E+03  0.00000000000E+00 0. -1.
         -1   -1    0    0    0  501 -0.00000000000E+00 -0.00000000000E+00 -0.59596660901E+02  0.59596660901E+02  0.00000000000E+00 0.  1.
         23    2    1    2    0    0 -0.34056534548E+00 -0.37084404477E+02  0.83086042330E+02  0.15468242586E+03  0.12509193978E+03 0.  0.
          5    1    3    3  502    0 -0.48534693113E+02  0.22474056738E+02  0.31281541969E+02  0.62102390693E+02  0.41800000000E+01 0. -1.
         -5    1    3    3    0  502  0.48194127768E+02 -0.59558461214E+02  0.51804500361E+02  0.92580035165E+02  0.41800000000E+01 0. -1.
        -11    1    1    2    0    0  0.59918830310E+01  0.51323380450E+02  0.87618174549E+02  0.10171989262E+03  0.00000000000E+00 0. -1.
         11    1    1    2    0    0 -0.56513176855E+01 -0.14238975973E+02 -0.13244336696E+02  0.20250883508E+02  0.00000000000E+00 0.  1.
</event>
<event>
 7    1  0.7017065E-006  0.1170123E+03  0.7561462E-02  0.1248109E+00
          1   -1    0    0  501    0  0.00000000000E+00  0.00000000000E+00  0.38060772906E+03  0.38060772906E+03  0.00000000000E+00 0. -1.
         -1   -1    0    0    0  501 -0.00000000000E+00 -0.00000000000E+00 -0.42284809112E+02  0.42284809112E+02  0.00000000000E+00 0.  1.
         23    2    1    2    0    0  0.44927593333E+02  0.10279162248E+02  0.11266244279E+03  0.17453458409E+03  0.12508135437E+03 0.  0.
          5    1    3    3  502    0  0.32049187122E+02  0.67301846064E+02  0.65064780116E+02  0.99033261535E+02  0.41800000000E+01 0.  1.
         -5    1    3    3    0  502  0.12878406211E+02 -0.57022683816E+02  0.47597662670E+02  0.75501322556E+02  0.41800000000E+01 0.  1.
        -11    1    1    2    0    0 -0.27532848791E+01 -0.45637687375E+02  0.13236996367E+03  0.14004351598E+03  0.00000000000E+00 0. -1.
         11    1    1    2    0    0 -0.42174308454E+02  0.35358525127E+02  0.93290513491E+02  0.10831443810E+03  0.00000000000E+00 0.  1.
</event>
<event>
 7    1  0.7017065E-006  0.1027995E+03  0.7561462E-02  0.1274517E+00
         -2   -1    0    0    0  501 -0.00000000000E+00  0.00000000000E+00  0.14154954887E+03  0.14154954887E+03  0.00000000000E+00 0.  1.
          2   -1    0    0  501    0  0.00000000000E+00 -0.00000000000E+00 -0.12166943190E+03  0.12166943190E+03  0.00000000000E+00 0. -1.
         23    2    1    2    0    0 -0.39304462959E+02  0.61798672468E+02  0.10929088992E+02  0.14535616565E+03  0.12508018700E+03 0.  0.
          5    1    3    3  502    0 -0.32052449707E+02  0.70651986727E+01  0.61841996522E+02  0.70136876879E+02  0.41800000000E+01 0.  1.
         -5    1    3    3    0  502 -0.72520132516E+01  0.54733473796E+02 -0.50912907530E+02  0.75219288771E+02  0.41800000000E+01 0.  1.
        -11    1    1    2    0    0  0.37066981281E+02  0.15235218064E+02 -0.14244422959E+01  0.40101147198E+02  0.00000000000E+00 0.  1.
         11    1    1    2    0    0  0.22374816779E+01 -0.77033890532E+02  0.10375470277E+02  0.77761667923E+02  0.00000000000E+00 0. -1.
</event>
<event>
 7    1  0.7017065E-006  0.1622564E+03  0.7561462E-02  0.1186173E+00
          3   -1    0    0  501    0  0.00000000000E+00  0.00000000000E+00  0.46868890793E+03  0.46868890793E+03  0.00000000000E+00 0. -1.
         -3   -1    0    0    0  501 -0.00000000000E+00 -0.00000000000E+00 -0.72235112648E+02  0.72235112648E+02  0.00000000000E+00 0.  1.
         23    2    1    2    0    0  0.61328779573E+02  0.13526050800E+03  0.19462191393E+03  0.27492222716E+03  0.12509163592E+03 0.  0.
          5    1    3    3  502    0  0.84714518133E+02  0.85857534902E+02  0.71820978512E+02  0.14044141567E+03  0.41800000000E+01 0. -1.
         -5    1    3    3    0  502 -0.23385738560E+02  0.49402973094E+02  0.12280093542E+03  0.13448081149E+03  0.41800000000E+01 0. -1.
        -11    1    1    2    0    0 -0.25170781558E+02 -0.70167671531E+02  0.33087291867E+02  0.81558808570E+02  0.00000000000E+00 0.  1.
         11    1    1    2    0    0 -0.36157998015E+02 -0.65092836465E+02  0.16874458948E+03  0.18444298484E+03  0.00000000000E+00 0. -1.
</event>
<event>
 7    1  0.7017065E-006  0.9838579E+02  0.7561462E-02  0.1283727E+00
          3   -1    0    0  501    0  0.00000000000E+00  0.00000000000E+00  0.12528192896E+03  0.12528192896E+03  0.00000000000E+00 0. -1.
         -3   -1    0    0    0  501 -0.00000000000E+00 -0.00000000000E+00 -0.10902645238E+03  0.10902645238E+03  0.00000000000E+00 0.  1.
         23    2    1    2    0    0  0.32424037991E+02  0.27165582262E+02  0.23275350159E+02  0.13408322575E+03  0.12508909786E+03 0.  0.
          5    1    3    3  502    0 -0.15932036473E+02 -0.36840413671E+02  0.34351158187E+02  0.52995474659E+02  0.41800000000E+01 0. -1.
         -5    1    3    3    0  502  0.48356074464E+02  0.64005995932E+02 -0.11075808028E+02  0.81087751087E+02  0.41800000000E+01 0. -1.
        -11    1    1    2    0    0 -0.35083438191E+02  0.11813658712E+02 -0.35956064712E+02  0.51606673570E+02  0.00000000000E+00 0.  1.
         11    1    1    2    0    0  0.26594001999E+01 -0.38979240974E+02  0.28936191134E+02  0.48618482017E+02  0.00000000000E+00 0. -1.
</event>
<event>
 7    1  0.7017065E-006  0.1307596E+03  0.7561462E-02  0.1226333E+00
          4   -1    0    0  501    0  0.00000000000E+00  0.00000000000E+00  0.28951268089E+02  0.28951268089E+02  0.00000000000E+00 0. -1.
         -4   -1    0    0    0  501 -0.00000000000E+00 -0.00000000000E+00 -0.65841999761E+03  0.65841999761E+03  0.00000000000E+00 0.  1.
         23    2    1    2    0    0 -0.24488131238E+02 -0.80899469362E+02 -0.37719735305E+03  0.40628756286E+03  0.12508935954E+03 0.  0.
          5    1    3    3  502    0  0.49107136584E+02 -0.46583566267E+02 -0.20346829463E+03  0.21447227986E+03  0.41800000000E+01 0. -1.
         -5    1    3    3    0  502 -0.73595267823E+02 -0.34315903095E+02 -0.17372905842E+03  0.19181528300E+03  0.41800000000E+01 0. -1.
        -11    1    1    2    0    0 -0.25608076792E+02  0.41040851594E+02 -0.17052071149E+03  0.17724964921E+03  0.00000000000E+00 0.  1.
         11    1    1    2    0    0  0.50096208030E+02  0.39858617768E+02 -0.81750664976E+02  0.10383405363E+03  0.00000000000E+00 0. -1.
</event>
<event>
 7    1  0.7017065E-006  0.1095400E+03  0.7561462E-02  0.1261424E+00
         -1   -1    0    0    0  501 -0.00000000000E+00  0.00000000000E+00  0.41168791665E+02  0.41168791665E+02  0.00000000000E+00 0.  1.
          1   -1    0    0  501    0  0.00000000000E+00 -0.00000000000E+00 -0.33839973294E+03  0.33839973294E+03  0.00000000000E+00 0. -1.
         23    2    1    2    0    0  0.12421177515E+02  0.43865234725E+02 -0.14916575027E+03  0.19994208702E+03  0.12509185681E+03 0.  0.
          5    1    3    3  502    0  0.15802748094E+02 -0.36758743295E+02 -0.14247594559E+02  0.42677844448E+02  0.41800000000E+01 0. -1.
         -5    1    3    3    0  502 -0.33815705792E+01  0.80623978020E+02 -0.13491815571E+03  0.15726424257E+03  0.41800000000E+01 0. -1.
        -11    1    1    2    0    0 -0.33831460040E+02 -0.61578266799E+02 -0.82175010249E+02  0.10811652482E+03  0.00000000000E+00 0.  1.
         11    1    1    2    0    0  0.21410282525E+02  0.17713032074E+02 -0.65890180760E+02  0.71509912765E+02  0.00000000000E+00 0. -1.
</event>
<event>
 7    1  0.7017065E-006  0.1002758E+03  0.7561462E-02  0.1279717E+00
         -1   -1    0    0    0  501 -0.00000000000E+00  0.00000000000E+00  0.43486111790E+02  0.43486111790E+02  0.00000000000E+00 0.  1.
          1   -1    0    0  501    0  0.00000000000E+00 -0.00000000000E+00 -0.28111947215E+03  0.28111947215E+03  0.00000000000E+00 0. -1.
         23    2    1    2    0    0 -0.16175155761E+02 -0.14501737941E+02 -0.14354680190E+03  0.19163717388E+03  0.12508871256E+03 0.  0.
          5    1    3    3  502    0  0.33144293669E+02 -0.50796758937E+02 -0.45397273927E+02  0.75876477259E+02  0.41800000000E+01 0.  1.
         -5    1    3    3    0  502 -0.49319449430E+02  0.36295020996E+02 -0.98149527973E+02  0.11576069662E+03  0.41800000000E+01 0.  1.
        -11    1    1    2    0    0  0.24858792822E+02  0.42404444194E+02 -0.19533839553E+02  0.52892980212E+02  0.00000000000E+00 0.  1.
         11    1    1    2    0    0 -0.86836370615E+01 -0.27902706253E+02 -0.74552718907E+02  0.80075429848E+02  0.00000000000E+00 0. -1.
</event>
<event>
 7    1  0.7017065E-006  0.8645054E+02  0.7561462E-02  0.1311682E+00
         -1   -1    0    0    0  501 -0.00000000000E+00  0.00000000000E+00  0.13861231137E+03  0.13861231137E+03  0.00000000000E+00 0.  1.
          1   -1    0    0  501    0  0.00000000000E+00 -0.00000000000E+00 -0.11396250850E+03  0.11396250850E+03  0.00000000000E+00 0. -1.
         23    2    1    2    0    0  0.13872241781E+02 -0.64168450152E+02  0.20975051123E+02  0.14281799390E+03  0.12508795915E+03 0.  0.
          5    1    3    3  502    0  0.73539513988E+01 -0.60593944361E+02  0.70050643339E+02  0.93006836989E+02  0.41800000000E+01 0. -1.
         -5    1    3    3    0  502  0.65182903825E+01 -0.35745057912E+01 -0.49075592217E+02  0.49811156909E+02  0.41800000000E+01 0. -1.
        -11    1    1    2    0    0 -0.15741069138E+02  0.82892492583E+02 -0.12055631180E+02  0.85230773946E+02  0.00000000000E+00 0.  1.
         11    1    1    2    0    0  0.18688273571E+01 -0.18724042431E+02  0.15730382929E+02  0.24526052021E+02  0.00000000000E+00 0. -1.
</event>
<event>
 7    1  0.7017065E-006  0.9343403E+02  0.7561462E-02  0.1294743E+00
          2   -1    0    0  501    0  0.00000000000E+00  0.00000000000E+00  0.54706230652E+03  0.54706230652E+03  0.00000000000E+00 0. -1.
         -2   -1    0    0    0  501 -0.00000000000E+00 -0.00000000000E+00 -0.30960459007E+02  0.30960459007E+02  0.00000000000E+00 0.  1.
         23    2    1    2    0    0  0.60360363866E+02  0.34423510085E+02  0.24901795105E+03  0.28720847187E+03  0.12510161788E+03 0.  0.
          5    1    3    3  502    0 -0.46425509280E+01  0.46858315908E+02  0.19793268524E+03  0.20349957084E+03  0.41800000000E+01 0. -1.
         -5    1    3    3    0  502  0.65002914794E+02 -0.12434805822E+02  0.51085265814E+02  0.83708901025E+02  0.41800000000E+01 0. -1.
        -11    1    1    2    0    0 -0.25340788703E+02 -0.17735635169E+01  0.69853751758E+01  0.26345712478E+02  0.00000000000E+00 0.  1.
         11    1    1    2    0    0 -0.35019575163E+02 -0.32649946568E+02  0.26009852128E+03  0.26446858118E+03  0.00000000000E+00 0. -1.
</event>
<event>
 7    1  0.7017065E-006  0.1250771E+03  0.7561462E-02  0.1234949E+00
         -2   -1    0    0    0  501 -0.00000000000E+00  0.00000000000E+00  0.64778390371E+02  0.64778390371E+02  0.00000000000E+00 0. -1.
          2   -1    0    0  501    0  0.00000000000E+00 -0.00000000000E+00 -0.32155512779E+03  0.32155512779E+03  0.00000000000E+00 0.  1.
         23    2    1    2    0    0  0.30760755935E+02 -0.70312861157E+02 -0.64135662118E+02  0.16015923884E+03  0.12508987202E+03 0.  0.
          5    1    3    3  502    0  0.42900838152E+02 -0.95175717539E+02 -0.76573452199E+02  0.12953711864E+03  0.41800000000E+01 0.  1.
         -5    1    3    3    0  502 -0.12140082217E+02  0.24862856382E+02  0.12437790081E+02  0.30622120204E+02  0.41800000000E+01 0.  1.
        -11    1    1    2    0    0 -0.39716825589E+02 -0.65968987325E+01 -0.78913413082E+02  0.88590473935E+02  0.00000000000E+00 0.  1.
         11    1    1    2    0    0  0.89560696539E+01  0.76909759890E+02 -0.11372766222E+03  0.13758380538E+03  0.00000000000E+00 0. -1.
</event>
<event>
 7    1  0.7017065E-006  0.1440003E+03  0.7561462E-02  0.1208045E+00
         -2   -1    0    0    0  501 -0.00000000000E+00  0.00000000000E+00  0.29926656986E+02  0.29926656986E+02  0.00000000000E+00 0.  1.
          2   -1    0    0  501    0  0.00000000000E+00 -0.00000000000E+00 -0.79680974207E+03  0.79680974207E+03  0.00000000000E+00 0. -1.
         23    2    1    2    0    0  0.24094330867E+02  0.10536377368E+03 -0.39192477712E+03  0.42536726074E+03  0.12510081537E+03 0.  0.
          5    1    3    3  502    0 -0.37646500933E+02  0.95045478970E+02 -0.23093210522E+03  0.25258268295E+03  0.41800000000E+01 0.  1.
         -5    1    3    3    0  502  0.61740831800E+02  0.10318294712E+02 -0.16099267190E+03  0.17278457779E+03  0.41800000000E+01 0.  1.
        -11    1    1    2    0    0  0.18242917779E+02 -0.16863103318E+02 -0.16732930630E+02  0.29952617083E+02  0.00000000000E+00 0.  1.
         11    1    1    2    0    0 -0.42337248647E+02 -0.88500670364E+02 -0.35822537733E+03  0.37141652123E+03  0.00000000000E+00 0. -1.
</event>
<event>
 7    1  0.7017065E-006  0.1193509E+03  0.7561462E-02  0.1244172E+00
         -3   -1    0    0    0  501 -0.00000000000E+00  0.00000000000E+00  0.14332904810E+03  0.14332904810E+03  0.00000000000E+00 0.  1.
          3   -1    0    0  501    0  0.00000000000E+00 -0.00000000000E+00 -0.16862189983E+03  0.16862189983E+03  0.00000000000E+00 0. -1.
         23    2    1    2    0    0  0.67751061051E+02  0.60426881709E+02  0.52149229575E+02  0.16312296642E+03  0.12509174922E+03 0.  0.
          5    1    3    3  502    0  0.57994764650E+02  0.16531379859E+01  0.78616641662E+02  0.97796596762E+02  0.41800000000E+01 0.  1.
         -5    1    3    3    0  502  0.97562964012E+01  0.58773743723E+02 -0.26467412087E+02  0.65326369663E+02  0.41800000000E+01 0.  1.
        -11    1    1    2    0    0 -0.64405238711E+02 -0.42641531441E+01 -0.64180375678E+02  0.91023834228E+02  0.00000000000E+00 0.  1.
         11    1    1    2    0    0 -0.33458223402E+01 -0.56162728565E+02 -0.13261705624E+02  0.57804147283E+02  0.00000000000E+00 0. -1.
</event>
<event>
 7    1  0.7017065E-006  0.1229686E+03  0.7561462E-02  0.1238279E+00
          2   -1    0    0  501    0  0.00000000000E+00  0.00000000000E+00  0.27664133581E+03  0.27664133581E+03  0.00000000000E+00 0. -1.
         -2   -1    0    0    0  501 -0.00000000000E+00 -0.00000000000E+00 -0.67083616159E+02  0.67083616159E+02  0.00000000000E+00 0.  1.
         23    2    1    2    0    0  0.56116103555E+02  0.55499845369E+02  0.90055715810E+02  0.17316960695E+03  0.12509368852E+03 0.  0.
          5    1    3    3  502    0  0.35701155997E+01 -0.34012733117E+02  0.52324811231E+02  0.62649581083E+02  0.41800000000E+01 0. -1.
         -5    1    3    3    0  502  0.52545987955E+02  0.89512578487E+02  0.37730904579E+02  0.11052002587E+03  0.41800000000E+01 0. -1.
        -11    1    1    2    0    0  0.23975291670E+01 -0.48628234337E+02  0.15623691464E+02  0.51132700454E+02  0.00000000000E+00 0.  1.
         11    1    1    2    0    0 -0.58513632722E+02 -0.68716110329E+01  0.10387831238E+03  0.11942264457E+03  0.00000000000E+00 0. -1.
</event>
<event>
 7    1  0.7017065E-006  0.7117142E+02  0.7561462E-02  0.1356154E+00
         -2   -1    0    0    0  501 -0.00000000000E+00  0.00000000000E+00  0.31163190458E+03  0.31163190458E+03  0.00000000000E+00 0.  1.
          2   -1    0    0  501    0  0.00000000000E+00 -0.00000000000E+00 -0.45674988580E+02  0.45674988580E+02  0.00000000000E+00 0. -1.
         23    2    1    2    0    0 -0.44063045146E+02 -0.28712170556E+02  0.14536531749E+03  0.19885163545E+03  0.12507980135E+03 0.  0.
          5    1    3    3  502    0 -0.29825062854E+02 -0.20511638498E+02 -0.13667969554E+02  0.38917187460E+02  0.41800000000E+01 0. -1.
         -5    1    3    3    0  502 -0.14237982292E+02 -0.82005320579E+01  0.15903328705E+03  0.15993444799E+03  0.41800000000E+01 0. -1.
        -11    1    1    2    0    0 -0.91910248278E+01  0.34201028830E+02  0.12014509576E+02  0.37396975155E+02  0.00000000000E+00 0.  1.
         11    1    1    2    0    0  0.53254069974E+02 -0.54888582739E+01  0.10857708893E+03  0.12105828255E+03  0.00000000000E+00 0. -1.
</event>
<event>
 7    1  0.7017065E-006  0.8630696E+02  0.7561462E-02  0.1312050E+00
          3   -1    0    0  501    0  0.00000000000E+00  0.00000000000E+00  0.39630148169E+02  0.39630148169E+02  0.00000000000E+00 0. -1.
         -3   -1    0    0    0  501 -0.00000000000E+00 -0.00000000000E+00 -0.40880627881E+03  0.40880627881E+03  0.00000000000E+00 0.  1.
         23    2    1    2    0    0  0.18008707975E+02 -0.40109406366E+02 -0.28875881035E+03  0.31774401282E+03  0.12508608670E+03 0.  0.
          5    1    3    3  502    0  0.53639838503E+02  0.14816843343E+02 -0.70935474703E+02  0.90255665155E+02  0.41800000000E+01 0. -1.
         -5    1    3    3    0  502 -0.35631130528E+02 -0.54926249709E+02 -0.21782333565E+03  0.22748834766E+03  0.41800000000E+01 0. -1.
        -11    1    1    2    0    0 -0.24871812899E+02  0.29745065332E+02 -0.10013711329E+03  0.10738164390E+03  0.00000000000E+00 0.  1.
         11    1    1    2    0    0  0.68631049242E+01  0.10364341035E+02  0.19719792999E+02  0.23310770262E+02  0.00000000000E+00 0. -1.
</event>
<event>
 7    1  0.7017065E-006  0.1185829E+03  0.7561462E-02  0.1245453E+00
         -1   -1    0    0    0  501 -0.00000000000E+00  0.00000000000E+00  0.31435107833E+03  0.31435107833E+03  0.00000000000E+00 0.  1.
          1   -1    0    0  501    0  0.00000000000E+00 -0.00000000000E+00 -0.49974549414E+02  0.49974549414E+02  0.00000000000E+00 0. -1.
         23    2    1    2    0    0 -0.90535652325E+01  0.47677517758E+02  0.16889820178E+03  0.21570551767E+03  0.12508858879E+03 0.  0.
          5    1    3    3  502    0 -0.88283898915E+01 -0.39874138975E+02  0.27736612967E+02  0.49544722484E+02  0.41800000000E+01 0.  1.
         -5    1    3    3    0  502 -0.22517534102E+00  0.87551656734E+02  0.14116158881E+03  0.16616079519E+03  0.41800000000E+01 0.  1.
        -11    1    1    2    0    0 -0.11434596927E+02  0.27901793149E+02  0.79677508136E+01  0.31188862128E+02  0.00000000000E+00 0. -1.
         11    1    1    2    0    0  0.20488162159E+02 -0.75579310907E+02  0.87510576323E+02  0.11743124795E+03  0.00000000000E+00 0.  1.
</event>
<event>
 7    1  0.7017065E-006  0.1880739E+03  0.7561462E-02  0.1160210E+00
         -2   -1    0    0    0  501 -0.00000000000E+00  0.00000000000E+00  0.28944770130E+02  0.28944770130E+02  0.00000000000E+00 0.  1.
          2   -1    0    0  501    0  0.00000000000E+00 -0.00000000000E+00 -0.13427871037E+04  0.13427871037E+04  0.00000000000E+00 0. -1.
         23    2    1    2    0    0 -0.93247751302E+02  0.13125974331E+03 -0.73254680456E+03  0.76039244824E+03  0.12509033189E+03 0.  0.
          5    1    3    3  502    0 -0.61674620186E+02  0.99976406483E+01 -0.40236584809E+03  0.40720935611E+03  0.41800000000E+01 0. -1.
         -5    1    3    3    0  502 -0.31573131117E+02  0.12126210267E+03 -0.33018095647E+03  0.35318309213E+03  0.41800000000E+01 0. -1.
        -11    1    1    2    0    0 -0.14764022000E+02  0.37710239704E+01 -0.31479576009E+02  0.34973714031E+02  0.00000000000E+00 0.  1.
         11    1    1    2    0    0  0.10801177330E+03 -0.13503076728E+03 -0.54981595298E+03  0.57636571154E+03  0.00000000000E+00 0. -1.
</event>
<event>
 7    1  0.7017065E-006  0.3345778E+03  0.7561462E-02  0.1069129E+00
         -2   -1    0    0    0  501 -0.00000000000E+00  0.00000000000E+00  0.21984238976E+03  0.21984238976E+03  0.00000000000E+00 0.  1.
          2   -1    0    0  501    0  0.00000000000E+00 -0.00000000000E+00 -0.54395398732E+03  0.54395398732E+03  0.00000000000E+00 0. -1.
         23    2    1    2    0    0  0.18899957107E+03 -0.25841352612E+03 -0.14963688324E+03  0.37486816165E+03  0.12504620525E+03 0.  0.
          5    1    3    3  502    0  0.51028309749E+02 -0.52658185246E+00 -0.22547770339E+02  0.55946760688E+02  0.41800000000E+01 0.  1.
         -5    1    3    3    0  502  0.13797126132E+03 -0.25788694427E+03 -0.12708911290E+03  0.31892140096E+03  0.41800000000E+01 0.  1.
        -11    1    1    2    0    0 -0.95053740329E+02  0.17798758095E+03 -0.39032724335E+02  0.20551969758E+03  0.00000000000E+00 0. -1.
         11    1    1    2    0    0 -0.93945830739E+02  0.80425945169E+02 -0.13544198998E+03  0.18340851785E+03  0.00000000000E+00 0.  1.
</event>
<event>
 7    1  0.7017065E-006  0.1029723E+03  0.7561462E-02  0.1274167E+00
          2   -1    0    0  501    0  0.00000000000E+00  0.00000000000E+00  0.74775152097E+02  0.74775152097E+02  0.00000000000E+00 0. -1.
         -2   -1    0    0    0  501 -0.00000000000E+00 -0.00000000000E+00 -0.33143876750E+03  0.33143876750E+03  0.00000000000E+00 0.  1.
         23    2    1    2    0    0 -0.50900192320E+02  0.18713140866E+02 -0.26651612595E+03  0.29936930273E+03  0.12510045085E+03 0.  0.
          5    1    3    3  502    0 -0.67639997111E+02 -0.15948511111E+02 -0.68735267021E+02  0.97834214609E+02  0.41800000000E+01 0. -1.
         -5    1    3    3    0  502  0.16739804790E+02  0.34661651977E+02 -0.19778085893E+03  0.20153508812E+03  0.41800000000E+01 0. -1.
        -11    1    1    2    0    0  0.66054296785E+02  0.83586930843E+01 -0.13596552905E+02  0.67955162605E+02  0.00000000000E+00 0.  1.
         11    1    1    2    0    0 -0.15154104464E+02 -0.27071833950E+02  0.23449063461E+02  0.38889454261E+02  0.00000000000E+00 0. -1.
</event>
<event>
 7    1  0.7017065E-006  0.1304937E+03  0.7561462E-02  0.1226725E+00
          1   -1    0    0  501    0  0.00000000000E+00  0.00000000000E+00  0.30040687713E+03  0.30040687713E+03  0.00000000000E+00 0. -1.
         -1   -1    0    0    0  501 -0.00000000000E+00 -0.00000000000E+00 -0.67134883380E+02  0.67134883380E+02  0.00000000000E+00 0.  1.
         23    2    1    2    0    0 -0.20263845432E+02  0.82158860954E+02  0.84153595898E+02  0.17288385108E+03  0.12508515658E+03 0.  0.
          5    1    3    3  502    0  0.10236718298E+02  0.10785201396E+03  0.74776008901E+02  0.13170334553E+03  0.41800000000E+01 0.  1.
         -5    1    3    3    0  502 -0.30500563730E+02 -0.25693153008E+02  0.93775869973E+01  0.41180505549E+02  0.41800000000E+01 0.  1.
        -11    1    1    2    0    0 -0.21961024505E+02 -0.61817212796E+02  0.42428609744E+02  0.78127084420E+02  0.00000000000E+00 0.  1.
         11    1    1    2    0    0  0.42224869937E+02 -0.20341648159E+02  0.10668978811E+03  0.11653082501E+03  0.00000000000E+00 0. -1.
</event>
<event>
 7    1  0.7017065E-006  0.9969028E+02  0.7561462E-02  0.1280949E+00
         -1   -1    0    0    0  501 -0.00000000000E+00  0.00000000000E+00  0.48094552554E+03  0.48094552554E+03  0.00000000000E+00 0.  1.
          1   -1    0    0  501    0  0.00000000000E+00 -0.00000000000E+00 -0.39397788117E+02  0.39397788117E+02  0.00000000000E+00 0. -1.
         23    2    1    2    0    0 -0.48635918786E+02  0.42776730926E+02  0.35133123910E+03  0.37851732958E+03  0.12508568231E+03 0.  0.
          5    1    3    3  502    0 -0.54206602153E+02  0.97673417272E+00  0.32299466702E+03  0.32753982514E+03  0.41800000000E+01 0. -1.
         -5    1    3    3    0  502  0.55706833669E+01  0.41799996753E+02  0.28336572074E+02  0.50977504437E+02  0.41800000000E+01 0. -1.
        -11    1    1    2    0    0  0.66895592046E+02 -0.13685634007E+02  0.34823262839E+02  0.76648394948E+02  0.00000000000E+00 0. -1.
         11    1    1    2    0    0 -0.18259673260E+02 -0.29091096919E+02  0.55393235490E+02  0.65177589136E+02  0.00000000000E+00 0.  1.
</event>
<event>
 7    1  0.7017065E-006  0.1036197E+03  0.7561462E-02  0.1272863E+00
         -2   -1    0    0    0  501 -0.00000000000E+00  0.00000000000E+00  0.67170232470E+02  0.67170232470E+02  0.00000000000E+00 0.  1.
          2   -1    0    0  501    0  0.00000000000E+00 -0.00000000000E+00 -0.17881993754E+03  0.17881993754E+03  0.00000000000E+00 0. -1.
         23    2    1    2    0    0 -0.93076040135E+00  0.39321558426E+01 -0.40885165718E+02  0.13166393594E+03  0.12508983607E+03 0.  0.
          5    1    3    3  502    0  0.25641511031E+02  0.54640993008E+02  0.11550973507E+01  0.60513898030E+02  0.41800000000E+01 0.  1.
         -5    1    3    3    0  502 -0.26572271432E+02 -0.50708837166E+02 -0.42040263068E+02  0.71150037910E+02  0.41800000000E+01 0.  1.
        -11    1    1    2    0    0  0.41675091619E+02 -0.19120227186E+02 -0.30543625869E+02  0.55093642376E+02  0.00000000000E+00 0.  1.
         11    1    1    2    0    0 -0.40744331218E+02  0.15188071343E+02 -0.40220913488E+02  0.59232591699E+02  0.00000000000E+00 0. -1.
</event>
<event>
 7    1  0.7017065E-006  0.1751627E+03  0.7561462E-02  0.1172568E+00
          2   -1    0    0  501    0  0.00000000000E+00  0.00000000000E+00  0.30272405972E+03  0.30272405972E+03  0.00000000000E+00 0.  1.
         -2   -1    0    0    0  501 -0.00000000000E+00 -0.00000000000E+00 -0.13340872097E+03  0.13340872097E+03  0.00000000000E+00 0. -1.
         23    2    1    2    0    0 -0.97419104494E+02 -0.13241781845E+03  0.46924812777E+02  0.21183220401E+03  0.12508390798E+03 0.  0.
          5    1    3    3  502    0 -0.42499483126E+02 -0.49551553945E+02 -0.42535727857E+02  0.78027707314E+02  0.41800000000E+01 0.  1.
         -5    1    3    3    0  502 -0.54919621368E+02 -0.82866264507E+02  0.89460540635E+02  0.13380449669E+03  0.41800000000E+01 0.  1.
        -11    1    1    2    0    0  0.41299960219E+02  0.12138237402E+03  0.66936589310E+02  0.14463704375E+03  0.00000000000E+00 0.  1.
         11    1    1    2    0    0  0.56119144276E+02  0.11035444430E+02  0.55453936660E+02  0.79663532931E+02  0.00000000000E+00 0. -1.
</event>
<event>
 7    1  0.7017065E-006  0.7448918E+02  0.7561462E-02  0.1345460E+00
         -1   -1    0    0    0  501 -0.00000000000E+00  0.00000000000E+00  0.10170654899E+03  0.10170654899E+03  0.00000000000E+00 0.  1.
          1   -1    0    0  501    0  0.00000000000E+00 -0.00000000000E+00 -0.15771210089E+03  0.15771210089E+03  0.00000000000E+00 0. -1.
         23    2    1    2    0    0  0.33910015541E+02  0.24408705904E+02  0.19666648676E+02  0.13334130569E+03  0.12508977838E+03 0.  0.
          5    1    3    3  502    0  0.32097398876E+01  0.15175618281E+02 -0.52157919750E+02  0.54575844592E+02  0.41800000000E+01 0.  1.
         -5    1    3    3    0  502  0.30700275653E+02  0.92330876229E+01  0.71824568426E+02  0.78765461097E+02  0.41800000000E+01 0.  1.
        -11    1    1    2    0    0  0.16323742608E+02 -0.43795474178E+02 -0.30673946840E+02  0.55905269393E+02  0.00000000000E+00 0.  1.
         11    1    1    2    0    0 -0.50233758148E+02  0.19386768274E+02 -0.44998253737E+02  0.70172074797E+02  0.00000000000E+00 0. -1.
</event>
<event>
 7    1  0.7017065E-006  0.1139436E+03  0.7561462E-02  0.1253436E+00
          2   -1    0    0  501    0  0.00000000000E+00  0.00000000000E+00  0.13066430501E+03  0.13066430501E+03  0.00000000000E+00 0.  1.
         -2   -1    0    0    0  501 -0.00000000000E+00 -0.00000000000E+00 -0.14397088559E+03  0.14397088559E+03  0.00000000000E+00 0. -1.
         23    2    1    2    0    0 -0.78992502424E+02 -0.99064367612E+01 -0.38658616180E+02  0.15323191917E+03  0.12509028547E+03 0.  0.
          5    1    3    3  502    0 -0.97917238714E+02 -0.45260465651E+02 -0.28692762797E+02  0.11170068230E+03  0.41800000000E+01 0.  1.
         -5    1    3    3    0  502  0.18924736290E+02  0.35354028890E+02 -0.99658533830E+01  0.41531236871E+02  0.41800000000E+01 0.  1.
        -11    1    1    2    0    0  0.63249816480E+02  0.75518556943E+01  0.57319588671E+02  0.85691919424E+02  0.00000000000E+00 0.  1.
         11    1    1    2    0    0  0.15742685944E+02  0.23545810670E+01 -0.31967553076E+02  0.35711352010E+02  0.00000000000E+00 0. -1.
</event>
<event>
 7    1  0.7017065E-006  0.9515066E+02  0.7561462E-02  0.1290837E+00
          2   -1    0    0  501    0  0.00000000000E+00  0.00000000000E+00  0.68840112203E+03  0.68840112203E+03  0.00000000000E+00 0. -1.
         -2   -1    0    0    0  501 -0.00000000000E+00 -0.00000000000E+00 -0.18679654376E+02  0.18679654376E+02  0.00000000000E+00 0.  1.
         23    2    1    2    0    0  0.41955771676E+02  0.28713716002E+02  0.36543601005E+03  0.38556681679E+03  0.11195324249E+03 0.  0.
          5    1    3    3  502    0 -0.15945474374E+02  0.27947229559E+02  0.28234063099E+03  0.28419889180E+03  0.41800000000E+01 0. -1.
         -5    1    3    3    0  502  0.57901246050E+02  0.76648644346E+00  0.83095379064E+02  0.10136792499E+03  0.41800000000E+01 0.  1.
        -11    1    1    2    0    0  0.25341771706E+02 -0.19280198213E+02  0.59668740862E+02  0.67633498153E+02  0.00000000000E+00 0.  1.
         11    1    1    2    0    0 -0.67297543382E+02 -0.94335177897E+01  0.24461671674E+03  0.25388046146E+03  0.00000000000E+00 0. -1.
</event>
<event>
 7    1  0.7017065E-006  0.1001038E+03  0.7561462E-02  0.1280078E+00
          2   -1    0    0  501    0  0.00000000000E+00  0.00000000000E+00  0.84370383483E+02  0.84370383483E+02  0.00000000000E+00 0. -1.
         -2   -1    0    0    0  501 -0.00000000000E+00 -0.00000000000E+00 -0.21012416755E+03  0.21012416755E+03  0.00000000000E+00 0.  1.
         23    2    1    2    0    0 -0.12673343535E+01 -0.61663575373E+02 -0.12461285593E+03  0.18703245351E+03  0.12509505242E+03 0.  0.
          5    1    3    3  502    0 -0.39657650003E+02 -0.94361094277E+01  0.57538727288E+01  0.41380536684E+02  0.41800000000E+01 0. -1.
         -5    1    3    3    0  502  0.38390315649E+02 -0.52227465945E+02 -0.13036672866E+03  0.14565191683E+03  0.41800000000E+01 0. -1.
        -11    1    1    2    0    0 -0.27773901394E+02  0.58878973497E+02 -0.25038071942E+02  0.69749753873E+02  0.00000000000E+00 0.  1.
         11    1    1    2    0    0  0.29041235748E+02  0.27846018751E+01  0.23897143804E+02  0.37712343647E+02  0.00000000000E+00 0. -1.
</event>
<event>
 7    1  0.7017065E-006  0.2411545E+03  0.7561462E-02  0.1119026E+00
          1   -1    0    0  501    0  0.00000000000E+00  0.00000000000E+00  0.58780671555E+03  0.58780671555E+03  0.00000000000E+00 0. -1.
         -1   -1    0    0    0  501 -0.00000000000E+00 -0.00000000000E+00 -0.11612763549E+03  0.11612763549E+03  0.00000000000E+00 0.  1.
         23    2    1    2    0    0  0.13531506315E+03  0.18461286740E+03  0.15940594339E+03  0.30569840609E+03  0.12509669690E+03 0.  0.
          5    1    3    3  502    0 -0.40951378902E+01  0.11389498808E+02 -0.17388170253E+02  0.21594251601E+02  0.41800000000E+01 0.  1.
         -5    1    3    3    0  502  0.13941020104E+03  0.17322336859E+03  0.17679411365E+03  0.28410415449E+03  0.41800000000E+01 0.  1.
        -11    1    1    2    0    0 -0.84444825399E+02 -0.17641458596E+03  0.24956864804E+03  0.31707655978E+03  0.00000000000E+00 0. -1.
         11    1    1    2    0    0 -0.50870237752E+02 -0.81982814320E+01  0.62704488626E+02  0.81159385171E+02  0.00000000000E+00 0.  1.
</event>
<event>
 7    1  0.7017065E-006  0.1854678E+03  0.7561462E-02  0.1162614E+00
         -4   -1    0    0    0  501 -0.00000000000E+00  0.00000000000E+00  0.51435563261E+03  0.51435563261E+03  0.00000000000E+00 0.  1.
          4   -1    0    0  501    0  0.00000000000E+00 -0.00000000000E+00 -0.83076340981E+02  0.83076340981E+02  0.00000000000E+00 0. -1.
         23    2    1    2    0    0  0.59881491344E+02 -0.15171840980E+03  0.32411984812E+03  0.38380330571E+03  0.12508809955E+03 0.  0.
          5    1    3    3  502    0 -0.10592982096E+02  0.63295228505E+01 -0.33022320649E+01  0.13440657194E+02  0.41800000000E+01 0. -1.
         -5    1    3    3    0  502  0.70474473440E+02 -0.15804793265E+03  0.32742208018E+03  0.37036264851E+03  0.41800000000E+01 0. -1.
        -11    1    1    2    0    0 -0.79113237282E+02  0.88391896937E+02  0.68633091906E+02  0.13704938184E+03  0.00000000000E+00 0.  1.
         11    1    1    2    0    0  0.19231745938E+02  0.63326512866E+02  0.38526351608E+02  0.76579286049E+02  0.00000000000E+00 0. -1.
</event>
<event>
 7    1  0.7017065E-006  0.1253422E+03  0.7561462E-02  0.1234535E+00
          2   -1    0    0  501    0  0.00000000000E+00  0.00000000000E+00  0.49372421665E+03  0.49372421665E+03  0.00000000000E+00 0. -1.
         -2   -1    0    0    0  501 -0.00000000000E+00 -0.00000000000E+00 -0.39274065042E+02  0.39274065042E+02  0.00000000000E+00 0.  1.
         23    2    1    2    0    0 -0.80252954458E+02 -0.20523568481E+02  0.19692138623E+03  0.24756147840E+03  0.12508756801E+03 0.  0.
          5    1    3    3  502    0  0.20176442920E+02 -0.22259886493E+02  0.47766682231E+01  0.30706356914E+02  0.41800000000E+01 0. -1.
         -5    1    3    3    0  502 -0.10042939738E+03  0.17363180118E+01  0.19214471801E+03  0.21685512149E+03  0.41800000000E+01 0. -1.
        -11    1    1    2    0    0  0.39148989046E+02  0.54076992977E+02  0.11020390610E+03  0.12884822634E+03  0.00000000000E+00 0.  1.
         11    1    1    2    0    0  0.41103965412E+02 -0.33553424495E+02  0.14732485928E+03  0.15658857695E+03  0.00000000000E+00 0. -1.
</event>
<event>
 7    1  0.7017065E-006  0.1772242E+03  0.7561462E-02  0.1170517E+00
          2   -1    0    0  501    0  0.00000000000E+00  0.00000000000E+00  0.63707123712E+03  0.63707123712E+03  0.00000000000E+00 0.  1.
         -2   -1    0    0    0  501 -0.00000000000E+00 -0.00000000000E+00 -0.73798120950E+02  0.73798120950E+02  0.00000000000E+00 0. -1.
         23    2    1    2    0    0  0.67725128110E+02 -0.15100019661E+03  0.12893933066E+03  0.24425525454E+03  0.12509007165E+03 0.  0.
          5    1    3    3  502    0  0.83759879182E+02 -0.87890194076E+02  0.28990083367E+02  0.12489315798E+03  0.41800000000E+01 0.  1.
         -5    1    3    3    0  502 -0.16034751072E+02 -0.63110002536E+02  0.99949247297E+02  0.11936209657E+03  0.41800000000E+01 0.  1.
        -11    1    1    2    0    0 -0.75100695941E+01  0.46559206098E+02  0.87109884663E+02  0.99057018044E+02  0.00000000000E+00 0. -1.
         11    1    1    2    0    0 -0.60215058516E+02  0.10444099051E+03  0.34722390085E+03  0.36755708549E+03  0.00000000000E+00 0.  1.
</event>
<event>
 7    1  0.7017065E-006  0.9976722E+02  0.7561462E-02  0.1280786E+00
         -1   -1    0    0    0  501 -0.00000000000E+00  0.00000000000E+00  0.45804316473E+02  0.45804316473E+02  0.00000000000E+00 0.  1.
          1   -1    0    0  501    0  0.00000000000E+00 -0.00000000000E+00 -0.27182407539E+03  0.27182407539E+03  0.00000000000E+00 0. -1.
         23    2    1    2    0    0 -0.69863456514E+01 -0.18203566415E+02 -0.77571442778E+02  0.14444113165E+03  0.12027357532E+03 0.  0.
          5    1    3    3  502    0 -0.30902653458E+02 -0.58435496905E+02 -0.70822284346E+02  0.96968807609E+02  0.41800000000E+01 0. -1.
         -5    1    3    3    0  502  0.23916307807E+02  0.40231930490E+02 -0.67491584327E+01  0.47472324038E+02  0.41800000000E+01 0.  1.
        -11    1    1    2    0    0  0.15782798171E+02 -0.31819213438E+02 -0.83479620018E+02  0.90721585195E+02  0.00000000000E+00 0. -1.
         11    1    1    2    0    0 -0.87964525194E+01  0.50022779853E+02 -0.64968696124E+02  0.82465675024E+02  0.00000000000E+00 0.  1.
</event>
<event>
 7    1  0.7017065E-006  0.7068390E+02  0.7561462E-02  0.1357783E+00
          1   -1    0    0  501    0  0.00000000000E+00  0.00000000000E+00  0.11074732996E+03  0.11074732996E+03  0.00000000000E+00 0. -1.
         -1   -1    0    0    0  501 -0.00000000000E+00 -0.00000000000E+00 -0.11532318712E+03  0.11532318712E+03  0.00000000000E+00 0.  1.
         23    2    1    2    0    0 -0.20710046361E+01  0.29577792503E+02 -0.24140198785E+02  0.13080249356E+03  0.12508960091E+03 0.  0.
          5    1    3    3  502    0 -0.20539408588E+02  0.32462089995E+02  0.44851560241E+02  0.59201262216E+02  0.41800000000E+01 0. -1.
         -5    1    3    3    0  502  0.18468403952E+02 -0.28842974912E+01 -0.68991759026E+02  0.71601231344E+02  0.41800000000E+01 0. -1.
        -11    1    1    2    0    0  0.35668533271E+02 -0.34491848138E+02 -0.95637528674E+01  0.50531151012E+02  0.00000000000E+00 0.  1.
         11    1    1    2    0    0 -0.33597528635E+02  0.49140556351E+01  0.29128094493E+02  0.44736872510E+02  0.00000000000E+00 0. -1.
</event>
<event>
 7    1  0.7017065E-006  0.1240921E+03  0.7561462E-02  0.1236495E+00
         -1   -1    0    0    0  501 -0.00000000000E+00  0.00000000000E+00  0.67708674897E+02  0.67708674897E+02  0.00000000000E+00 0.  1.
          1   -1    0    0  501    0  0.00000000000E+00 -0.00000000000E+00 -0.46592375263E+03  0.46592375263E+03  0.00000000000E+00 0. -1.
         23    2    1    2    0    0  0.72563570293E+02  0.80741230647E+02 -0.76919379349E+02  0.18261470569E+03  0.12508765628E+03 0.  0.
          5    1    3    3  502    0  0.47954323668E+02  0.47783986335E+02  0.25268543194E+02  0.72380233377E+02  0.41800000000E+01 0. -1.
         -5    1    3    3    0  502  0.24609246625E+02  0.32957244312E+02 -0.10218792254E+03  0.11023447231E+03  0.41800000000E+01 0. -1.
        -11    1    1    2    0    0  0.20152547622E+02 -0.18397067102E+02 -0.40745966619E+02  0.49038872838E+02  0.00000000000E+00 0. -1.
         11    1    1    2    0    0 -0.92716117915E+02 -0.62344163546E+02 -0.28054973177E+03  0.30197884900E+03  0.00000000000E+00 0.  1.
</event>
<event>
 7    1  0.7017065E-006  0.1435512E+03  0.7561462E-02  0.1208629E+00
          1   -1    0    0  501    0  0.00000000000E+00  0.00000000000E+00  0.14190863005E+03  0.14190863005E+03  0.00000000000E+00 0. -1.
         -1   -1    0    0    0  501 -0.00000000000E+00 -0.00000000000E+00 -0.16518805406E+03  0.16518805406E+03  0.00000000000E+00 0.  1.
         23    2    1    2    0    0 -0.73113219706E+02  0.75264304967E+02 -0.41337779182E+02  0.16844324026E+03  0.12511616484E+03 0.  0.
          5    1    3    3  502    0 -0.97523851559E+02  0.80058942769E+02 -0.57248507266E+02  0.13861890176E+03  0.41800000000E+01 0.  1.
         -5    1    3    3    0  502  0.24410631853E+02 -0.47946378020E+01  0.15910728083E+02  0.29824338505E+02  0.41800000000E+01 0.  1.
        -11    1    1    2    0    0  0.49868924947E+02 -0.93579966887E+02  0.45848837701E+01  0.10613736871E+03  0.00000000000E+00 0.  1.
         11    1    1    2    0    0  0.23244294759E+02  0.18315661920E+02  0.13473471402E+02  0.32516075132E+02  0.00000000000E+00 0. -1.
</event>
<event>
 7    1  0.7017065E-006  0.1053839E+03  0.7561462E-02  0.1269365E+00
         -1   -1    0    0    0  501 -0.00000000000E+00  0.00000000000E+00  0.11802065231E+03  0.11802065231E+03  0.00000000000E+00 0.  1.
          1   -1    0    0  501    0  0.00000000000E+00 -0.00000000000E+00 -0.16743166284E+03  0.16743166284E+03  0.00000000000E+00 0. -1.
         23    2    1    2    0    0 -0.20496630909E+02  0.82470886526E+02 -0.33422424815E+02  0.15487506540E+03  0.12509064073E+03 0.  0.
          5    1    3    3  502    0  0.33910918289E+02  0.12904815684E+02 -0.52955107983E+02  0.64328846628E+02  0.41800000000E+01 0. -1.
         -5    1    3    3    0  502 -0.54407549198E+02  0.69566070841E+02  0.19532683168E+02  0.90546218771E+02  0.41800000000E+01 0. -1.
        -11    1    1    2    0    0  0.14987432390E+02 -0.35455457106E+02 -0.56435885681E+02  0.68313408354E+02  0.00000000000E+00 0. -1.
         11    1    1    2    0    0  0.55091985186E+01 -0.47015429420E+02  0.40447299962E+02  0.62263841402E+02  0.00000000000E+00 0.  1.
</event>
<event>
 7    1  0.7017065E-006  0.1230237E+03  0.7561462E-02  0.1238191E+00
          1   -1    0    0  501    0  0.00000000000E+00  0.00000000000E+00  0.26730330654E+02  0.26730330654E+02  0.00000000000E+00 0. -1.
         -1   -1    0    0    0  501 -0.00000000000E+00 -0.00000000000E+00 -0.66912841311E+03  0.66912841311E+03  0.00000000000E+00 0.  1.
         23    2    1    2    0    0 -0.61994658924E+02  0.21267027690E+02 -0.46950313569E+03  0.49028247265E+03  0.12509230335E+03 0.  0.
          5    1    3    3  502    0  0.35351021331E+02  0.12009478905E+02 -0.20137394501E+03  0.20484838399E+03  0.41800000000E+01 0. -1.
         -5    1    3    3    0  502 -0.97345680255E+02  0.92575487845E+01 -0.26812919068E+03  0.28543408866E+03  0.41800000000E+01 0. -1.
        -11    1    1    2    0    0  0.15017848684E+02  0.34536606244E+02 -0.48968628019E+02  0.61775719178E+02  0.00000000000E+00 0. -1.
         11    1    1    2    0    0  0.46976810240E+02 -0.55803633933E+02 -0.12392631874E+03  0.14380055194E+03  0.00000000000E+00 0.  1.
</event>
<event>
 7    1  0.7017065E-006  0.1107726E+03  0.7561462E-02  0.1259146E+00
          1   -1    0    0  501    0  0.00000000000E+00  0.00000000000E+00  0.70797270452E+03  0.70797270452E+03  0.00000000000E+00 0. -1.
         -1   -1    0    0    0  501 -0.00000000000E+00 -0.00000000000E+00 -0.19339424949E+02  0.19339424949E+02  0.00000000000E+00 0.  1.
         23    2    1    2    0    0 -0.41064929210E+02 -0.10766096267E+02  0.43462589816E+03  0.45425710443E+03  0.12509040066E+03 0.  0.
          5    1    3    3  502    0  0.38147794109E+02 -0.25141589395E+02  0.22574484422E+03  0.23035963363E+03  0.41800000000E+01 0. -1.
         -5    1    3    3    0  502 -0.79212723319E+02  0.14375493127E+02  0.20888105393E+03  0.22389747080E+03  0.41800000000E+01 0. -1.
        -11    1    1    2    0    0 -0.13769416949E+02 -0.25729889279E+02  0.12307490015E+03  0.12648737127E+03  0.00000000000E+00 0.  1.
         11    1    1    2    0    0  0.54834346159E+02  0.36495985546E+02  0.13093248127E+03  0.14656765377E+03  0.00000000000E+00 0. -1.
</event>
<event>
 7    1  0.7017065E-006  0.1374968E+03  0.7561462E-02  0.1216737E+00
          2   -1    0    0  501    0  0.00000000000E+00  0.00000000000E+00  0.24462595026E+03  0.24462595026E+03  0.00000000000E+00 0. -1.
         -2   -1    0    0    0  501 -0.00000000000E+00 -0.00000000000E+00 -0.99561462056E+02  0.99561462056E+02  0.00000000000E+00 0.  1.
         23    2    1    2    0    0  0.97502519818E+02 -0.56967549166E+02  0.54122162876E+02  0.17138388193E+03  0.11700933058E+03 0.  0.
          5    1    3    3  502    0  0.65727708548E+02 -0.70707952016E+02  0.82005548582E+02  0.12673645311E+03  0.41800000000E+01 0. -1.
         -5    1    3    3    0  502  0.31774811270E+02  0.13740402850E+02 -0.27883385706E+02  0.44647428819E+02  0.41800000000E+01 0.  1.
        -11    1    1    2    0    0 -0.13704547425E+02  0.58094377540E+02  0.19841396261E+02  0.62900336465E+02  0.00000000000E+00 0.  1.
         11    1    1    2    0    0 -0.83797972393E+02 -0.11268283734E+01  0.71100929069E+02  0.10990319392E+03  0.00000000000E+00 0. -1.
</event>
<event>
 7    1  0.7017065E-006  0.1360664E+03  0.7561462E-02  0.1218722E+00
          2   -1    0    0  501    0  0.00000000000E+00  0.00000000000E+00  0.45283402569E+03  0.45283402569E+03  0.00000000000E+00 0. -1.
         -2   -1    0    0    0  501 -0.00000000000E+00 -0.00000000000E+00 -0.59374962136E+02  0.59374962136E+02  0.00000000000E+00 0.  1.
         23    2    1    2    0    0  0.84710903278E+01 -0.91967542527E+02  0.85275635835E+02  0.17733805326E+03  0.12508822014E+03 0.  0.
          5    1    3    3  502    0  0.42664590926E+02 -0.10795466198E+03  0.53783663101E+02  0.12800246551E+03  0.41800000000E+01 0. -1.
         -5    1    3    3    0  502 -0.34193500598E+02  0.15987119449E+02  0.31491972734E+02  0.49335587745E+02  0.41800000000E+01 0. -1.
        -11    1    1    2    0    0 -0.40741892306E+02  0.60409294176E+02  0.11239576102E+03  0.13394772005E+03  0.00000000000E+00 0.  1.
         11    1    1    2    0    0  0.32270801979E+02  0.31558248351E+02  0.19578766670E+03  0.20092321452E+03  0.00000000000E+00 0. -1.
</event>
<event>
 7    1  0.7017065E-006  0.1052138E+03  0.7561462E-02  0.1269699E+00
          3   -1    0    0  501    0  0.00000000000E+00  0.00000000000E+00  0.11686111070E+03  0.11686111070E+03  0.00000000000E+00 0. -1.
         -3   -1    0    0    0  501 -0.00000000000E+00 -0.00000000000E+00 -0.11686007757E+03  0.11686007757E+03  0.00000000000E+00 0.  1.
         23    2    1    2    0    0  0.24283454060E+02 -0.27212449856E+02 -0.41964472960E+02  0.12791405360E+03  0.11519889127E+03 0.  0.
          5    1    3    3  502    0  0.23692622363E+02  0.42782580857E+02 -0.70712467411E+01  0.49589963801E+02  0.41800000000E+01 0. -1.
         -5    1    3    3    0  502  0.59083169690E+00 -0.69995030714E+02 -0.34893226219E+02  0.78324089798E+02  0.41800000000E+01 0.  1.
        -11    1    1    2    0    0 -0.38789574853E+02  0.50565869629E+02  0.45190967171E+02  0.78126575520E+02  0.00000000000E+00 0. -1.
         11    1    1    2    0    0  0.14506120793E+02 -0.23353419773E+02 -0.32254610858E+01  0.27680559148E+02  0.00000000000E+00 0.  1.
</event>
<event>
 7    1  0.7017065E-006  0.5338533E+02  0.7561462E-02  0.1427893E+00
          4   -1    0    0  501    0  0.00000000000E+00  0.00000000000E+00  0.17940995577E+03  0.17940995577E+03  0.00000000000E+00 0. -1.
         -4   -1    0    0    0  501 -0.00000000000E+00 -0.00000000000E+00 -0.68126845673E+02  0.68126845673E+02  0.00000000000E+00 0.  1.
         23    2    1    2    0    0 -0.86317649860E+01 -0.15170268209E+02  0.47276106130E+02  0.13486874473E+03  0.12509957510E+03 0.  0.
          5    1    3    3  502    0 -0.24055223089E+02 -0.11414532529E+02  0.87429498213E+02  0.91489534202E+02  0.41800000000E+01 0. -1.
         -5    1    3    3    0  502  0.15423458103E+02 -0.37557356798E+01 -0.40153392083E+02  0.43379210530E+02  0.41800000000E+01 0. -1.
        -11    1    1    2    0    0  0.32485492452E+02 -0.40934083034E+01 -0.85997418428E+01  0.33852899007E+02  0.00000000000E+00 0.  1.
         11    1    1    2    0    0 -0.23853727466E+02  0.19263676513E+02  0.72606745809E+02  0.78815157703E+02  0.00000000000E+00 0. -1.
</event>
<event>
 7    1  0.7017065E-006  0.9636839E+02  0.7561462E-02  0.1288124E+00
          1   -1    0    0  501    0  0.00000000000E+00  0.00000000000E+00  0.39908491140E+02  0.39908491140E+02  0.00000000000E+00 0. -1.
         -1   -1    0    0    0  501 -0.00000000000E+00 -0.00000000000E+00 -0.31855810949E+03  0.31855810949E+03  0.00000000000E+00 0.  1.
         23    2    1    2    0    0 -0.24318442569E+02  0.25549255250E+02 -0.18975342839E+03  0.22999576805E+03  0.12509012208E+03 0.  0.
          5    1    3    3  502    0  0.37548507434E+02  0.38606572018E+01 -0.10976482251E+02  0.39531641089E+02  0.41800000000E+01 0. -1.
         -5    1    3    3    0  502 -0.61866950003E+02  0.21688598048E+02 -0.17877694614E+03  0.19046412696E+03  0.41800000000E+01 0. -1.
        -11    1    1    2    0    0 -0.29682778958E+02 -0.17535124422E+02 -0.52678364891E+02  0.62956795366E+02  0.00000000000E+00 0.  1.
         11    1    1    2    0    0  0.54001221527E+02 -0.80141308273E+01 -0.36217825067E+02  0.65514037213E+02  0.00000000000E+00 0. -1.
</event>
<event>
 7    1  0.7017065E-006  0.1757506E+03  0.7561462E-02  0.1171980E+00
          2   -1    0    0  501    0  0.00000000000E+00  0.00000000000E+00  0.23569123365E+03  0.23569123365E+03  0.00000000000E+00 0. -1.
         -2   -1    0    0    0  501 -0.00000000000E+00 -0.00000000000E+00 -0.15112692312E+03  0.15112692312E+03  0.00000000000E+00 0.  1.
         23    2    1    2    0    0  0.12053005361E+03  0.80686842044E+02 -0.83871036456E+01  0.19171856838E+03  0.12509118934E+03 0.  0.
          5    1    3    3  502    0  0.87734666169E+02 -0.16061532077E+02 -0.33554750142E+01  0.89353657301E+02  0.41800000000E+01 0. -1.
         -5    1    3    3    0  502  0.32795387444E+02  0.96748374121E+02 -0.50316286314E+01  0.10236491108E+03  0.41800000000E+01 0. -1.
        -11    1    1    2    0    0 -0.60099989676E+02 -0.79328569110E+02  0.90635522344E+02  0.13460991251E+03  0.00000000000E+00 0.  1.
         11    1    1    2    0    0 -0.60430063938E+02 -0.13582729343E+01  0.23158918295E+01  0.60489675878E+02  0.00000000000E+00 0. -1.
</event>
<event>
 7    1  0.7017065E-006  0.2936393E+03  0.7561462E-02  0.1088464E+00
         -1   -1    0    0    0  501 -0.00000000000E+00  0.00000000000E+00  0.35106324615E+02  0.35106324615E+02  0.00000000000E+00 0.  1.
          1   -1    0    0  501    0  0.00000000000E+00 -0.00000000000E+00 -0.25651194811E+04  0.25651194811E+04  0.00000000000E+00 0. -1.
         23    2    1    2    0    0 -0.21673665747E+03 -0.17516524514E+03 -0.12128651416E+04  0.12507382179E+04  0.12508635411E+03 0.  0.
          5    1    3    3  502    0 -0.82339680159E+02 -0.17689191502E+01 -0.25249131540E+03  0.26561680812E+03  0.41800000000E+01 0. -1.
         -5    1    3    3    0  502 -0.13439697731E+03 -0.17339632599E+03 -0.96037382624E+03  0.98512140973E+03  0.41800000000E+01 0. -1.
        -11    1    1    2    0    0  0.14269724033E+03  0.76117668804E+02 -0.89921545530E+03  0.91364371445E+03  0.00000000000E+00 0. -1.
         11    1    1    2    0    0  0.74039417133E+02  0.99047576333E+02 -0.41793255949E+03  0.43584387336E+03  0.00000000000E+00 0.  1.
</event>
<event>
 7    1  0.7017065E-006  0.1204798E+03  0.7561462E-02  0.1242308E+00
         -2   -1    0    0    0  501 -0.00000000000E+00  0.00000000000E+00  0.55458864070E+02  0.55458864070E+02  0.00000000000E+00 0.  1.
          2   -1    0    0  501    0  0.00000000000E+00 -0.00000000000E+00 -0.32860732639E+03  0.32860732639E+03  0.00000000000E+00 0. -1.
         23    2    1    2    0    0  0.64427220429E+02  0.85104197253E+01 -0.84429930693E+02  0.16431528120E+03  0.12509118459E+03 0.  0.
          5    1    3    3  502    0  0.38959764723E+02 -0.52917548225E+02 -0.70076007460E+02  0.96157419886E+02  0.41800000000E+01 0.  1.
         -5    1    3    3    0  502  0.25467455706E+02  0.61427967950E+02 -0.14353923233E+02  0.68157861313E+02  0.41800000000E+01 0.  1.
        -11    1    1    2    0    0  0.10261841052E+02 -0.29226972305E+02 -0.83540830387E+02  0.89098774591E+02  0.00000000000E+00 0. -1.
         11    1    1    2    0    0 -0.74689061481E+02  0.20716552580E+02 -0.10517770124E+03  0.13065213467E+03  0.00000000000E+00 0.  1.
</event>
<event>
 7    1  0.7017065E-006  0.1076018E+03  0.7561462E-02  0.1265077E+00
          2   -1    0    0  501    0  0.00000000000E+00  0.00000000000E+00  0.28921890164E+03  0.28921890164E+03  0.00000000000E+00 0. -1.
         -2   -1    0    0    0  501 -0.00000000000E+00 -0.00000000000E+00 -0.65692246630E+02  0.65692246630E+02  0.00000000000E+00 0.  1.
         23    2    1    2    0    0 -0.66179621440E+02 -0.39479976014E+02  0.78012162281E+02  0.16634807362E+03  0.12508946132E+03 0.  0.
          5    1    3    3  502    0  0.16544996183E+02  0.26100818921E+02  0.46703723643E+02  0.56157812004E+02  0.41800000000E+01 0. -1.
         -5    1    3    3    0  502 -0.82724617623E+02 -0.65580794935E+02  0.31308438638E+02  0.11019026162E+03  0.41800000000E+01 0. -1.
        -11    1    1    2    0    0  0.31743585487E+02  0.27223110688E+02  0.35500805982E+01  0.41968512570E+02  0.00000000000E+00 0.  1.
         11    1    1    2    0    0  0.34436035953E+02  0.12256865327E+02  0.14196441213E+03  0.14659456208E+03  0.00000000000E+00 0. -1.
</event>
<event>
 7    1  0.7017065E-006  0.1688906E+03  0.7561462E-02  0.1179010E+00
          4   -1    0    0  501    0  0.00000000000E+00  0.00000000000E+00  0.72301873277E+03  0.72301873277E+03  0.00000000000E+00 0. -1.
         -4   -1    0    0    0  501 -0.00000000000E+00 -0.00000000000E+00 -0.49113829514E+02  0.49113829514E+02  0.00000000000E+00 0.  1.
         23    2    1    2    0    0 -0.11288764791E+03 -0.10173637145E+03  0.30303163645E+03  0.36134373141E+03  0.12508880534E+03 0.  0.
          5    1    3    3  502    0 -0.30753769768E+02 -0.65624318024E+02  0.24224561986E+03  0.25288882580E+03  0.41800000000E+01 0. -1.
         -5    1    3    3    0  502 -0.82133878138E+02 -0.36112053421E+02  0.60786016586E+02  0.10845490562E+03  0.41800000000E+01 0. -1.
        -11    1    1    2    0    0  0.45754947882E+02 -0.82692656299E+01  0.77844421075E+02  0.90673314168E+02  0.00000000000E+00 0. -1.
         11    1    1    2    0    0  0.67132700024E+02  0.11000563707E+03  0.29302884574E+03  0.32011551670E+03  0.00000000000E+00 0.  1.
</event>
<event>
 7    1  0.7017065E-006  0.1001690E+03  0.7561462E-02  0.1279941E+00
         -1   -1    0    0    0  501 -0.00000000000E+00  0.00000000000E+00  0.10899620038E+03  0.10899620038E+03  0.00000000000E+00 0.  1.
          1   -1    0    0  501    0  0.00000000000E+00 -0.00000000000E+00 -0.16089234993E+03  0.16089234993E+03  0.00000000000E+00 0. -1.
         23    2    1    2    0    0  0.68636024908E+02  0.14976784258E+01  0.43235587887E+01  0.14275142778E+03  0.12508449151E+03 0.  0.
          5    1    3    3  502    0  0.26988067643E+02 -0.54716660137E+02 -0.25918089586E+02  0.66419036876E+02  0.41800000000E+01 0. -1.
         -5    1    3    3    0  502  0.41647957266E+02  0.56214338563E+02  0.30241648375E+02  0.76332390903E+02  0.41800000000E+01 0. -1.
        -11    1    1    2    0    0 -0.53557355820E+02 -0.44192247512E+01  0.13775268487E+02  0.55476823374E+02  0.00000000000E+00 0.  1.
         11    1    1    2    0    0 -0.15078669089E+02  0.29215463253E+01 -0.69994976827E+02  0.71660299158E+02  0.00000000000E+00 0. -1.
</event>
<event>
 7    1  0.7017065E-006  0.8483007E+02  0.7561462E-02  0.1315878E+00
          1   -1    0    0  501    0  0.00000000000E+00  0.00000000000E+00  0.22702376745E+03  0.22702376745E+03  0.00000000000E+00 0. -1.
         -1   -1    0    0    0  501 -0.00000000000E+00 -0.00000000000E+00 -0.65287681190E+02  0.65287681190E+02  0.00000000000E+00 0.  1.
         23    2    1    2    0    0 -0.11117628621E+02  0.29312254426E+02  0.35480690973E+02  0.13376126882E+03  0.12510150950E+03 0.  0.
          5    1    3    3  502    0 -0.39387047678E+02  0.62693952226E+02  0.47671899112E+02  0.88158683834E+02  0.41800000000E+01 0. -1.
         -5    1    3    3    0  502  0.28269419057E+02 -0.33381697800E+02 -0.12191208139E+02  0.45602584989E+02  0.41800000000E+01 0. -1.
        -11    1    1    2    0    0 -0.15513624477E+02 -0.80257869632E+01 -0.85878527461E+01  0.19463735910E+02  0.00000000000E+00 0.  1.
         11    1    1    2    0    0  0.26631253098E+02 -0.21286467463E+02  0.13484324804E+03  0.13908644391E+03  0.00000000000E+00 0. -1.
</event>
<event>
 7    1  0.7017065E-006  0.1254349E+03  0.7561462E-02  0.1234391E+00
         -2   -1    0    0    0  501 -0.00000000000E+00  0.00000000000E+00  0.43879238905E+02  0.43879238905E+02  0.00000000000E+00 0.  1.
          2   -1    0    0  501    0  0.00000000000E+00 -0.00000000000E+00 -0.40888770107E+03  0.40888770107E+03  0.00000000000E+00 0. -1.
         23    2    1    2    0    0 -0.65316643901E+02  0.42308181623E+02 -0.19307982998E+03  0.24286269618E+03  0.12508486019E+03 0.  0.
          5    1    3    3  502    0  0.80911018716E+00 -0.39426487674E+02 -0.74017971461E+02  0.83971632643E+02  0.41800000000E+01 0.  1.
         -5    1    3    3    0  502 -0.66125754088E+02  0.81734669297E+02 -0.11906185852E+03  0.15889106354E+03  0.41800000000E+01 0.  1.
        -11    1    1    2    0    0  0.74501058835E+02 -0.53351130895E+02 -0.96324890272E+02  0.13294824339E+03  0.00000000000E+00 0.  1.
         11    1    1    2    0    0 -0.91844149338E+01  0.11042949271E+02 -0.75603741908E+02  0.76956000395E+02  0.00000000000E+00 0. -1.
</event>
<event>
 7    1  0.7017065E-006  0.2087426E+03  0.7561462E-02  0.1142566E+00
          1   -1    0    0  501    0  0.00000000000E+00  0.00000000000E+00  0.85025887020E+03  0.85025887020E+03  0.00000000000E+00 0. -1.
         -1   -1    0    0    0  501 -0.00000000000E+00 -0.00000000000E+00 -0.57502259793E+02  0.57502259793E+02  0.00000000000E+00 0.  1.
         23    2    1    2    0    0  0.15488473728E+03  0.10495258199E+03  0.33440185836E+03  0.40308453378E+03  0.12509281430E+03 0.  0.
          5    1    3    3  502    0  0.14798762380E+03  0.31748446363E+02  0.22427262421E+03  0.27059930343E+03  0.41800000000E+01 0. -1.
         -5    1    3    3    0  502  0.68971134792E+01  0.73204135628E+02  0.11012923415E+03  0.13248523035E+03  0.41800000000E+01 0. -1.
        -11    1    1    2    0    0 -0.56113976273E+02 -0.13270517041E+02  0.56106473469E+02  0.80453845904E+02  0.00000000000E+00 0. -1.
         11    1    1    2    0    0 -0.98770761004E+02 -0.91682064949E+02  0.40224827857E+03  0.42422275031E+03  0.00000000000E+00 0.  1.
</event>
<event>
 7    1  0.7017065E-006  0.1065901E+03  0.7561462E-02  0.1267018E+00
         -1   -1    0    0    0  501 -0.00000000000E+00  0.00000000000E+00  0.17925601222E+02  0.17925601222E+02  0.00000000000E+00 0.  1.
          1   -1    0    0  501    0  0.00000000000E+00 -0.00000000000E+00 -0.75752392230E+03  0.75752392230E+03  0.00000000000E+00 0. -1.
         23    2    1    2    0    0 -0.36483893598E+02  0.22704097534E+02 -0.45617430375E+03  0.47496075618E+03  0.12508466721E+03 0.  0.
          5    1    3    3  502    0 -0.74283830032E+02  0.24849460057E+02 -0.39636217135E+03  0.40404953452E+03  0.41800000000E+01 0.  1.
         -5    1    3    3    0  502  0.37799936434E+02 -0.21453625234E+01 -0.59812132398E+02  0.70911221656E+02  0.41800000000E+01 0.  1.
        -11    1    1    2    0    0  0.25989106683E+02  0.31841861604E+02 -0.84669780722E+02  0.94118593190E+02  0.00000000000E+00 0.  1.
         11    1    1    2    0    0  0.10494786915E+02 -0.54545959137E+02 -0.19875423660E+03  0.20637017415E+03  0.00000000000E+00 0. -1.
</event>
<event>
 7    1  0.7017065E-006  0.1926149E+03  0.7561462E-02  0.1156124E+00
         -2   -1    0    0    0  501 -0.00000000000E+00  0.00000000000E+00  0.50347869426E+02  0.50347869426E+02  0.00000000000E+00 0.  1.
          2   -1    0    0  501    0  0.00000000000E+00 -0.00000000000E+00 -0.92061842187E+03  0.92061842187E+03  0.00000000000E+00 0. -1.
         23    2    1    2    0    0 -0.17838426367E+03  0.33151413976E+02 -0.34627876594E+03  0.41045904802E+03  0.12509070545E+03 0.  0.
          5    1    3    3  502    0 -0.47043697558E+02  0.36783440008E+02 -0.27973487349E+02  0.66076617144E+02  0.41800000000E+01 0. -1.
         -5    1    3    3    0  502 -0.13134056611E+03 -0.36320260328E+01 -0.31830527859E+03  0.34438243087E+03  0.41800000000E+01 0. -1.
        -11    1    1    2    0    0  0.82192274082E+02 -0.50067953638E+02 -0.19718320102E+03  0.21941646397E+03  0.00000000000E+00 0.  1.
         11    1    1    2    0    0  0.96191989584E+02  0.16916539663E+02 -0.32680858550E+03  0.34109077931E+03  0.00000000000E+00 0. -1.
</event>
<event>
 7    1  0.7017065E-006  0.1003164E+03  0.7561462E-02  0.1279632E+00
          1   -1    0    0  501    0  0.00000000000E+00  0.00000000000E+00  0.61782540540E+03  0.61782540540E+03  0.00000000000E+00 0. -1.
         -1   -1    0    0    0  501 -0.00000000000E+00 -0.00000000000E+00 -0.20115628663E+02  0.20115628663E+02  0.00000000000E+00 0.  1.
         23    2    1    2    0    0  0.18131708785E+01  0.23734083036E+02  0.31533573339E+03  0.34007408418E+03  0.12508862337E+03 0.  0.
          5    1    3    3  502    0  0.50314467570E+02  0.47135454377E+02  0.13243724228E+03  0.14936663700E+03  0.41800000000E+01 0.  1.
         -5    1    3    3    0  502 -0.48501296691E+02 -0.23401371342E+02  0.18289849110E+03  0.19070744718E+03  0.41800000000E+01 0.  1.
        -11    1    1    2    0    0  0.33854020047E+02  0.14518686027E+01  0.44045117249E+02  0.55571350076E+02  0.00000000000E+00 0. -1.
         11    1    1    2    0    0 -0.35667190925E+02 -0.25185951638E+02  0.23832892610E+03  0.24229559980E+03  0.00000000000E+00 0.  1.
</event>
<event>
 7    1  0.7017065E-006  0.9740398E+02  0.7561462E-02  0.1285852E+00
          1   -1    0    0  501    0  0.00000000000E+00  0.00000000000E+00  0.31590275966E+03  0.31590275966E+03  0.00000000000E+00 0. -1.
         -1   -1    0    0    0  501 -0.00000000000E+00 -0.00000000000E+00 -0.57280531963E+02  0.57280531963E+02  0.00000000000E+00 0.  1.
         23    2    1    2    0    0 -0.99167017154E+01 -0.96287563900E+01  0.34588230522E+02  0.13051580251E+03  0.12508786948E+03 0.  0.
          5    1    3    3  502    0 -0.29704878255E+02  0.48498723224E+02  0.38564742057E+02  0.68841976123E+02  0.41800000000E+01 0.  1.
         -5    1    3    3    0  502  0.19788176540E+02 -0.58127479614E+02 -0.39765115345E+01  0.61673826386E+02  0.41800000000E+01 0.  1.
        -11    1    1    2    0    0 -0.32853762401E+02  0.39367335085E+01  0.32669827670E+02  0.46499303377E+02  0.00000000000E+00 0.  1.
         11    1    1    2    0    0  0.42770464116E+02  0.56920228815E+01  0.19136416950E+03  0.19616818573E+03  0.00000000000E+00 0. -1.
</event>
<event>
 7    1  0.7017065E-006  0.1236385E+03  0.7561462E-02  0.1237213E+00
         -2   -1    0    0    0  501 -0.00000000000E+00  0.00000000000E+00  0.68230995167E+02  0.68230995167E+02  0.00000000000E+00 0.  1.
          2   -1    0    0  501    0  0.00000000000E+00 -0.00000000000E+00 -0.37618874254E+03  0.37618874254E+03  0.00000000000E+00 0. -1.
         23    2    1    2    0    0 -0.57565777899E+02 -0.28533274428E+02 -0.28819676275E+02  0.14354607724E+03  0.12508771329E+03 0.  0.
          5    1    3    3  502    0 -0.48867849850E+02 -0.74376483501E+02 -0.10743121592E+01  0.89098566731E+02  0.41800000000E+01 0. -1.
         -5    1    3    3    0  502 -0.86979280492E+01  0.45843209073E+02 -0.27745364116E+02  0.54447510507E+02  0.41800000000E+01 0. -1.
        -11    1    1    2    0    0  0.55213864768E+02 -0.22954642608E+02 -0.13033424875E+03  0.14339631403E+03  0.00000000000E+00 0.  1.
         11    1    1    2    0    0  0.23519131311E+01  0.51487917036E+02 -0.14880382234E+03  0.15747734643E+03  0.00000000000E+00 0. -1.
</event>
<event>
 7    1  0.7017065E-006  0.2243816E+03  0.7561462E-02  0.1130658E+00
         -1   -1    0    0    0  501 -0.00000000000E+00  0.00000000000E+00  0.49571005908E+03  0.49571005908E+03  0.00000000000E+00 0.  1.
          1   -1    0    0  501    0  0.00000000000E+00 -0.00000000000E+00 -0.15004425442E+03  0.15004425442E+03  0.00000000000E+00 0. -1.
         23    2    1    2    0    0  0.98056149188E+02 -0.19493924425E+03  0.23034875769E+03  0.34106476548E+03  0.12509319222E+03 0.  0.
          5    1    3    3  502    0  0.51652469096E+02 -0.95930085678E+02  0.19954123134E+03  0.22738675051E+03  0.41800000000E+01 0.  1.
         -5    1    3    3    0  502  0.46403680091E+02 -0.99009158574E+02  0.30807526347E+02  0.11367801497E+03  0.41800000000E+01 0.  1.
        -11    1    1    2    0    0 -0.46642327738E+02  0.25329892916E+02 -0.42020221121E+02  0.67696448910E+02  0.00000000000E+00 0. -1.
         11    1    1    2    0    0 -0.51413821450E+02  0.16960935134E+03  0.15733726809E+03  0.23699309911E+03  0.00000000000E+00 0.  1.
</event>
<event>
 7    1  0.7017065E-006  0.1121711E+03  0.7561462E-02  0.1256601E+00
         -1   -1    0    0    0  501 -0.00000000000E+00  0.00000000000E+00  0.26774836863E+03  0.26774836863E+03  0.00000000000E+00 0.  1.
          1   -1    0    0  501    0  0.00000000000E+00 -0.00000000000E+00 -0.84171985139E+02  0.84171985139E+02  0.00000000000E+00 0. -1.
         23    2    1    2    0    0 -0.63881422237E+02  0.73405592773E+02  0.13978775676E+03  0.21132345386E+03  0.12509103906E+03 0.  0.
          5    1    3    3  502    0 -0.41785993300E+02  0.66880945093E+02  0.10189290317E+02  0.79626779978E+02  0.41800000000E+01 0. -1.
         -5    1    3    3    0  502 -0.22095428938E+02  0.65246476798E+01  0.12959846644E+03  0.13169667388E+03  0.41800000000E+01 0. -1.
        -11    1    1    2    0    0 -0.11275498479E+02  0.58735078906E+01  0.27303548653E+02  0.30118411810E+02  0.00000000000E+00 0.  1.
         11    1    1    2    0    0  0.75156920716E+02 -0.79279100663E+02  0.16485078079E+02  0.11047848810E+03  0.00000000000E+00 0. -1.
</event>
<event>
 7    1  0.7017065E-006  0.6953969E+02  0.7561462E-02  0.1361665E+00
         -4   -1    0    0    0  501 -0.00000000000E+00  0.00000000000E+00  0.60819259638E+02  0.60819259638E+02  0.00000000000E+00 0.  1.
          4   -1    0    0  501    0  0.00000000000E+00 -0.00000000000E+00 -0.19988386295E+03  0.19988386295E+03  0.00000000000E+00 0. -1.
         23    2    1    2    0    0  0.14224679608E+02 -0.16517478720E+02 -0.60684864979E+02  0.14073022368E+03  0.12508866617E+03 0.  0.
          5    1    3    3  502    0 -0.28305881762E+01  0.30275707334E+02 -0.81121292272E+02  0.86733886941E+02  0.41800000000E+01 0.  1.
         -5    1    3    3    0  502  0.17055267784E+02 -0.46793186054E+02  0.20436427294E+02  0.53996336735E+02  0.41800000000E+01 0.  1.
        -11    1    1    2    0    0 -0.35073325971E+02  0.12037886689E+02  0.16821469964E+01  0.37119786221E+02  0.00000000000E+00 0.  1.
         11    1    1    2    0    0  0.20848646363E+02  0.44795920308E+01 -0.80061885328E+02  0.82853112689E+02  0.00000000000E+00 0. -1.
</event>
<event>
 7    1  0.7958712E-006  0.3544418E+03  0.7561462E-02  0.1060807E+00
         -1   -1    0    0    0  501 -0.00000000000E+00  0.00000000000E+00  0.23298390527E+03  0.23298390527E+03  0.00000000000E+00 0.  1.
          1   -1    0    0  501    0  0.00000000000E+00 -0.00000000000E+00 -0.62535087811E+03  0.62535087811E+03  0.00000000000E+00 0. -1.
         23    2    1    2    0    0 -0.14639421951E+03  0.30923308504E+03 -0.53177168173E+02  0.36814668341E+03  0.12509117035E+03 0.  0.
          5    1    3    3  502    0 -0.15747071553E+03  0.30800079113E+03 -0.36796286226E+02  0.34789790552E+03  0.41800000000E+01 0.  1.
         -5    1    3    3    0  502  0.11076496027E+02  0.12322939124E+01 -0.16380881947E+02  0.20248777886E+02  0.41800000000E+01 0.  1.
        -11    1    1    2    0    0  0.57572334727E+01 -0.92443971842E+02 -0.11821332240E+03  0.15017797196E+03  0.00000000000E+00 0.  1.
         11    1    1    2    0    0  0.14063698603E+03 -0.21678911320E+03 -0.22097648226E+03  0.34001012802E+03  0.00000000000E+00 0. -1.
</event>
<event>
 7    1  0.7017065E-006  0.1112759E+03  0.7561462E-02  0.1258225E+00
         -1   -1    0    0    0  501 -0.00000000000E+00  0.00000000000E+00  0.21402086649E+02  0.21402086649E+02  0.00000000000E+00 0.  1.
          1   -1    0    0  501    0  0.00000000000E+00 -0.00000000000E+00 -0.63769337659E+03  0.63769337659E+03  0.00000000000E+00 0. -1.
         23    2    1    2    0    0 -0.34391231731E+02  0.76879814510E+01 -0.27381249330E+03  0.30308686086E+03  0.12508597788E+03 0.  0.
          5    1    3    3  502    0 -0.79267838690E+02 -0.12027456869E+02 -0.18213304941E+03  0.19904263377E+03  0.41800000000E+01 0.  1.
         -5    1    3    3    0  502  0.44876606958E+02  0.19715438320E+02 -0.91679443881E+02  0.10404422709E+03  0.41800000000E+01 0.  1.
        -11    1    1    2    0    0 -0.27144703173E+02  0.10187985521E+02 -0.15999556350E+03  0.16260138467E+03  0.00000000000E+00 0.  1.
         11    1    1    2    0    0  0.61535934905E+02 -0.17875966972E+02 -0.18248323315E+03  0.19340721771E+03  0.00000000000E+00 0. -1.
</event>
<event>
 7    1  0.7017065E-006  0.2087724E+03  0.7561462E-02  0.1142542E+00
          1   -1    0    0  501    0  0.00000000000E+00  0.00000000000E+00  0.14451049430E+03  0.14451049430E+03  0.00000000000E+00 0. -1.
         -1   -1    0    0    0  501 -0.00000000000E+00 -0.00000000000E+00 -0.33166987138E+03  0.33166987138E+03  0.00000000000E+00 0.  1.
         23    2    1    2    0    0  0.10934478152E+03  0.12081386624E+03 -0.11697696202E+03  0.23639660664E+03  0.12508986556E+03 0.  0.
          5    1    3    3  502    0  0.37690773074E+02 -0.17450430482E+02 -0.27047145836E+00  0.41745148864E+02  0.41800000000E+01 0.  1.
         -5    1    3    3    0  502  0.71654008446E+02  0.13826429672E+03 -0.11670649056E+03  0.19465145777E+03  0.41800000000E+01 0.  1.
        -11    1    1    2    0    0 -0.13972666296E+03 -0.60057929410E+02 -0.78836380192E+02  0.17130577943E+03  0.00000000000E+00 0.  1.
         11    1    1    2    0    0  0.30381881436E+02 -0.60755936826E+02  0.86539651382E+01  0.68477979612E+02  0.00000000000E+00 0. -1.
</event>
<event>
 7    1  0.7017065E-006  0.9727813E+02  0.7561462E-02  0.1286126E+00
         -2   -1    0    0    0  501 -0.00000000000E+00  0.00000000000E+00  0.41624599713E+03  0.41624599713E+03  0.00000000000E+00 0.  1.
          2   -1    0    0  501    0  0.00000000000E+00 -0.00000000000E+00 -0.54888112380E+02  0.54888112380E+02  0.00000000000E+00 0. -1.
         23    2    1    2    0    0 -0.58389059614E+02  0.72958499440E+02  0.27784789638E+03  0.31871556438E+03  0.12509169648E+03 0.  0.
          5    1    3    3  502    0 -0.62787354727E+02  0.60803794945E+02  0.74521915405E+02  0.11493625046E+03  0.41800000000E+01 0. -1.
         -5    1    3    3    0  502  0.43982951128E+01  0.12154704496E+02  0.20332598098E+03  0.20377931392E+03  0.41800000000E+01 0. -1.
        -11    1    1    2    0    0  0.21840881616E+02 -0.28854037197E+02 -0.14429470759E+02  0.38958814134E+02  0.00000000000E+00 0. -1.
         11    1    1    2    0    0  0.36548177998E+02 -0.44104462243E+02  0.97939459120E+02  0.11345973100E+03  0.00000000000E+00 0.  1.
</event>
<event>
 7    1  0.7017065E-006  0.1071544E+03  0.7561462E-02  0.1265932E+00
          1   -1    0    0  501    0  0.00000000000E+00  0.00000000000E+00  0.41541627473E+03  0.41541627473E+03  0.00000000000E+00 0. -1.
         -1   -1    0    0    0  501 -0.00000000000E+00 -0.00000000000E+00 -0.37423481819E+02  0.37423481819E+02  0.00000000000E+00 0.  1.
         23    2    1    2    0    0  0.16515218369E+02  0.16360886305E+02  0.11126614609E+03  0.16902999116E+03  0.12510216468E+03 0.  0.
          5    1    3    3  502    0 -0.33469857514E+02 -0.36838448402E+02  0.66957555407E+02  0.83534958363E+02  0.41800000000E+01 0.  1.
         -5    1    3    3    0  502  0.49985075883E+02  0.53199334707E+02  0.44308590686E+02  0.85495032796E+02  0.41800000000E+01 0.  1.
        -11    1    1    2    0    0 -0.47433926962E+02 -0.31375819159E+02  0.11571147162E+03  0.12893240136E+03  0.00000000000E+00 0.  1.
         11    1    1    2    0    0  0.30918708593E+02  0.15014932855E+02  0.15101517520E+03  0.15487736403E+03  0.00000000000E+00 0. -1.
</event>
<event>
 7    1  0.7017065E-006  0.6695466E+02  0.7561462E-02  0.1370766E+00
          2   -1    0    0  501    0  0.00000000000E+00  0.00000000000E+00  0.58822556518E+03  0.58822556518E+03  0.00000000000E+00 0. -1.
         -2   -1    0    0    0  501 -0.00000000000E+00 -0.00000000000E+00 -0.22843304216E+02  0.22843304216E+02  0.00000000000E+00 0.  1.
         23    2    1    2    0    0  0.20904342800E+02 -0.35039424361E+02  0.29045099925E+03  0.31886347558E+03  0.12508948912E+03 0.  0.
          5    1    3    3  502    0  0.39813917240E+01  0.43189422462E+01 -0.11655856890E+02  0.13705332613E+02  0.41800000000E+01 0. -1.
         -5    1    3    3    0  502  0.16922951076E+02 -0.39358366608E+02  0.30210685614E+03  0.30515814297E+03  0.41800000000E+01 0. -1.
        -11    1    1    2    0    0  0.10285383304E+01 -0.22268573848E+02  0.19855533203E+02  0.29852796704E+02  0.00000000000E+00 0.  1.
         11    1    1    2    0    0 -0.21932881130E+02  0.57307998209E+02  0.25507572851E+03  0.26235259711E+03  0.00000000000E+00 0. -1.
</event>
<event>
 7    1  0.7017065E-006  0.1327299E+03  0.7561462E-02  0.1223460E+00
          1   -1    0    0  501    0  0.00000000000E+00  0.00000000000E+00  0.23407396216E+02  0.23407396216E+02  0.00000000000E+00 0. -1.
         -1   -1    0    0    0  501 -0.00000000000E+00 -0.00000000000E+00 -0.82764576213E+03  0.82764576213E+03  0.00000000000E+00 0.  1.
         23    2    1    2    0    0 -0.86611731593E+02 -0.14494952751E+02 -0.49578010101E+03  0.51880350429E+03  0.12508985489E+03 0.  0.
          5    1    3    3  502    0 -0.11589351026E+03 -0.16174761823E+02 -0.44366295429E+03  0.45885424489E+03  0.41800000000E+01 0. -1.
         -5    1    3    3    0  502  0.29281778665E+02  0.16798090720E+01 -0.52117146718E+02  0.59949259398E+02  0.41800000000E+01 0. -1.
        -11    1    1    2    0    0 -0.60257476710E-01  0.30588478396E+02 -0.44815323687E+02  0.54259302232E+02  0.00000000000E+00 0. -1.
         11    1    1    2    0    0  0.86671989070E+02 -0.16093525645E+02 -0.26364294122E+03  0.27799035183E+03  0.00000000000E+00 0.  1.
</event>
<event>
 7    1  0.7017065E-006  0.3093745E+03  0.7561462E-02  0.1080646E+00
          1   -1    0    0  501    0  0.00000000000E+00  0.00000000000E+00  0.13449424369E+04  0.13449424369E+04  0.00000000000E+00 0. -1.
         -1   -1    0    0    0  501 -0.00000000000E+00 -0.00000000000E+00 -0.80665748392E+02  0.80665748392E+02  0.00000000000E+00 0.  1.
         23    2    1    2    0    0 -0.12391804904E+03  0.26577355087E+03  0.42171542043E+03  0.52866165136E+03  0.12509189650E+03 0.  0.
          5    1    3    3  502    0 -0.14292574392E+03  0.20881520332E+03  0.29715638850E+03  0.39032159694E+03  0.41800000000E+01 0. -1.
         -5    1    3    3    0  502  0.19007694885E+02  0.56958347547E+02  0.12455903193E+03  0.13834005442E+03  0.41800000000E+01 0. -1.
        -11    1    1    2    0    0  0.89936937284E+02 -0.92921213551E+02  0.30586800617E+03  0.33208167943E+03  0.00000000000E+00 0.  1.
         11    1    1    2    0    0  0.33981111751E+02 -0.17285233732E+03  0.53669326186E+03  0.56486485446E+03  0.00000000000E+00 0. -1.
</event>
<event>
 7    1  0.7017065E-006  0.1209021E+03  0.7561462E-02  0.1241616E+00
          2   -1    0    0  501    0  0.00000000000E+00  0.00000000000E+00  0.29597855442E+03  0.29597855442E+03  0.00000000000E+00 0. -1.
         -2   -1    0    0    0  501 -0.00000000000E+00 -0.00000000000E+00 -0.59179609146E+02  0.59179609146E+02  0.00000000000E+00 0.  1.
         23    2    1    2    0    0  0.68245333719E+02  0.29924569056E+02  0.15581237574E+03  0.21325531762E+03  0.12508968245E+03 0.  0.
          5    1    3    3  502    0 -0.32769107351E+02  0.22516873274E+02  0.69213695448E+02  0.79930169625E+02  0.41800000000E+01 0. -1.
         -5    1    3    3    0  502  0.10101444107E+03  0.74076957813E+01  0.86598680289E+02  0.13332514800E+03  0.41800000000E+01 0. -1.
        -11    1    1    2    0    0 -0.64544155307E+02  0.55537431925E+01  0.14400308563E+02  0.66363852620E+02  0.00000000000E+00 0.  1.
         11    1    1    2    0    0 -0.37011784111E+01 -0.35478312248E+02  0.66586260971E+02  0.75538993319E+02  0.00000000000E+00 0. -1.
</event>
<event>
 7    1  0.7017065E-006  0.7877341E+02  0.7561462E-02  0.1332569E+00
          1   -1    0    0  501    0  0.00000000000E+00  0.00000000000E+00  0.80070292142E+02  0.80070292142E+02  0.00000000000E+00 0. -1.
         -1   -1    0    0    0  501 -0.00000000000E+00 -0.00000000000E+00 -0.19900933413E+03  0.19900933413E+03  0.00000000000E+00 0.  1.
         23    2    1    2    0    0 -0.23240251098E+02  0.26697696758E+02 -0.12471071001E+03  0.18014725910E+03  0.12508955787E+03 0.  0.
          5    1    3    3  502    0 -0.31928197339E+02  0.42817423030E+02 -0.14374602410E+03  0.15340512815E+03  0.41800000000E+01 0. -1.
         -5    1    3    3    0  502  0.86879462407E+01 -0.16119726272E+02  0.19035314091E+02  0.26742130945E+02  0.41800000000E+01 0. -1.
        -11    1    1    2    0    0  0.98586001219E+01 -0.53942404521E+02 -0.20743839985E+02  0.58628336998E+02  0.00000000000E+00 0.  1.
         11    1    1    2    0    0  0.13381650977E+02  0.27244707763E+02  0.26515508001E+02  0.40304030177E+02  0.00000000000E+00 0. -1.
</event>
<event>
 7    1  0.7017065E-006  0.8459093E+02  0.7561462E-02  0.1316506E+00
         -1   -1    0    0    0  501 -0.00000000000E+00  0.00000000000E+00  0.15886566556E+02  0.15886566556E+02  0.00000000000E+00 0.  1.
          1   -1    0    0  501    0  0.00000000000E+00 -0.00000000000E+00 -0.81559852328E+03  0.81559852328E+03  0.00000000000E+00 0. -1.
         23    2    1    2    0    0  0.51050053352E+02  0.57351706846E+01 -0.47939973981E+03  0.49810690525E+03  0.12508948158E+03 0.  0.
          5    1    3    3  502    0  0.18852285078E+02 -0.27257377473E+02 -0.42653310262E+03  0.42783914420E+03  0.41800000000E+01 0.  1.
         -5    1    3    3    0  502  0.32197768273E+02  0.32992548158E+02 -0.52866637194E+02  0.70267761057E+02  0.41800000000E+01 0.  1.
        -11    1    1    2    0    0  0.98711381328E+00 -0.31435392880E+02 -0.75666680703E+02  0.81942692705E+02  0.00000000000E+00 0.  1.
         11    1    1    2    0    0 -0.52037167165E+02  0.25700222196E+02 -0.24464553621E+03  0.25143549187E+03  0.00000000000E+00 0. -1.
</event>
<event>
 7    1  0.7017065E-006  0.1242004E+03  0.7561462E-02  0.1236324E+00
         -1   -1    0    0    0  501 -0.00000000000E+00  0.00000000000E+00  0.70949917840E+03  0.70949917840E+03  0.00000000000E+00 0.  1.
          1   -1    0    0  501    0  0.00000000000E+00 -0.00000000000E+00 -0.23775724200E+02  0.23775724200E+02  0.00000000000E+00 0. -1.
         23    2    1    2    0    0  0.51815308597E+02 -0.49480406855E+02  0.39050500510E+03  0.41626153236E+03  0.12508544061E+03 0.  0.
          5    1    3    3  502    0  0.11253666362E+01 -0.79777423975E+02  0.16823349014E+03  0.18624092845E+03  0.41800000000E+01 0.  1.
         -5    1    3    3    0  502  0.50689941961E+02  0.30297017119E+02  0.22227151496E+03  0.23002060391E+03  0.41800000000E+01 0.  1.
        -11    1    1    2    0    0  0.30885388479E+01  0.54116911892E+02  0.19779765146E+03  0.20509044383E+03  0.00000000000E+00 0.  1.
         11    1    1    2    0    0 -0.54903847445E+02 -0.46365050370E+01  0.97420797645E+02  0.11192292641E+03  0.00000000000E+00 0. -1.
</event>
<event>
 7    1  0.7017065E-006  0.1603332E+03  0.7561462E-02  0.1188321E+00
          2   -1    0    0  501    0  0.00000000000E+00  0.00000000000E+00  0.10566426237E+04  0.10566426237E+04  0.00000000000E+00 0. -1.
         -2   -1    0    0    0  501 -0.00000000000E+00 -0.00000000000E+00 -0.26479938700E+02  0.26479938700E+02  0.00000000000E+00 0.  1.
         23    2    1    2    0    0 -0.12269080126E+02  0.11716034730E+03  0.41782250253E+03  0.45205121771E+03  0.12608561578E+03 0.  0.
          5    1    3    3  502    0 -0.63113968715E+02  0.29287750664E+02  0.19715633437E+03  0.20911537000E+03  0.41800000000E+01 0.  1.
         -5    1    3    3    0  502  0.50844888589E+02  0.87872596635E+02  0.22066616815E+03  0.24293584771E+03  0.41800000000E+01 0.  1.
        -11    1    1    2    0    0  0.51443683105E+02 -0.81509543512E+02  0.45358775904E+03  0.46371555222E+03  0.00000000000E+00 0. -1.
         11    1    1    2    0    0 -0.39174602979E+02 -0.35650803787E+02  0.15875242342E+03  0.16735579246E+03  0.00000000000E+00 0.  1.
</event>
<event>
 7    1  0.7017065E-006  0.1036470E+03  0.7561462E-02  0.1272808E+00
         -1   -1    0    0    0  501 -0.00000000000E+00  0.00000000000E+00  0.20732202212E+03  0.20732202212E+03  0.00000000000E+00 0.  1.
          1   -1    0    0  501    0  0.00000000000E+00 -0.00000000000E+00 -0.86208403032E+02  0.86208403032E+02  0.00000000000E+00 0. -1.
         23    2    1    2    0    0  0.21462544300E+01 -0.76334063685E+02  0.62685255412E+02  0.15939820764E+03  0.12508737613E+03 0.  0.
          5    1    3    3  502    0 -0.73734790672E+00 -0.83211434141E+02 -0.12040417957E+02  0.84185096771E+02  0.41800000000E+01 0. -1.
         -5    1    3    3    0  502  0.28836023368E+01  0.68773704559E+01  0.74725673369E+02  0.75213110874E+02  0.41800000000E+01 0. -1.
        -11    1    1    2    0    0 -0.20670179232E+02 -0.12849375822E+02  0.30168672574E+02  0.38762244173E+02  0.00000000000E+00 0.  1.
         11    1    1    2    0    0  0.18523924802E+02  0.89183439507E+02  0.28259691100E+02  0.95369973332E+02  0.00000000000E+00 0. -1.
</event>
<event>
 7    1  0.7017065E-006  0.1059992E+03  0.7561462E-02  0.1268163E+00
          3   -1    0    0  501    0  0.00000000000E+00  0.00000000000E+00  0.26229685492E+03  0.26229685492E+03  0.00000000000E+00 0. -1.
         -3   -1    0    0    0  501 -0.00000000000E+00 -0.00000000000E+00 -0.74549854254E+02  0.74549854254E+02  0.00000000000E+00 0.  1.
         23    2    1    2    0    0 -0.55696773461E+02  0.62985501289E+02  0.79006708605E+02  0.17017319496E+03  0.12509017681E+03 0.  0.
          5    1    3    3  502    0 -0.41390718157E+01  0.19281594935E+01  0.89279261067E+02  0.89493623076E+02  0.41800000000E+01 0. -1.
         -5    1    3    3    0  502 -0.51557701645E+02  0.61057341795E+02 -0.10272552462E+02  0.80679571889E+02  0.41800000000E+01 0. -1.
        -11    1    1    2    0    0  0.58019971344E+02 -0.85403095156E+02  0.94833652841E+02  0.14019068246E+03  0.00000000000E+00 0.  1.
         11    1    1    2    0    0 -0.23231978826E+01  0.22417593867E+02  0.13906639218E+02  0.26482831751E+02  0.00000000000E+00 0. -1.
</event>
<event>
 6    1  0.7017065E-006  0.1431531E+03  0.7561462E-02  0.1209148E+00
         -2   -1    0    0    0  501 -0.00000000000E+00  0.00000000000E+00  0.65941429695E+02  0.65941429695E+02  0.00000000000E+00 0.  1.
          2   -1    0    0  501    0  0.00000000000E+00 -0.00000000000E+00 -0.49637404010E+03  0.49637404010E+03  0.00000000000E+00 0. -1.
          5    1    1    2  502    0  0.49075750709E+02  0.89559517103E+02 -0.18076371666E+03  0.20765916804E+03  0.41800000000E+01 0. -1.
         -5    1    1    2    0  502  0.29953741695E+01  0.28970453841E+02  0.24050575624E+02  0.38002132177E+02  0.41800000000E+01 0.  1.
        -11    1    1    2    0    0  0.59651095675E+01 -0.89650232356E+02 -0.19481471450E+03  0.21453559070E+03  0.00000000000E+00 0. -1.
         11    1    1    2    0    0 -0.58036234446E+02 -0.28879738588E+02 -0.78904754868E+02  0.10211857887E+03  0.00000000000E+00 0.  1.
</event>
<event>
 7    1  0.7017065E-006  0.1167373E+03  0.7561462E-02  0.1248579E+00
         -3   -1    0    0    0  501 -0.00000000000E+00  0.00000000000E+00  0.26310263241E+03  0.26310263241E+03  0.00000000000E+00 0.  1.
          3   -1    0    0  501    0  0.00000000000E+00 -0.00000000000E+00 -0.72592368774E+02  0.72592368774E+02  0.00000000000E+00 0. -1.
         23    2    1    2    0    0  0.42337289687E+02  0.53660215975E+02  0.16657256756E+03  0.21924144154E+03  0.12509406281E+03 0.  0.
          5    1    3    3  502    0  0.44854165011E+00 -0.32831679938E+02  0.84548074367E+01  0.34162502337E+02  0.41800000000E+01 0. -1.
         -5    1    3    3    0  502  0.41888748037E+02  0.86491895913E+02  0.15811776013E+03  0.18507893921E+03  0.41800000000E+01 0. -1.
        -11    1    1    2    0    0 -0.61685116676E+02 -0.19099208480E+02 -0.86651046009E+01  0.65153030794E+02  0.00000000000E+00 0. -1.
         11    1    1    2    0    0  0.19347826988E+02 -0.34561007495E+02  0.32602800678E+02  0.51300528850E+02  0.00000000000E+00 0.  1.
</event>
<event>
 7    1  0.7017065E-006  0.1226052E+03  0.7561462E-02  0.1238860E+00
          1   -1    0    0  501    0  0.00000000000E+00  0.00000000000E+00  0.33346317398E+02  0.33346317398E+02  0.00000000000E+00 0. -1.
         -1   -1    0    0    0  501 -0.00000000000E+00 -0.00000000000E+00 -0.79025171647E+03  0.79025171647E+03  0.00000000000E+00 0.  1.
         23    2    1    2    0    0 -0.86116308053E+02  0.62092902582E+02 -0.56427248187E+03  0.58764140489E+03  0.12508972731E+03 0.  0.
          5    1    3    3  502    0  0.99266439746E+01  0.24434490766E+01  0.10639229353E+01  0.11095631393E+02  0.41800000000E+01 0. -1.
         -5    1    3    3    0  502 -0.96042952027E+02  0.59649453505E+02 -0.56533640481E+03  0.57654577350E+03  0.41800000000E+01 0. -1.
        -11    1    1    2    0    0  0.79143116318E+01 -0.38559745323E+02 -0.12128741766E+03  0.12751520682E+03  0.00000000000E+00 0.  1.
         11    1    1    2    0    0  0.78201996421E+02 -0.23533157260E+02 -0.71345499543E+02  0.10844142216E+03  0.00000000000E+00 0. -1.
</event>
<event>
 7    1  0.7017065E-006  0.6316209E+02  0.7561462E-02  0.1385021E+00
          1   -1    0    0  501    0  0.00000000000E+00  0.00000000000E+00  0.31208424460E+02  0.31208424460E+02  0.00000000000E+00 0. -1.
         -1   -1    0    0    0  501 -0.00000000000E+00 -0.00000000000E+00 -0.45678455279E+03  0.45678455279E+03  0.00000000000E+00 0.  1.
         23    2    1    2    0    0 -0.34768744309E+02  0.26299251626E+02 -0.26971334335E+03  0.30048741533E+03  0.12508750128E+03 0.  0.
          5    1    3    3  502    0 -0.38519527749E+02  0.33286326641E+02 -0.27318247991E+02  0.57926614199E+02  0.41800000000E+01 0. -1.
         -5    1    3    3    0  502  0.37507834402E+01 -0.69870750152E+01 -0.24239509536E+03  0.24256080114E+03  0.41800000000E+01 0. -1.
        -11    1    1    2    0    0  0.46286629292E+02 -0.28770383067E+02 -0.16424292183E+03  0.17304890743E+03  0.00000000000E+00 0.  1.
         11    1    1    2    0    0 -0.11517884983E+02  0.24711314418E+01  0.83801368516E+01  0.14456654479E+02  0.00000000000E+00 0. -1.
</event>
<event>
 7    1  0.7017065E-006  0.1367319E+03  0.7561462E-02  0.1217795E+00
          1   -1    0    0  501    0  0.00000000000E+00  0.00000000000E+00  0.20287821877E+03  0.20287821877E+03  0.00000000000E+00 0. -1.
         -1   -1    0    0    0  501 -0.00000000000E+00 -0.00000000000E+00 -0.11573103728E+03  0.11573103728E+03  0.00000000000E+00 0.  1.
         23    2    1    2    0    0  0.10742167129E+03  0.33365338668E+01  0.36513121637E+02  0.16890974657E+03  0.12508695580E+03 0.  0.
          5    1    3    3  502    0  0.12331643167E+03  0.34155441351E+02  0.39159364215E+02  0.13388227926E+03  0.41800000000E+01 0.  1.
         -5    1    3    3    0  502 -0.15894760379E+02 -0.30818907484E+02 -0.26462425781E+01  0.35027467305E+02  0.41800000000E+01 0.  1.
        -11    1    1    2    0    0 -0.41190513566E+02  0.11232069217E+02  0.67454002542E+02  0.79830196327E+02  0.00000000000E+00 0. -1.
         11    1    1    2    0    0 -0.66231157727E+02 -0.14568603084E+02 -0.16819942689E+02  0.69869313163E+02  0.00000000000E+00 0.  1.
</event>
<event>
 7    1  0.7017065E-006  0.9681313E+02  0.7561462E-02  0.1287144E+00
          1   -1    0    0  501    0  0.00000000000E+00  0.00000000000E+00  0.18964224856E+03  0.18964224856E+03  0.00000000000E+00 0. -1.
         -1   -1    0    0    0  501 -0.00000000000E+00 -0.00000000000E+00 -0.99269792938E+02  0.99269792938E+02  0.00000000000E+00 0.  1.
         23    2    1    2    0    0  0.27014104948E+02 -0.51943177339E+02 -0.24591099632E+02  0.13180434575E+03  0.11549808587E+03 0.  0.
          5    1    3    3  502    0  0.40687048114E+02 -0.76187963449E+00  0.33644902719E+02  0.52966670877E+02  0.41800000000E+01 0. -1.
         -5    1    3    3    0  502 -0.13672943166E+02 -0.51181297704E+02 -0.58236002351E+02  0.78837674873E+02  0.41800000000E+01 0.  1.
        -11    1    1    2    0    0 -0.34144753692E+02 -0.11274931437E+02  0.15766709898E+02  0.39262926847E+02  0.00000000000E+00 0.  1.
         11    1    1    2    0    0  0.71306487434E+01  0.63218108776E+02  0.99196845353E+02  0.11784476890E+03  0.00000000000E+00 0. -1.
</event>
<event>
 7    1  0.7017065E-006  0.1292370E+03  0.7561462E-02  0.1228592E+00
         -1   -1    0    0    0  501 -0.00000000000E+00  0.00000000000E+00  0.32169669162E+02  0.32169669162E+02  0.00000000000E+00 0. -1.
          1   -1    0    0  501    0  0.00000000000E+00 -0.00000000000E+00 -0.54027767285E+03  0.54027767285E+03  0.00000000000E+00 0.  1.
         23    2    1    2    0    0 -0.16489630024E+02 -0.68482848494E+02 -0.23125397244E+03  0.27219088802E+03  0.12509065239E+03 0.  0.
          5    1    3    3  502    0  0.54531385567E+02 -0.26552428148E+02 -0.10489079876E+03  0.12123636219E+03  0.41800000000E+01 0.  1.
         -5    1    3    3    0  502 -0.71021015591E+02 -0.41930420346E+02 -0.12636317368E+03  0.15095452583E+03  0.41800000000E+01 0.  1.
        -11    1    1    2    0    0  0.33684491156E+02  0.84890741064E+02 -0.23502868301E+03  0.25214988539E+03  0.00000000000E+00 0.  1.
         11    1    1    2    0    0 -0.17194861132E+02 -0.16407892570E+02 -0.41825348234E+02  0.48106568604E+02  0.00000000000E+00 0. -1.
</event>
<event>
 7    1  0.7017065E-006  0.1198252E+03  0.7561462E-02  0.1243386E+00
          2   -1    0    0  501    0  0.00000000000E+00  0.00000000000E+00  0.29336951920E+03  0.29336951920E+03  0.00000000000E+00 0. -1.
         -2   -1    0    0    0  501 -0.00000000000E+00 -0.00000000000E+00 -0.69473137260E+02  0.69473137260E+02  0.00000000000E+00 0.  1.
         23    2    1    2    0    0  0.15961265153E+02 -0.91479487880E+02  0.11130535024E+03  0.19146396741E+03  0.12508521550E+03 0.  0.
          5    1    3    3  502    0 -0.88875089862E+01  0.57172547527E+01 -0.21888299661E+02  0.24662621108E+02  0.41800000000E+01 0. -1.
         -5    1    3    3    0  502  0.24848774139E+02 -0.97196742633E+02  0.13319364990E+03  0.16680134630E+03  0.41800000000E+01 0. -1.
        -11    1    1    2    0    0  0.34568486899E+02  0.57138465410E+02  0.46502770989E+02  0.81377467554E+02  0.00000000000E+00 0.  1.
         11    1    1    2    0    0 -0.50529752052E+02  0.34341022470E+02  0.66088260714E+02  0.90001221497E+02  0.00000000000E+00 0. -1.
</event>
<event>
 7    1  0.7017065E-006  0.1264956E+03  0.7561462E-02  0.1232750E+00
          4   -1    0    0  501    0  0.00000000000E+00  0.00000000000E+00  0.30694140157E+03  0.30694140157E+03  0.00000000000E+00 0. -1.
         -4   -1    0    0    0  501 -0.00000000000E+00 -0.00000000000E+00 -0.57949386990E+02  0.57949386990E+02  0.00000000000E+00 0.  1.
         23    2    1    2    0    0 -0.48707175495E+02  0.54508593197E+02  0.17062994563E+03  0.22384443042E+03  0.12509266568E+03 0.  0.
          5    1    3    3  502    0 -0.87372326608E+02  0.26750685819E+02  0.13950949109E+03  0.16682293952E+03  0.41800000000E+01 0. -1.
         -5    1    3    3    0  502  0.38665151113E+02  0.27757907378E+02  0.31120454542E+02  0.57021490892E+02  0.41800000000E+01 0. -1.
        -11    1    1    2    0    0  0.45439646244E+02  0.12122104570E+02  0.49745952509E+02  0.68457042450E+02  0.00000000000E+00 0. -1.
         11    1    1    2    0    0  0.32675292506E+01 -0.66630697767E+02  0.28616116440E+02  0.72589315690E+02  0.00000000000E+00 0.  1.
</event>
<event>
 7    1  0.7017065E-006  0.1428355E+03  0.7561462E-02  0.1209564E+00
         -2   -1    0    0    0  501 -0.00000000000E+00  0.00000000000E+00  0.61573003258E+02  0.61573003258E+02  0.00000000000E+00 0.  1.
          2   -1    0    0  501    0  0.00000000000E+00 -0.00000000000E+00 -0.41114970997E+03  0.41114970997E+03  0.00000000000E+00 0. -1.
         23    2    1    2    0    0 -0.11820840486E+03  0.26403294223E+02 -0.19272725321E+03  0.25973177048E+03  0.12508572077E+03 0.  0.
          5    1    3    3  502    0  0.20534516097E+02  0.10262172217E+02 -0.69869999141E+02  0.73663204586E+02  0.41800000000E+01 0. -1.
         -5    1    3    3    0  502 -0.13874292096E+03  0.16141122006E+02 -0.12285725407E+03  0.18606856589E+03  0.41800000000E+01 0. -1.
        -11    1    1    2    0    0  0.10246371524E+03 -0.29336715347E+02 -0.16388863413E+03  0.19549665011E+03  0.00000000000E+00 0. -1.
         11    1    1    2    0    0  0.15744689623E+02  0.29334211241E+01  0.70391806333E+01  0.17494292635E+02  0.00000000000E+00 0.  1.
</event>
<event>
 7    1  0.7017065E-006  0.1336734E+03  0.7561462E-02  0.1222105E+00
         -4   -1    0    0    0  501 -0.00000000000E+00  0.00000000000E+00  0.37930193930E+03  0.37930193930E+03  0.00000000000E+00 0.  1.
          4   -1    0    0  501    0  0.00000000000E+00 -0.00000000000E+00 -0.68129501717E+02  0.68129501717E+02  0.00000000000E+00 0. -1.
         23    2    1    2    0    0  0.43338724580E+02  0.10337043969E+03  0.22375893452E+03  0.27616877153E+03  0.11677943630E+03 0.  0.
          5    1    3    3  502    0  0.28818759708E+02  0.10126580663E+03  0.81804368068E+02  0.13339681982E+03  0.41800000000E+01 0. -1.
         -5    1    3    3    0  502  0.14519964872E+02  0.21046330648E+01  0.14195456645E+03  0.14277195171E+03  0.41800000000E+01 0.  1.
        -11    1    1    2    0    0  0.30248145357E+02 -0.25267230063E+02  0.30211367296E+02  0.49659942876E+02  0.00000000000E+00 0.  1.
         11    1    1    2    0    0 -0.73586869937E+02 -0.78103209630E+02  0.57202135767E+02  0.12160272661E+03  0.00000000000E+00 0. -1.
</event>
<event>
 7    1  0.7017065E-006  0.1117238E+03  0.7561462E-02  0.1257411E+00
          4   -1    0    0  501    0  0.00000000000E+00  0.00000000000E+00  0.21765491177E+03  0.21765491177E+03  0.00000000000E+00 0. -1.
         -4   -1    0    0    0  501 -0.00000000000E+00 -0.00000000000E+00 -0.59296099857E+02  0.59296099857E+02  0.00000000000E+00 0.  1.
         23    2    1    2    0    0 -0.19338293334E+02  0.30377785350E+02  0.78907489915E+02  0.15222237987E+03  0.12509389088E+03 0.  0.
          5    1    3    3  502    0  0.34348941096E+02  0.59529274717E+02  0.39022517765E+02  0.79144258133E+02  0.41800000000E+01 0. -1.
         -5    1    3    3    0  502 -0.53687234430E+02 -0.29151489367E+02  0.39884972150E+02  0.73078121736E+02  0.41800000000E+01 0. -1.
        -11    1    1    2    0    0 -0.12113506696E+02  0.26065906811E+02  0.39175490936E+02  0.48588966159E+02  0.00000000000E+00 0. -1.
         11    1    1    2    0    0  0.31451800031E+02 -0.56443692161E+02  0.40275831067E+02  0.76139665603E+02  0.00000000000E+00 0.  1.
</event>
<event>
 7    1  0.7017065E-006  0.1028256E+03  0.7561462E-02  0.1274464E+00
         -1   -1    0    0    0  501 -0.00000000000E+00  0.00000000000E+00  0.91752493635E+02  0.91752493635E+02  0.00000000000E+00 0.  1.
          1   -1    0    0  501    0  0.00000000000E+00 -0.00000000000E+00 -0.19060271393E+03  0.19060271393E+03  0.00000000000E+00 0. -1.
         23    2    1    2    0    0  0.41835246764E+02 -0.54276567126E+02 -0.22519290457E+02  0.14439702032E+03  0.12508895805E+03 0.  0.
          5    1    3    3  502    0  0.39677168824E+02 -0.71892021085E+02  0.30989835946E+02  0.87866846726E+02  0.41800000000E+01 0.  1.
         -5    1    3    3    0  502  0.21580779404E+01  0.17615453959E+02 -0.53509126403E+02  0.56530173598E+02  0.41800000000E+01 0.  1.
        -11    1    1    2    0    0 -0.65202382266E+02  0.48111293547E+02 -0.79580120992E+02  0.11357395334E+03  0.00000000000E+00 0. -1.
         11    1    1    2    0    0  0.23367135502E+02  0.61652735790E+01  0.32491911527E+01  0.24384233903E+02  0.00000000000E+00 0.  1.
</event>
<event>
 7    1  0.7017065E-006  0.1074907E+03  0.7561462E-02  0.1265289E+00
         -2   -1    0    0    0  501 -0.00000000000E+00  0.00000000000E+00  0.10344734433E+03  0.10344734433E+03  0.00000000000E+00 0.  1.
          2   -1    0    0  501    0  0.00000000000E+00 -0.00000000000E+00 -0.19873070420E+03  0.19873070420E+03  0.00000000000E+00 0. -1.
         23    2    1    2    0    0  0.50446324405E+02 -0.49877618058E+02  0.94718100472E+01  0.14411842670E+03  0.12509115596E+03 0.  0.
          5    1    3    3  502    0  0.75218549162E+02  0.10390056075E+02  0.18331416509E+02  0.78225933260E+02  0.41800000000E+01 0. -1.
         -5    1    3    3    0  502 -0.24772224757E+02 -0.60267674132E+02 -0.88596064616E+01  0.65892493437E+02  0.41800000000E+01 0. -1.
        -11    1    1    2    0    0 -0.12475661127E+02  0.21654385124E+01  0.17406623914E+02  0.21524911164E+02  0.00000000000E+00 0.  1.
         11    1    1    2    0    0 -0.37970663278E+02  0.47712179545E+02 -0.12216179383E+03  0.13653471068E+03  0.00000000000E+00 0. -1.
</event>
<event>
 7    1  0.7017065E-006  0.1075613E+03  0.7561462E-02  0.1265154E+00
         -2   -1    0    0    0  501 -0.00000000000E+00  0.00000000000E+00  0.13320215830E+03  0.13320215830E+03  0.00000000000E+00 0.  1.
          2   -1    0    0  501    0  0.00000000000E+00 -0.00000000000E+00 -0.12282079146E+03  0.12282079146E+03  0.00000000000E+00 0. -1.
         23    2    1    2    0    0 -0.15061282011E+02  0.61849340169E+02  0.36141340730E+02  0.14493579883E+03  0.12509199086E+03 0.  0.
          5    1    3    3  502    0 -0.12993106127E+02 -0.23880832168E+02  0.50864643266E+02  0.57825593698E+02  0.41800000000E+01 0. -1.
         -5    1    3    3    0  502 -0.20681758839E+01  0.85730172337E+02 -0.14723302536E+02  0.87110205131E+02  0.41800000000E+01 0. -1.
        -11    1    1    2    0    0 -0.23725797193E+02  0.52098855185E+01 -0.23178984390E+02  0.33575611341E+02  0.00000000000E+00 0. -1.
         11    1    1    2    0    0  0.38787079204E+02 -0.67059225688E+02 -0.25809894939E+01  0.77511539591E+02  0.00000000000E+00 0.  1.
</event>
<event>
 7    1  0.7017065E-006  0.1216497E+03  0.7561462E-02  0.1240400E+00
         -3   -1    0    0    0  501 -0.00000000000E+00  0.00000000000E+00  0.77480068544E+02  0.77480068544E+02  0.00000000000E+00 0.  1.
          3   -1    0    0  501    0  0.00000000000E+00 -0.00000000000E+00 -0.30370715505E+03  0.30370715505E+03  0.00000000000E+00 0. -1.
         23    2    1    2    0    0 -0.79770716069E+02  0.72256182811E+02 -0.13824537859E+03  0.21527765450E+03  0.12509340801E+03 0.  0.
          5    1    3    3  502    0 -0.52187907432E+02  0.24877746338E+02 -0.14844227332E+03  0.15935827827E+03  0.41800000000E+01 0. -1.
         -5    1    3    3    0  502 -0.27582808637E+02  0.47378436474E+02  0.10196894735E+02  0.55919376224E+02  0.41800000000E+01 0. -1.
        -11    1    1    2    0    0 -0.10930459518E+02 -0.26705450390E+02 -0.49629532775E+02  0.57408592992E+02  0.00000000000E+00 0. -1.
         11    1    1    2    0    0  0.90701175588E+02 -0.45550732422E+02 -0.38352175140E+02  0.10850097610E+03  0.00000000000E+00 0.  1.
</event>
<event>
 7    1  0.7017065E-006  0.1537221E+03  0.7561462E-02  0.1195972E+00
          1   -1    0    0  501    0  0.00000000000E+00  0.00000000000E+00  0.29597375722E+03  0.29597375722E+03  0.00000000000E+00 0. -1.
         -1   -1    0    0    0  501 -0.00000000000E+00 -0.00000000000E+00 -0.87464876877E+02  0.87464876877E+02  0.00000000000E+00 0.  1.
         23    2    1    2    0    0 -0.85671050276E+02 -0.74647342380E+02  0.15338043685E+03  0.22822645613E+03  0.12509996918E+03 0.  0.
          5    1    3    3  502    0 -0.20684552317E+02 -0.97668665341E+02  0.89495706655E+02  0.13414161474E+03  0.41800000000E+01 0.  1.
         -5    1    3    3    0  502 -0.64986497960E+02  0.23021322961E+02  0.63884730190E+02  0.94084841390E+02  0.41800000000E+01 0.  1.
        -11    1    1    2    0    0  0.76843664003E+02  0.15174965597E+02  0.53889906009E+02  0.95075497621E+02  0.00000000000E+00 0. -1.
         11    1    1    2    0    0  0.88273862731E+01  0.59472376783E+02  0.12385374909E+01  0.60136680352E+02  0.00000000000E+00 0.  1.
</event>
<event>
 6    1  0.7017065E-006  0.1005649E+03  0.7561462E-02  0.1279112E+00
          1   -1    0    0  501    0  0.00000000000E+00  0.00000000000E+00  0.22375916533E+03  0.22375916533E+03  0.00000000000E+00 0. -1.
         -1   -1    0    0    0  501 -0.00000000000E+00 -0.00000000000E+00 -0.31511556410E+03  0.31511556410E+03  0.00000000000E+00 0.  1.
          5    1    1    2  502    0  0.22919819793E+02 -0.50048537192E+02 -0.31624602109E+02  0.63622025062E+02  0.41800000000E+01 0. -1.
         -5    1    1    2    0  502 -0.17655066526E+02  0.68201332179E+02 -0.25187725985E+03  0.26157742547E+03  0.41800000000E+01 0.  1.
        -11    1    1    2    0    0 -0.26096057042E+02 -0.38316682906E+02  0.17258234304E+03  0.17870041273E+03  0.00000000000E+00 0. -1.
         11    1    1    2    0    0  0.20831303775E+02  0.20163887919E+02  0.19563120150E+02  0.34974866161E+02  0.00000000000E+00 0.  1.
</event>
<event>
 7    1  0.7017065E-006  0.1270474E+03  0.7561462E-02  0.1231904E+00
         -2   -1    0    0    0  501 -0.00000000000E+00  0.00000000000E+00  0.18657235937E+02  0.18657235937E+02  0.00000000000E+00 0.  1.
          2   -1    0    0  501    0  0.00000000000E+00 -0.00000000000E+00 -0.11439107200E+04  0.11439107200E+04  0.00000000000E+00 0. -1.
         23    2    1    2    0    0  0.69723465469E+02  0.66746214970E+02 -0.60729324688E+03  0.62750974890E+03  0.12508788276E+03 0.  0.
          5    1    3    3  502    0 -0.18634434627E+02 -0.65295615556E+01 -0.27848912509E+03  0.27921952389E+03  0.41800000000E+01 0.  1.
         -5    1    3    3    0  502  0.88357900095E+02  0.73275776526E+02 -0.32880412179E+03  0.34829022501E+03  0.41800000000E+01 0.  1.
        -11    1    1    2    0    0 -0.81562602159E+02 -0.42286381812E+02 -0.47790035824E+03  0.48665115695E+03  0.00000000000E+00 0. -1.
         11    1    1    2    0    0  0.11839136690E+02 -0.24459833158E+02 -0.40059878900E+02  0.48407050036E+02  0.00000000000E+00 0.  1.
</event>
<event>
 7    1  0.7017065E-006  0.1120843E+03  0.7561462E-02  0.1256758E+00
         -2   -1    0    0    0  501 -0.00000000000E+00  0.00000000000E+00  0.20276395346E+02  0.20276395346E+02  0.00000000000E+00 0. -1.
          2   -1    0    0  501    0  0.00000000000E+00 -0.00000000000E+00 -0.90437574659E+03  0.90437574659E+03  0.00000000000E+00 0.  1.
         23    2    1    2    0    0 -0.41106033709E+02 -0.70133106683E+02 -0.50548831577E+03  0.52704231859E+03  0.12508720774E+03 0.  0.
          5    1    3    3  502    0 -0.36514731592E+00 -0.60544299506E+02 -0.84928099417E+02  0.10438390683E+03  0.41800000000E+01 0. -1.
         -5    1    3    3    0  502 -0.40740886393E+02 -0.95888071774E+01 -0.42056021636E+03  0.42265841176E+03  0.41800000000E+01 0. -1.
        -11    1    1    2    0    0  0.53606882634E+02  0.36088567672E+01 -0.16383503601E+03  0.17241995458E+03  0.00000000000E+00 0. -1.
         11    1    1    2    0    0 -0.12500848925E+02  0.66524249916E+02 -0.21477599946E+03  0.22518986877E+03  0.00000000000E+00 0.  1.
</event>
<event>
 6    1  0.7017065E-006  0.1297369E+03  0.7561462E-02  0.1227847E+00
         -2   -1    0    0    0  501 -0.00000000000E+00  0.00000000000E+00  0.24521954215E+03  0.24521954215E+03  0.00000000000E+00 0.  1.
          2   -1    0    0  501    0  0.00000000000E+00 -0.00000000000E+00 -0.71662942645E+02  0.71662942645E+02  0.00000000000E+00 0. -1.
          5    1    1    2  502    0 -0.25764975600E+02 -0.74182061130E+02  0.64739678606E+02  0.10186025008E+03  0.41800000000E+01 0. -1.
         -5    1    1    2    0  502  0.33830954863E+02  0.82900744277E+02  0.73545651788E+02  0.11594611768E+03  0.41800000000E+01 0.  1.
        -11    1    1    2    0    0  0.17695521757E+02 -0.44050411055E+02  0.26874372322E+02  0.54550912844E+02  0.00000000000E+00 0. -1.
         11    1    1    2    0    0 -0.25761501020E+02  0.35331727909E+02  0.83968967864E+01  0.44525204182E+02  0.00000000000E+00 0.  1.
</event>
<event>
 6    1  0.7017065E-006  0.1047998E+03  0.7561462E-02  0.1270515E+00
         -3   -1    0    0    0  501 -0.00000000000E+00  0.00000000000E+00  0.46860348096E+02  0.46860348096E+02  0.00000000000E+00 0.  1.
          3   -1    0    0  501    0  0.00000000000E+00 -0.00000000000E+00 -0.33916576672E+03  0.33916576672E+03  0.00000000000E+00 0. -1.
          5    1    1    2  502    0 -0.72951080956E+02 -0.13570186914E+02 -0.10600762926E+03  0.12946466718E+03  0.41800000000E+01 0. -1.
         -5    1    1    2    0  502  0.50497990749E+02  0.23447582027E+02 -0.12467667264E+02  0.57207965351E+02  0.41800000000E+01 0.  1.
        -11    1    1    2    0    0 -0.22632776504E+02 -0.23222401171E+02 -0.13357891961E+03  0.13745854013E+03  0.00000000000E+00 0. -1.
         11    1    1    2    0    0  0.45085866711E+02  0.13345006058E+02 -0.40251202482E+02  0.61894942160E+02  0.00000000000E+00 0.  1.
</event>
<event>
 7    1  0.7017065E-006  0.1089189E+03  0.7561462E-02  0.1262585E+00
          1   -1    0    0  501    0  0.00000000000E+00  0.00000000000E+00  0.14146308416E+04  0.14146308416E+04  0.00000000000E+00 0. -1.
         -1   -1    0    0    0  501 -0.00000000000E+00 -0.00000000000E+00 -0.12061119993E+02  0.12061119993E+02  0.00000000000E+00 0.  1.
         23    2    1    2    0    0  0.60407747388E+02 -0.34792040778E+02  0.87046878949E+03  0.88216964074E+03  0.12509108487E+03 0.  0.
          5    1    3    3  502    0  0.71504418177E+02 -0.39801170807E+01  0.23176849851E+03  0.24261663680E+03  0.41800000000E+01 0. -1.
         -5    1    3    3    0  502 -0.11096670788E+02 -0.30811923698E+02  0.63870029099E+03  0.63955300394E+03  0.41800000000E+01 0. -1.
        -11    1    1    2    0    0  0.19328109321E+02  0.26670282789E+02  0.10786642959E+03  0.11278318326E+03  0.00000000000E+00 0.  1.
         11    1    1    2    0    0 -0.79735856709E+02  0.81217579893E+01  0.42423450251E+03  0.43173913758E+03  0.00000000000E+00 0. -1.
</event>
<event>
 7    1  0.7017065E-006  0.9122883E+02  0.7561462E-02  0.1299903E+00
          1   -1    0    0  501    0  0.00000000000E+00  0.00000000000E+00  0.10817824796E+02  0.10817824796E+02  0.00000000000E+00 0. -1.
         -1   -1    0    0    0  501 -0.00000000000E+00 -0.00000000000E+00 -0.11221173905E+04  0.11221173905E+04  0.00000000000E+00 0.  1.
         23    2    1    2    0    0  0.18835128023E+01  0.15044980010E+02 -0.72584475573E+03  0.73670076005E+03  0.12508997318E+03 0.  0.
          5    1    3    3  502    0 -0.38694364646E+02  0.29928277995E+02 -0.12510636646E+03  0.13439505574E+03  0.41800000000E+01 0. -1.
         -5    1    3    3    0  502  0.40577877448E+02 -0.14883297985E+02 -0.60073838927E+03  0.60230570431E+03  0.41800000000E+01 0. -1.
        -11    1    1    2    0    0 -0.31420202309E+02 -0.40283219516E+02 -0.25718846941E+03  0.26221341629E+03  0.00000000000E+00 0.  1.
         11    1    1    2    0    0  0.29536689507E+02  0.25238239505E+02 -0.12826634057E+03  0.13402103896E+03  0.00000000000E+00 0. -1.
</event>
<event>
 7    1  0.7017065E-006  0.1067330E+03  0.7561462E-02  0.1266742E+00
          2   -1    0    0  501    0  0.00000000000E+00  0.00000000000E+00  0.37637221247E+03  0.37637221247E+03  0.00000000000E+00 0. -1.
         -2   -1    0    0    0  501 -0.00000000000E+00 -0.00000000000E+00 -0.36680354515E+02  0.36680354515E+02  0.00000000000E+00 0.  1.
         23    2    1    2    0    0  0.32152521135E+01 -0.33387687322E+02  0.13919716221E+03  0.19012020529E+03  0.12507904294E+03 0.  0.
          5    1    3    3  502    0 -0.40384858694E+02 -0.64157418623E+02  0.84122482670E+02  0.11331891134E+03  0.41800000000E+01 0.  1.
         -5    1    3    3    0  502  0.43600110807E+02  0.30769731301E+02  0.55074679538E+02  0.76801293954E+02  0.41800000000E+01 0.  1.
        -11    1    1    2    0    0 -0.40126604722E+02  0.15786855752E+02  0.15872411078E+03  0.16447708826E+03  0.00000000000E+00 0. -1.
         11    1    1    2    0    0  0.36911352608E+02  0.17600831570E+02  0.41770584968E+02  0.58455273431E+02  0.00000000000E+00 0.  1.
</event>
<event>
 7    1  0.7017065E-006  0.1004740E+03  0.7561462E-02  0.1279302E+00
         -1   -1    0    0    0  501 -0.00000000000E+00  0.00000000000E+00  0.88716600982E+02  0.88716600982E+02  0.00000000000E+00 0.  1.
          1   -1    0    0  501    0  0.00000000000E+00 -0.00000000000E+00 -0.20341368779E+03  0.20341368779E+03  0.00000000000E+00 0. -1.
         23    2    1    2    0    0  0.64772652771E+02  0.63727592232E+01 -0.15553695797E+02  0.14186385803E+03  0.12508928074E+03 0.  0.
          5    1    3    3  502    0 -0.33509429270E+02 -0.20860436741E+01  0.17048990802E+02  0.37886328875E+02  0.41800000000E+01 0. -1.
         -5    1    3    3    0  502  0.98282082041E+02  0.84588028973E+01 -0.32602686598E+02  0.10397752916E+03  0.41800000000E+01 0. -1.
        -11    1    1    2    0    0 -0.42897587794E+02 -0.14139353397E+02  0.32407139267E+01  0.45283844578E+02  0.00000000000E+00 0.  1.
         11    1    1    2    0    0 -0.21875064977E+02  0.77665941739E+01 -0.10238410494E+03  0.10498258616E+03  0.00000000000E+00 0. -1.
</event>
<event>
 7    1  0.7017065E-006  0.1210775E+03  0.7561462E-02  0.1241330E+00
         -2   -1    0    0    0  501 -0.00000000000E+00  0.00000000000E+00  0.15357705636E+03  0.15357705636E+03  0.00000000000E+00 0.  1.
          2   -1    0    0  501    0  0.00000000000E+00 -0.00000000000E+00 -0.15853710096E+03  0.15853710096E+03  0.00000000000E+00 0. -1.
         23    2    1    2    0    0  0.10058072631E+03  0.48025708350E+02  0.45989926860E+01  0.16760233591E+03  0.12508573500E+03 0.  0.
          5    1    3    3  502    0  0.56506249694E+02  0.85542907532E+01 -0.57884052446E+02  0.81450402531E+02  0.41800000000E+01 0. -1.
         -5    1    3    3    0  502  0.44074476615E+02  0.39471417596E+02  0.62483045132E+02  0.86151933379E+02  0.41800000000E+01 0. -1.
        -11    1    1    2    0    0 -0.61514098829E+02 -0.58713766701E+02 -0.39873606893E+02  0.93921218485E+02  0.00000000000E+00 0. -1.
         11    1    1    2    0    0 -0.39066627480E+02  0.10688058351E+02  0.30314569606E+02  0.50590602926E+02  0.00000000000E+00 0.  1.
</event>
<event>
 7    1  0.7017065E-006  0.1754005E+03  0.7561462E-02  0.1172330E+00
         -1   -1    0    0    0  501 -0.00000000000E+00  0.00000000000E+00  0.74142467681E+02  0.74142467681E+02  0.00000000000E+00 0.  1.
          1   -1    0    0  501    0  0.00000000000E+00 -0.00000000000E+00 -0.71611680911E+03  0.71611680911E+03  0.00000000000E+00 0. -1.
         23    2    1    2    0    0  0.10013221586E+03 -0.11836383167E+03 -0.10945465442E+03  0.22729559113E+03  0.12508599872E+03 0.  0.
          5    1    3    3  502    0  0.96549335506E+02 -0.14182148578E+03 -0.10878464234E+03  0.20319123708E+03  0.41800000000E+01 0.  1.
         -5    1    3    3    0  502  0.35828803504E+01  0.23457654116E+02 -0.67001208031E+00  0.24104354055E+02  0.41800000000E+01 0.  1.
        -11    1    1    2    0    0 -0.63375367823E+02  0.71906803115E+02 -0.45719971827E+03  0.46713874595E+03  0.00000000000E+00 0. -1.
         11    1    1    2    0    0 -0.36756848034E+02  0.46457028552E+02 -0.75319968744E+02  0.95824939712E+02  0.00000000000E+00 0.  1.
</event>
<event>
 7    1  0.7017065E-006  0.1073741E+03  0.7561462E-02  0.1265511E+00
          1   -1    0    0  501    0  0.00000000000E+00  0.00000000000E+00  0.30070761094E+03  0.30070761094E+03  0.00000000000E+00 0. -1.
         -1   -1    0    0    0  501 -0.00000000000E+00 -0.00000000000E+00 -0.47610521851E+02  0.47610521851E+02  0.00000000000E+00 0.  1.
         23    2    1    2    0    0 -0.32185402998E+02  0.67581931510E+01  0.63557063074E+02  0.13586857203E+03  0.11549543393E+03 0.  0.
          5    1    3    3  502    0  0.43026106618E+02  0.88871670025E+00  0.13743589701E+02  0.45369530810E+02  0.41800000000E+01 0. -1.
         -5    1    3    3    0  502 -0.75211509617E+02  0.58694764507E+01  0.49813473373E+02  0.90499041222E+02  0.41800000000E+01 0.  1.
        -11    1    1    2    0    0  0.44133908381E+02  0.32570328769E+02  0.10674528355E+03  0.12001326487E+03  0.00000000000E+00 0.  1.
         11    1    1    2    0    0 -0.11948505383E+02 -0.39328521920E+02  0.82794742467E+02  0.92436295888E+02  0.00000000000E+00 0. -1.
</event>
<event>
 7    1  0.7017065E-006  0.1011715E+03  0.7561462E-02  0.1277851E+00
          1   -1    0    0  501    0  0.00000000000E+00  0.00000000000E+00  0.25364410837E+02  0.25364410837E+02  0.00000000000E+00 0. -1.
         -1   -1    0    0    0  501 -0.00000000000E+00 -0.00000000000E+00 -0.71855932593E+03  0.71855932593E+03  0.00000000000E+00 0.  1.
         23    2    1    2    0    0  0.20340910811E+01 -0.11382563388E+02 -0.60444253374E+03  0.61568508077E+03  0.11654888164E+03 0.  0.
          5    1    3    3  502    0 -0.26753248020E+02  0.41430135202E+02 -0.16933855169E+03  0.17642338244E+03  0.41800000000E+01 0. -1.
         -5    1    3    3    0  502  0.28787339101E+02 -0.52812698590E+02 -0.43510398204E+03  0.43926169833E+03  0.41800000000E+01 0.  1.
        -11    1    1    2    0    0 -0.11102640800E+02 -0.39417802838E+02 -0.38363808897E+02  0.56114290928E+02  0.00000000000E+00 0.  1.
         11    1    1    2    0    0  0.90685497187E+01  0.50800366225E+02 -0.50388572454E+02  0.72124365069E+02  0.00000000000E+00 0. -1.
</event>
<event>
 7    1  0.7017065E-006  0.1108937E+03  0.7561462E-02  0.1258924E+00
         -1   -1    0    0    0  501 -0.00000000000E+00  0.00000000000E+00  0.40091979231E+02  0.40091979231E+02  0.00000000000E+00 0.  1.
          1   -1    0    0  501    0  0.00000000000E+00 -0.00000000000E+00 -0.37363130249E+03  0.37363130249E+03  0.00000000000E+00 0. -1.
         23    2    1    2    0    0  0.45281812941E+02  0.19454969077E+02 -0.23409526277E+03  0.26996435583E+03  0.12510484787E+03 0.  0.
          5    1    3    3  502    0 -0.19299023429E+02 -0.32942621840E+02 -0.27552451959E+02  0.47268156808E+02  0.41800000000E+01 0.  1.
         -5    1    3    3    0  502  0.64580836370E+02  0.52397590918E+02 -0.20654281081E+03  0.22269619902E+03  0.41800000000E+01 0.  1.
        -11    1    1    2    0    0 -0.57279938343E+02  0.18588458970E+02 -0.40452124565E+02  0.72545823624E+02  0.00000000000E+00 0.  1.
         11    1    1    2    0    0  0.11998125403E+02 -0.38043428047E+02 -0.58991935926E+02  0.71213102271E+02  0.00000000000E+00 0. -1.
</event>
<event>
 7    1  0.7017065E-006  0.1004809E+03  0.7561462E-02  0.1279288E+00
          2   -1    0    0  501    0  0.00000000000E+00  0.00000000000E+00  0.18823754564E+02  0.18823754564E+02  0.00000000000E+00 0. -1.
         -2   -1    0    0    0  501 -0.00000000000E+00 -0.00000000000E+00 -0.74638171546E+03  0.74638171546E+03  0.00000000000E+00 0.  1.
         23    2    1    2    0    0 -0.27889598186E+02 -0.11253342097E+02 -0.51932849460E+03  0.53502800461E+03  0.12509361701E+03 0.  0.
          5    1    3    3  502    0  0.40476981726E+02 -0.36579863297E+02 -0.19146025715E+03  0.19912552553E+03  0.41800000000E+01 0. -1.
         -5    1    3    3    0  502 -0.68366579912E+02  0.25326521200E+02 -0.32786823745E+03  0.33590247908E+03  0.41800000000E+01 0. -1.
        -11    1    1    2    0    0 -0.93842596664E+01  0.30044192528E+02 -0.19812745488E+02  0.37192240023E+02  0.00000000000E+00 0. -1.
         11    1    1    2    0    0  0.37273857852E+02 -0.18790850432E+02 -0.18841672081E+03  0.19298522539E+03  0.00000000000E+00 0.  1.
</event>
<event>
 7    1  0.7017065E-006  0.1093924E+03  0.7561462E-02  0.1261699E+00
         -1   -1    0    0    0  501 -0.00000000000E+00  0.00000000000E+00  0.36936906192E+02  0.36936906192E+02  0.00000000000E+00 0.  1.
          1   -1    0    0  501    0  0.00000000000E+00 -0.00000000000E+00 -0.43738772572E+03  0.43738772572E+03  0.00000000000E+00 0. -1.
         23    2    1    2    0    0  0.19912163259E+02  0.17598017555E+02 -0.10728509391E+03  0.16692224485E+03  0.12508700965E+03 0.  0.
          5    1    3    3  502    0  0.43176840187E+02 -0.43270862461E+02 -0.40057350637E+02  0.73202942609E+02  0.41800000000E+01 0. -1.
         -5    1    3    3    0  502 -0.23264676928E+02  0.60868880016E+02 -0.67227743277E+02  0.93719302244E+02  0.41800000000E+01 0. -1.
        -11    1    1    2    0    0 -0.55217204996E+02 -0.10711075235E+02 -0.18965181529E+03  0.19781677862E+03  0.00000000000E+00 0. -1.
         11    1    1    2    0    0  0.35305041737E+02 -0.68869423207E+01 -0.10351391033E+03  0.10958560844E+03  0.00000000000E+00 0.  1.
</event>
<event>
 7    1  0.7017065E-006  0.1358029E+03  0.7561462E-02  0.1219091E+00
          2   -1    0    0  501    0  0.00000000000E+00  0.00000000000E+00  0.60197441829E+02  0.60197441829E+02  0.00000000000E+00 0. -1.
         -2   -1    0    0    0  501 -0.00000000000E+00 -0.00000000000E+00 -0.63125643661E+03  0.63125643661E+03  0.00000000000E+00 0.  1.
         23    2    1    2    0    0 -0.32242417234E+02  0.81701478630E+02 -0.54066986927E+03  0.56186011763E+03  0.12509268232E+03 0.  0.
          5    1    3    3  502    0  0.43223708023E+02  0.17576747512E+02 -0.10372320974E+03  0.11381215940E+03  0.41800000000E+01 0. -1.
         -5    1    3    3    0  502 -0.75466125257E+02  0.64124731118E+02 -0.43694665952E+03  0.44804795823E+03  0.41800000000E+01 0. -1.
        -11    1    1    2    0    0  0.52637796299E+02 -0.13342683660E+02 -0.84230092772E+01  0.54951905260E+02  0.00000000000E+00 0. -1.
         11    1    1    2    0    0 -0.20395379065E+02 -0.68358794970E+02 -0.21966116233E+02  0.74641855545E+02  0.00000000000E+00 0.  1.
</event>
<event>
 7    1  0.7017065E-006  0.1089942E+03  0.7561462E-02  0.1262444E+00
          1   -1    0    0  501    0  0.00000000000E+00  0.00000000000E+00  0.44510810986E+02  0.44510810986E+02  0.00000000000E+00 0. -1.
         -1   -1    0    0    0  501 -0.00000000000E+00 -0.00000000000E+00 -0.49203376528E+03  0.49203376528E+03  0.00000000000E+00 0.  1.
         23    2    1    2    0    0  0.73230200442E+02 -0.67536494088E+02 -0.27667352228E+03  0.31956901198E+03  0.12510905322E+03 0.  0.
          5    1    3    3  502    0  0.55369988102E+02 -0.14103073914E+02 -0.26547701673E+02  0.63142577872E+02  0.41800000000E+01 0. -1.
         -5    1    3    3    0  502  0.17860212339E+02 -0.53433420175E+02 -0.25012582061E+03  0.25642643411E+03  0.41800000000E+01 0. -1.
        -11    1    1    2    0    0 -0.25370610278E+02  0.44185870321E+02 -0.15228117911E+03  0.16057900396E+03  0.00000000000E+00 0.  1.
         11    1    1    2    0    0 -0.47859590163E+02  0.23350623767E+02 -0.18568252913E+02  0.56396560331E+02  0.00000000000E+00 0. -1.
</event>
<event>
 7    1  0.7017065E-006  0.1224400E+03  0.7561462E-02  0.1239125E+00
         -1   -1    0    0    0  501 -0.00000000000E+00  0.00000000000E+00  0.30737859870E+02  0.30737859870E+02  0.00000000000E+00 0.  1.
          1   -1    0    0  501    0  0.00000000000E+00 -0.00000000000E+00 -0.69449049623E+03  0.69449049623E+03  0.00000000000E+00 0. -1.
         23    2    1    2    0    0 -0.76930845236E+02  0.59831440300E+02 -0.35224577754E+03  0.38628481019E+03  0.12506282658E+03 0.  0.
          5    1    3    3  502    0 -0.38384632550E+01  0.38606222062E+02 -0.17141398744E+02  0.42620114183E+02  0.41800000000E+01 0.  1.
         -5    1    3    3    0  502 -0.73092381981E+02  0.21225218238E+02 -0.33510437880E+03  0.34366469601E+03  0.41800000000E+01 0.  1.
        -11    1    1    2    0    0  0.64339635353E+02  0.41025761822E+01 -0.11402779801E+03  0.13099144448E+03  0.00000000000E+00 0.  1.
         11    1    1    2    0    0  0.12591209883E+02 -0.63934016482E+02 -0.19747906081E+03  0.20795210143E+03  0.00000000000E+00 0. -1.
</event>
<event>
 7    1  0.7017065E-006  0.1522553E+03  0.7561462E-02  0.1197729E+00
         -1   -1    0    0    0  501 -0.00000000000E+00  0.00000000000E+00  0.13134149559E+03  0.13134149559E+03  0.00000000000E+00 0.  1.
          1   -1    0    0  501    0  0.00000000000E+00 -0.00000000000E+00 -0.29043623856E+03  0.29043623856E+03  0.00000000000E+00 0. -1.
         23    2    1    2    0    0  0.91358263191E+02  0.80505562764E+02  0.30055383622E+02  0.17917965121E+03  0.12796305496E+03 0.  0.
          5    1    3    3  502    0  0.57890409557E+02  0.99404306864E+02 -0.19057156143E+02  0.11667546161E+03  0.41800000000E+01 0. -1.
         -5    1    3    3    0  502  0.33467853634E+02 -0.18898744100E+02  0.49112539765E+02  0.62504189600E+02  0.41800000000E+01 0.  1.
        -11    1    1    2    0    0 -0.10671351332E+03 -0.52793781736E+02 -0.13627636972E+03  0.18095912870E+03  0.00000000000E+00 0.  1.
         11    1    1    2    0    0  0.15355250129E+02 -0.27711781028E+02 -0.52873756870E+02  0.61638954240E+02  0.00000000000E+00 0. -1.
</event>
<event>
 7    1  0.7017065E-006  0.2060867E+03  0.7561462E-02  0.1144703E+00
         -1   -1    0    0    0  501 -0.00000000000E+00  0.00000000000E+00  0.10752673621E+03  0.10752673621E+03  0.00000000000E+00 0.  1.
          1   -1    0    0  501    0  0.00000000000E+00 -0.00000000000E+00 -0.64487242509E+03  0.64487242509E+03  0.00000000000E+00 0. -1.
         23    2    1    2    0    0 -0.24858194454E-01 -0.18253999710E+03 -0.55266741955E+02  0.22808454829E+03  0.12508915718E+03 0.  0.
          5    1    3    3  502    0 -0.36971958911E+02 -0.17335411706E+03 -0.24561459442E+02  0.17899528859E+03  0.41800000000E+01 0. -1.
         -5    1    3    3    0  502  0.36947100717E+02 -0.91858800363E+01 -0.30705282513E+02  0.49089259697E+02  0.41800000000E+01 0. -1.
        -11    1    1    2    0    0 -0.99559040208E+01  0.18580333953E+03 -0.47819211497E+03  0.51311762766E+03  0.00000000000E+00 0. -1.
         11    1    1    2    0    0  0.99807622153E+01 -0.32633424287E+01 -0.38868319536E+01  0.11196985346E+02  0.00000000000E+00 0.  1.
</event>
<event>
 7    1  0.7017065E-006  0.8969908E+02  0.7561462E-02  0.1303582E+00
          1   -1    0    0  501    0  0.00000000000E+00  0.00000000000E+00  0.70187600397E+03  0.70187600397E+03  0.00000000000E+00 0. -1.
         -1   -1    0    0    0  501 -0.00000000000E+00 -0.00000000000E+00 -0.21217756921E+02  0.21217756921E+02  0.00000000000E+00 0.  1.
         23    2    1    2    0    0 -0.65614745604E+02 -0.11033486104E+02  0.32186050683E+03  0.35166502326E+03  0.12508824913E+03 0.  0.
          5    1    3    3  502    0 -0.63145043183E+02 -0.29754766015E+02  0.32467527728E+03  0.33212068689E+03  0.41800000000E+01 0.  1.
         -5    1    3    3    0  502 -0.24697024213E+01  0.18721279911E+02 -0.28147704524E+01  0.19544336373E+02  0.41800000000E+01 0.  1.
        -11    1    1    2    0    0  0.15300874475E+02  0.32116975012E+02  0.83250058601E+02  0.90532806765E+02  0.00000000000E+00 0.  1.
         11    1    1    2    0    0  0.50313871129E+02 -0.21083488908E+02  0.27554768162E+03  0.28089593087E+03  0.00000000000E+00 0. -1.
</event>
<event>
 7    1  0.7017065E-006  0.2035494E+03  0.7561462E-02  0.1146778E+00
         -2   -1    0    0    0  501 -0.00000000000E+00  0.00000000000E+00  0.24142720218E+03  0.24142720218E+03  0.00000000000E+00 0. -1.
          2   -1    0    0  501    0  0.00000000000E+00 -0.00000000000E+00 -0.30516610471E+03  0.30516610471E+03  0.00000000000E+00 0.  1.
         23    2    1    2    0    0 -0.14890179938E+03 -0.89645323307E+02  0.14610228393E+03  0.25922602652E+03  0.12507687880E+03 0.  0.
          5    1    3    3  502    0 -0.13273704307E+03 -0.14273499482E+02  0.11405878380E+03  0.17564092335E+03  0.41800000000E+01 0. -1.
         -5    1    3    3    0  502 -0.16164756307E+02 -0.75371823825E+02  0.32043500122E+02  0.83585103178E+02  0.41800000000E+01 0. -1.
        -11    1    1    2    0    0  0.14183038301E+01  0.41012660711E+02 -0.44203930873E+02  0.60316145674E+02  0.00000000000E+00 0. -1.
         11    1    1    2    0    0  0.14748349555E+03  0.48632662597E+02 -0.16563725558E+03  0.22705113470E+03  0.00000000000E+00 0.  1.
</event>
<event>
 7    1  0.7017065E-006  0.6839892E+02  0.7561462E-02  0.1365624E+00
         -2   -1    0    0    0  501 -0.00000000000E+00  0.00000000000E+00  0.87916677966E+02  0.87916677966E+02  0.00000000000E+00 0.  1.
          2   -1    0    0  501    0  0.00000000000E+00 -0.00000000000E+00 -0.14589697669E+03  0.14589697669E+03  0.00000000000E+00 0. -1.
         23    2    1    2    0    0  0.50183920528E+02  0.21306163546E+02 -0.11309923731E+02  0.13692653062E+03  0.12509429215E+03 0.  0.
          5    1    3    3  502    0  0.24069393876E+02  0.32542101812E+02 -0.64620501619E+02  0.76364951001E+02  0.41800000000E+01 0. -1.
         -5    1    3    3    0  502  0.26114526652E+02 -0.11235938266E+02  0.53310577888E+02  0.60561579617E+02  0.41800000000E+01 0. -1.
        -11    1    1    2    0    0 -0.12198707839E+02 -0.26365638752E+02  0.79922786829E+01  0.30130248892E+02  0.00000000000E+00 0.  1.
         11    1    1    2    0    0 -0.37985212689E+02  0.50594752060E+01 -0.54662653674E+02  0.66756875145E+02  0.00000000000E+00 0. -1.
</event>
<event>
 7    1  0.7017065E-006  0.1039450E+03  0.7561462E-02  0.1272212E+00
         -2   -1    0    0    0  501 -0.00000000000E+00  0.00000000000E+00  0.21079609739E+03  0.21079609739E+03  0.00000000000E+00 0.  1.
          2   -1    0    0  501    0  0.00000000000E+00 -0.00000000000E+00 -0.67756888548E+02  0.67756888548E+02  0.00000000000E+00 0. -1.
         23    2    1    2    0    0  0.14775276938E+02 -0.32557024237E+01  0.13411696453E+03  0.18402418717E+03  0.12509449580E+03 0.  0.
          5    1    3    3  502    0  0.31166346667E+02 -0.57424786467E+02  0.93894069978E+02  0.11446622228E+03  0.41800000000E+01 0.  1.
         -5    1    3    3    0  502 -0.16391069728E+02  0.54169084043E+02  0.40222894556E+02  0.69557964888E+02  0.41800000000E+01 0.  1.
        -11    1    1    2    0    0 -0.31482035579E+02 -0.33087165016E+02  0.24229871854E+02  0.51700732519E+02  0.00000000000E+00 0.  1.
         11    1    1    2    0    0  0.16706758641E+02  0.36342867440E+02 -0.15307627545E+02  0.42828066254E+02  0.00000000000E+00 0. -1.
</event>
<event>
 7    1  0.7017065E-006  0.8893591E+02  0.7561462E-02  0.1305449E+00
         -2   -1    0    0    0  501 -0.00000000000E+00  0.00000000000E+00  0.16831827584E+02  0.16831827584E+02  0.00000000000E+00 0.  1.
          2   -1    0    0  501    0  0.00000000000E+00 -0.00000000000E+00 -0.81172867539E+03  0.81172867539E+03  0.00000000000E+00 0. -1.
         23    2    1    2    0    0  0.63695414437E+01  0.44596843692E+02 -0.39170810853E+03  0.41365714091E+03  0.12509012116E+03 0.  0.
          5    1    3    3  502    0  0.34877685562E+02  0.39833496584E+02 -0.57879719869E+02  0.78553769944E+02  0.41800000000E+01 0.  1.
         -5    1    3    3    0  502 -0.28508144118E+02  0.47633471079E+01 -0.33382838866E+03  0.33510337097E+03  0.41800000000E+01 0.  1.
        -11    1    1    2    0    0 -0.42271205775E+02 -0.57475563935E+01 -0.13619579125E+03  0.14272064600E+03  0.00000000000E+00 0.  1.
         11    1    1    2    0    0  0.35901664331E+02 -0.38849287298E+02 -0.26699294803E+03  0.27218271606E+03  0.00000000000E+00 0. -1.
</event>
<event>
 6    1  0.7017065E-006  0.7356575E+02  0.7561462E-02  0.1348371E+00
         -2   -1    0    0    0  501 -0.00000000000E+00  0.00000000000E+00  0.70125350292E+02  0.70125350292E+02  0.00000000000E+00 0.  1.
          2   -1    0    0  501    0  0.00000000000E+00 -0.00000000000E+00 -0.33411354793E+03  0.33411354793E+03  0.00000000000E+00 0. -1.
          5    1    1    2  502    0  0.30239639893E+01  0.17786696356E+02 -0.11214093754E+03  0.11365990145E+03  0.41800000000E+01 0. -1.
         -5    1    1    2    0  502  0.60073845691E+02 -0.20875114992E+02  0.36030352450E+02  0.73214042777E+02  0.41800000000E+01 0.  1.
        -11    1    1    2    0    0 -0.39193276501E+02  0.90836552442E+01 -0.18846668752E+03  0.19271304579E+03  0.00000000000E+00 0. -1.
         11    1    1    2    0    0 -0.23904533180E+02 -0.59952366073E+01  0.58907497190E+00  0.24651908199E+02  0.00000000000E+00 0.  1.
</event>
<event>
 7    1  0.7017065E-006  0.1790061E+03  0.7561462E-02  0.1168768E+00
          1   -1    0    0  501    0  0.00000000000E+00  0.00000000000E+00  0.21368247984E+03  0.21368247984E+03  0.00000000000E+00 0. -1.
         -1   -1    0    0    0  501 -0.00000000000E+00 -0.00000000000E+00 -0.16899251270E+03  0.16899251270E+03  0.00000000000E+00 0.  1.
         23    2    1    2    0    0  0.13891158064E+03 -0.60930974317E+02 -0.11246463011E+02  0.19693286240E+03  0.12508820286E+03 0.  0.
          5    1    3    3  502    0  0.60523999737E+02  0.36957042012E+02 -0.70450435016E+01  0.71386851285E+02  0.41800000000E+01 0.  1.
         -5    1    3    3    0  502  0.78387580900E+02 -0.97888016329E+02 -0.42014195095E+01  0.12554601111E+03  0.41800000000E+01 0.  1.
        -11    1    1    2    0    0 -0.10441117578E+03  0.17235216033E+02 -0.13858122354E+01  0.10583320261E+03  0.00000000000E+00 0.  1.
         11    1    1    2    0    0 -0.34500404855E+02  0.43695758284E+02  0.57322242381E+02  0.79908927528E+02  0.00000000000E+00 0. -1.
</event>
<event>
 7    1  0.7017065E-006  0.1335844E+03  0.7561462E-02  0.1222232E+00
          2   -1    0    0  501    0  0.00000000000E+00  0.00000000000E+00  0.89043325959E+02  0.89043325959E+02  0.00000000000E+00 0. -1.
         -2   -1    0    0    0  501 -0.00000000000E+00 -0.00000000000E+00 -0.31110739632E+03  0.31110739632E+03  0.00000000000E+00 0.  1.
         23    2    1    2    0    0 -0.82702271188E+02 -0.33748385859E+02 -0.22214124148E+03  0.27013514013E+03  0.12509054144E+03 0.  0.
          5    1    3    3  502    0  0.13431308273E+02  0.29135745726E+02 -0.21334366144E+02  0.38754603594E+02  0.41800000000E+01 0.  1.
         -5    1    3    3    0  502 -0.96133579461E+02 -0.62884131585E+02 -0.20080687534E+03  0.23138053654E+03  0.41800000000E+01 0.  1.
        -11    1    1    2    0    0  0.81229303242E+02 -0.47218207084E+01 -0.23723236951E+02  0.84754275806E+02  0.00000000000E+00 0.  1.
         11    1    1    2    0    0  0.14729679460E+01  0.38470206568E+02  0.23800408068E+02  0.45261306346E+02  0.00000000000E+00 0. -1.
</event>
<event>
 6    1  0.7017065E-006  0.1220143E+03  0.7561462E-02  0.1239811E+00
         -4   -1    0    0    0  501 -0.00000000000E+00  0.00000000000E+00  0.14915732268E+03  0.14915732268E+03  0.00000000000E+00 0.  1.
          4   -1    0    0  501    0  0.00000000000E+00 -0.00000000000E+00 -0.10999272019E+03  0.10999272019E+03  0.00000000000E+00 0. -1.
          5    1    1    2  502    0  0.73393650869E+02  0.65446262764E+02  0.16854616126E+02  0.99856856461E+02  0.41800000000E+01 0. -1.
         -5    1    1    2    0  502 -0.46750532707E+02 -0.30262269009E+02  0.15499750500E+02  0.57958018423E+02  0.41800000000E+01 0.  1.
        -11    1    1    2    0    0  0.26161623484E+02 -0.24582883517E+02 -0.20083962031E+02  0.41135316168E+02  0.00000000000E+00 0. -1.
         11    1    1    2    0    0 -0.52804741646E+02 -0.10601110238E+02  0.26894197898E+02  0.60199851820E+02  0.00000000000E+00 0.  1.
</event>
<event>
 6    1  0.7017065E-006  0.2771629E+03  0.7561462E-02  0.1097249E+00
         -1   -1    0    0    0  501 -0.00000000000E+00  0.00000000000E+00  0.20020783620E+03  0.20020783620E+03  0.00000000000E+00 0.  1.
          1   -1    0    0  501    0  0.00000000000E+00 -0.00000000000E+00 -0.75197492698E+03  0.75197492698E+03  0.00000000000E+00 0. -1.
          5    1    1    2  502    0  0.12117549661E+03 -0.15393599991E+03 -0.20278198352E+03  0.28198900384E+03  0.41800000000E+01 0. -1.
         -5    1    1    2    0  502 -0.16185950209E+03 -0.23072034972E+02  0.89531454030E+02  0.18645152419E+03  0.41800000000E+01 0.  1.
        -11    1    1    2    0    0  0.61016313007E+02  0.13549418859E+03 -0.38688447708E+03  0.41444090556E+03  0.00000000000E+00 0. -1.
         11    1    1    2    0    0 -0.20332307530E+02  0.41513846291E+02 -0.51632084205E+02  0.69301329589E+02  0.00000000000E+00 0.  1.
</event>
<event>
 7    1  0.7017065E-006  0.1071016E+03  0.7561462E-02  0.1266033E+00
          3   -1    0    0  501    0  0.00000000000E+00  0.00000000000E+00  0.24520981119E+03  0.24520981119E+03  0.00000000000E+00 0. -1.
         -3   -1    0    0    0  501 -0.00000000000E+00 -0.00000000000E+00 -0.53652795314E+02  0.53652795314E+02  0.00000000000E+00 0.  1.
         23    2    1    2    0    0  0.29878880476E+02  0.26364171979E+02  0.11864214916E+03  0.17695176441E+03  0.12509256696E+03 0.  0.
          5    1    3    3  502    0  0.31653903246E+01 -0.42351065947E+02  0.86424084755E+02  0.96385825247E+02  0.41800000000E+01 0.  1.
         -5    1    3    3    0  502  0.26713490151E+02  0.68715237925E+02  0.32218064409E+02  0.80565939164E+02  0.41800000000E+01 0.  1.
        -11    1    1    2    0    0 -0.61763675977E+02 -0.21680039369E+02  0.49916796052E+02  0.82319270559E+02  0.00000000000E+00 0.  1.
         11    1    1    2    0    0  0.31884795502E+02 -0.46841326097E+01  0.22998070663E+02  0.39591571536E+02  0.00000000000E+00 0. -1.
</event>
<event>
 7    1  0.7017065E-006  0.9039565E+02  0.7561462E-02  0.1301896E+00
          1   -1    0    0  501    0  0.00000000000E+00  0.00000000000E+00  0.18345050788E+03  0.18345050788E+03  0.00000000000E+00 0. -1.
         -1   -1    0    0    0  501 -0.00000000000E+00 -0.00000000000E+00 -0.81391109878E+02  0.81391109878E+02  0.00000000000E+00 0.  1.
         23    2    1    2    0    0  0.38207737995E+02  0.30380064760E+01  0.13021281325E+02  0.13147692194E+03  0.12509023347E+03 0.  0.
          5    1    3    3  502    0  0.29705028255E+00 -0.57107977772E+02 -0.65029526532E+01  0.57629594457E+02  0.41800000000E+01 0.  1.
         -5    1    3    3    0  502  0.37910687713E+02  0.60145984248E+02  0.19524233978E+02  0.73847327483E+02  0.41800000000E+01 0.  1.
        -11    1    1    2    0    0 -0.31997728215E+02  0.13436296066E+02 -0.72724863292E+01  0.35458112193E+02  0.00000000000E+00 0.  1.
         11    1    1    2    0    0 -0.62100097805E+01 -0.16474302542E+02  0.96310603008E+02  0.97906583627E+02  0.00000000000E+00 0. -1.
</event>
<event>
 7    1  0.7017065E-006  0.1184568E+03  0.7561462E-02  0.1245665E+00
          3   -1    0    0  501    0  0.00000000000E+00  0.00000000000E+00  0.65159583309E+03  0.65159583309E+03  0.00000000000E+00 0. -1.
         -3   -1    0    0    0  501 -0.00000000000E+00 -0.00000000000E+00 -0.26472233085E+02  0.26472233085E+02  0.00000000000E+00 0.  1.
         23    2    1    2    0    0  0.69432048068E+02  0.25566289249E+02  0.38534125524E+03  0.41183726847E+03  0.12509040037E+03 0.  0.
          5    1    3    3  502    0  0.73310780794E+02 -0.25131030415E+02  0.12963886137E+03  0.15109515561E+03  0.41800000000E+01 0. -1.
         -5    1    3    3    0  502 -0.38787327267E+01  0.50697319663E+02  0.25570239387E+03  0.26074211286E+03  0.41800000000E+01 0. -1.
        -11    1    1    2    0    0 -0.53523879638E+02  0.22195831451E+02  0.17401102033E+03  0.18340473228E+03  0.00000000000E+00 0.  1.
         11    1    1    2    0    0 -0.15908168429E+02 -0.47762120700E+02  0.65771324425E+02  0.82826065421E+02  0.00000000000E+00 0. -1.
</event>
<event>
 7    1  0.7017065E-006  0.1125078E+03  0.7561462E-02  0.1255995E+00
         -1   -1    0    0    0  501 -0.00000000000E+00  0.00000000000E+00  0.23328795417E+02  0.23328795417E+02  0.00000000000E+00 0.  1.
          1   -1    0    0  501    0  0.00000000000E+00 -0.00000000000E+00 -0.89247008320E+03  0.89247008320E+03  0.00000000000E+00 0. -1.
         23    2    1    2    0    0 -0.11473893089E+02  0.64721873432E+02 -0.26029444870E+03  0.29617865501E+03  0.12509206425E+03 0.  0.
          5    1    3    3  502    0 -0.32189413251E+02  0.78490525250E+02 -0.88957903024E+02  0.12299553565E+03  0.41800000000E+01 0. -1.
         -5    1    3    3    0  502  0.20715520161E+02 -0.13768651817E+02 -0.17133654567E+03  0.17318311936E+03  0.41800000000E+01 0. -1.
        -11    1    1    2    0    0  0.43966438455E+02 -0.17575678395E+01 -0.21631482557E+03  0.22074474063E+03  0.00000000000E+00 0.  1.
         11    1    1    2    0    0 -0.32492545365E+02 -0.62964305593E+02 -0.39253201352E+03  0.39887548298E+03  0.00000000000E+00 0. -1.
</event>
<event>
 7    1  0.7017065E-006  0.1275982E+03  0.7561462E-02  0.1231064E+00
         -1   -1    0    0    0  501 -0.00000000000E+00  0.00000000000E+00  0.34886289559E+03  0.34886289559E+03  0.00000000000E+00 0.  1.
          1   -1    0    0  501    0  0.00000000000E+00 -0.00000000000E+00 -0.63140862917E+02  0.63140862917E+02  0.00000000000E+00 0. -1.
         23    2    1    2    0    0  0.49866132679E+02  0.81904031121E+02  0.19719910204E+03  0.25244769661E+03  0.12508977646E+03 0.  0.
          5    1    3    3  502    0 -0.27055463490E+02 -0.16978263753E+02  0.37722207175E+02  0.49605411588E+02  0.41800000000E+01 0.  1.
         -5    1    3    3    0  502  0.76921596168E+02  0.98882294874E+02  0.15947689486E+03  0.20284228502E+03  0.41800000000E+01 0.  1.
        -11    1    1    2    0    0 -0.21133418148E+02 -0.52162364365E+02  0.10163146872E+03  0.11617439069E+03  0.00000000000E+00 0.  1.
         11    1    1    2    0    0 -0.28732714531E+02 -0.29741666756E+02 -0.13108538086E+02  0.43381671204E+02  0.00000000000E+00 0. -1.
</event>
<event>
 7    1  0.7017065E-006  0.1292597E+03  0.7561462E-02  0.1228558E+00
         -1   -1    0    0    0  501 -0.00000000000E+00  0.00000000000E+00  0.19125299377E+03  0.19125299377E+03  0.00000000000E+00 0. -1.
          1   -1    0    0  501    0  0.00000000000E+00 -0.00000000000E+00 -0.18786450419E+03  0.18786450419E+03  0.00000000000E+00 0.  1.
         23    2    1    2    0    0  0.88376181265E+02  0.57885123032E+02  0.11659079761E+03  0.20100215097E+03  0.12508962276E+03 0.  0.
          5    1    3    3  502    0  0.35343854475E+02  0.67357110155E+02  0.42000694299E+01  0.76297321846E+02  0.41800000000E+01 0.  1.
         -5    1    3    3    0  502  0.53032326790E+02 -0.94719871228E+01  0.11239072818E+03  0.12470482912E+03  0.41800000000E+01 0.  1.
        -11    1    1    2    0    0 -0.58001071520E+02  0.52540467022E+01 -0.83985185259E+02  0.10220196009E+03  0.00000000000E+00 0.  1.
         11    1    1    2    0    0 -0.30375109745E+02 -0.63139169735E+02 -0.29217122776E+02  0.75913386897E+02  0.00000000000E+00 0. -1.
</event>
<event>
 7    1  0.7017065E-006  0.1286586E+03  0.7561462E-02  0.1229460E+00
          1   -1    0    0  501    0  0.00000000000E+00  0.00000000000E+00  0.45398295115E+03  0.45398295115E+03  0.00000000000E+00 0. -1.
         -1   -1    0    0    0  501 -0.00000000000E+00 -0.00000000000E+00 -0.44160332358E+02  0.44160332358E+02  0.00000000000E+00 0.  1.
         23    2    1    2    0    0 -0.77397199832E+02 -0.18291115856E+02  0.14613815279E+03  0.20815589774E+03  0.12509047366E+03 0.  0.
          5    1    3    3  502    0 -0.97588604180E+02  0.24147213122E+02  0.10672557725E+03  0.14667803110E+03  0.41800000000E+01 0. -1.
         -5    1    3    3    0  502  0.20191404348E+02 -0.42438328978E+02  0.39412575535E+02  0.61477866637E+02  0.41800000000E+01 0. -1.
        -11    1    1    2    0    0  0.85697173705E+02  0.33643002928E+02  0.25368454543E+03  0.26987349966E+03  0.00000000000E+00 0. -1.
         11    1    1    2    0    0 -0.82999738724E+01 -0.15351887073E+02  0.99999205642E+01  0.20113886105E+02  0.00000000000E+00 0.  1.
</event>
<event>
 7    1  0.7017065E-006  0.1983950E+03  0.7561462E-02  0.1151100E+00
          2   -1    0    0  501    0  0.00000000000E+00  0.00000000000E+00  0.18980511850E+03  0.18980511850E+03  0.00000000000E+00 0. -1.
         -2   -1    0    0    0  501 -0.00000000000E+00 -0.00000000000E+00 -0.21087808949E+03  0.21087808949E+03  0.00000000000E+00 0.  1.
         23    2    1    2    0    0  0.16670492448E+03 -0.17047247314E+01 -0.30255444179E+02  0.21060905267E+03  0.12508934100E+03 0.  0.
          5    1    3    3  502    0  0.93087652886E+02 -0.63048262690E+02 -0.16600058184E+02  0.11372523414E+03  0.41800000000E+01 0. -1.
         -5    1    3    3    0  502  0.73617271592E+02  0.61343537958E+02 -0.13655385995E+02  0.96883818528E+02  0.41800000000E+01 0. -1.
        -11    1    1    2    0    0 -0.16120491915E+03 -0.23196041428E+02 -0.30499247937E+00  0.16286551297E+03  0.00000000000E+00 0.  1.
         11    1    1    2    0    0 -0.55000053283E+01  0.24900766159E+02  0.94874656608E+01  0.27208642351E+02  0.00000000000E+00 0. -1.
</event>
<event>
 7    1  0.7017065E-006  0.7509852E+02  0.7561462E-02  0.1343566E+00
         -2   -1    0    0    0  501 -0.00000000000E+00  0.00000000000E+00  0.15796323103E+03  0.15796323103E+03  0.00000000000E+00 0.  1.
          2   -1    0    0  501    0  0.00000000000E+00 -0.00000000000E+00 -0.10605083892E+03  0.10605083892E+03  0.00000000000E+00 0. -1.
         23    2    1    2    0    0 -0.33972746436E+01 -0.26489359873E+00  0.10175422057E+03  0.16129029621E+03  0.12509606949E+03 0.  0.
          5    1    3    3  502    0 -0.28520519149E+02  0.46138706983E+02  0.99303303802E+01  0.55301755452E+02  0.41800000000E+01 0. -1.
         -5    1    3    3    0  502  0.25123244505E+02 -0.46403600582E+02  0.91823890191E+02  0.10598854075E+03  0.41800000000E+01 0. -1.
        -11    1    1    2    0    0  0.22106556256E+02  0.66611800977E+01  0.19746564183E+02  0.30380881271E+02  0.00000000000E+00 0.  1.
         11    1    1    2    0    0 -0.18709281612E+02 -0.63962864990E+01 -0.69588392651E+02  0.72342892471E+02  0.00000000000E+00 0. -1.
</event>
<event>
 7    1  0.7017065E-006  0.9753094E+02  0.7561462E-02  0.1285575E+00
         -1   -1    0    0    0  501 -0.00000000000E+00  0.00000000000E+00  0.34615438528E+02  0.34615438528E+02  0.00000000000E+00 0.  1.
          1   -1    0    0  501    0  0.00000000000E+00 -0.00000000000E+00 -0.38135863166E+03  0.38135863166E+03  0.00000000000E+00 0. -1.
         23    2    1    2    0    0  0.21152677868E+02 -0.24563017814E+02 -0.17732131967E+03  0.21940910070E+03  0.12508687156E+03 0.  0.
          5    1    3    3  502    0  0.55056676753E+02  0.25063225935E+02 -0.50150087436E+02  0.78688668937E+02  0.41800000000E+01 0. -1.
         -5    1    3    3    0  502 -0.33903998885E+02 -0.49626243749E+02 -0.12717123223E+03  0.14072043177E+03  0.41800000000E+01 0. -1.
        -11    1    1    2    0    0 -0.20528833524E+02 -0.20557638830E+02 -0.97589468047E+01  0.30647782348E+02  0.00000000000E+00 0.  1.
         11    1    1    2    0    0 -0.62384434348E+00  0.45120656644E+02 -0.15966292666E+03  0.16591718714E+03  0.00000000000E+00 0. -1.
</event>
<event>
 7    1  0.7017065E-006  0.1329345E+03  0.7561462E-02  0.1223165E+00
         -1   -1    0    0    0  501 -0.00000000000E+00  0.00000000000E+00  0.83951613794E+02  0.83951613794E+02  0.00000000000E+00 0.  1.
          1   -1    0    0  501    0  0.00000000000E+00 -0.00000000000E+00 -0.31568019393E+03  0.31568019393E+03  0.00000000000E+00 0. -1.
         23    2    1    2    0    0 -0.86001490591E+02  0.20684430537E+02 -0.78929836371E+01  0.14334109415E+03  0.11251785650E+03 0.  0.
          5    1    3    3  502    0  0.11760496464E+02 -0.29191782372E+02  0.69880337071E+01  0.32508067464E+02  0.41800000000E+01 0. -1.
         -5    1    3    3    0  502 -0.97761987055E+02  0.49876212909E+02 -0.14881017344E+02  0.11083302669E+03  0.41800000000E+01 0.  1.
        -11    1    1    2    0    0  0.56026804404E+01  0.29161215579E+02 -0.43821252268E+02  0.52934569730E+02  0.00000000000E+00 0.  1.
         11    1    1    2    0    0  0.80398810150E+02 -0.49845646116E+02 -0.18001434423E+03  0.20335614384E+03  0.00000000000E+00 0. -1.
</event>
<event>
 6    1  0.7017065E-006  0.1912798E+03  0.7561462E-02  0.1157312E+00
          1   -1    0    0  501    0  0.00000000000E+00  0.00000000000E+00  0.49104840225E+03  0.49104840225E+03  0.00000000000E+00 0. -1.
         -1   -1    0    0    0  501 -0.00000000000E+00 -0.00000000000E+00 -0.90179507107E+02  0.90179507107E+02  0.00000000000E+00 0.  1.
          5    1    1    2  502    0  0.69749246721E+02  0.10231065795E+03  0.36254572456E+02  0.12909025747E+03  0.41800000000E+01 0. -1.
         -5    1    1    2    0  502 -0.67727881519E+02  0.52929105089E+02  0.98994427624E+02  0.13117135816E+03  0.41800000000E+01 0.  1.
        -11    1    1    2    0    0  0.35887587114E+02 -0.57591344135E+02  0.15182950591E+03  0.16630357991E+03  0.00000000000E+00 0. -1.
         11    1    1    2    0    0 -0.37908952316E+02 -0.97648418907E+02  0.11379038915E+03  0.15466271381E+03  0.00000000000E+00 0.  1.
</event>
<event>
 7    1  0.7017065E-006  0.1405884E+03  0.7561462E-02  0.1212539E+00
          2   -1    0    0  501    0  0.00000000000E+00  0.00000000000E+00  0.10849571334E+04  0.10849571334E+04  0.00000000000E+00 0. -1.
         -2   -1    0    0    0  501 -0.00000000000E+00 -0.00000000000E+00 -0.27430911064E+02  0.27430911064E+02  0.00000000000E+00 0.  1.
         23    2    1    2    0    0 -0.63336726554E+02 -0.10545587547E+03  0.39286700927E+03  0.43026061150E+03  0.12508886534E+03 0.  0.
          5    1    3    3  502    0 -0.65101573259E+02 -0.78477603997E+02  0.12668327865E+03  0.16267475114E+03  0.41800000000E+01 0. -1.
         -5    1    3    3    0  502  0.17648467057E+01 -0.26978271475E+02  0.26618373062E+03  0.26758586036E+03  0.41800000000E+01 0. -1.
        -11    1    1    2    0    0  0.78413505698E+02  0.47045410941E+02  0.35073540305E+03  0.36246002747E+03  0.00000000000E+00 0. -1.
         11    1    1    2    0    0 -0.15076779144E+02  0.58410464531E+02  0.31392381004E+03  0.31966740552E+03  0.00000000000E+00 0.  1.
</event>
<event>
 7    1  0.7017065E-006  0.1025277E+03  0.7561462E-02  0.1275069E+00
         -2   -1    0    0    0  501 -0.00000000000E+00  0.00000000000E+00  0.38441508622E+02  0.38441508622E+02  0.00000000000E+00 0.  1.
          2   -1    0    0  501    0  0.00000000000E+00 -0.00000000000E+00 -0.33547307278E+03  0.33547307278E+03  0.00000000000E+00 0. -1.
         23    2    1    2    0    0  0.81773131250E+01  0.25556073153E+02 -0.13074270889E+03  0.18292382336E+03  0.12508991926E+03 0.  0.
          5    1    3    3  502    0 -0.58291582602E+02  0.83493575691E+01 -0.64236400700E+02  0.87243383411E+02  0.41800000000E+01 0. -1.
         -5    1    3    3    0  502  0.66468895727E+02  0.17206715584E+02 -0.66506308187E+02  0.95680439950E+02  0.41800000000E+01 0. -1.
        -11    1    1    2    0    0 -0.37382117784E+02 -0.29689676640E+02 -0.43086058151E+02  0.64306360774E+02  0.00000000000E+00 0.  1.
         11    1    1    2    0    0  0.29204804659E+02  0.41336034872E+01 -0.12320279711E+03  0.12668439726E+03  0.00000000000E+00 0. -1.
</event>
<event>
 7    1  0.7017065E-006  0.1702152E+03  0.7561462E-02  0.1177624E+00
          2   -1    0    0  501    0  0.00000000000E+00  0.00000000000E+00  0.13423427393E+04  0.13423427393E+04  0.00000000000E+00 0.  1.
         -2   -1    0    0    0  501 -0.00000000000E+00 -0.00000000000E+00 -0.25022032683E+02  0.25022032683E+02  0.00000000000E+00 0. -1.
         23    2    1    2    0    0 -0.68161101759E+02  0.12656201565E+03  0.56818592874E+03  0.59928822990E+03  0.12508898145E+03 0.  0.
          5    1    3    3  502    0 -0.91288285134E+02  0.11336374010E+03  0.54374102956E+03  0.56290022935E+03  0.41800000000E+01 0. -1.
         -5    1    3    3    0  502  0.23127183375E+02  0.13198275545E+02  0.24444899179E+02  0.36388000551E+02  0.41800000000E+01 0. -1.
        -11    1    1    2    0    0  0.82321691072E+02 -0.65548236240E+02  0.41588481203E+03  0.42899138566E+03  0.00000000000E+00 0.  1.
         11    1    1    2    0    0 -0.14160589313E+02 -0.61013779409E+02  0.33324996580E+03  0.33908515638E+03  0.00000000000E+00 0. -1.
</event>
<event>
 7    1  0.7017065E-006  0.1023858E+03  0.7561462E-02  0.1275357E+00
         -1   -1    0    0    0  501 -0.00000000000E+00  0.00000000000E+00  0.66053609753E+03  0.66053609753E+03  0.00000000000E+00 0.  1.
          1   -1    0    0  501    0  0.00000000000E+00 -0.00000000000E+00 -0.25984191763E+02  0.25984191763E+02  0.00000000000E+00 0. -1.
         23    2    1    2    0    0 -0.16408856602E+02  0.64273546000E+02  0.45217432364E+03  0.47205449260E+03  0.11820949932E+03 0.  0.
          5    1    3    3  502    0 -0.39041799932E+02 -0.87470321419E+01  0.58449752005E+02  0.70955046492E+02  0.41800000000E+01 0. -1.
         -5    1    3    3    0  502  0.22632943330E+02  0.73020578142E+02  0.39372457164E+03  0.40109944610E+03  0.41800000000E+01 0.  1.
        -11    1    1    2    0    0  0.37584216404E+02 -0.31891882541E+02  0.16471864422E+03  0.17193573581E+03  0.00000000000E+00 0.  1.
         11    1    1    2    0    0 -0.21175359802E+02 -0.32381663458E+02  0.17658937905E+02  0.42530060886E+02  0.00000000000E+00 0. -1.
</event>
<event>
 7    1  0.7017065E-006  0.1025484E+03  0.7561462E-02  0.1275027E+00
         -1   -1    0    0    0  501 -0.00000000000E+00  0.00000000000E+00  0.76318921584E+03  0.76318921584E+03  0.00000000000E+00 0.  1.
          1   -1    0    0  501    0  0.00000000000E+00 -0.00000000000E+00 -0.26120630029E+02  0.26120630029E+02  0.00000000000E+00 0. -1.
         23    2    1    2    0    0 -0.62588765328E+02 -0.90037442427E+01  0.56880208569E+03  0.58581691591E+03  0.12508886971E+03 0.  0.
          5    1    3    3  502    0  0.86678367349E+01  0.39957662314E+02  0.31479663481E+03  0.31746832890E+03  0.41800000000E+01 0. -1.
         -5    1    3    3    0  502 -0.71256602062E+02 -0.48961406557E+02  0.25400545088E+03  0.26834858700E+03  0.41800000000E+01 0. -1.
        -11    1    1    2    0    0  0.42109233478E+02  0.27128291319E+02  0.16886565651E+03  0.17613841626E+03  0.00000000000E+00 0.  1.
         11    1    1    2    0    0  0.20479531849E+02 -0.18124547076E+02 -0.59915638715E+00  0.27354513701E+02  0.00000000000E+00 0. -1.
</event>
<event>
 7    1  0.7017065E-006  0.9819110E+02  0.7561462E-02  0.1284146E+00
         -1   -1    0    0    0  501 -0.00000000000E+00  0.00000000000E+00  0.44222030620E+02  0.44222030620E+02  0.00000000000E+00 0.  1.
          1   -1    0    0  501    0  0.00000000000E+00 -0.00000000000E+00 -0.30561884247E+03  0.30561884247E+03  0.00000000000E+00 0. -1.
         23    2    1    2    0    0 -0.46528118763E+01 -0.35298067661E+02 -0.11367982399E+03  0.17270698617E+03  0.12504798460E+03 0.  0.
          5    1    3    3  502    0 -0.51433151942E+02 -0.42009030535E+02 -0.10525062347E+03  0.12452025500E+03  0.41800000000E+01 0. -1.
         -5    1    3    3    0  502  0.46780340066E+02  0.67109628735E+01 -0.84292005178E+01  0.48186731169E+02  0.41800000000E+01 0. -1.
        -11    1    1    2    0    0  0.36836563386E+02  0.32504556333E+01 -0.11596118700E+03  0.12171480910E+03  0.00000000000E+00 0. -1.
         11    1    1    2    0    0 -0.32183751509E+02  0.32047612028E+02 -0.31755800864E+02  0.55419077820E+02  0.00000000000E+00 0.  1.
</event>
<event>
 7    1  0.7017065E-006  0.1264688E+03  0.7561462E-02  0.1232791E+00
          1   -1    0    0  501    0  0.00000000000E+00  0.00000000000E+00  0.79420526067E+03  0.79420526067E+03  0.00000000000E+00 0. -1.
         -1   -1    0    0    0  501 -0.00000000000E+00 -0.00000000000E+00 -0.22177874856E+02  0.22177874856E+02  0.00000000000E+00 0.  1.
         23    2    1    2    0    0  0.26067540744E+02 -0.64490546255E+02  0.32813245518E+03  0.35799071617E+03  0.12509155642E+03 0.  0.
          5    1    3    3  502    0  0.75853101832E+02 -0.32741080278E+02  0.16787773999E+03  0.18715255643E+03  0.41800000000E+01 0. -1.
         -5    1    3    3    0  502 -0.49785561088E+02 -0.31749465978E+02  0.16025471519E+03  0.17083815974E+03  0.41800000000E+01 0. -1.
        -11    1    1    2    0    0 -0.72919462550E+01 -0.21655624173E+02  0.53686757282E+02  0.58347291677E+02  0.00000000000E+00 0.  1.
         11    1    1    2    0    0 -0.18775594489E+02  0.86146170428E+02  0.39020817335E+03  0.40004512767E+03  0.00000000000E+00 0. -1.
</event>
<event>
 7    1  0.7017065E-006  0.9374181E+02  0.7561462E-02  0.1294035E+00
          1   -1    0    0  501    0  0.00000000000E+00  0.00000000000E+00  0.66600797050E+03  0.66600797050E+03  0.00000000000E+00 0. -1.
         -1   -1    0    0    0  501 -0.00000000000E+00 -0.00000000000E+00 -0.20256073162E+02  0.20256073162E+02  0.00000000000E+00 0.  1.
         23    2    1    2    0    0  0.73664371587E+01 -0.29991474886E+02  0.28502952056E+03  0.31279881085E+03  0.12509002964E+03 0.  0.
          5    1    3    3  502    0  0.29926204110E+02  0.23767263976E+02  0.24033923420E+02  0.45338310558E+02  0.41800000000E+01 0.  1.
         -5    1    3    3    0  502 -0.22559766951E+02 -0.53758738862E+02  0.26099559714E+03  0.26746050029E+03  0.41800000000E+01 0.  1.
        -11    1    1    2    0    0 -0.39080339226E+02 -0.92250845469E+01  0.22748076959E+03  0.23099756629E+03  0.00000000000E+00 0.  1.
         11    1    1    2    0    0  0.31713902067E+02  0.39216559433E+02  0.13324160719E+03  0.14246766652E+03  0.00000000000E+00 0. -1.
</event>
<event>
 7    1  0.7017065E-006  0.1083273E+03  0.7561462E-02  0.1263699E+00
          2   -1    0    0  501    0  0.00000000000E+00  0.00000000000E+00  0.56221353906E+03  0.56221353906E+03  0.00000000000E+00 0. -1.
         -2   -1    0    0    0  501 -0.00000000000E+00 -0.00000000000E+00 -0.32627914214E+02  0.32627914214E+02  0.00000000000E+00 0.  1.
         23    2    1    2    0    0 -0.63233955117E+02  0.43856701026E+02  0.21995786359E+03  0.26223475739E+03  0.12026496965E+03 0.  0.
          5    1    3    3  502    0 -0.10916798530E+02  0.42934848239E+02  0.20186644551E+03  0.20671263123E+03  0.41800000000E+01 0. -1.
         -5    1    3    3    0  502 -0.52317156586E+02  0.92185278614E+00  0.18091418072E+02  0.55522126164E+02  0.41800000000E+01 0.  1.
        -11    1    1    2    0    0  0.53949506741E+02  0.18185229519E+02  0.17615618101E+03  0.18512766395E+03  0.00000000000E+00 0.  1.
         11    1    1    2    0    0  0.92844483760E+01 -0.62041930544E+02  0.13347158025E+03  0.14747903194E+03  0.00000000000E+00 0. -1.
</event>
<event>
 7    1  0.7017065E-006  0.1125680E+03  0.7561462E-02  0.1255887E+00
         -2   -1    0    0    0  501 -0.00000000000E+00  0.00000000000E+00  0.65552293879E+02  0.65552293879E+02  0.00000000000E+00 0.  1.
          2   -1    0    0  501    0  0.00000000000E+00 -0.00000000000E+00 -0.25259050251E+03  0.25259050251E+03  0.00000000000E+00 0. -1.
         23    2    1    2    0    0  0.44338933679E+02  0.38671945830E+02 -0.66843625714E+02  0.15278133542E+03  0.12414751597E+03 0.  0.
          5    1    3    3  502    0  0.78482344520E+02  0.21598721246E+01 -0.65932596434E+02  0.10260956642E+03  0.41800000000E+01 0. -1.
         -5    1    3    3    0  502 -0.34143410841E+02  0.36512073706E+02 -0.91102927996E+00  0.50171768999E+02  0.41800000000E+01 0.  1.
        -11    1    1    2    0    0  0.21819295717E+02 -0.12907587528E+02  0.47395627778E+00  0.25355711702E+02  0.00000000000E+00 0.  1.
         11    1    1    2    0    0 -0.66158229396E+02 -0.25764358302E+02 -0.12066853919E+03  0.14000574926E+03  0.00000000000E+00 0. -1.
</event>
<event>
 7    1  0.7017065E-006  0.1133908E+03  0.7561462E-02  0.1254416E+00
         -4   -1    0    0    0  501 -0.00000000000E+00  0.00000000000E+00  0.62163744473E+02  0.62163744473E+02  0.00000000000E+00 0.  1.
          4   -1    0    0  501    0  0.00000000000E+00 -0.00000000000E+00 -0.34131119372E+03  0.34131119372E+03  0.00000000000E+00 0. -1.
         23    2    1    2    0    0  0.32512204158E+02  0.69466909575E+02 -0.70428848724E+02  0.16275915182E+03  0.12509046256E+03 0.  0.
          5    1    3    3  502    0 -0.34783046442E+02  0.47058714377E+02 -0.70487714383E+02  0.91708086870E+02  0.41800000000E+01 0.  1.
         -5    1    3    3    0  502  0.67295250599E+02  0.22408195199E+02  0.58865658147E-01  0.71051064949E+02  0.41800000000E+01 0.  1.
        -11    1    1    2    0    0 -0.37087529292E+02 -0.11376873540E+02 -0.16038220338E+03  0.16500717936E+03  0.00000000000E+00 0. -1.
         11    1    1    2    0    0  0.45753251339E+01 -0.58090036035E+02 -0.48336397145E+02  0.75708607012E+02  0.00000000000E+00 0.  1.
</event>
<event>
 7    1  0.7017065E-006  0.7183603E+02  0.7561462E-02  0.1353959E+00
          1   -1    0    0  501    0  0.00000000000E+00  0.00000000000E+00  0.37453873336E+03  0.37453873336E+03  0.00000000000E+00 0. -1.
         -1   -1    0    0    0  501 -0.00000000000E+00 -0.00000000000E+00 -0.41240856236E+02  0.41240856236E+02  0.00000000000E+00 0.  1.
         23    2    1    2    0    0  0.13375519449E+02 -0.71367412952E+01  0.84267357188E+02  0.15158098805E+03  0.12508385529E+03 0.  0.
          5    1    3    3  502    0  0.59620528486E+01  0.33070946058E+02  0.10151200256E+03  0.10701117985E+03  0.41800000000E+01 0. -1.
         -5    1    3    3    0  502  0.74134666004E+01 -0.40207687354E+02 -0.17244645377E+02  0.44569808206E+02  0.41800000000E+01 0. -1.
        -11    1    1    2    0    0  0.85275473093E+00  0.36274419566E+02  0.21154569444E+03  0.21463490290E+03  0.00000000000E+00 0.  1.
         11    1    1    2    0    0 -0.14228274180E+02 -0.29137678271E+02  0.37484825498E+02  0.49563698649E+02  0.00000000000E+00 0. -1.
</event>
<event>
 6    1  0.7017065E-006  0.3291769E+03  0.7561462E-02  0.1071502E+00
          1   -1    0    0  501    0  0.00000000000E+00  0.00000000000E+00  0.26112576337E+03  0.26112576337E+03  0.00000000000E+00 0. -1.
         -1   -1    0    0    0  501 -0.00000000000E+00 -0.00000000000E+00 -0.43604091260E+03  0.43604091260E+03  0.00000000000E+00 0.  1.
          5    1    1    2  502    0 -0.29887343619E+03 -0.13642330869E+02 -0.67189025686E+02  0.30666477076E+03  0.41800000000E+01 0. -1.
         -5    1    1    2    0  502  0.14368265029E+03  0.76147888563E+02 -0.10542190422E+03  0.19384131453E+03  0.41800000000E+01 0.  1.
        -11    1    1    2    0    0  0.12445363283E+03 -0.91302777397E+02  0.15907896176E+01  0.15436137631E+03  0.00000000000E+00 0.  1.
         11    1    1    2    0    0  0.30737153073E+02  0.28797219703E+02 -0.38950089336E+01  0.42299214369E+02  0.00000000000E+00 0. -1.
</event>
<event>
 7    1  0.7017065E-006  0.1537801E+03  0.7561462E-02  0.1195903E+00
          1   -1    0    0  501    0  0.00000000000E+00  0.00000000000E+00  0.10010921995E+03  0.10010921995E+03  0.00000000000E+00 0. -1.
         -1   -1    0    0    0  501 -0.00000000000E+00 -0.00000000000E+00 -0.33408169042E+03  0.33408169042E+03  0.00000000000E+00 0.  1.
         23    2    1    2    0    0  0.78565454488E+02 -0.10497892504E+03 -0.20429639499E+03  0.27306590838E+03  0.12503946565E+03 0.  0.
          5    1    3    3  502    0 -0.11782149988E+02  0.41688176124E+01  0.97113790374E+01  0.16370136879E+02  0.41800000000E+01 0.  1.
         -5    1    3    3    0  502  0.90347604476E+02 -0.10914774266E+03 -0.21400777403E+03  0.25669577150E+03  0.41800000000E+01 0.  1.
        -11    1    1    2    0    0 -0.32079322198E+01  0.69088406074E+02  0.78549137654E+01  0.69607459034E+02  0.00000000000E+00 0. -1.
         11    1    1    2    0    0 -0.75357522268E+02  0.35890518969E+02 -0.37530989240E+02  0.91517542950E+02  0.00000000000E+00 0.  1.
</event>
<event>
 7    1  0.7017065E-006  0.3030664E+03  0.7561462E-02  0.1083718E+00
         -1   -1    0    0    0  501 -0.00000000000E+00  0.00000000000E+00  0.15811398712E+03  0.15811398712E+03  0.00000000000E+00 0.  1.
          1   -1    0    0  501    0  0.00000000000E+00 -0.00000000000E+00 -0.65826939871E+03  0.65826939871E+03  0.00000000000E+00 0. -1.
         23    2    1    2    0    0  0.29036377250E+03 -0.73189603579E+02 -0.18801998340E+03  0.37505546170E+03  0.12508895533E+03 0.  0.
          5    1    3    3  502    0  0.13748001128E+03 -0.64299321595E+02 -0.29624146697E+02  0.15469395181E+03  0.41800000000E+01 0. -1.
         -5    1    3    3    0  502  0.15288376122E+03 -0.88902819847E+01 -0.15839583670E+03  0.22036150989E+03  0.41800000000E+01 0. -1.
        -11    1    1    2    0    0 -0.25811409492E+03  0.54419229123E+02 -0.30515576148E+03  0.40336630655E+03  0.00000000000E+00 0.  1.
         11    1    1    2    0    0 -0.32249677581E+02  0.18770374457E+02 -0.69796667039E+01  0.37961617571E+02  0.00000000000E+00 0. -1.
</event>
<event>
 7    1  0.7017065E-006  0.1004074E+03  0.7561462E-02  0.1279442E+00
         -2   -1    0    0    0  501 -0.00000000000E+00  0.00000000000E+00  0.40613759815E+02  0.40613759815E+02  0.00000000000E+00 0. -1.
          2   -1    0    0  501    0  0.00000000000E+00 -0.00000000000E+00 -0.33513203582E+03  0.33513203582E+03  0.00000000000E+00 0.  1.
         23    2    1    2    0    0  0.33959673456E+02 -0.45488857875E+01 -0.11669348860E+03  0.17446716817E+03  0.12508985052E+03 0.  0.
          5    1    3    3  502    0  0.32240837741E+02 -0.57856314962E+02 -0.30540493106E+02  0.73054903452E+02  0.41800000000E+01 0. -1.
         -5    1    3    3    0  502  0.17188357147E+01  0.53307429174E+02 -0.86152995496E+02  0.10141226471E+03  0.41800000000E+01 0. -1.
        -11    1    1    2    0    0 -0.54230527715E+02  0.17395816441E+02 -0.67232142226E+02  0.88112005505E+02  0.00000000000E+00 0. -1.
         11    1    1    2    0    0  0.20270854259E+02 -0.12846930653E+02 -0.11059264518E+03  0.11316662196E+03  0.00000000000E+00 0.  1.
</event>
<event>
 7    1  0.7017065E-006  0.1069698E+03  0.7561462E-02  0.1266286E+00
         -1   -1    0    0    0  501 -0.00000000000E+00  0.00000000000E+00  0.30258637495E+03  0.30258637495E+03  0.00000000000E+00 0.  1.
          1   -1    0    0  501    0  0.00000000000E+00 -0.00000000000E+00 -0.43168613499E+02  0.43168613499E+02  0.00000000000E+00 0. -1.
         23    2    1    2    0    0  0.42803829746E+02 -0.18468147213E+02  0.18884872508E+03  0.22355300758E+03  0.11017652169E+03 0.  0.
          5    1    3    3  502    0  0.80274086657E+02 -0.10318866022E+02  0.12972202021E+03  0.15295647391E+03  0.41800000000E+01 0. -1.
         -5    1    3    3    0  502 -0.37470256911E+02 -0.81492811912E+01  0.59126704874E+02  0.70596533670E+02  0.41800000000E+01 0.  1.
        -11    1    1    2    0    0 -0.64588977855E+02  0.28183951593E+02  0.68470743419E+02  0.98256368201E+02  0.00000000000E+00 0.  1.
         11    1    1    2    0    0  0.21785148109E+02 -0.97158043799E+01  0.20982929546E+01  0.23945612671E+02  0.00000000000E+00 0. -1.
</event>
<event>
 7    1  0.7017065E-006  0.8788793E+02  0.7561462E-02  0.1308049E+00
         -1   -1    0    0    0  501 -0.00000000000E+00  0.00000000000E+00  0.33042758915E+02  0.33042758915E+02  0.00000000000E+00 0.  1.
          1   -1    0    0  501    0  0.00000000000E+00 -0.00000000000E+00 -0.33317880051E+03  0.33317880051E+03  0.00000000000E+00 0. -1.
         23    2    1    2    0    0  0.14095972213E+02  0.61176688253E+01 -0.16948206279E+03  0.20410868482E+03  0.11269455758E+03 0.  0.
          5    1    3    3  502    0  0.55094180588E+02  0.32920425400E+02 -0.10285439700E+03  0.12130796563E+03  0.41800000000E+01 0. -1.
         -5    1    3    3    0  502 -0.40998208375E+02 -0.26802756575E+02 -0.66627665787E+02  0.82800719189E+02  0.41800000000E+01 0.  1.
        -11    1    1    2    0    0  0.14687842654E+02  0.19056558566E+02  0.19177886111E+01  0.24136343123E+02  0.00000000000E+00 0. -1.
         11    1    1    2    0    0 -0.28783814867E+02 -0.25174227391E+02 -0.13257176742E+03  0.13797653148E+03  0.00000000000E+00 0.  1.
</event>
<event>
 7    1  0.7017065E-006  0.1176519E+03  0.7561462E-02  0.1247022E+00
         -3   -1    0    0    0  501 -0.00000000000E+00  0.00000000000E+00  0.36804714582E+03  0.36804714582E+03  0.00000000000E+00 0.  1.
          3   -1    0    0  501    0  0.00000000000E+00 -0.00000000000E+00 -0.52767047340E+02  0.52767047340E+02  0.00000000000E+00 0. -1.
         23    2    1    2    0    0 -0.18775951094E+02  0.84720055369E+02  0.16245728378E+03  0.22264158252E+03  0.12508749375E+03 0.  0.
          5    1    3    3  502    0 -0.52773701383E+01  0.11300378044E+03  0.15161918716E+03  0.18921827434E+03  0.41800000000E+01 0.  1.
         -5    1    3    3    0  502 -0.13498580955E+02 -0.28283725069E+02  0.10838096619E+02  0.33423308183E+02  0.41800000000E+01 0.  1.
        -11    1    1    2    0    0  0.30965351416E+01 -0.65960214503E+02  0.29279347284E+02  0.72233085249E+02  0.00000000000E+00 0. -1.
         11    1    1    2    0    0  0.15679415952E+02 -0.18759840866E+02  0.12354346742E+03  0.12593952539E+03  0.00000000000E+00 0.  1.
</event>
<event>
 7    1  0.7017065E-006  0.1651291E+03  0.7561462E-02  0.1183025E+00
         -1   -1    0    0    0  501 -0.00000000000E+00  0.00000000000E+00  0.58241077967E+03  0.58241077967E+03  0.00000000000E+00 0.  1.
          1   -1    0    0  501    0  0.00000000000E+00 -0.00000000000E+00 -0.50460388466E+02  0.50460388466E+02  0.00000000000E+00 0. -1.
         23    2    1    2    0    0 -0.13105957990E+03  0.14243473391E+02  0.28789444049E+03  0.34048810467E+03  0.12517767587E+03 0.  0.
          5    1    3    3  502    0 -0.12608741650E+03 -0.26789091017E+02  0.26063828662E+03  0.29080144575E+03  0.41800000000E+01 0. -1.
         -5    1    3    3    0  502 -0.49721634023E+01  0.41032564408E+02  0.27256153869E+02  0.49686658919E+02  0.41800000000E+01 0. -1.
        -11    1    1    2    0    0  0.93893543195E+02 -0.51525506478E+02  0.14575882990E+03  0.18087706257E+03  0.00000000000E+00 0. -1.
         11    1    1    2    0    0  0.37166036704E+02  0.37282033087E+02  0.98297120816E+02  0.11150600090E+03  0.00000000000E+00 0.  1.
</event>
<event>
 7    1  0.7017065E-006  0.1280733E+03  0.7561462E-02  0.1230343E+00
         -2   -1    0    0    0  501 -0.00000000000E+00  0.00000000000E+00  0.38294816691E+03  0.38294816691E+03  0.00000000000E+00 0.  1.
          2   -1    0    0  501    0  0.00000000000E+00 -0.00000000000E+00 -0.48946932145E+02  0.48946932145E+02  0.00000000000E+00 0. -1.
         23    2    1    2    0    0 -0.28463857714E+02  0.71012874588E+02  0.23863737441E+03  0.28008875023E+03  0.12509553144E+03 0.  0.
          5    1    3    3  502    0 -0.72867713218E+02  0.15944520678E+02  0.10560168029E+03  0.12935655627E+03  0.41800000000E+01 0. -1.
         -5    1    3    3    0  502  0.44403855504E+02  0.55068353910E+02  0.13303569412E+03  0.15073219396E+03  0.41800000000E+01 0. -1.
        -11    1    1    2    0    0 -0.11311460188E+02 -0.69872580005E+02  0.33643943034E+02  0.78371177553E+02  0.00000000000E+00 0. -1.
         11    1    1    2    0    0  0.39775317903E+02 -0.11402945823E+01  0.61719917321E+02  0.73435171274E+02  0.00000000000E+00 0.  1.
</event>
<event>
 7    1  0.7017065E-006  0.1294895E+03  0.7561462E-02  0.1228215E+00
         -1   -1    0    0    0  501 -0.00000000000E+00  0.00000000000E+00  0.28934593652E+02  0.28934593652E+02  0.00000000000E+00 0.  1.
          1   -1    0    0  501    0  0.00000000000E+00 -0.00000000000E+00 -0.72386794454E+03  0.72386794454E+03  0.00000000000E+00 0. -1.
         23    2    1    2    0    0 -0.65501255034E+02 -0.38674819647E+02 -0.22460598588E+03  0.26810765105E+03  0.12509079731E+03 0.  0.
          5    1    3    3  502    0 -0.84094354932E+02  0.18387617364E+02 -0.13602927449E+03  0.16103229776E+03  0.41800000000E+01 0.  1.
         -5    1    3    3    0  502  0.18593099898E+02 -0.57062437011E+02 -0.88576711393E+02  0.10707535329E+03  0.41800000000E+01 0.  1.
        -11    1    1    2    0    0  0.89852692204E+01  0.53466504421E+02 -0.29354905630E+03  0.29851373606E+03  0.00000000000E+00 0.  1.
         11    1    1    2    0    0  0.56515985813E+02 -0.14791684774E+02 -0.17677830871E+03  0.18618115109E+03  0.00000000000E+00 0. -1.
</event>
<event>
 7    1  0.7017065E-006  0.1087016E+03  0.7561462E-02  0.1262993E+00
         -2   -1    0    0    0  501 -0.00000000000E+00  0.00000000000E+00  0.48277524600E+02  0.48277524600E+02  0.00000000000E+00 0.  1.
          2   -1    0    0  501    0  0.00000000000E+00 -0.00000000000E+00 -0.26691358408E+03  0.26691358408E+03  0.00000000000E+00 0. -1.
         23    2    1    2    0    0 -0.27151756604E+02 -0.16933709605E+02 -0.10732602081E+03  0.16790095727E+03  0.12509151970E+03 0.  0.
          5    1    3    3  502    0  0.34527690377E+02 -0.44035889017E+02 -0.73288840387E+02  0.92304103102E+02  0.41800000000E+01 0.  1.
         -5    1    3    3    0  502 -0.61679446980E+02  0.27102179412E+02 -0.34037180421E+02  0.75596854165E+02  0.41800000000E+01 0.  1.
        -11    1    1    2    0    0 -0.26726927722E+02 -0.15504259873E+02 -0.53945511967E+02  0.62167748882E+02  0.00000000000E+00 0. -1.
         11    1    1    2    0    0  0.53878684325E+02  0.32437969478E+02 -0.57364526709E+02  0.85122402534E+02  0.00000000000E+00 0.  1.
</event>
<event>
 7    1  0.7017065E-006  0.8509372E+02  0.7561462E-02  0.1315188E+00
          1   -1    0    0  501    0  0.00000000000E+00  0.00000000000E+00  0.34053038992E+02  0.34053038992E+02  0.00000000000E+00 0. -1.
         -1   -1    0    0    0  501 -0.00000000000E+00 -0.00000000000E+00 -0.49571819452E+03  0.49571819452E+03  0.00000000000E+00 0.  1.
         23    2    1    2    0    0  0.66713185106E+01 -0.70617874526E+02 -0.23578605715E+03  0.27617111997E+03  0.12507610510E+03 0.  0.
          5    1    3    3  502    0  0.14403656510E+02 -0.82770974781E+02 -0.69237658714E+02  0.10894872818E+03  0.41800000000E+01 0.  1.
         -5    1    3    3    0  502 -0.77323379992E+01  0.12153100254E+02 -0.16654839843E+03  0.16722239179E+03  0.41800000000E+01 0.  1.
        -11    1    1    2    0    0  0.47997849925E+00  0.13167023362E+02  0.60903395548E+01  0.14515271939E+02  0.00000000000E+00 0. -1.
         11    1    1    2    0    0 -0.71512970098E+01  0.57450851164E+02 -0.23196943794E+03  0.23908484160E+03  0.00000000000E+00 0.  1.
</event>
<event>
 7    1  0.7017065E-006  0.9487836E+02  0.7561462E-02  0.1291450E+00
          2   -1    0    0  501    0  0.00000000000E+00  0.00000000000E+00  0.11508293246E+04  0.11508293246E+04  0.00000000000E+00 0. -1.
         -2   -1    0    0    0  501 -0.00000000000E+00 -0.00000000000E+00 -0.12425656454E+02  0.12425656454E+02  0.00000000000E+00 0.  1.
         23    2    1    2    0    0  0.39285478967E+02  0.27569910111E+02  0.66207319726E+03  0.67549647341E+03  0.12510442939E+03 0.  0.
          5    1    3    3  502    0  0.54108070466E+02  0.10171487645E+01  0.62505450129E+03  0.62740682166E+03  0.41800000000E+01 0. -1.
         -5    1    3    3    0  502 -0.14822591499E+02  0.26552761346E+02  0.37018695970E+02  0.48089651747E+02  0.41800000000E+01 0. -1.
        -11    1    1    2    0    0  0.20239750443E+02 -0.39213553903E+02  0.21494530944E+03  0.21942843106E+03  0.00000000000E+00 0. -1.
         11    1    1    2    0    0 -0.59525229410E+02  0.11643643792E+02  0.26138516142E+03  0.26833007656E+03  0.00000000000E+00 0.  1.
</event>
<event>
 7    1  0.7017065E-006  0.1238562E+03  0.7561462E-02  0.1236868E+00
          1   -1    0    0  501    0  0.00000000000E+00  0.00000000000E+00  0.23654350317E+02  0.23654350317E+02  0.00000000000E+00 0. -1.
         -1   -1    0    0    0  501 -0.00000000000E+00 -0.00000000000E+00 -0.67692876511E+03  0.67692876511E+03  0.00000000000E+00 0.  1.
         23    2    1    2    0    0 -0.64532746667E+02 -0.18623651959E+01 -0.39128715146E+03  0.41583346383E+03  0.12507554097E+03 0.  0.
          5    1    3    3  502    0  0.77516316036E+01 -0.51955577975E+02 -0.14374741479E+03  0.15310212779E+03  0.41800000000E+01 0.  1.
         -5    1    3    3    0  502 -0.72284378270E+02  0.50093212779E+02 -0.24753973667E+03  0.26273133604E+03  0.41800000000E+01 0.  1.
        -11    1    1    2    0    0  0.15144394099E+02 -0.39656369169E+02 -0.66537573766E+02  0.78925464908E+02  0.00000000000E+00 0. -1.
         11    1    1    2    0    0  0.49388352568E+02  0.41518734365E+02 -0.19544968957E+03  0.20582418669E+03  0.00000000000E+00 0.  1.
</event>
<event>
 6    1  0.7017065E-006  0.1159485E+03  0.7561462E-02  0.1249934E+00
          2   -1    0    0  501    0  0.00000000000E+00  0.00000000000E+00  0.74262942434E+03  0.74262942434E+03  0.00000000000E+00 0. -1.
         -2   -1    0    0    0  501 -0.00000000000E+00 -0.00000000000E+00 -0.24942949970E+02  0.24942949970E+02  0.00000000000E+00 0.  1.
          5    1    1    2  502    0  0.27614905175E+02 -0.45292893005E+02  0.23903664135E+03  0.24488776501E+03  0.41800000000E+01 0. -1.
         -5    1    1    2    0  502  0.44860802595E+02  0.59202298909E+02  0.77900403379E+02  0.10771884261E+03  0.41800000000E+01 0.  1.
        -11    1    1    2    0    0 -0.58667279426E+02  0.24420658017E+02  0.29201100903E+03  0.29884552466E+03  0.00000000000E+00 0.  1.
         11    1    1    2    0    0 -0.13808428344E+02 -0.38330063921E+02  0.10873842062E+03  0.11612024204E+03  0.00000000000E+00 0. -1.
</event>
<event>
 7    1  0.7017065E-006  0.1204078E+03  0.7561462E-02  0.1242426E+00
         -3   -1    0    0    0  501 -0.00000000000E+00  0.00000000000E+00  0.12443672300E+03  0.12443672300E+03  0.00000000000E+00 0.  1.
          3   -1    0    0  501    0  0.00000000000E+00 -0.00000000000E+00 -0.14132391251E+03  0.14132391251E+03  0.00000000000E+00 0. -1.
         23    2    1    2    0    0 -0.66752877434E+02  0.19822499098E+02  0.14545580071E+02  0.14390862355E+03  0.12509692209E+03 0.  0.
          5    1    3    3  502    0 -0.10773153409E+02 -0.50827586504E+02  0.12717147222E+02  0.53653542452E+02  0.41800000000E+01 0. -1.
         -5    1    3    3    0  502 -0.55979724025E+02  0.70650085602E+02  0.18284328495E+01  0.90255081099E+02  0.41800000000E+01 0. -1.
        -11    1    1    2    0    0 -0.10633202208E+02  0.10868230224E+02  0.19140529256E+02  0.24444698354E+02  0.00000000000E+00 0.  1.
         11    1    1    2    0    0  0.77386079642E+02 -0.30690729322E+02 -0.50573298841E+02  0.97407313608E+02  0.00000000000E+00 0. -1.
</event>
<event>
 7    1  0.7017065E-006  0.1141335E+03  0.7561462E-02  0.1253101E+00
         -2   -1    0    0    0  501 -0.00000000000E+00  0.00000000000E+00  0.91677133249E+02  0.91677133249E+02  0.00000000000E+00 0.  1.
          2   -1    0    0  501    0  0.00000000000E+00 -0.00000000000E+00 -0.31454493539E+03  0.31454493539E+03  0.00000000000E+00 0. -1.
         23    2    1    2    0    0 -0.12884928107E+02 -0.81693137739E+02 -0.51972663946E+00  0.14996452115E+03  0.12509715169E+03 0.  0.
          5    1    3    3  502    0 -0.59282938426E+02 -0.75983683259E+02  0.20368451799E+02  0.98591749851E+02  0.41800000000E+01 0. -1.
         -5    1    3    3    0  502  0.46398010320E+02 -0.57094544807E+01 -0.20888178439E+02  0.51372771295E+02  0.41800000000E+01 0. -1.
        -11    1    1    2    0    0 -0.16985152793E+01  0.49458681738E+02 -0.24406623675E+02  0.55179066978E+02  0.00000000000E+00 0.  1.
         11    1    1    2    0    0  0.14583443386E+02  0.32234456002E+02 -0.19794145182E+03  0.20107848051E+03  0.00000000000E+00 0. -1.
</event>
<event>
 7    1  0.7017065E-006  0.1099833E+03  0.7561462E-02  0.1260601E+00
         -2   -1    0    0    0  501 -0.00000000000E+00  0.00000000000E+00  0.97976733208E+03  0.97976733208E+03  0.00000000000E+00 0.  1.
          2   -1    0    0  501    0  0.00000000000E+00 -0.00000000000E+00 -0.25564472469E+02  0.25564472469E+02  0.00000000000E+00 0. -1.
         23    2    1    2    0    0 -0.26511320731E+02 -0.59472240217E+02  0.81306539064E+03  0.82520500243E+03  0.12509264206E+03 0.  0.
          5    1    3    3  502    0 -0.24932223875E+02  0.25765398346E+02  0.48074486832E+03  0.48209809412E+03  0.41800000000E+01 0. -1.
         -5    1    3    3    0  502 -0.15790968561E+01 -0.85237638563E+02  0.33232052233E+03  0.34310690831E+03  0.41800000000E+01 0. -1.
        -11    1    1    2    0    0  0.41597518756E+02  0.48864974938E+01  0.20018026441E+02  0.46421469247E+02  0.00000000000E+00 0. -1.
         11    1    1    2    0    0 -0.15086198025E+02  0.54585742723E+02  0.12111944253E+03  0.13370533287E+03  0.00000000000E+00 0.  1.
</event>
<event>
 7    1  0.7017065E-006  0.8477081E+02  0.7561462E-02  0.1316033E+00
         -2   -1    0    0    0  501 -0.00000000000E+00  0.00000000000E+00  0.43258930802E+02  0.43258930802E+02  0.00000000000E+00 0.  1.
          2   -1    0    0  501    0  0.00000000000E+00 -0.00000000000E+00 -0.44717229078E+03  0.44717229078E+03  0.00000000000E+00 0. -1.
         23    2    1    2    0    0  0.26624515693E+02  0.79604785058E+02 -0.18949547600E+03  0.24207725875E+03  0.12508827739E+03 0.  0.
          5    1    3    3  502    0  0.14833303984E+02  0.45294688992E+02  0.12562545586E+01  0.47861115046E+02  0.41800000000E+01 0. -1.
         -5    1    3    3    0  502  0.11791211709E+02  0.34310096066E+02 -0.19075173056E+03  0.19421614371E+03  0.41800000000E+01 0. -1.
        -11    1    1    2    0    0 -0.19874894509E+02 -0.36619532753E+02 -0.15061105092E+02  0.44303933204E+02  0.00000000000E+00 0.  1.
         11    1    1    2    0    0 -0.67496211846E+01 -0.42985252305E+02 -0.19935677889E+03  0.20405002962E+03  0.00000000000E+00 0. -1.
</event>
<event>
 7    1  0.7017065E-006  0.1462285E+03  0.7561462E-02  0.1205185E+00
          1   -1    0    0  501    0  0.00000000000E+00  0.00000000000E+00  0.33662642120E+03  0.33662642120E+03  0.00000000000E+00 0. -1.
         -1   -1    0    0    0  501 -0.00000000000E+00 -0.00000000000E+00 -0.88926294769E+02  0.88926294769E+02  0.00000000000E+00 0.  1.
         23    2    1    2    0    0 -0.12180075347E+03  0.46601513946E+02  0.90174199094E+02  0.20195354119E+03  0.12508685770E+03 0.  0.
          5    1    3    3  502    0 -0.63447778803E+02  0.88402328896E+01  0.11190414495E+03  0.12901077633E+03  0.41800000000E+01 0.  1.
         -5    1    3    3    0  502 -0.58352974671E+02  0.37761281056E+02 -0.21729945851E+02  0.72942764868E+02  0.41800000000E+01 0.  1.
        -11    1    1    2    0    0  0.81900926541E+02 -0.73877020832E+02  0.11232766603E+03  0.15742642894E+03  0.00000000000E+00 0.  1.
         11    1    1    2    0    0  0.39899826933E+02  0.27275506887E+02  0.45198261315E+02  0.66172745833E+02  0.00000000000E+00 0. -1.
</event>
<event>
 7    1  0.7017065E-006  0.6319579E+02  0.7561462E-02  0.1384890E+00
         -1   -1    0    0    0  501 -0.00000000000E+00  0.00000000000E+00  0.33762802116E+03  0.33762802116E+03  0.00000000000E+00 0.  1.
          1   -1    0    0  501    0  0.00000000000E+00 -0.00000000000E+00 -0.42476148727E+02  0.42476148727E+02  0.00000000000E+00 0. -1.
         23    2    1    2    0    0  0.44046849619E+00  0.45165666772E+02  0.20587948685E+03  0.24510029784E+03  0.12509061286E+03 0.  0.
          5    1    3    3  502    0 -0.28323085211E+02  0.15607084444E+02 -0.24375704043E+01  0.32698507461E+02  0.41800000000E+01 0. -1.
         -5    1    3    3    0  502  0.28763553707E+02  0.29558582328E+02  0.20831705726E+03  0.21240179038E+03  0.41800000000E+01 0. -1.
        -11    1    1    2    0    0 -0.13418400126E+02 -0.21700168415E+02  0.10212771188E+03  0.10526642534E+03  0.00000000000E+00 0.  1.
         11    1    1    2    0    0  0.12977931629E+02 -0.23465498358E+02 -0.12855326296E+02  0.29737446708E+02  0.00000000000E+00 0. -1.
</event>
<event>
 7    1  0.7017065E-006  0.9929496E+02  0.7561462E-02  0.1281786E+00
         -2   -1    0    0    0  501 -0.00000000000E+00  0.00000000000E+00  0.16589021959E+02  0.16589021959E+02  0.00000000000E+00 0.  1.
          2   -1    0    0  501    0  0.00000000000E+00 -0.00000000000E+00 -0.10100496960E+04  0.10100496960E+04  0.00000000000E+00 0. -1.
         23    2    1    2    0    0  0.62753707279E+02 -0.52136449429E+01 -0.41947148287E+03  0.44223219494E+03  0.12509108453E+03 0.  0.
          5    1    3    3  502    0  0.19526541339E+02 -0.31995332576E+02 -0.36739655227E+03  0.36932734281E+03  0.41800000000E+01 0.  1.
         -5    1    3    3    0  502  0.43227165940E+02  0.26781687633E+02 -0.52074930602E+02  0.72904852135E+02  0.41800000000E+01 0.  1.
        -11    1    1    2    0    0 -0.48224332679E+02 -0.39815265052E+02 -0.32682057238E+03  0.33274994835E+03  0.00000000000E+00 0. -1.
         11    1    1    2    0    0 -0.14529374600E+02  0.45028909995E+02 -0.24716861878E+03  0.25165657466E+03  0.00000000000E+00 0.  1.
</event>
<event>
 7    1  0.7017065E-006  0.1245845E+03  0.7561462E-02  0.1235720E+00
          1   -1    0    0  501    0  0.00000000000E+00  0.00000000000E+00  0.11165635426E+03  0.11165635426E+03  0.00000000000E+00 0. -1.
         -1   -1    0    0    0  501 -0.00000000000E+00 -0.00000000000E+00 -0.18511972368E+03  0.18511972368E+03  0.00000000000E+00 0.  1.
         23    2    1    2    0    0  0.46875129342E+02  0.78916504875E+02 -0.61323127239E+02  0.16681824425E+03  0.12507081269E+03 0.  0.
          5    1    3    3  502    0  0.80637062577E+02  0.85539640388E+02 -0.60204745988E+02  0.13214177908E+03  0.41800000000E+01 0. -1.
         -5    1    3    3    0  502 -0.33761933235E+02 -0.66231355129E+01 -0.11183812508E+01  0.34676465166E+02  0.41800000000E+01 0. -1.
        -11    1    1    2    0    0 -0.18062495995E+01 -0.31171603977E+02 -0.46378946812E+02  0.55910089783E+02  0.00000000000E+00 0.  1.
         11    1    1    2    0    0 -0.45068879742E+02 -0.47744900898E+02  0.34238704631E+02  0.74047743907E+02  0.00000000000E+00 0. -1.
</event>
<event>
 7    1  0.7017065E-006  0.1139055E+03  0.7561462E-02  0.1253504E+00
          3   -1    0    0  501    0  0.00000000000E+00  0.00000000000E+00  0.21098954281E+03  0.21098954281E+03  0.00000000000E+00 0. -1.
         -3   -1    0    0    0  501 -0.00000000000E+00 -0.00000000000E+00 -0.68629299921E+02  0.68629299921E+02  0.00000000000E+00 0.  1.
         23    2    1    2    0    0  0.35559123248E+02  0.28533033502E+02  0.51322043806E+02  0.14269119037E+03  0.12509291899E+03 0.  0.
          5    1    3    3  502    0  0.61495473399E+02  0.62736681772E+02  0.22380502225E+02  0.90752100627E+02  0.41800000000E+01 0. -1.
         -5    1    3    3    0  502 -0.25936350152E+02 -0.34203648270E+02  0.28941541581E+02  0.51939089742E+02  0.41800000000E+01 0. -1.
        -11    1    1    2    0    0 -0.42983910318E+02 -0.54680299273E+02  0.43112214137E+02  0.81830401947E+02  0.00000000000E+00 0.  1.
         11    1    1    2    0    0  0.74247870709E+01  0.26147265771E+02  0.47925984947E+02  0.55097250417E+02  0.00000000000E+00 0. -1.
</event>
<event>
 7    1  0.7017065E-006  0.3560864E+03  0.7561462E-02  0.1060144E+00
         -2   -1    0    0    0  501 -0.00000000000E+00  0.00000000000E+00  0.19463476437E+03  0.19463476437E+03  0.00000000000E+00 0. -1.
          2   -1    0    0  501    0  0.00000000000E+00 -0.00000000000E+00 -0.71778300165E+03  0.71778300165E+03  0.00000000000E+00 0.  1.
         23    2    1    2    0    0 -0.12291516189E+03  0.32337017618E+03 -0.15532679851E+03  0.39931529164E+03  0.12509948017E+03 0.  0.
          5    1    3    3  502    0 -0.95241409186E+02  0.90049663162E+02 -0.74424185092E+02  0.15078560802E+03  0.41800000000E+01 0.  1.
         -5    1    3    3    0  502 -0.27673752702E+02  0.23332051302E+03 -0.80902613414E+02  0.24852968362E+03  0.41800000000E+01 0.  1.
        -11    1    1    2    0    0  0.63910873881E+02 -0.15653979427E+03 -0.24506592653E+03  0.29773581467E+03  0.00000000000E+00 0.  1.
         11    1    1    2    0    0  0.59004288007E+02 -0.16683038191E+03 -0.12275551224E+03  0.21536665971E+03  0.00000000000E+00 0. -1.
</event>
<event>
 7    1  0.7017065E-006  0.1522669E+03  0.7561462E-02  0.1197715E+00
          2   -1    0    0  501    0  0.00000000000E+00  0.00000000000E+00  0.99438452671E+02  0.99438452671E+02  0.00000000000E+00 0. -1.
         -2   -1    0    0    0  501 -0.00000000000E+00 -0.00000000000E+00 -0.25483742075E+03  0.25483742075E+03  0.00000000000E+00 0.  1.
         23    2    1    2    0    0  0.46583598356E+02  0.10659192544E+03 -0.87991584571E+02  0.19215074079E+03  0.12509003967E+03 0.  0.
          5    1    3    3  502    0 -0.40929751293E+01 -0.20748870531E+02 -0.42549733250E+02  0.47699269107E+02  0.41800000000E+01 0.  1.
         -5    1    3    3    0  502  0.50676573485E+02  0.12734079597E+03 -0.45441851321E+02  0.14445147168E+03  0.41800000000E+01 0.  1.
        -11    1    1    2    0    0  0.84527985961E+01  0.12254486396E+02 -0.13617928393E+00  0.14887605104E+02  0.00000000000E+00 0.  1.
         11    1    1    2    0    0 -0.55036396952E+02 -0.11884641184E+03 -0.67271204229E+02  0.14723752753E+03  0.00000000000E+00 0. -1.
</event>
<event>
 7    1  0.7017065E-006  0.1771829E+03  0.7561462E-02  0.1170558E+00
          1   -1    0    0  501    0  0.00000000000E+00  0.00000000000E+00  0.77180726262E+03  0.77180726262E+03  0.00000000000E+00 0. -1.
         -1   -1    0    0    0  501 -0.00000000000E+00 -0.00000000000E+00 -0.55798935632E+02  0.55798935632E+02  0.00000000000E+00 0.  1.
         23    2    1    2    0    0 -0.14287747183E+03 -0.93233905890E+02  0.28418769307E+03  0.35428333310E+03  0.12508997584E+03 0.  0.
          5    1    3    3  502    0 -0.12600160530E+03 -0.88364603195E+02  0.29534244537E+03  0.33306056517E+03  0.41800000000E+01 0. -1.
         -5    1    3    3    0  502 -0.16875866526E+02 -0.48693026946E+01 -0.11154752296E+02  0.21222767928E+02  0.41800000000E+01 0. -1.
        -11    1    1    2    0    0  0.23889586503E+02  0.50608149937E+02  0.21679169070E+03  0.22389849116E+03  0.00000000000E+00 0. -1.
         11    1    1    2    0    0  0.11898788533E+03  0.42625755953E+02  0.21502894322E+03  0.24942437400E+03  0.00000000000E+00 0.  1.
</event>
<event>
 7    1  0.7017065E-006  0.3306688E+03  0.7561462E-02  0.1070841E+00
          2   -1    0    0  501    0  0.00000000000E+00  0.00000000000E+00  0.33795442691E+03  0.33795442691E+03  0.00000000000E+00 0.  1.
         -2   -1    0    0    0  501 -0.00000000000E+00 -0.00000000000E+00 -0.32571060836E+03  0.32571060836E+03  0.00000000000E+00 0. -1.
         23    2    1    2    0    0  0.20622065396E+03 -0.23454353382E+03  0.24699995628E+02  0.33733512317E+03  0.12508904094E+03 0.  0.
          5    1    3    3  502    0  0.12163777868E+03 -0.47847969399E+02 -0.57310028563E+00  0.13077835533E+03  0.41800000000E+01 0.  1.
         -5    1    3    3    0  502  0.84582875278E+02 -0.18669556442E+03  0.25273095913E+02  0.20655676784E+03  0.41800000000E+01 0.  1.
        -11    1    1    2    0    0 -0.12242173326E+03  0.70302698149E+02 -0.14676848313E+02  0.14193294197E+03  0.00000000000E+00 0. -1.
         11    1    1    2    0    0 -0.83798920700E+02  0.16424083567E+03  0.22206712358E+01  0.18439697013E+03  0.00000000000E+00 0.  1.
</event>
<event>
 7    1  0.7017065E-006  0.7646526E+02  0.7561462E-02  0.1339393E+00
          2   -1    0    0  501    0  0.00000000000E+00  0.00000000000E+00  0.12582504578E+02  0.12582504578E+02  0.00000000000E+00 0. -1.
         -2   -1    0    0    0  501 -0.00000000000E+00 -0.00000000000E+00 -0.12909228810E+04  0.12909228810E+04  0.00000000000E+00 0.  1.
         23    2    1    2    0    0  0.15029508488E+02 -0.83246162286E+01 -0.10393415227E+04  0.10469826792E+04  0.12508694721E+03 0.  0.
          5    1    3    3  502    0 -0.10831907701E+02  0.24578337717E+02 -0.51389735301E+02  0.58136066290E+02  0.41800000000E+01 0.  1.
         -5    1    3    3    0  502  0.25861416189E+02 -0.32902953945E+02 -0.98795178736E+03  0.98884661286E+03  0.41800000000E+01 0.  1.
        -11    1    1    2    0    0  0.92504023798E+01  0.41533734669E+02 -0.64725818731E+02  0.77460006908E+02  0.00000000000E+00 0. -1.
         11    1    1    2    0    0 -0.24279910868E+02 -0.33209118441E+02 -0.17427303505E+03  0.17906269954E+03  0.00000000000E+00 0.  1.
</event>
<event>
 7    1  0.7017065E-006  0.1525183E+03  0.7561462E-02  0.1197412E+00
         -1   -1    0    0    0  501 -0.00000000000E+00  0.00000000000E+00  0.45399523205E+03  0.45399523205E+03  0.00000000000E+00 0.  1.
          1   -1    0    0  501    0  0.00000000000E+00 -0.00000000000E+00 -0.94187349639E+02  0.94187349639E+02  0.00000000000E+00 0. -1.
         23    2    1    2    0    0  0.49674736267E+02  0.10572729492E+03  0.36702196221E+03  0.40183269918E+03  0.11453626967E+03 0.  0.
          5    1    3    3  502    0  0.28552889020E+01 -0.22268690860E+02  0.92961733344E+02  0.95725668102E+02  0.41800000000E+01 0. -1.
         -5    1    3    3    0  502  0.46819447365E+02  0.12799598578E+03  0.27406022887E+03  0.30610703108E+03  0.41800000000E+01 0.  1.
        -11    1    1    2    0    0 -0.74537635518E+02 -0.69535837794E+02 -0.95218080573E+01  0.10238045065E+03  0.00000000000E+00 0. -1.
         11    1    1    2    0    0  0.24862899251E+02 -0.36191457129E+02  0.23077282549E+01  0.43969431859E+02  0.00000000000E+00 0.  1.
</event>
<event>
 7    1  0.7017065E-006  0.7665727E+02  0.7561462E-02  0.1338814E+00
          1   -1    0    0  501    0  0.00000000000E+00  0.00000000000E+00  0.60636777789E+02  0.60636777789E+02  0.00000000000E+00 0. -1.
         -1   -1    0    0    0  501 -0.00000000000E+00 -0.00000000000E+00 -0.31423310312E+03  0.31423310312E+03  0.00000000000E+00 0.  1.
         23    2    1    2    0    0  0.15312550882E+01  0.42189671504E+02 -0.24189823387E+03  0.27558067383E+03  0.12509052368E+03 0.  0.
          5    1    3    3  502    0  0.13809478380E+02 -0.12216089134E+02  0.72380621184E+01  0.20243430294E+02  0.41800000000E+01 0.  1.
         -5    1    3    3    0  502 -0.12278223291E+02  0.54405760638E+02 -0.24913629599E+03  0.25533724353E+03  0.41800000000E+01 0.  1.
        -11    1    1    2    0    0 -0.31834525177E+02 -0.80626980407E+01  0.24553939719E+02  0.41004146725E+02  0.00000000000E+00 0. -1.
         11    1    1    2    0    0  0.30303270088E+02 -0.34126973463E+02 -0.36252031181E+02  0.58285060355E+02  0.00000000000E+00 0.  1.
</event>
<event>
 7    1  0.7017065E-006  0.1252600E+03  0.7561462E-02  0.1234664E+00
          2   -1    0    0  501    0  0.00000000000E+00  0.00000000000E+00  0.75436761554E+03  0.75436761554E+03  0.00000000000E+00 0. -1.
         -2   -1    0    0    0  501 -0.00000000000E+00 -0.00000000000E+00 -0.27933980196E+02  0.27933980196E+02  0.00000000000E+00 0.  1.
         23    2    1    2    0    0 -0.76190998401E+02 -0.51765020889E+02  0.32050706755E+03  0.35617023121E+03  0.12509103735E+03 0.  0.
          5    1    3    3  502    0 -0.39623421383E+00 -0.47442387914E+02  0.30958478914E+02  0.56805254944E+02  0.41800000000E+01 0. -1.
         -5    1    3    3    0  502 -0.75794764187E+02 -0.43226329744E+01  0.28954858864E+03  0.29936497627E+03  0.41800000000E+01 0. -1.
        -11    1    1    2    0    0  0.71756273700E+02  0.74652007969E+02  0.36044215016E+03  0.37502057106E+03  0.00000000000E+00 0.  1.
         11    1    1    2    0    0  0.44347247008E+01 -0.22886987080E+02  0.45484417633E+02  0.51110793461E+02  0.00000000000E+00 0. -1.
</event>
<event>
 7    1  0.7017065E-006  0.1085023E+03  0.7561462E-02  0.1263369E+00
          2   -1    0    0  501    0  0.00000000000E+00  0.00000000000E+00  0.82361176014E+02  0.82361176014E+02  0.00000000000E+00 0. -1.
         -2   -1    0    0    0  501 -0.00000000000E+00 -0.00000000000E+00 -0.26469144545E+03  0.26469144545E+03  0.00000000000E+00 0.  1.
         23    2    1    2    0    0 -0.44598153768E+02 -0.19075184178E+02 -0.20169009272E+03  0.24223863662E+03  0.12509118914E+03 0.  0.
          5    1    3    3  502    0  0.25411598818E+02 -0.49783768760E+02 -0.10376720395E+03  0.11793760215E+03  0.41800000000E+01 0.  1.
         -5    1    3    3    0  502 -0.70009752586E+02  0.30708584582E+02 -0.97922888771E+02  0.12430103447E+03  0.41800000000E+01 0.  1.
        -11    1    1    2    0    0  0.21031520585E+02  0.44807687639E+02 -0.18944244241E+02  0.52999416219E+02  0.00000000000E+00 0.  1.
         11    1    1    2    0    0  0.23566633183E+02 -0.25732503461E+02  0.38304067518E+02  0.51814568631E+02  0.00000000000E+00 0. -1.
</event>
<event>
 7    1  0.7017065E-006  0.8025811E+02  0.7561462E-02  0.1328321E+00
          2   -1    0    0  501    0  0.00000000000E+00  0.00000000000E+00  0.72060482840E+02  0.72060482840E+02  0.00000000000E+00 0. -1.
         -2   -1    0    0    0  501 -0.00000000000E+00 -0.00000000000E+00 -0.22731925242E+03  0.22731925242E+03  0.00000000000E+00 0.  1.
         23    2    1    2    0    0  0.47804177655E+02  0.42705051507E+02 -0.10874401896E+03  0.17771273118E+03  0.12509033671E+03 0.  0.
          5    1    3    3  502    0  0.51236731553E+02  0.25806877782E+02 -0.13458790943E+03  0.14636452906E+03  0.41800000000E+01 0. -1.
         -5    1    3    3    0  502 -0.34325538981E+01  0.16898173724E+02  0.25843890471E+02  0.31348202120E+02  0.41800000000E+01 0. -1.
        -11    1    1    2    0    0 -0.46459826225E+02 -0.41179333618E+01 -0.64072982402E+02  0.79251623970E+02  0.00000000000E+00 0.  1.
         11    1    1    2    0    0 -0.13443514305E+01 -0.38587118145E+02  0.17558231775E+02  0.42415380118E+02  0.00000000000E+00 0. -1.
</event>
<event>
 7    1  0.7017065E-006  0.9986955E+02  0.7561462E-02  0.1280571E+00
          3   -1    0    0  501    0  0.00000000000E+00  0.00000000000E+00  0.10548293637E+03  0.10548293637E+03  0.00000000000E+00 0. -1.
         -3   -1    0    0    0  501 -0.00000000000E+00 -0.00000000000E+00 -0.16893851568E+03  0.16893851568E+03  0.00000000000E+00 0.  1.
         23    2    1    2    0    0 -0.40196260511E+02  0.71864369586E+02 -0.77460124184E+02  0.16860713965E+03  0.12509224488E+03 0.  0.
          5    1    3    3  502    0 -0.30591456656E+02  0.10161904058E+02 -0.97592582705E+02  0.10286343429E+03  0.41800000000E+01 0. -1.
         -5    1    3    3    0  502 -0.96048038555E+01  0.61702465528E+02  0.20132458521E+02  0.65743705367E+02  0.41800000000E+01 0. -1.
        -11    1    1    2    0    0  0.31829463909E+01 -0.67277068144E+02  0.12393091337E+02  0.68483018031E+02  0.00000000000E+00 0.  1.
         11    1    1    2    0    0  0.37013314120E+02 -0.45873014419E+01  0.16114535396E+01  0.37331294368E+02  0.00000000000E+00 0. -1.
</event>
<event>
 7    1  0.7017065E-006  0.1645344E+03  0.7561462E-02  0.1183670E+00
         -2   -1    0    0    0  501 -0.00000000000E+00  0.00000000000E+00  0.50321933465E+02  0.50321933465E+02  0.00000000000E+00 0.  1.
          2   -1    0    0  501    0  0.00000000000E+00 -0.00000000000E+00 -0.82743941991E+03  0.82743941991E+03  0.00000000000E+00 0. -1.
         23    2    1    2    0    0 -0.69621347097E+02 -0.11276505519E+03 -0.16976054802E+03  0.24905672935E+03  0.12509005206E+03 0.  0.
          5    1    3    3  502    0 -0.25914152313E+01 -0.98477327076E+02 -0.48915037060E+02  0.11006658272E+03  0.41800000000E+01 0. -1.
         -5    1    3    3    0  502 -0.67029931866E+02 -0.14287728119E+02 -0.12084551096E+03  0.13899014663E+03  0.41800000000E+01 0. -1.
        -11    1    1    2    0    0 -0.20958943003E+02  0.41715882870E+02 -0.15105285079E+03  0.15810267521E+03  0.00000000000E+00 0.  1.
         11    1    1    2    0    0  0.90580290100E+02  0.71049172324E+02 -0.45630408763E+03  0.47060194882E+03  0.00000000000E+00 0. -1.
</event>
<event>
 7    1  0.7017065E-006  0.1441149E+03  0.7561462E-02  0.1207897E+00
          1   -1    0    0  501    0  0.00000000000E+00  0.00000000000E+00  0.52552805740E+02  0.52552805740E+02  0.00000000000E+00 0. -1.
         -1   -1    0    0    0  501 -0.00000000000E+00 -0.00000000000E+00 -0.51359771562E+03  0.51359771562E+03  0.00000000000E+00 0.  1.
         23    2    1    2    0    0 -0.46659896367E+01 -0.10403621511E+03 -0.36059275693E+03  0.39562924453E+03  0.12510018891E+03 0.  0.
          5    1    3    3  502    0 -0.49976965025E+02 -0.16871685243E+02 -0.20378978348E+03  0.21054714210E+03  0.41800000000E+01 0. -1.
         -5    1    3    3    0  502  0.45310975388E+02 -0.87164529870E+02 -0.15680297345E+03  0.18508210243E+03  0.41800000000E+01 0. -1.
        -11    1    1    2    0    0 -0.29158712362E+02  0.98486679965E+02 -0.83005339677E+02  0.13205961931E+03  0.00000000000E+00 0.  1.
         11    1    1    2    0    0  0.33824701999E+02  0.55495351486E+01 -0.17446813272E+02  0.38461657518E+02  0.00000000000E+00 0. -1.
</event>
<event>
 7    1  0.7017065E-006  0.2327331E+03  0.7561462E-02  0.1124731E+00
          2   -1    0    0  501    0  0.00000000000E+00  0.00000000000E+00  0.26881111607E+03  0.26881111607E+03  0.00000000000E+00 0. -1.
         -2   -1    0    0    0  501 -0.00000000000E+00 -0.00000000000E+00 -0.23464648995E+03  0.23464648995E+03  0.00000000000E+00 0.  1.
         23    2    1    2    0    0  0.22395818538E+03 -0.13930375899E+02 -0.13585405764E+02  0.25726016521E+03  0.12508759004E+03 0.  0.
          5    1    3    3  502    0  0.41683524268E+02  0.53026111301E+01  0.47932680586E+02  0.63879951067E+02  0.41800000000E+01 0.  1.
         -5    1    3    3    0  502  0.18227466111E+03 -0.19232987029E+02 -0.61518086350E+02  0.19338021414E+03  0.41800000000E+01 0.  1.
        -11    1    1    2    0    0 -0.40246697380E+02 -0.30973624973E+02  0.21949909458E+02  0.55325948877E+02  0.00000000000E+00 0.  1.
         11    1    1    2    0    0 -0.18371148800E+03  0.44904000871E+02  0.25800122420E+02  0.19087149194E+03  0.00000000000E+00 0. -1.
</event>
<event>
 7    1  0.7017065E-006  0.1233879E+03  0.7561462E-02  0.1237610E+00
         -1   -1    0    0    0  501 -0.00000000000E+00  0.00000000000E+00  0.56659104607E+03  0.56659104607E+03  0.00000000000E+00 0.  1.
          1   -1    0    0  501    0  0.00000000000E+00 -0.00000000000E+00 -0.35342593278E+02  0.35342593278E+02  0.00000000000E+00 0. -1.
         23    2    1    2    0    0  0.59612172520E+02 -0.33545183779E+02  0.41531887781E+03  0.43910895607E+03  0.12509202441E+03 0.  0.
          5    1    3    3  502    0  0.25192387016E+02  0.47770100189E+02  0.15583184646E+03  0.16497780337E+03  0.41800000000E+01 0. -1.
         -5    1    3    3    0  502  0.34419785504E+02 -0.81315283968E+02  0.25948703135E+03  0.27413115270E+03  0.41800000000E+01 0. -1.
        -11    1    1    2    0    0 -0.73243339336E+02  0.60156525216E+01  0.10879066263E+03  0.13128664482E+03  0.00000000000E+00 0.  1.
         11    1    1    2    0    0  0.13631166816E+02  0.27529531258E+02  0.71389123533E+01  0.31538038455E+02  0.00000000000E+00 0. -1.
</event>
<event>
 6    1  0.7017065E-006  0.2743629E+03  0.7561462E-02  0.1098808E+00
         -2   -1    0    0    0  501 -0.00000000000E+00  0.00000000000E+00  0.71992586033E+02  0.71992586033E+02  0.00000000000E+00 0.  1.
          2   -1    0    0  501    0  0.00000000000E+00 -0.00000000000E+00 -0.10705242080E+04  0.10705242080E+04  0.00000000000E+00 0. -1.
          5    1    1    2  502    0 -0.21045864797E+03  0.82038812854E+02 -0.44679904718E+03  0.50066962189E+03  0.41800000000E+01 0. -1.
         -5    1    1    2    0  502  0.16632811411E+03 -0.13269189649E+03 -0.31363627057E+03  0.37902158719E+03  0.41800000000E+01 0.  1.
        -11    1    1    2    0    0 -0.24754508776E+01 -0.22835361079E+02 -0.34910228862E+02  0.41788822092E+02  0.00000000000E+00 0.  1.
         11    1    1    2    0    0  0.46605984740E+02  0.73488444714E+02 -0.20318607533E+03  0.22103676284E+03  0.00000000000E+00 0. -1.
</event>
<event>
 7    1  0.7017065E-006  0.9548799E+02  0.7561462E-02  0.1290081E+00
         -1   -1    0    0    0  501 -0.00000000000E+00  0.00000000000E+00  0.16328497666E+03  0.16328497666E+03  0.00000000000E+00 0.  1.
          1   -1    0    0  501    0  0.00000000000E+00 -0.00000000000E+00 -0.73400361825E+02  0.73400361825E+02  0.00000000000E+00 0. -1.
         23    2    1    2    0    0  0.56629389879E+01 -0.80009704947E+01  0.64520576866E+02  0.14108761268E+03  0.12508687064E+03 0.  0.
          5    1    3    3  502    0 -0.31233599174E+02 -0.53638608014E+02  0.51659179158E+02  0.80862730466E+02  0.41800000000E+01 0.  1.
         -5    1    3    3    0  502  0.36896538162E+02  0.45637637519E+02  0.12861397708E+02  0.60224882214E+02  0.41800000000E+01 0.  1.
        -11    1    1    2    0    0 -0.17749497810E+02  0.35611711133E+02 -0.17277823168E+02  0.43379278645E+02  0.00000000000E+00 0. -1.
         11    1    1    2    0    0  0.12086558822E+02 -0.27610740638E+02  0.42641861134E+02  0.52218447159E+02  0.00000000000E+00 0.  1.
</event>
<event>
 7    1  0.7017065E-006  0.1036739E+03  0.7561462E-02  0.1272755E+00
         -3   -1    0    0    0  501 -0.00000000000E+00  0.00000000000E+00  0.75148539176E+03  0.75148539176E+03  0.00000000000E+00 0.  1.
          3   -1    0    0  501    0  0.00000000000E+00 -0.00000000000E+00 -0.25827986470E+02  0.25827986470E+02  0.00000000000E+00 0. -1.
         23    2    1    2    0    0 -0.18618286656E+02 -0.91561768534E+01  0.63264272724E+03  0.64522769984E+03  0.12510590770E+03 0.  0.
          5    1    3    3  502    0  0.41231908025E+02 -0.40648215924E+02  0.33272568309E+03  0.33775168435E+03  0.41800000000E+01 0. -1.
         -5    1    3    3    0  502 -0.59850194681E+02  0.31492039071E+02  0.29991704415E+03  0.30747601549E+03  0.41800000000E+01 0. -1.
        -11    1    1    2    0    0 -0.11291555620E+02  0.38208384975E+02  0.78326668981E+02  0.87877454357E+02  0.00000000000E+00 0.  1.
         11    1    1    2    0    0  0.29909842276E+02 -0.29052208121E+02  0.14688009074E+02  0.44208224034E+02  0.00000000000E+00 0. -1.
</event>
<event>
 7    1  0.7017065E-006  0.1949401E+03  0.7561462E-02  0.1154080E+00
         -2   -1    0    0    0  501 -0.00000000000E+00  0.00000000000E+00  0.27632818257E+02  0.27632818257E+02  0.00000000000E+00 0.  1.
          2   -1    0    0  501    0  0.00000000000E+00 -0.00000000000E+00 -0.16107789628E+04  0.16107789628E+04  0.00000000000E+00 0. -1.
         23    2    1    2    0    0 -0.32301845735E+02  0.17517622214E+03 -0.71931509171E+03  0.75152668191E+03  0.12509210371E+03 0.  0.
          5    1    3    3  502    0  0.28922947436E+02  0.12718871100E+03 -0.33765100656E+03  0.36199334210E+03  0.41800000000E+01 0.  1.
         -5    1    3    3    0  502 -0.61224793171E+02  0.47987511139E+02 -0.38166408516E+03  0.38953333981E+03  0.41800000000E+01 0.  1.
        -11    1    1    2    0    0  0.17664813103E+02 -0.25133913878E+02 -0.46262187620E+02  0.55533316596E+02  0.00000000000E+00 0.  1.
         11    1    1    2    0    0  0.14637032633E+02 -0.15004230826E+03 -0.81756886516E+03  0.83135178251E+03  0.00000000000E+00 0. -1.
</event>
<event>
 7    1  0.7017065E-006  0.3094000E+03  0.7561462E-02  0.1080634E+00
          1   -1    0    0  501    0  0.00000000000E+00  0.00000000000E+00  0.48533273488E+03  0.48533273488E+03  0.00000000000E+00 0. -1.
         -1   -1    0    0    0  501 -0.00000000000E+00 -0.00000000000E+00 -0.19870189054E+03  0.19870189054E+03  0.00000000000E+00 0.  1.
         23    2    1    2    0    0  0.24512577297E+03  0.15538463759E+03  0.15014949192E+03  0.34990018191E+03  0.12511689415E+03 0.  0.
          5    1    3    3  502    0  0.23868538994E+03  0.17286564451E+03  0.15020891288E+03  0.33080724952E+03  0.41800000000E+01 0.  1.
         -5    1    3    3    0  502  0.64403830311E+01 -0.17481006921E+02 -0.59420957618E-01  0.19092932395E+02  0.41800000000E+01 0.  1.
        -11    1    1    2    0    0 -0.19774203756E+02 -0.54667984958E+02  0.27559680368E+02  0.64336177191E+02  0.00000000000E+00 0.  1.
         11    1    1    2    0    0 -0.22535156922E+03 -0.10071665263E+03  0.10892167205E+03  0.26979826632E+03  0.00000000000E+00 0. -1.
</event>
<event>
 7    1  0.7017065E-006  0.1640642E+03  0.7561462E-02  0.1184183E+00
         -3   -1    0    0    0  501 -0.00000000000E+00  0.00000000000E+00  0.11465720479E+03  0.11465720479E+03  0.00000000000E+00 0.  1.
          3   -1    0    0  501    0  0.00000000000E+00 -0.00000000000E+00 -0.27927172946E+03  0.27927172946E+03  0.00000000000E+00 0. -1.
         23    2    1    2    0    0  0.14557338667E+03 -0.12134260910E+02 -0.70433163183E+02  0.19713147952E+03  0.11207648526E+03 0.  0.
          5    1    3    3  502    0 -0.13531098607E+02 -0.17250574170E+02  0.15564776596E+01  0.22373376174E+02  0.41800000000E+01 0. -1.
         -5    1    3    3    0  502  0.15910448528E+03  0.51163132604E+01 -0.71989640842E+02  0.17475810335E+03  0.41800000000E+01 0.  1.
        -11    1    1    2    0    0 -0.11656664611E+03  0.14498127610E+02 -0.11230495583E+03  0.16251271271E+03  0.00000000000E+00 0. -1.
         11    1    1    2    0    0 -0.29006740560E+02 -0.23638667004E+01  0.18123594341E+02  0.34284742022E+02  0.00000000000E+00 0.  1.
</event>
<event>
 7    1  0.7017065E-006  0.7294669E+02  0.7561462E-02  0.1350350E+00
         -1   -1    0    0    0  501 -0.00000000000E+00  0.00000000000E+00  0.24421311750E+03  0.24421311750E+03  0.00000000000E+00 0.  1.
          1   -1    0    0  501    0  0.00000000000E+00 -0.00000000000E+00 -0.62538398593E+02  0.62538398593E+02  0.00000000000E+00 0. -1.
         23    2    1    2    0    0 -0.26083599346E+02 -0.15067255626E+02  0.16476645398E+03  0.20905268442E+03  0.12509062379E+03 0.  0.
          5    1    3    3  502    0  0.74733115531E+01 -0.31786179674E+02  0.16799624975E+03  0.17119119117E+03  0.41800000000E+01 0. -1.
         -5    1    3    3    0  502 -0.33556910899E+02  0.16718924048E+02 -0.32297957714E+01  0.37861493251E+02  0.41800000000E+01 0. -1.
        -11    1    1    2    0    0  0.45502806570E+02  0.26558183552E+02  0.39438530808E+02  0.65812158691E+02  0.00000000000E+00 0.  1.
         11    1    1    2    0    0 -0.19419207223E+02 -0.11490927926E+02 -0.22530265875E+02  0.31886672987E+02  0.00000000000E+00 0. -1.
</event>
<event>
 7    1  0.7017065E-006  0.1258470E+03  0.7561462E-02  0.1233751E+00
          1   -1    0    0  501    0  0.00000000000E+00  0.00000000000E+00  0.29394437881E+03  0.29394437881E+03  0.00000000000E+00 0. -1.
         -1   -1    0    0    0  501 -0.00000000000E+00 -0.00000000000E+00 -0.55771316743E+02  0.55771316743E+02  0.00000000000E+00 0.  1.
         23    2    1    2    0    0  0.33972300432E+02  0.56457068245E+02  0.10705887377E+03  0.17734124399E+03  0.12508715608E+03 0.  0.
          5    1    3    3  502    0  0.81111761750E+02  0.27328054865E+02  0.68428594443E+02  0.10966259807E+03  0.41800000000E+01 0. -1.
         -5    1    3    3    0  502 -0.47139461318E+02  0.29129013380E+02  0.38630279328E+02  0.67678645929E+02  0.41800000000E+01 0. -1.
        -11    1    1    2    0    0  0.26560959530E+02 -0.39439912751E+02  0.42891116009E+02  0.64036232880E+02  0.00000000000E+00 0.  1.
         11    1    1    2    0    0 -0.60533259963E+02 -0.17017155494E+02  0.88223072284E+02  0.10833821868E+03  0.00000000000E+00 0. -1.
</event>
<event>
 7    1  0.7017065E-006  0.1904349E+03  0.7561462E-02  0.1158070E+00
          1   -1    0    0  501    0  0.00000000000E+00  0.00000000000E+00  0.55475133143E+02  0.55475133143E+02  0.00000000000E+00 0. -1.
         -1   -1    0    0    0  501 -0.00000000000E+00 -0.00000000000E+00 -0.85220881636E+03  0.85220881636E+03  0.00000000000E+00 0.  1.
         23    2    1    2    0    0  0.15713874762E+01  0.18716439209E+03 -0.45045027210E+03  0.50357296376E+03  0.12508918130E+03 0.  0.
          5    1    3    3  502    0 -0.24658101720E+01  0.18689571392E+03 -0.30319801723E+03  0.35620583678E+03  0.41800000000E+01 0.  1.
         -5    1    3    3    0  502  0.40371976482E+01  0.26867816574E+00 -0.14725225486E+03  0.14736712698E+03  0.41800000000E+01 0.  1.
        -11    1    1    2    0    0  0.56782500826E+01 -0.20509721380E+02 -0.12604964349E+03  0.12783350038E+03  0.00000000000E+00 0.  1.
         11    1    1    2    0    0 -0.72496375588E+01 -0.16665467071E+03 -0.22023376763E+03  0.27627748536E+03  0.00000000000E+00 0. -1.
</event>
<event>
 7    1  0.7017065E-006  0.9453673E+02  0.7561462E-02  0.1292223E+00
         -2   -1    0    0    0  501 -0.00000000000E+00  0.00000000000E+00  0.11573848452E+02  0.11573848452E+02  0.00000000000E+00 0.  1.
          2   -1    0    0  501    0  0.00000000000E+00 -0.00000000000E+00 -0.10824505966E+04  0.10824505966E+04  0.00000000000E+00 0. -1.
         23    2    1    2    0    0 -0.52493794978E+01  0.29859029563E+02 -0.62576646279E+03  0.63886644480E+03  0.12509017029E+03 0.  0.
          5    1    3    3  502    0  0.24800920746E+02 -0.24273589101E+02 -0.57995936907E+02  0.67714798201E+02  0.41800000000E+01 0.  1.
         -5    1    3    3    0  502 -0.30050300244E+02  0.54132618663E+02 -0.56777052589E+03  0.57115164660E+03  0.41800000000E+01 0.  1.
        -11    1    1    2    0    0 -0.59236399175E+01  0.30301646111E+02 -0.99753463751E+02  0.10442237690E+03  0.00000000000E+00 0.  1.
         11    1    1    2    0    0  0.11173019415E+02 -0.60160675673E+02 -0.34535682164E+03  0.35073562339E+03  0.00000000000E+00 0. -1.
</event>
<event>
 7    1  0.7017065E-006  0.1371788E+03  0.7561462E-02  0.1217176E+00
          2   -1    0    0  501    0  0.00000000000E+00  0.00000000000E+00  0.10438320842E+04  0.10438320842E+04  0.00000000000E+00 0. -1.
         -2   -1    0    0    0  501 -0.00000000000E+00 -0.00000000000E+00 -0.19058604516E+02  0.19058604516E+02  0.00000000000E+00 0.  1.
         23    2    1    2    0    0  0.14098849385E+02  0.86399125993E+02  0.63727424053E+03  0.65530840586E+03  0.12508821934E+03 0.  0.
          5    1    3    3  502    0 -0.39061180683E+02  0.88140779927E+02  0.46721547785E+03  0.47707687857E+03  0.41800000000E+01 0.  1.
         -5    1    3    3    0  502  0.53160030068E+02 -0.17416539341E+01  0.17005876268E+03  0.17823152729E+03  0.41800000000E+01 0.  1.
        -11    1    1    2    0    0 -0.51737218106E+02 -0.45173823197E+02  0.17854972338E+03  0.19130451579E+03  0.00000000000E+00 0.  1.
         11    1    1    2    0    0  0.37638368721E+02 -0.41225302795E+02  0.20894951581E+03  0.21627776712E+03  0.00000000000E+00 0. -1.
</event>
<event>
 7    1  0.7017065E-006  0.8679304E+02  0.7561462E-02  0.1310809E+00
          2   -1    0    0  501    0  0.00000000000E+00  0.00000000000E+00  0.33767747092E+03  0.33767747092E+03  0.00000000000E+00 0. -1.
         -2   -1    0    0    0  501 -0.00000000000E+00 -0.00000000000E+00 -0.62060795449E+02  0.62060795449E+02  0.00000000000E+00 0.  1.
         23    2    1    2    0    0 -0.91611815846E+01 -0.63424415852E+02  0.53228899586E+02  0.15028997963E+03  0.12508868236E+03 0.  0.
          5    1    3    3  502    0  0.11338560944E+02 -0.24112509819E+02  0.89109106702E+02  0.93101457514E+02  0.41800000000E+01 0.  1.
         -5    1    3    3    0  502 -0.20499742528E+02 -0.39311906033E+02 -0.35880207116E+02  0.57188522121E+02  0.41800000000E+01 0.  1.
        -11    1    1    2    0    0 -0.34015921740E+02  0.14919306743E+02  0.34649754120E+02  0.50796398555E+02  0.00000000000E+00 0.  1.
         11    1    1    2    0    0  0.43177103325E+02  0.48505109109E+02  0.18773802177E+03  0.19865188818E+03  0.00000000000E+00 0. -1.
</event>
<event>
 7    1  0.7017065E-006  0.1199570E+03  0.7561462E-02  0.1243168E+00
          1   -1    0    0  501    0  0.00000000000E+00  0.00000000000E+00  0.78147282680E+03  0.78147282680E+03  0.00000000000E+00 0. -1.
         -1   -1    0    0    0  501 -0.00000000000E+00 -0.00000000000E+00 -0.28574311555E+02  0.28574311555E+02  0.00000000000E+00 0.  1.
         23    2    1    2    0    0  0.86106809178E+02 -0.52888165326E+02  0.41505888433E+03  0.44512179154E+03  0.12509193109E+03 0.  0.
          5    1    3    3  502    0  0.79324354187E+02 -0.40558739666E+02  0.11907426958E+03  0.14877338003E+03  0.41800000000E+01 0. -1.
         -5    1    3    3    0  502  0.67824549907E+01 -0.12329425660E+02  0.29598461475E+03  0.29634841151E+03  0.41800000000E+01 0. -1.
        -11    1    1    2    0    0  0.15216851963E+02  0.27751406930E+02  0.55304050801E+02  0.63719943544E+02  0.00000000000E+00 0.  1.
         11    1    1    2    0    0 -0.10132366114E+03  0.25136758396E+02  0.28253558012E+03  0.30120540327E+03  0.00000000000E+00 0. -1.
</event>
<event>
 7    1  0.7017065E-006  0.6658316E+02  0.7561462E-02  0.1372113E+00
          2   -1    0    0  501    0  0.00000000000E+00  0.00000000000E+00  0.15086547959E+03  0.15086547959E+03  0.00000000000E+00 0. -1.
         -2   -1    0    0    0  501 -0.00000000000E+00 -0.00000000000E+00 -0.94847830645E+02  0.94847830645E+02  0.00000000000E+00 0.  1.
         23    2    1    2    0    0  0.40922275364E+01  0.26136914124E+02 -0.10044268799E+02  0.12825066224E+03  0.12508980943E+03 0.  0.
          5    1    3    3  502    0  0.67460094109E+01  0.29489790312E+02  0.55011988539E+02  0.62920168934E+02  0.41800000000E+01 0. -1.
         -5    1    3    3    0  502 -0.26537818745E+01 -0.33528761880E+01 -0.65056257337E+02  0.65330493307E+02  0.41800000000E+01 0. -1.
        -11    1    1    2    0    0  0.29202730597E+02  0.23083112337E+02  0.19855617234E+02  0.42188565811E+02  0.00000000000E+00 0. -1.
         11    1    1    2    0    0 -0.33294958134E+02 -0.49220026461E+02  0.46206300513E+02  0.75274082187E+02  0.00000000000E+00 0.  1.
</event>
<event>
 7    1  0.7017065E-006  0.7209246E+02  0.7561462E-02  0.1353119E+00
         -2   -1    0    0    0  501 -0.00000000000E+00  0.00000000000E+00  0.97426279343E+02  0.97426279343E+02  0.00000000000E+00 0.  1.
          2   -1    0    0  501    0  0.00000000000E+00 -0.00000000000E+00 -0.25392778873E+03  0.25392778873E+03  0.00000000000E+00 0. -1.
         23    2    1    2    0    0  0.19405826609E+02 -0.31620160115E+02  0.35645170862E+02  0.13525572655E+03  0.12508841963E+03 0.  0.
          5    1    3    3  502    0  0.16249127704E+01  0.97253305239E+01 -0.43126796304E+02  0.44436644278E+02  0.41800000000E+01 0. -1.
         -5    1    3    3    0  502  0.17780913839E+02 -0.41345490638E+02  0.78771967166E+02  0.90819082269E+02  0.41800000000E+01 0. -1.
        -11    1    1    2    0    0  0.26660265005E+02  0.32706748698E+02 -0.44052100529E+02  0.61000727058E+02  0.00000000000E+00 0.  1.
         11    1    1    2    0    0 -0.46066091614E+02 -0.10865885834E+01 -0.14809457972E+03  0.15509761447E+03  0.00000000000E+00 0. -1.
</event>
<event>
 7    1  0.7017065E-006  0.7747459E+02  0.7561462E-02  0.1336375E+00
         -1   -1    0    0    0  501 -0.00000000000E+00  0.00000000000E+00  0.82295959534E+02  0.82295959534E+02  0.00000000000E+00 0.  1.
          1   -1    0    0  501    0  0.00000000000E+00 -0.00000000000E+00 -0.16398873836E+03  0.16398873836E+03  0.00000000000E+00 0. -1.
         23    2    1    2    0    0 -0.49052993562E+01 -0.34601044078E+02 -0.24011434632E+02  0.13208099167E+03  0.12509014811E+03 0.  0.
          5    1    3    3  502    0  0.68159525425E+01  0.38208645160E+02  0.22242728946E+02  0.44928489458E+02  0.41800000000E+01 0.  1.
         -5    1    3    3    0  502 -0.11721251899E+02 -0.72809689238E+02 -0.46254163578E+02  0.87152502209E+02  0.41800000000E+01 0.  1.
        -11    1    1    2    0    0 -0.64731356117E+01  0.28320259385E+02 -0.81800402884E+02  0.86805786030E+02  0.00000000000E+00 0. -1.
         11    1    1    2    0    0  0.11378434968E+02  0.62807846937E+01  0.24119058694E+02  0.27397920194E+02  0.00000000000E+00 0.  1.
</event>
<event>
 7    1  0.7017065E-006  0.8618413E+02  0.7561462E-02  0.1312365E+00
          1   -1    0    0  501    0  0.00000000000E+00  0.00000000000E+00  0.25531321733E+03  0.25531321733E+03  0.00000000000E+00 0. -1.
         -1   -1    0    0    0  501 -0.00000000000E+00 -0.00000000000E+00 -0.79345425762E+02  0.79345425762E+02  0.00000000000E+00 0.  1.
         23    2    1    2    0    0  0.63236267833E+01  0.68263026928E+02  0.24155801850E+02  0.14467543038E+03  0.12509056036E+03 0.  0.
          5    1    3    3  502    0  0.71811105641E+01  0.51795583418E+02 -0.47658251012E+02  0.70874058019E+02  0.41800000000E+01 0. -1.
         -5    1    3    3    0  502 -0.85748378080E+00  0.16467443510E+02  0.71814052862E+02  0.73801372363E+02  0.41800000000E+01 0. -1.
        -11    1    1    2    0    0  0.29943513273E+02 -0.55485876924E+01  0.12418766261E+02  0.32888091583E+02  0.00000000000E+00 0.  1.
         11    1    1    2    0    0 -0.36267140057E+02 -0.62714439235E+02  0.13939322346E+03  0.15709512113E+03  0.00000000000E+00 0. -1.
</event>
<event>
 7    1  0.7017065E-006  0.1173863E+03  0.7561462E-02  0.1247472E+00
          1   -1    0    0  501    0  0.00000000000E+00  0.00000000000E+00  0.12362455899E+03  0.12362455899E+03  0.00000000000E+00 0. -1.
         -1   -1    0    0    0  501 -0.00000000000E+00 -0.00000000000E+00 -0.21885151091E+03  0.21885151091E+03  0.00000000000E+00 0.  1.
         23    2    1    2    0    0 -0.74778702246E+02  0.43002631823E+02 -0.13944845219E+03  0.20623236416E+03  0.12507932106E+03 0.  0.
          5    1    3    3  502    0 -0.40517024281E+02  0.66458729259E+02 -0.21116665905E+02  0.80757525533E+02  0.41800000000E+01 0. -1.
         -5    1    3    3    0  502 -0.34261677965E+02 -0.23456097435E+02 -0.11833178628E+03  0.12547483863E+03  0.41800000000E+01 0. -1.
        -11    1    1    2    0    0 -0.11743300508E+02 -0.23691564145E+02 -0.14258472520E+02  0.30041627071E+02  0.00000000000E+00 0.  1.
         11    1    1    2    0    0  0.86522002754E+02 -0.19311067678E+02  0.58479972796E+02  0.10620207867E+03  0.00000000000E+00 0. -1.
</event>
<event>
 7    1  0.7017065E-006  0.1824936E+03  0.7561462E-02  0.1165411E+00
          2   -1    0    0  501    0  0.00000000000E+00  0.00000000000E+00  0.11617548614E+03  0.11617548614E+03  0.00000000000E+00 0. -1.
         -2   -1    0    0    0  501 -0.00000000000E+00 -0.00000000000E+00 -0.31949709541E+03  0.31949709541E+03  0.00000000000E+00 0.  1.
         23    2    1    2    0    0 -0.28188059301E+02  0.15589067096E+03 -0.11914764702E+03  0.23439374573E+03  0.12509115984E+03 0.  0.
          5    1    3    3  502    0  0.38441291248E+02  0.12084119764E+02 -0.40978862299E+02  0.57623765744E+02  0.41800000000E+01 0.  1.
         -5    1    3    3    0  502 -0.66629350549E+02  0.14380655119E+03 -0.78168784717E+02  0.17676997999E+03  0.41800000000E+01 0.  1.
        -11    1    1    2    0    0  0.41425131126E+02 -0.13485153027E+03 -0.33736178901E+02  0.14504863485E+03  0.00000000000E+00 0.  1.
         11    1    1    2    0    0 -0.13237071824E+02 -0.21039140689E+02 -0.50437783356E+02  0.56230200972E+02  0.00000000000E+00 0. -1.
</event>
<event>
 7    1  0.7017065E-006  0.1145374E+03  0.7561462E-02  0.1252391E+00
         -2   -1    0    0    0  501 -0.00000000000E+00  0.00000000000E+00  0.14563657615E+03  0.14563657615E+03  0.00000000000E+00 0.  1.
          2   -1    0    0  501    0  0.00000000000E+00 -0.00000000000E+00 -0.12213625643E+03  0.12213625643E+03  0.00000000000E+00 0. -1.
         23    2    1    2    0    0 -0.60490457456E+02 -0.40418644229E+02  0.37027300161E+02  0.14937034482E+03  0.12509083384E+03 0.  0.
          5    1    3    3  502    0 -0.22813170955E+02 -0.82975517244E+02  0.32916484060E+02  0.92229846328E+02  0.41800000000E+01 0.  1.
         -5    1    3    3    0  502 -0.37677286501E+02  0.42556873014E+02  0.41108161009E+01  0.57140498492E+02  0.41800000000E+01 0.  1.
        -11    1    1    2    0    0  0.30044295668E+02  0.46030058208E+02 -0.47350246290E+02  0.72549788315E+02  0.00000000000E+00 0. -1.
         11    1    1    2    0    0  0.30446161787E+02 -0.56114139788E+01  0.33823265841E+02  0.45852699447E+02  0.00000000000E+00 0.  1.
</event>
<event>
 7    1  0.7017065E-006  0.1551962E+03  0.7561462E-02  0.1194229E+00
         -1   -1    0    0    0  501 -0.00000000000E+00  0.00000000000E+00  0.44600858481E+02  0.44600858481E+02  0.00000000000E+00 0. -1.
          1   -1    0    0  501    0  0.00000000000E+00 -0.00000000000E+00 -0.58881440148E+03  0.58881440148E+03  0.00000000000E+00 0.  1.
         23    2    1    2    0    0 -0.93661869423E+02  0.71305860801E+02 -0.24940221552E+03  0.30283106924E+03  0.12509244510E+03 0.  0.
          5    1    3    3  502    0 -0.11442580092E+02  0.80910421711E+02 -0.80985580026E+02  0.11512413106E+03  0.41800000000E+01 0.  1.
         -5    1    3    3    0  502 -0.82219289331E+02 -0.96045609097E+01 -0.16841663550E+03  0.18770693818E+03  0.41800000000E+01 0.  1.
        -11    1    1    2    0    0  0.58339388077E+02  0.79851329446E+01 -0.83825571889E+02  0.10244009494E+03  0.00000000000E+00 0. -1.
         11    1    1    2    0    0  0.35322481346E+02 -0.79290993746E+02 -0.21098575559E+03  0.22814409578E+03  0.00000000000E+00 0.  1.
</event>
<event>
 7    1  0.7017065E-006  0.1131532E+03  0.7561462E-02  0.1254840E+00
          2   -1    0    0  501    0  0.00000000000E+00  0.00000000000E+00  0.17173627452E+03  0.17173627452E+03  0.00000000000E+00 0. -1.
         -2   -1    0    0    0  501 -0.00000000000E+00 -0.00000000000E+00 -0.88997832039E+02  0.88997832039E+02  0.00000000000E+00 0.  1.
         23    2    1    2    0    0  0.55089597798E+02 -0.29812063837E+01  0.26297328205E+02  0.13922342580E+03  0.12509141235E+03 0.  0.
          5    1    3    3  502    0 -0.19994997853E+02  0.39202501538E+02 -0.10564471975E+02  0.45450154391E+02  0.41800000000E+01 0. -1.
         -5    1    3    3    0  502  0.75084595651E+02 -0.42183707922E+02  0.36861800180E+02  0.93773271408E+02  0.41800000000E+01 0. -1.
        -11    1    1    2    0    0 -0.55567284963E+02 -0.29826120322E+02  0.88188017529E+01  0.63679603297E+02  0.00000000000E+00 0.  1.
         11    1    1    2    0    0  0.47768716576E+00  0.32807326706E+02  0.47622312521E+02  0.57831077463E+02  0.00000000000E+00 0. -1.
</event>
<event>
 7    1  0.7017065E-006  0.1451253E+03  0.7561462E-02  0.1206594E+00
          1   -1    0    0  501    0  0.00000000000E+00  0.00000000000E+00  0.21986639924E+03  0.21986639924E+03  0.00000000000E+00 0. -1.
         -1   -1    0    0    0  501 -0.00000000000E+00 -0.00000000000E+00 -0.10100298824E+03  0.10100298824E+03  0.00000000000E+00 0.  1.
         23    2    1    2    0    0 -0.99193989138E+02 -0.96795218562E+00  0.85055801000E+02  0.18089398283E+03  0.12509100418E+03 0.  0.
          5    1    3    3  502    0 -0.44744786206E+02 -0.61211402170E+02  0.56740546637E+02  0.94793953820E+02  0.41800000000E+01 0.  1.
         -5    1    3    3    0  502 -0.54449202932E+02  0.60243449984E+02  0.28315254363E+02  0.86100029010E+02  0.41800000000E+01 0.  1.
        -11    1    1    2    0    0  0.63974429514E+01 -0.33429634197E+02  0.21471437705E+02  0.40242891993E+02  0.00000000000E+00 0. -1.
         11    1    1    2    0    0  0.92796546186E+02  0.34397586383E+02  0.12336172295E+02  0.99732512652E+02  0.00000000000E+00 0.  1.
</event>
<event>
 7    1  0.7017065E-006  0.1601038E+03  0.7561462E-02  0.1188580E+00
          2   -1    0    0  501    0  0.00000000000E+00  0.00000000000E+00  0.73789749532E+03  0.73789749532E+03  0.00000000000E+00 0. -1.
         -2   -1    0    0    0  501 -0.00000000000E+00 -0.00000000000E+00 -0.56435527177E+02  0.56435527177E+02  0.00000000000E+00 0.  1.
         23    2    1    2    0    0  0.41310060221E+02  0.14139251822E+03  0.18069825768E+03  0.26457123012E+03  0.12509080779E+03 0.  0.
          5    1    3    3  502    0 -0.16972368975E+02  0.33634885443E+02  0.12371750906E+03  0.12939420882E+03  0.41800000000E+01 0.  1.
         -5    1    3    3    0  502  0.58282429196E+02  0.10775763278E+03  0.56980748614E+02  0.13517702130E+03  0.41800000000E+01 0.  1.
        -11    1    1    2    0    0 -0.39890656245E+02 -0.34271695693E+02  0.81249234030E+02  0.96784562880E+02  0.00000000000E+00 0. -1.
         11    1    1    2    0    0 -0.14194039763E+01 -0.10712082253E+03  0.41951447644E+03  0.43297722950E+03  0.00000000000E+00 0.  1.
</event>
<event>
 7    1  0.7017065E-006  0.1109021E+03  0.7561462E-02  0.1258908E+00
          2   -1    0    0  501    0  0.00000000000E+00  0.00000000000E+00  0.67263189241E+02  0.67263189241E+02  0.00000000000E+00 0. -1.
         -2   -1    0    0    0  501 -0.00000000000E+00 -0.00000000000E+00 -0.18768505415E+03  0.18768505415E+03  0.00000000000E+00 0.  1.
         23    2    1    2    0    0  0.39365167348E+02 -0.79358806276E+01 -0.72734345831E+02  0.15017533269E+03  0.12509896436E+03 0.  0.
          5    1    3    3  502    0 -0.50698856687E+01  0.54047770701E+02 -0.37152381863E+02  0.65913861490E+02  0.41800000000E+01 0.  1.
         -5    1    3    3    0  502  0.44435053017E+02 -0.61983651329E+02 -0.35581963968E+02  0.84261471198E+02  0.41800000000E+01 0.  1.
        -11    1    1    2    0    0  0.81890828677E+01 -0.29399706746E+02 -0.54018106612E+01  0.30993279810E+02  0.00000000000E+00 0. -1.
         11    1    1    2    0    0 -0.47554250216E+02  0.37335587374E+02 -0.42285708418E+02  0.73779630892E+02  0.00000000000E+00 0.  1.
</event>
<event>
 7    1  0.7017065E-006  0.1439548E+03  0.7561462E-02  0.1208104E+00
          4   -1    0    0  501    0  0.00000000000E+00  0.00000000000E+00  0.41301987884E+02  0.41301987884E+02  0.00000000000E+00 0. -1.
         -4   -1    0    0    0  501 -0.00000000000E+00 -0.00000000000E+00 -0.62787135454E+03  0.62787135454E+03  0.00000000000E+00 0.  1.
         23    2    1    2    0    0 -0.45893987808E+02  0.10266823004E+03 -0.39439550927E+03  0.42876827098E+03  0.12508952349E+03 0.  0.
          5    1    3    3  502    0  0.40242527536E+02  0.54830231524E+02 -0.18940209503E+03  0.20128696260E+03  0.41800000000E+01 0. -1.
         -5    1    3    3    0  502 -0.86136515344E+02  0.47837998517E+02 -0.20499341425E+03  0.22748130838E+03  0.41800000000E+01 0. -1.
        -11    1    1    2    0    0  0.50695545340E+02 -0.61492110263E+02 -0.18054154460E+03  0.19734884663E+03  0.00000000000E+00 0.  1.
         11    1    1    2    0    0 -0.48015575326E+01 -0.41176119779E+02 -0.11632312792E+02  0.43056224819E+02  0.00000000000E+00 0. -1.
</event>
<event>
 7    1  0.7017065E-006  0.7656170E+02  0.7561462E-02  0.1339102E+00
          1   -1    0    0  501    0  0.00000000000E+00  0.00000000000E+00  0.94360044533E+02  0.94360044533E+02  0.00000000000E+00 0. -1.
         -1   -1    0    0    0  501 -0.00000000000E+00 -0.00000000000E+00 -0.15433141287E+03  0.15433141287E+03  0.00000000000E+00 0.  1.
         23    2    1    2    0    0  0.10736391518E+02 -0.47797267760E+02 -0.54886154303E+02  0.14511523174E+03  0.12508433811E+03 0.  0.
          5    1    3    3  502    0 -0.12708747487E+02  0.49341779202E+01  0.35239598726E+02  0.38015261315E+02  0.41800000000E+01 0.  1.
         -5    1    3    3    0  502  0.23445139005E+02 -0.52731445681E+02 -0.90125753029E+02  0.10709997043E+03  0.41800000000E+01 0.  1.
        -11    1    1    2    0    0 -0.21996170761E+02 -0.85079051473E+01 -0.32331955180E+02  0.40019636479E+02  0.00000000000E+00 0.  1.
         11    1    1    2    0    0  0.11259779244E+02  0.56305172908E+02  0.27246741149E+02  0.63556589179E+02  0.00000000000E+00 0. -1.
</event>
<event>
 7    1  0.7017065E-006  0.2107557E+03  0.7561462E-02  0.1140969E+00
          2   -1    0    0  501    0  0.00000000000E+00  0.00000000000E+00  0.87447214918E+03  0.87447214918E+03  0.00000000000E+00 0. -1.
         -2   -1    0    0    0  501 -0.00000000000E+00 -0.00000000000E+00 -0.57172197369E+02  0.57172197369E+02  0.00000000000E+00 0.  1.
         23    2    1    2    0    0  0.18373243051E+02 -0.19420620582E+03  0.45798464307E+03  0.51327499659E+03  0.12509061677E+03 0.  0.
          5    1    3    3  502    0  0.50935075785E+02 -0.90220648976E+02  0.12238879883E+03  0.16040772402E+03  0.41800000000E+01 0. -1.
         -5    1    3    3    0  502 -0.32561832734E+02 -0.10398555684E+03  0.33559584423E+03  0.35286727257E+03  0.41800000000E+01 0. -1.
        -11    1    1    2    0    0  0.29094556548E+02  0.69690197163E+02  0.87051899477E+02  0.11524430573E+03  0.00000000000E+00 0. -1.
         11    1    1    2    0    0 -0.47467799599E+02  0.12451600865E+03  0.27226340926E+03  0.30312504422E+03  0.00000000000E+00 0.  1.
</event>
<event>
 7    1  0.7017065E-006  0.1262871E+03  0.7561462E-02  0.1233071E+00
          2   -1    0    0  501    0  0.00000000000E+00  0.00000000000E+00  0.30586381362E+03  0.30586381362E+03  0.00000000000E+00 0.  1.
         -2   -1    0    0    0  501 -0.00000000000E+00 -0.00000000000E+00 -0.62268194318E+02  0.62268194318E+02  0.00000000000E+00 0. -1.
         23    2    1    2    0    0  0.67028579178E+02  0.51231715276E+02  0.12781434352E+03  0.19774110444E+03  0.12509004317E+03 0.  0.
          5    1    3    3  502    0  0.88055508196E+02  0.75464562328E+02  0.83909850232E+02  0.14320268174E+03  0.41800000000E+01 0.  1.
         -5    1    3    3    0  502 -0.21026929019E+02 -0.24232847052E+02  0.43904493283E+02  0.54538422700E+02  0.41800000000E+01 0.  1.
        -11    1    1    2    0    0 -0.62780491832E+02 -0.64640623461E+02  0.12461495654E+03  0.15378129844E+03  0.00000000000E+00 0.  1.
         11    1    1    2    0    0 -0.42480873455E+01  0.13408908185E+02 -0.88336807498E+01  0.16609605064E+02  0.00000000000E+00 0. -1.
</event>
<event>
 7    1  0.7017065E-006  0.1220030E+03  0.7561462E-02  0.1239829E+00
         -2   -1    0    0    0  501 -0.00000000000E+00  0.00000000000E+00  0.11346923437E+03  0.11346923437E+03  0.00000000000E+00 0.  1.
          2   -1    0    0  501    0  0.00000000000E+00 -0.00000000000E+00 -0.22063965221E+03  0.22063965221E+03  0.00000000000E+00 0. -1.
         23    2    1    2    0    0  0.10116357459E+03 -0.10776177327E+01  0.24781947348E+00  0.16087528607E+03  0.12508223763E+03 0.  0.
          5    1    3    3  502    0  0.22545842470E+02 -0.16423352615E+02 -0.56140684569E+02  0.62827465233E+02  0.41800000000E+01 0.  1.
         -5    1    3    3    0  502  0.78617732118E+02  0.15345734882E+02  0.56388504042E+02  0.98047820835E+02  0.41800000000E+01 0.  1.
        -11    1    1    2    0    0 -0.75401425281E+01 -0.34590678380E+02 -0.22960088239E+02  0.42196379372E+02  0.00000000000E+00 0.  1.
         11    1    1    2    0    0 -0.93623432059E+02  0.35668296113E+02 -0.84458149077E+02  0.13103722114E+03  0.00000000000E+00 0. -1.
</event>
<event>
 7    1  0.7017065E-006  0.9332421E+02  0.7561462E-02  0.1294996E+00
         -2   -1    0    0    0  501 -0.00000000000E+00  0.00000000000E+00  0.59246901572E+02  0.59246901572E+02  0.00000000000E+00 0.  1.
          2   -1    0    0  501    0  0.00000000000E+00 -0.00000000000E+00 -0.22686147719E+03  0.22686147719E+03  0.00000000000E+00 0. -1.
         23    2    1    2    0    0  0.14703485707E+02 -0.17905841477E+02 -0.55603959078E+02  0.13883410343E+03  0.12508515643E+03 0.  0.
          5    1    3    3  502    0 -0.48231503155E+02  0.19912580405E+01 -0.54173994661E+02  0.72681064265E+02  0.41800000000E+01 0.  1.
         -5    1    3    3    0  502  0.62934988862E+02 -0.19897099518E+02 -0.14299644175E+01  0.66153039164E+02  0.41800000000E+01 0.  1.
        -11    1    1    2    0    0 -0.27300616934E+01  0.43613239844E+02 -0.11055494230E+03  0.11887793401E+03  0.00000000000E+00 0. -1.
         11    1    1    2    0    0 -0.11973424014E+02 -0.25707398367E+02 -0.14556742421E+01  0.28396341330E+02  0.00000000000E+00 0.  1.
</event>
<event>
 7    1  0.7017065E-006  0.9870801E+02  0.7561462E-02  0.1283037E+00
          3   -1    0    0  501    0  0.00000000000E+00  0.00000000000E+00  0.57648804438E+03  0.57648804438E+03  0.00000000000E+00 0. -1.
         -3   -1    0    0    0  501 -0.00000000000E+00 -0.00000000000E+00 -0.31726103444E+02  0.31726103444E+02  0.00000000000E+00 0.  1.
         23    2    1    2    0    0 -0.67130367905E+02  0.26411638123E+02  0.27738554025E+03  0.31271767173E+03  0.12508214641E+03 0.  0.
          5    1    3    3  502    0  0.17723853459E+02  0.97263769881E+01  0.18482927048E+03  0.18597867893E+03  0.41800000000E+01 0. -1.
         -5    1    3    3    0  502 -0.84854221364E+02  0.16685261135E+02  0.92556269773E+02  0.12673899280E+03  0.41800000000E+01 0. -1.
        -11    1    1    2    0    0  0.33551077566E+01  0.14194692406E+02 -0.28768916887E+01  0.14866827043E+02  0.00000000000E+00 0.  1.
         11    1    1    2    0    0  0.63775260148E+02 -0.40606330529E+02  0.27025329237E+03  0.28062964905E+03  0.00000000000E+00 0. -1.
</event>
<event>
 7    1  0.7017065E-006  0.5077755E+02  0.7561462E-02  0.1441192E+00
          4   -1    0    0  501    0  0.00000000000E+00  0.00000000000E+00  0.85696843085E+02  0.85696843085E+02  0.00000000000E+00 0. -1.
         -4   -1    0    0    0  501 -0.00000000000E+00 -0.00000000000E+00 -0.17399030533E+03  0.17399030533E+03  0.00000000000E+00 0.  1.
         23    2    1    2    0    0  0.20740605197E+02 -0.23053821285E+02 -0.99173614339E+02  0.16261790331E+03  0.12509006882E+03 0.  0.
          5    1    3    3  502    0  0.11747556019E+02 -0.26693243982E+01  0.29407860861E+02  0.32053471662E+02  0.41800000000E+01 0. -1.
         -5    1    3    3    0  502  0.89930491775E+01 -0.20384496887E+02 -0.12858147520E+03  0.13056443165E+03  0.41800000000E+01 0. -1.
        -11    1    1    2    0    0  0.20617342726E+02  0.70790405412E+01 -0.29784046697E+02  0.36909037833E+02  0.00000000000E+00 0.  1.
         11    1    1    2    0    0 -0.41357947923E+02  0.15974780744E+02  0.40664198789E+02  0.60160207275E+02  0.00000000000E+00 0. -1.
</event>
<event>
 7    1  0.7017065E-006  0.8874698E+02  0.7561462E-02  0.1305915E+00
         -2   -1    0    0    0  501 -0.00000000000E+00  0.00000000000E+00  0.56246711091E+03  0.56246711091E+03  0.00000000000E+00 0.  1.
          2   -1    0    0  501    0  0.00000000000E+00 -0.00000000000E+00 -0.21098509711E+02  0.21098509711E+02  0.00000000000E+00 0. -1.
         23    2    1    2    0    0  0.27452566805E+01  0.10953997379E+02  0.31130965985E+03  0.33569079875E+03  0.12508829504E+03 0.  0.
          5    1    3    3  502    0  0.44601977257E+02 -0.16809947283E+02  0.48639810029E+02  0.68229130308E+02  0.41800000000E+01 0. -1.
         -5    1    3    3    0  502 -0.41856720577E+02  0.27763944662E+02  0.26266984982E+03  0.26746166844E+03  0.41800000000E+01 0. -1.
        -11    1    1    2    0    0  0.15725343533E+01  0.34024016593E+02  0.16615444383E+03  0.16960956864E+03  0.00000000000E+00 0.  1.
         11    1    1    2    0    0 -0.43177910338E+01 -0.44978013972E+02  0.63904497515E+02  0.78265253229E+02  0.00000000000E+00 0. -1.
</event>
<event>
 7    1  0.7017065E-006  0.1353942E+03  0.7561462E-02  0.1219664E+00
         -2   -1    0    0    0  501 -0.00000000000E+00  0.00000000000E+00  0.34593801494E+02  0.34593801494E+02  0.00000000000E+00 0.  1.
          2   -1    0    0  501    0  0.00000000000E+00 -0.00000000000E+00 -0.83155509535E+03  0.83155509535E+03  0.00000000000E+00 0. -1.
         23    2    1    2    0    0 -0.26294637549E+02 -0.12670120429E+03 -0.39581163018E+03  0.43480920872E+03  0.12509036041E+03 0.  0.
          5    1    3    3  502    0 -0.97314167427E+01 -0.87651168638E+01 -0.23110656638E+03  0.23151510786E+03  0.41800000000E+01 0.  1.
         -5    1    3    3    0  502 -0.16563220806E+02 -0.11793608743E+03 -0.16470506380E+03  0.20329410086E+03  0.41800000000E+01 0.  1.
        -11    1    1    2    0    0  0.74002850796E+00  0.10305419921E+03 -0.37175012634E+03  0.38577049142E+03  0.00000000000E+00 0. -1.
         11    1    1    2    0    0  0.25554609041E+02  0.23647005083E+02 -0.29399537333E+02  0.45569196702E+02  0.00000000000E+00 0.  1.
</event>
<event>
 7    1  0.7017065E-006  0.1166819E+03  0.7561462E-02  0.1248673E+00
         -1   -1    0    0    0  501 -0.00000000000E+00  0.00000000000E+00  0.14826490530E+04  0.14826490530E+04  0.00000000000E+00 0.  1.
          1   -1    0    0  501    0  0.00000000000E+00 -0.00000000000E+00 -0.21547150110E+02  0.21547150110E+02  0.00000000000E+00 0. -1.
         23    2    1    2    0    0  0.58230558064E+02 -0.69822083582E+02  0.12122932082E+04  0.12221161503E+04  0.12508853293E+03 0.  0.
          5    1    3    3  502    0  0.33973225494E+02 -0.93956344996E+01  0.75240503301E+02  0.83192930800E+02  0.41800000000E+01 0. -1.
         -5    1    3    3    0  502  0.24257332570E+02 -0.60426449082E+02  0.11370527048E+04  0.11389232195E+04  0.41800000000E+01 0. -1.
        -11    1    1    2    0    0 -0.14316951799E+02 -0.24613351236E+02  0.46160706798E+02  0.54236546903E+02  0.00000000000E+00 0. -1.
         11    1    1    2    0    0 -0.43913606265E+02  0.94435434818E+02  0.20264798797E+03  0.22784350593E+03  0.00000000000E+00 0.  1.
</event>
<event>
 7    1  0.7017065E-006  0.3881922E+03  0.7561462E-02  0.1047947E+00
          1   -1    0    0  501    0  0.00000000000E+00  0.00000000000E+00  0.83429088582E+02  0.83429088582E+02  0.00000000000E+00 0. -1.
         -1   -1    0    0    0  501 -0.00000000000E+00 -0.00000000000E+00 -0.41959200228E+04  0.41959200228E+04  0.00000000000E+00 0.  1.
         23    2    1    2    0    0  0.37277178312E+03  0.64020306203E+02 -0.36622654691E+04  0.36838695917E+04  0.12509756510E+03 0.  0.
          5    1    3    3  502    0  0.33789920437E+03  0.93169958158E+02 -0.33493161271E+04  0.33676093160E+04  0.41800000000E+01 0.  1.
         -5    1    3    3    0  502  0.34872578757E+02 -0.29149651955E+02 -0.31294934194E+03  0.31626027569E+03  0.41800000000E+01 0.  1.
        -11    1    1    2    0    0 -0.14930916789E+03 -0.64500761104E+01 -0.24328377242E+03  0.28552027077E+03  0.00000000000E+00 0. -1.
         11    1    1    2    0    0 -0.22346261523E+03 -0.57570230093E+02 -0.20694169273E+03  0.30995924892E+03  0.00000000000E+00 0.  1.
</event>
<event>
 7    1  0.7017065E-006  0.1135876E+03  0.7561462E-02  0.1254067E+00
         -2   -1    0    0    0  501 -0.00000000000E+00  0.00000000000E+00  0.44938706434E+02  0.44938706434E+02  0.00000000000E+00 0.  1.
          2   -1    0    0  501    0  0.00000000000E+00 -0.00000000000E+00 -0.38544626041E+03  0.38544626041E+03  0.00000000000E+00 0. -1.
         23    2    1    2    0    0 -0.48344052066E+02 -0.55677617455E+02 -0.17935516449E+03  0.23076495219E+03  0.12508814362E+03 0.  0.
          5    1    3    3  502    0 -0.47644152731E+02  0.26161979101E+02 -0.35038569665E+02  0.64804229833E+02  0.41800000000E+01 0.  1.
         -5    1    3    3    0  502 -0.69989933485E+00 -0.81839596557E+02 -0.14431659482E+03  0.16596072235E+03  0.41800000000E+01 0.  1.
        -11    1    1    2    0    0  0.38346997049E+02  0.66006044750E+02 -0.16737167018E+03  0.18395805528E+03  0.00000000000E+00 0. -1.
         11    1    1    2    0    0  0.99970550177E+01 -0.10328427295E+02  0.62192806810E+01  0.15661959379E+02  0.00000000000E+00 0.  1.
</event>
<event>
 7    1  0.7017065E-006  0.1137884E+03  0.7561462E-02  0.1253711E+00
         -1   -1    0    0    0  501 -0.00000000000E+00  0.00000000000E+00  0.24941480817E+02  0.24941480817E+02  0.00000000000E+00 0.  1.
          1   -1    0    0  501    0  0.00000000000E+00 -0.00000000000E+00 -0.54562510390E+03  0.54562510390E+03  0.00000000000E+00 0. -1.
         23    2    1    2    0    0 -0.57672928844E+02 -0.89008521850E+01 -0.29901696306E+03  0.32933879535E+03  0.12508999175E+03 0.  0.
          5    1    3    3  502    0  0.76877025283E+01  0.46181773696E+02 -0.15336951959E+03  0.16041053248E+03  0.41800000000E+01 0. -1.
         -5    1    3    3    0  502 -0.65360631372E+02 -0.55082625881E+02 -0.14564744347E+03  0.16892826287E+03  0.41800000000E+01 0. -1.
        -11    1    1    2    0    0  0.13847030459E+02  0.39293730872E+02 -0.90303258986E+02  0.99450571249E+02  0.00000000000E+00 0. -1.
         11    1    1    2    0    0  0.43825898385E+02 -0.30392878687E+02 -0.13136340105E+03  0.14177721812E+03  0.00000000000E+00 0.  1.
</event>
<event>
 7    1  0.7017065E-006  0.1817387E+03  0.7561462E-02  0.1166131E+00
          3   -1    0    0  501    0  0.00000000000E+00  0.00000000000E+00  0.20351198532E+03  0.20351198532E+03  0.00000000000E+00 0. -1.
         -3   -1    0    0    0  501 -0.00000000000E+00 -0.00000000000E+00 -0.20005092652E+03  0.20005092652E+03  0.00000000000E+00 0.  1.
         23    2    1    2    0    0  0.32784205491E+02 -0.15589267684E+03 -0.72171340929E+02  0.21501974105E+03  0.12508979082E+03 0.  0.
          5    1    3    3  502    0  0.53063330327E+02 -0.89213687336E+01 -0.22965867047E+02  0.58653314440E+02  0.41800000000E+01 0. -1.
         -5    1    3    3    0  502 -0.20279124836E+02 -0.14697130811E+03 -0.49205473882E+02  0.15636642661E+03  0.41800000000E+01 0. -1.
        -11    1    1    2    0    0 -0.36247872074E+02  0.12991620719E+03  0.33583413504E+02  0.13899631212E+03  0.00000000000E+00 0.  1.
         11    1    1    2    0    0  0.34636665833E+01  0.25976469648E+02  0.42048986227E+02  0.49546858672E+02  0.00000000000E+00 0. -1.
</event>
<event>
 7    1  0.7017065E-006  0.1260165E+03  0.7561462E-02  0.1233489E+00
          2   -1    0    0  501    0  0.00000000000E+00  0.00000000000E+00  0.30584209752E+03  0.30584209752E+03  0.00000000000E+00 0. -1.
         -2   -1    0    0    0  501 -0.00000000000E+00 -0.00000000000E+00 -0.72340383779E+02  0.72340383779E+02  0.00000000000E+00 0.  1.
         23    2    1    2    0    0  0.92284249959E+02 -0.10573637943E+02  0.66832156638E+02  0.16953265748E+03  0.12508637089E+03 0.  0.
          5    1    3    3  502    0  0.82733702459E+01 -0.42581024909E+02 -0.16771277101E+02  0.46694116044E+02  0.41800000000E+01 0. -1.
         -5    1    3    3    0  502  0.84010879713E+02  0.32007386966E+02  0.83603433738E+02  0.12283854144E+03  0.41800000000E+01 0. -1.
        -11    1    1    2    0    0 -0.10477889473E+03  0.13438203349E+02  0.11825442763E+03  0.15856642692E+03  0.00000000000E+00 0. -1.
         11    1    1    2    0    0  0.12494644773E+02 -0.28645654060E+01  0.48415129471E+02  0.50083396897E+02  0.00000000000E+00 0.  1.
</event>
<event>
 7    1  0.7017065E-006  0.5901105E+02  0.7561462E-02  0.1402029E+00
         -4   -1    0    0    0  501 -0.00000000000E+00  0.00000000000E+00  0.70304039555E+02  0.70304039555E+02  0.00000000000E+00 0. -1.
          4   -1    0    0  501    0  0.00000000000E+00 -0.00000000000E+00 -0.21130970744E+03  0.21130970744E+03  0.00000000000E+00 0.  1.
         23    2    1    2    0    0  0.11509619709E+02  0.42741067195E+02 -0.36727464827E+02  0.13767901389E+03  0.12508930418E+03 0.  0.
          5    1    3    3  502    0  0.14274921540E+01  0.31915024272E+02  0.44539224290E+02  0.54971096119E+02  0.41800000000E+01 0.  1.
         -5    1    3    3    0  502  0.10082127555E+02  0.10826042923E+02 -0.81266689118E+02  0.82707917768E+02  0.41800000000E+01 0.  1.
        -11    1    1    2    0    0 -0.33511377778E+02 -0.30162247200E+02 -0.10917849188E+03  0.11812161820E+03  0.00000000000E+00 0.  1.
         11    1    1    2    0    0  0.22001758069E+02 -0.12578819995E+02  0.49002888257E+01  0.25813114906E+02  0.00000000000E+00 0. -1.
</event>
<event>
 6    1  0.7017065E-006  0.2836379E+03  0.7561462E-02  0.1093718E+00
          1   -1    0    0  501    0  0.00000000000E+00  0.00000000000E+00  0.46278988637E+03  0.46278988637E+03  0.00000000000E+00 0. -1.
         -1   -1    0    0    0  501 -0.00000000000E+00 -0.00000000000E+00 -0.59597026573E+03  0.59597026573E+03  0.00000000000E+00 0.  1.
          5    1    1    2  502    0 -0.92350723872E+02  0.37197187752E+02 -0.10378552959E+03  0.14387910039E+03  0.41800000000E+01 0. -1.
         -5    1    1    2    0  502  0.18087958111E+03  0.15427172372E+03 -0.40776214153E+03  0.47202184702E+03  0.41800000000E+01 0.  1.
        -11    1    1    2    0    0 -0.60089041327E+01  0.10267212553E+02  0.24840781392E+02  0.27542458181E+02  0.00000000000E+00 0.  1.
         11    1    1    2    0    0 -0.82519953101E+02 -0.20173612402E+03  0.35352651037E+03  0.41531674651E+03  0.00000000000E+00 0. -1.
</event>
<event>
 7    1  0.7017065E-006  0.1291556E+03  0.7561462E-02  0.1228714E+00
          1   -1    0    0  501    0  0.00000000000E+00  0.00000000000E+00  0.67712290223E+03  0.67712290223E+03  0.00000000000E+00 0. -1.
         -1   -1    0    0    0  501 -0.00000000000E+00 -0.00000000000E+00 -0.33319235224E+02  0.33319235224E+02  0.00000000000E+00 0.  1.
         23    2    1    2    0    0 -0.89730045945E+02 -0.23148781440E+02  0.23952579676E+03  0.28567020351E+03  0.12509001012E+03 0.  0.
          5    1    3    3  502    0 -0.10619264687E+03 -0.49172747579E+02  0.21925817120E+03  0.24856881420E+03  0.41800000000E+01 0. -1.
         -5    1    3    3    0  502  0.16462600925E+02  0.26023966138E+02  0.20267625552E+02  0.37101389304E+02  0.41800000000E+01 0. -1.
        -11    1    1    2    0    0  0.74096217372E+02 -0.87502386416E+01  0.36172606751E+03  0.36934071535E+03  0.00000000000E+00 0. -1.
         11    1    1    2    0    0  0.15633828573E+02  0.31899020082E+02  0.42551802747E+02  0.55431218597E+02  0.00000000000E+00 0.  1.
</event>
<event>
 7    1  0.7017065E-006  0.9845764E+02  0.7561462E-02  0.1283573E+00
         -1   -1    0    0    0  501 -0.00000000000E+00  0.00000000000E+00  0.39857207504E+03  0.39857207504E+03  0.00000000000E+00 0.  1.
          1   -1    0    0  501    0  0.00000000000E+00 -0.00000000000E+00 -0.42183762064E+02  0.42183762064E+02  0.00000000000E+00 0. -1.
         23    2    1    2    0    0 -0.63557565254E+02 -0.28728878559E+02  0.17928238597E+03  0.22945753573E+03  0.12507467458E+03 0.  0.
          5    1    3    3  502    0 -0.39743362612E+02  0.30806030514E+02  0.14363675914E+02  0.52462691253E+02  0.41800000000E+01 0.  1.
         -5    1    3    3    0  502 -0.23814202643E+02 -0.59534909074E+02  0.16491871006E+03  0.17699484448E+03  0.41800000000E+01 0.  1.
        -11    1    1    2    0    0  0.23046978901E+02 -0.10930846210E+02  0.17687317358E+00  0.25508389197E+02  0.00000000000E+00 0. -1.
         11    1    1    2    0    0  0.40510586353E+02  0.39659724769E+02  0.17692905383E+03  0.18578991218E+03  0.00000000000E+00 0.  1.
</event>
<event>
 7    1  0.7017065E-006  0.1156898E+03  0.7561462E-02  0.1250382E+00
         -2   -1    0    0    0  501 -0.00000000000E+00  0.00000000000E+00  0.61380653380E+02  0.61380653380E+02  0.00000000000E+00 0.  1.
          2   -1    0    0  501    0  0.00000000000E+00 -0.00000000000E+00 -0.40071788962E+03  0.40071788962E+03  0.00000000000E+00 0. -1.
         23    2    1    2    0    0 -0.58429162181E+02  0.96615270570E+02 -0.16348351488E+03  0.23478155945E+03  0.12508814299E+03 0.  0.
          5    1    3    3  502    0 -0.14791804582E+02  0.34668894270E+02 -0.15364738216E+03  0.15825839680E+03  0.41800000000E+01 0. -1.
         -5    1    3    3    0  502 -0.43637357599E+02  0.61946376299E+02 -0.98361327238E+01  0.76523162649E+02  0.41800000000E+01 0. -1.
        -11    1    1    2    0    0  0.16729637106E+02 -0.59283049767E+02 -0.25112520685E+02  0.66520669288E+02  0.00000000000E+00 0.  1.
         11    1    1    2    0    0  0.41699525075E+02 -0.37332220803E+02 -0.15074120068E+03  0.16079631427E+03  0.00000000000E+00 0. -1.
</event>
<event>
 7    1  0.7017065E-006  0.1033552E+03  0.7561462E-02  0.1273394E+00
          1   -1    0    0  501    0  0.00000000000E+00  0.00000000000E+00  0.12685846054E+03  0.12685846054E+03  0.00000000000E+00 0. -1.
         -1   -1    0    0    0  501 -0.00000000000E+00 -0.00000000000E+00 -0.13187568453E+03  0.13187568453E+03  0.00000000000E+00 0.  1.
         23    2    1    2    0    0 -0.53131042386E+02 -0.31807001322E+02 -0.34849862971E+02  0.14386948965E+03  0.12509725858E+03 0.  0.
          5    1    3    3  502    0  0.23533675191E+02  0.23403248788E+02  0.15347681863E+02  0.36804478809E+02  0.41800000000E+01 0. -1.
         -5    1    3    3    0  502 -0.76664717577E+02 -0.55210250110E+02 -0.50197544834E+02  0.10706501084E+03  0.41800000000E+01 0. -1.
        -11    1    1    2    0    0  0.58981860220E+02  0.14949811892E+02 -0.18293172586E+02  0.63537365966E+02  0.00000000000E+00 0.  1.
         11    1    1    2    0    0 -0.58508178344E+01  0.16857189430E+02  0.48125811566E+02  0.51327289464E+02  0.00000000000E+00 0. -1.
</event>
<event>
 7    1  0.7017065E-006  0.8727014E+02  0.7561462E-02  0.1309600E+00
          1   -1    0    0  501    0  0.00000000000E+00  0.00000000000E+00  0.10837858026E+03  0.10837858026E+03  0.00000000000E+00 0. -1.
         -1   -1    0    0    0  501 -0.00000000000E+00 -0.00000000000E+00 -0.15916936838E+03  0.15916936838E+03  0.00000000000E+00 0.  1.
         23    2    1    2    0    0 -0.14821888130E+02 -0.65966722755E+02 -0.71131653553E+02  0.15899065187E+03  0.12508804245E+03 0.  0.
          5    1    3    3  502    0  0.44434829399E+00  0.14443614237E+02 -0.75438992561E+02  0.76924179790E+02  0.41800000000E+01 0.  1.
         -5    1    3    3    0  502 -0.15266236424E+02 -0.80410336992E+02  0.43073390087E+01  0.82066472077E+02  0.41800000000E+01 0.  1.
        -11    1    1    2    0    0 -0.12957433934E+02  0.19747183751E+02 -0.27653674479E+02  0.36367184005E+02  0.00000000000E+00 0.  1.
         11    1    1    2    0    0  0.27779322065E+02  0.46219539004E+02  0.47994539906E+02  0.72190112764E+02  0.00000000000E+00 0. -1.
</event>
<event>
 7    1  0.7017065E-006  0.1270613E+03  0.7561462E-02  0.1231883E+00
          4   -1    0    0  501    0  0.00000000000E+00  0.00000000000E+00  0.39269878579E+03  0.39269878579E+03  0.00000000000E+00 0. -1.
         -4   -1    0    0    0  501 -0.00000000000E+00 -0.00000000000E+00 -0.45821770184E+02  0.45821770184E+02  0.00000000000E+00 0.  1.
         23    2    1    2    0    0 -0.66984316929E+02 -0.33724124927E+02  0.16068207482E+03  0.21699990020E+03  0.12508402056E+03 0.  0.
          5    1    3    3  502    0 -0.98981162553E+02 -0.13969457631E+02  0.80769452279E+02  0.12858302030E+03  0.41800000000E+01 0.  1.
         -5    1    3    3    0  502  0.31996845624E+02 -0.19754667297E+02  0.79912622541E+02  0.88416879900E+02  0.41800000000E+01 0.  1.
        -11    1    1    2    0    0  0.33379340005E+02 -0.29558610600E+02  0.45913137053E+02  0.63999280885E+02  0.00000000000E+00 0. -1.
         11    1    1    2    0    0  0.33604976924E+02  0.63282735527E+02  0.14028180373E+03  0.15752137490E+03  0.00000000000E+00 0.  1.
</event>
<event>
 7    1  0.7017065E-006  0.1489341E+03  0.7561462E-02  0.1201789E+00
         -2   -1    0    0    0  501 -0.00000000000E+00  0.00000000000E+00  0.49251330634E+02  0.49251330634E+02  0.00000000000E+00 0.  1.
          2   -1    0    0  501    0  0.00000000000E+00 -0.00000000000E+00 -0.68409018831E+03  0.68409018831E+03  0.00000000000E+00 0. -1.
         23    2    1    2    0    0 -0.11763137634E+03 -0.16868327696E+02 -0.15948353816E+03  0.23495484263E+03  0.12508836058E+03 0.  0.
          5    1    3    3  502    0 -0.13216432218E+03  0.17820361804E+02 -0.11175359806E+03  0.17404399568E+03  0.41800000000E+01 0. -1.
         -5    1    3    3    0  502  0.14532945844E+02 -0.34688689501E+02 -0.47729940104E+02  0.60910846953E+02  0.41800000000E+01 0. -1.
        -11    1    1    2    0    0  0.24172281911E+02  0.22430746505E+02 -0.34600683408E+02  0.47797959097E+02  0.00000000000E+00 0.  1.
         11    1    1    2    0    0  0.93459094425E+02 -0.55624188089E+01 -0.44075463611E+03  0.45058871722E+03  0.00000000000E+00 0. -1.
</event>
<event>
 7    1  0.7017065E-006  0.1658045E+03  0.7561462E-02  0.1182295E+00
         -4   -1    0    0    0  501 -0.00000000000E+00  0.00000000000E+00  0.33957087800E+03  0.33957087800E+03  0.00000000000E+00 0.  1.
          4   -1    0    0  501    0  0.00000000000E+00 -0.00000000000E+00 -0.11171958586E+03  0.11171958586E+03  0.00000000000E+00 0. -1.
         23    2    1    2    0    0  0.10388366426E+03  0.21133419855E+02  0.10004887654E+03  0.19208197219E+03  0.12508904513E+03 0.  0.
          5    1    3    3  502    0 -0.26259107360E+02  0.15189720212E+02  0.34675228675E+02  0.46261346750E+02  0.41800000000E+01 0. -1.
         -5    1    3    3    0  502  0.13014277162E+03  0.59436996422E+01  0.65373647862E+02  0.14582062544E+03  0.41800000000E+01 0. -1.
        -11    1    1    2    0    0 -0.11508396666E+03 -0.60285832601E+02  0.52024748439E+01  0.13002217787E+03  0.00000000000E+00 0. -1.
         11    1    1    2    0    0  0.11200302398E+02  0.39152412747E+02  0.12259994076E+03  0.12918631379E+03  0.00000000000E+00 0.  1.
</event>
<event>
 7    1  0.7017065E-006  0.1195203E+03  0.7561462E-02  0.1243890E+00
         -2   -1    0    0    0  501 -0.00000000000E+00  0.00000000000E+00  0.15809342042E+03  0.15809342042E+03  0.00000000000E+00 0.  1.
          2   -1    0    0  501    0  0.00000000000E+00 -0.00000000000E+00 -0.14879766410E+03  0.14879766410E+03  0.00000000000E+00 0. -1.
         23    2    1    2    0    0  0.12892975222E+02 -0.70035017732E+02  0.84770317524E+02  0.16705663982E+03  0.12510308411E+03 0.  0.
          5    1    3    3  502    0 -0.18613609789E+02  0.20214164605E+02  0.63101278853E+02  0.68951596885E+02  0.41800000000E+01 0. -1.
         -5    1    3    3    0  502  0.31506585011E+02 -0.90249182337E+02  0.21669038671E+02  0.98105042931E+02  0.41800000000E+01 0. -1.
        -11    1    1    2    0    0 -0.52353116198E+02  0.42734667935E+02 -0.57030098083E+02  0.88428121695E+02  0.00000000000E+00 0.  1.
         11    1    1    2    0    0  0.39460140976E+02  0.27300349797E+02 -0.18444463122E+02  0.51406323003E+02  0.00000000000E+00 0. -1.
</event>
<event>
 7    1  0.7017065E-006  0.1472743E+03  0.7561462E-02  0.1203863E+00
          2   -1    0    0  501    0  0.00000000000E+00  0.00000000000E+00  0.43323578338E+03  0.43323578338E+03  0.00000000000E+00 0. -1.
         -2   -1    0    0    0  501 -0.00000000000E+00 -0.00000000000E+00 -0.55249242444E+02  0.55249242444E+02  0.00000000000E+00 0.  1.
         23    2    1    2    0    0  0.91506892716E+02 -0.53321585993E+02  0.25635689440E+03  0.30427482291E+03  0.12509039771E+03 0.  0.
          5    1    3    3  502    0  0.11471546194E+03 -0.69983896434E+02  0.20060927692E+03  0.24149314143E+03  0.41800000000E+01 0.  1.
         -5    1    3    3    0  502 -0.23208569227E+02  0.16662310441E+02  0.55747617479E+02  0.62781681479E+02  0.41800000000E+01 0.  1.
        -11    1    1    2    0    0 -0.19104921137E+02  0.55602770752E+02  0.84139877466E+02  0.10264592104E+03  0.00000000000E+00 0. -1.
         11    1    1    2    0    0 -0.72401971579E+02 -0.22811847593E+01  0.37489769064E+02  0.81564281870E+02  0.00000000000E+00 0.  1.
</event>
<event>
 7    1  0.8502042E-006  0.4096495E+03  0.7561462E-02  0.1040489E+00
          2   -1    0    0  501    0  0.00000000000E+00  0.00000000000E+00  0.13432348519E+04  0.13432348519E+04  0.00000000000E+00 0. -1.
         -2   -1    0    0    0  501 -0.00000000000E+00 -0.00000000000E+00 -0.14855022881E+03  0.14855022881E+03  0.00000000000E+00 0.  1.
         23    2    1    2    0    0 -0.11264536406E+03 -0.38040203656E+03  0.31740921305E+03  0.52325021503E+03  0.12508993378E+03 0.  0.
          5    1    3    3  502    0 -0.13050102289E+03 -0.26286480584E+03  0.19391437590E+03  0.35177930682E+03  0.41800000000E+01 0. -1.
         -5    1    3    3    0  502  0.17855658839E+02 -0.11753723072E+03  0.12349483715E+03  0.17147090820E+03  0.41800000000E+01 0. -1.
        -11    1    1    2    0    0  0.99309171680E+02  0.17669608580E+03  0.50101449063E+03  0.54046215236E+03  0.00000000000E+00 0. -1.
         11    1    1    2    0    0  0.13336192376E+02  0.20370595077E+03  0.37626091937E+03  0.42807271328E+03  0.00000000000E+00 0.  1.
</event>
<event>
 7    1  0.7017065E-006  0.1116045E+03  0.7561462E-02  0.1257627E+00
          3   -1    0    0  501    0  0.00000000000E+00  0.00000000000E+00  0.77260063254E+02  0.77260063254E+02  0.00000000000E+00 0. -1.
         -3   -1    0    0    0  501 -0.00000000000E+00 -0.00000000000E+00 -0.18488024183E+03  0.18488024183E+03  0.00000000000E+00 0.  1.
         23    2    1    2    0    0  0.13219558171E+02  0.60926223074E+02 -0.68439813744E+02  0.15561949309E+03  0.12508659860E+03 0.  0.
          5    1    3    3  502    0  0.12332832148E+01  0.94590402663E+02 -0.72713639103E+02  0.11938848762E+03  0.41800000000E+01 0. -1.
         -5    1    3    3    0  502  0.11986274956E+02 -0.33664179589E+02  0.42738253591E+01  0.36231005477E+02  0.41800000000E+01 0. -1.
        -11    1    1    2    0    0 -0.38394344008E+02 -0.54309429516E+02 -0.97341215738E+01  0.67218992175E+02  0.00000000000E+00 0.  1.
         11    1    1    2    0    0  0.25174785837E+02 -0.66167935586E+01 -0.29446243260E+02  0.39301819819E+02  0.00000000000E+00 0. -1.
</event>
<event>
 7    1  0.7017065E-006  0.3618540E+03  0.7561462E-02  0.1057852E+00
         -2   -1    0    0    0  501 -0.00000000000E+00  0.00000000000E+00  0.96972733013E+02  0.96972733013E+02  0.00000000000E+00 0. -1.
          2   -1    0    0  501    0  0.00000000000E+00 -0.00000000000E+00 -0.14220661152E+04  0.14220661152E+04  0.00000000000E+00 0.  1.
         23    2    1    2    0    0 -0.18370181039E+03 -0.30293398777E+03 -0.63174830220E+03  0.73502994103E+03  0.12509093012E+03 0.  0.
          5    1    3    3  502    0 -0.11407248616E+03 -0.26822013574E+03 -0.54757377993E+03  0.62032982371E+03  0.41800000000E+01 0. -1.
         -5    1    3    3    0  502 -0.69629324226E+02 -0.34713852034E+02 -0.84174522263E+02  0.11470011732E+03  0.41800000000E+01 0. -1.
        -11    1    1    2    0    0  0.16640504052E+03  0.27601070125E+03 -0.55301757077E+03  0.64007888443E+03  0.00000000000E+00 0. -1.
         11    1    1    2    0    0  0.17296769865E+02  0.26923286516E+02 -0.14032750927E+03  0.14393002280E+03  0.00000000000E+00 0.  1.
</event>
<event>
 7    1  0.7017065E-006  0.1063424E+03  0.7561462E-02  0.1267497E+00
          2   -1    0    0  501    0  0.00000000000E+00  0.00000000000E+00  0.51329371239E+03  0.51329371239E+03  0.00000000000E+00 0. -1.
         -2   -1    0    0    0  501 -0.00000000000E+00 -0.00000000000E+00 -0.28663431624E+02  0.28663431624E+02  0.00000000000E+00 0.  1.
         23    2    1    2    0    0 -0.18344839519E+02 -0.59966567487E+02  0.23433970228E+03  0.26783349192E+03  0.11352163220E+03 0.  0.
          5    1    3    3  502    0 -0.48364997134E+02 -0.62495217268E+02  0.22077795513E+03  0.23453188057E+03  0.41800000000E+01 0. -1.
         -5    1    3    3    0  502  0.30020157615E+02  0.25286497819E+01  0.13561747142E+02  0.33301611349E+02  0.41800000000E+01 0.  1.
        -11    1    1    2    0    0  0.45756326393E+02  0.60332750743E+02  0.12732748775E+03  0.14814172726E+03  0.00000000000E+00 0.  1.
         11    1    1    2    0    0 -0.27411486874E+02 -0.36618325679E+00  0.12296309073E+03  0.12598192484E+03  0.00000000000E+00 0. -1.
</event>
<event>
 7    1  0.7017065E-006  0.1004462E+03  0.7561462E-02  0.1279360E+00
         -2   -1    0    0    0  501 -0.00000000000E+00  0.00000000000E+00  0.64380724547E+02  0.64380724547E+02  0.00000000000E+00 0. -1.
          2   -1    0    0  501    0  0.00000000000E+00 -0.00000000000E+00 -0.41563196127E+03  0.41563196127E+03  0.00000000000E+00 0.  1.
         23    2    1    2    0    0  0.11490165922E+02  0.31061086354E+02 -0.15179965137E+02  0.13027074499E+03  0.12507286141E+03 0.  0.
          5    1    3    3  502    0 -0.13986499603E+02 -0.33379222726E+02  0.30211085415E+02  0.47328392777E+02  0.41800000000E+01 0. -1.
         -5    1    3    3    0  502  0.25476665524E+02  0.64440309081E+02 -0.45391050551E+02  0.82942352214E+02  0.41800000000E+01 0. -1.
        -11    1    1    2    0    0  0.39024804596E+02 -0.98156759163E+01 -0.17628660314E+03  0.18082104223E+03  0.00000000000E+00 0.  1.
         11    1    1    2    0    0 -0.50514970518E+02 -0.21245410438E+02 -0.15978466844E+03  0.16892089859E+03  0.00000000000E+00 0. -1.
</event>
<event>
 7    1  0.7017065E-006  0.1522821E+03  0.7561462E-02  0.1197697E+00
         -1   -1    0    0    0  501 -0.00000000000E+00  0.00000000000E+00  0.31922583805E+02  0.31922583805E+02  0.00000000000E+00 0.  1.
          1   -1    0    0  501    0  0.00000000000E+00 -0.00000000000E+00 -0.88973054208E+03  0.88973054208E+03  0.00000000000E+00 0. -1.
         23    2    1    2    0    0 -0.43043851422E+02  0.11971706542E+03 -0.41623828657E+03  0.45286707762E+03  0.12509728168E+03 0.  0.
          5    1    3    3  502    0  0.25120096815E+02 -0.30956696932E-01 -0.15893656285E+03  0.16096373390E+03  0.41800000000E+01 0. -1.
         -5    1    3    3    0  502 -0.68163948237E+02  0.11974802212E+03 -0.25730172372E+03  0.29190334371E+03  0.41800000000E+01 0. -1.
        -11    1    1    2    0    0  0.13337851721E+02  0.40694420035E+01 -0.63350136501E+01  0.15316365258E+02  0.00000000000E+00 0.  1.
         11    1    1    2    0    0  0.29705999701E+02 -0.12378650742E+03 -0.43523465805E+03  0.45346968301E+03  0.00000000000E+00 0. -1.
</event>
<event>
 7    1  0.7017065E-006  0.1082504E+03  0.7561462E-02  0.1263845E+00
         -3   -1    0    0    0  501 -0.00000000000E+00  0.00000000000E+00  0.58818506868E+02  0.58818506868E+02  0.00000000000E+00 0.  1.
          3   -1    0    0  501    0  0.00000000000E+00 -0.00000000000E+00 -0.20631554498E+03  0.20631554498E+03  0.00000000000E+00 0. -1.
         23    2    1    2    0    0 -0.21833881161E+02 -0.15731520618E+02 -0.75633610855E+02  0.14863798646E+03  0.12509439963E+03 0.  0.
          5    1    3    3  502    0  0.56066135686E+01 -0.66680508917E+02 -0.56092962172E+02  0.87416343954E+02  0.41800000000E+01 0.  1.
         -5    1    3    3    0  502 -0.27440494730E+02  0.50948988299E+02 -0.19540648684E+02  0.61221642502E+02  0.41800000000E+01 0.  1.
        -11    1    1    2    0    0  0.24277515611E+02  0.50788685118E+02 -0.48417113082E+02  0.74250287134E+02  0.00000000000E+00 0.  1.
         11    1    1    2    0    0 -0.24436344501E+01 -0.35057164501E+02 -0.23446314173E+02  0.42245778256E+02  0.00000000000E+00 0. -1.
</event>
<event>
 7    1  0.7017065E-006  0.1030337E+03  0.7561462E-02  0.1274043E+00
         -2   -1    0    0    0  501 -0.00000000000E+00  0.00000000000E+00  0.30809519971E+02  0.30809519971E+02  0.00000000000E+00 0.  1.
          2   -1    0    0  501    0  0.00000000000E+00 -0.00000000000E+00 -0.47399026257E+03  0.47399026257E+03  0.00000000000E+00 0. -1.
         23    2    1    2    0    0  0.31225928923E+02 -0.37029256950E+02 -0.20166892557E+03  0.24221775889E+03  0.12511140106E+03 0.  0.
          5    1    3    3  502    0  0.71561129504E+02 -0.36622986117E+01 -0.15936695983E+03  0.17478474754E+03  0.41800000000E+01 0. -1.
         -5    1    3    3    0  502 -0.40335200581E+02 -0.33366958339E+02 -0.42301965736E+02  0.67433011351E+02  0.41800000000E+01 0. -1.
        -11    1    1    2    0    0  0.10380883768E+02  0.38767586430E+02 -0.39458371408E+02  0.56281893888E+02  0.00000000000E+00 0.  1.
         11    1    1    2    0    0 -0.41606812691E+02 -0.17383294797E+01 -0.20205344562E+03  0.20630012976E+03  0.00000000000E+00 0. -1.
</event>
<event>
 7    1  0.7017065E-006  0.2111519E+03  0.7561462E-02  0.1140657E+00
          2   -1    0    0  501    0  0.00000000000E+00  0.00000000000E+00  0.58988914246E+03  0.58988914246E+03  0.00000000000E+00 0.  1.
         -2   -1    0    0    0  501 -0.00000000000E+00 -0.00000000000E+00 -0.90392906079E+02  0.90392906079E+02  0.00000000000E+00 0. -1.
         23    2    1    2    0    0 -0.19241226045E+03  0.59067179310E+02  0.28022905502E+03  0.36699669760E+03  0.12508734201E+03 0.  0.
          5    1    3    3  502    0 -0.14812604009E+03  0.81787332136E+02  0.14512783306E+03  0.22295751116E+03  0.41800000000E+01 0.  1.
         -5    1    3    3    0  502 -0.44286220358E+02 -0.22720152826E+02  0.13510122196E+03  0.14403918645E+03  0.41800000000E+01 0.  1.
        -11    1    1    2    0    0  0.19370133793E+02  0.22768821446E+01 -0.80393731261E+01  0.21095444904E+02  0.00000000000E+00 0. -1.
         11    1    1    2    0    0  0.17304212666E+03 -0.61344061455E+02  0.22730655448E+03  0.29218990603E+03  0.00000000000E+00 0.  1.
</event>
<event>
 7    1  0.7017065E-006  0.2267625E+03  0.7561462E-02  0.1128939E+00
         -2   -1    0    0    0  501 -0.00000000000E+00  0.00000000000E+00  0.11371411878E+03  0.11371411878E+03  0.00000000000E+00 0.  1.
          2   -1    0    0  501    0  0.00000000000E+00 -0.00000000000E+00 -0.80345462253E+03  0.80345462253E+03  0.00000000000E+00 0. -1.
         23    2    1    2    0    0 -0.90550521523E+01  0.20646202318E+03 -0.61101007285E+02  0.24917716349E+03  0.12508942693E+03 0.  0.
          5    1    3    3  502    0  0.34608448888E+02  0.29096109768E+02 -0.47884885123E+02  0.65990627829E+02  0.41800000000E+01 0. -1.
         -5    1    3    3    0  502 -0.43663501040E+02  0.17736591341E+03 -0.13216122161E+02  0.18318653566E+03  0.41800000000E+01 0. -1.
        -11    1    1    2    0    0 -0.39909055069E+02 -0.72183389395E+02 -0.20944810801E+03  0.22510371905E+03  0.00000000000E+00 0. -1.
         11    1    1    2    0    0  0.48964107222E+02 -0.13427863378E+03 -0.41919138845E+03  0.44288785876E+03  0.00000000000E+00 0.  1.
</event>
<event>
 7    1  0.7017065E-006  0.1143511E+03  0.7561462E-02  0.1252718E+00
         -2   -1    0    0    0  501 -0.00000000000E+00  0.00000000000E+00  0.25914555839E+02  0.25914555839E+02  0.00000000000E+00 0.  1.
          2   -1    0    0  501    0  0.00000000000E+00 -0.00000000000E+00 -0.75398952204E+03  0.75398952204E+03  0.00000000000E+00 0. -1.
         23    2    1    2    0    0  0.44131073507E+02 -0.53801418601E+02 -0.26418864310E+03  0.30047171189E+03  0.12508183804E+03 0.  0.
          5    1    3    3  502    0  0.62389014043E+02 -0.76352885299E+02 -0.24815286097E+03  0.26705704817E+03  0.41800000000E+01 0. -1.
         -5    1    3    3    0  502 -0.18257940537E+02  0.22551466698E+02 -0.16035782130E+02  0.33414663719E+02  0.41800000000E+01 0. -1.
        -11    1    1    2    0    0 -0.23379826504E+02  0.70364061608E+02 -0.43018818357E+03  0.43653131702E+03  0.00000000000E+00 0. -1.
         11    1    1    2    0    0 -0.20751247003E+02 -0.16562643007E+02 -0.33698139521E+02  0.42901048970E+02  0.00000000000E+00 0.  1.
</event>
<event>
 7    1  0.7017065E-006  0.1040382E+03  0.7561462E-02  0.1272026E+00
         -2   -1    0    0    0  501 -0.00000000000E+00  0.00000000000E+00  0.31903668763E+02  0.31903668763E+02  0.00000000000E+00 0.  1.
          2   -1    0    0  501    0  0.00000000000E+00 -0.00000000000E+00 -0.39033420134E+03  0.39033420134E+03  0.00000000000E+00 0. -1.
         23    2    1    2    0    0 -0.13067078718E+02  0.56522165926E+01 -0.21140034031E+03  0.24601711908E+03  0.12502648878E+03 0.  0.
          5    1    3    3  502    0 -0.48017245123E+02  0.43849004958E+02 -0.71258203093E+02  0.96558764351E+02  0.41800000000E+01 0.  1.
         -5    1    3    3    0  502  0.34950166405E+02 -0.38196788365E+02 -0.14014213722E+03  0.14945835473E+03  0.41800000000E+01 0.  1.
        -11    1    1    2    0    0 -0.19006249948E+02 -0.39812423089E+02 -0.40696421833E+02  0.60020540812E+02  0.00000000000E+00 0.  1.
         11    1    1    2    0    0  0.32073328666E+02  0.34160206497E+02 -0.10633377043E+03  0.11620021022E+03  0.00000000000E+00 0. -1.
</event>
<event>
 7    1  0.7017065E-006  0.1319009E+03  0.7561462E-02  0.1224662E+00
          2   -1    0    0  501    0  0.00000000000E+00  0.00000000000E+00  0.10322030153E+04  0.10322030153E+04  0.00000000000E+00 0.  1.
         -2   -1    0    0    0  501 -0.00000000000E+00 -0.00000000000E+00 -0.20807724075E+02  0.20807724075E+02  0.00000000000E+00 0. -1.
         23    2    1    2    0    0  0.44813847390E+02 -0.78461265732E+02  0.41023717420E+03  0.43829979799E+03  0.12509085770E+03 0.  0.
          5    1    3    3  502    0 -0.32479001222E+02 -0.27974488901E+02  0.48133653143E+02  0.64589306503E+02  0.41800000000E+01 0.  1.
         -5    1    3    3    0  502  0.77292848612E+02 -0.50486776832E+02  0.36210352106E+03  0.37371049149E+03  0.41800000000E+01 0.  1.
        -11    1    1    2    0    0  0.72028481774E+01  0.75896832530E+02  0.34863778751E+03  0.35687605284E+03  0.00000000000E+00 0. -1.
         11    1    1    2    0    0 -0.52016695567E+02  0.25644332027E+01  0.25252032947E+03  0.25783488851E+03  0.00000000000E+00 0.  1.
</event>
<event>
 7    1  0.7017065E-006  0.2314251E+03  0.7561462E-02  0.1125641E+00
         -2   -1    0    0    0  501 -0.00000000000E+00  0.00000000000E+00  0.22778963222E+03  0.22778963222E+03  0.00000000000E+00 0.  1.
          2   -1    0    0  501    0  0.00000000000E+00 -0.00000000000E+00 -0.28472308730E+03  0.28472308730E+03  0.00000000000E+00 0. -1.
         23    2    1    2    0    0 -0.18259963408E+03  0.13711254396E+03 -0.53161197714E+02  0.26574199822E+03  0.12510084173E+03 0.  0.
          5    1    3    3  502    0 -0.10690619511E+01  0.75863251414E+01  0.27276318713E+02  0.28638526239E+02  0.41800000000E+01 0.  1.
         -5    1    3    3    0  502 -0.18153057213E+03  0.12952621882E+03 -0.80437516428E+02  0.23710347198E+03  0.41800000000E+01 0.  1.
        -11    1    1    2    0    0  0.11725639216E+03 -0.66202800941E+02  0.40576209595E+02  0.14063534812E+03  0.00000000000E+00 0.  1.
         11    1    1    2    0    0  0.65343241916E+02 -0.70909743016E+02 -0.44348466954E+02  0.10613537318E+03  0.00000000000E+00 0. -1.
</event>
<event>
 7    1  0.7017065E-006  0.1090657E+03  0.7561462E-02  0.1262310E+00
         -3   -1    0    0    0  501 -0.00000000000E+00  0.00000000000E+00  0.57073389030E+02  0.57073389030E+02  0.00000000000E+00 0.  1.
          3   -1    0    0  501    0  0.00000000000E+00 -0.00000000000E+00 -0.44461115281E+03  0.44461115281E+03  0.00000000000E+00 0. -1.
         23    2    1    2    0    0 -0.48450833786E+02 -0.58020593879E+02 -0.19415460898E+03  0.24301657913E+03  0.12508866030E+03 0.  0.
          5    1    3    3  502    0  0.31915638644E+01 -0.39268098626E+02 -0.18242998817E+03  0.18668246472E+03  0.41800000000E+01 0.  1.
         -5    1    3    3    0  502 -0.51642397650E+02 -0.18752495253E+02 -0.11724620808E+02  0.56334114410E+02  0.41800000000E+01 0.  1.
        -11    1    1    2    0    0 -0.24545792565E+02 -0.71400843606E+01 -0.14908144071E+03  0.15125724016E+03  0.00000000000E+00 0. -1.
         11    1    1    2    0    0  0.72996626351E+02  0.65160678240E+02 -0.44301714095E+02  0.10741072255E+03  0.00000000000E+00 0.  1.
</event>
<event>
 7    1  0.7017065E-006  0.9478745E+02  0.7561462E-02  0.1291656E+00
          2   -1    0    0  501    0  0.00000000000E+00  0.00000000000E+00  0.67563440159E+02  0.67563440159E+02  0.00000000000E+00 0. -1.
         -2   -1    0    0    0  501 -0.00000000000E+00 -0.00000000000E+00 -0.31700150183E+03  0.31700150183E+03  0.00000000000E+00 0.  1.
         23    2    1    2    0    0  0.86454631637E+01 -0.29352931637E+02 -0.25720804397E+03  0.28764610494E+03  0.12509182697E+03 0.  0.
          5    1    3    3  502    0 -0.65794641612E+01 -0.61002042968E+02 -0.55430494017E+02  0.82792213775E+02  0.41800000000E+01 0.  1.
         -5    1    3    3    0  502  0.15224927325E+02  0.31649111331E+02 -0.20177754996E+03  0.20485389117E+03  0.41800000000E+01 0.  1.
        -11    1    1    2    0    0 -0.92210975063E+01  0.60679626573E+02  0.17996255257E+02  0.63960229233E+02  0.00000000000E+00 0. -1.
         11    1    1    2    0    0  0.57563434267E+00 -0.31326694936E+02 -0.10226272957E+02  0.32958607815E+02  0.00000000000E+00 0.  1.
</event>
<event>
 7    1  0.7017065E-006  0.1173307E+03  0.7561462E-02  0.1247567E+00
         -1   -1    0    0    0  501 -0.00000000000E+00  0.00000000000E+00  0.17033886759E+03  0.17033886759E+03  0.00000000000E+00 0.  1.
          1   -1    0    0  501    0  0.00000000000E+00 -0.00000000000E+00 -0.91231899501E+02  0.91231899501E+02  0.00000000000E+00 0. -1.
         23    2    1    2    0    0 -0.37076364862E+02  0.40578368311E+02  0.71852865359E+02  0.15437548197E+03  0.12509074453E+03 0.  0.
          5    1    3    3  502    0 -0.72279216355E+02 -0.20050075837E+01  0.67152124301E+02  0.98768341945E+02  0.41800000000E+01 0. -1.
         -5    1    3    3    0  502  0.35202851492E+02  0.42583375894E+02  0.47007410576E+01  0.55607140029E+02  0.41800000000E+01 0. -1.
        -11    1    1    2    0    0  0.65364452539E+02 -0.11704996646E+02  0.70098515959E+01  0.66773172918E+02  0.00000000000E+00 0.  1.
         11    1    1    2    0    0 -0.28288087676E+02 -0.28873371665E+02  0.24425113032E+00  0.40422112195E+02  0.00000000000E+00 0. -1.
</event>
<event>
 6    1  0.7017065E-006  0.2244628E+03  0.7561462E-02  0.1130599E+00
         -2   -1    0    0    0  501 -0.00000000000E+00  0.00000000000E+00  0.85007810979E+03  0.85007810979E+03  0.00000000000E+00 0.  1.
          2   -1    0    0  501    0  0.00000000000E+00 -0.00000000000E+00 -0.78766938361E+02  0.78766938361E+02  0.00000000000E+00 0. -1.
          5    1    1    2  502    0 -0.11950047393E+03 -0.15407422683E+03  0.14858875386E+03  0.24518425891E+03  0.41800000000E+01 0. -1.
         -5    1    1    2    0  502  0.79448186427E+02  0.14114001177E+03  0.49606703299E+03  0.52185485613E+03  0.41800000000E+01 0.  1.
        -11    1    1    2    0    0 -0.15964795657E+02 -0.21002980532E+02  0.10374278333E+02  0.28348289940E+02  0.00000000000E+00 0.  1.
         11    1    1    2    0    0  0.56017083160E+02  0.33937195593E+02  0.11628110625E+03  0.13345764317E+03  0.00000000000E+00 0. -1.
</event>
<event>
 7    1  0.7017065E-006  0.1152131E+03  0.7561462E-02  0.1251210E+00
          2   -1    0    0  501    0  0.00000000000E+00  0.00000000000E+00  0.10284047378E+04  0.10284047378E+04  0.00000000000E+00 0.  1.
         -2   -1    0    0    0  501 -0.00000000000E+00 -0.00000000000E+00 -0.14264398921E+02  0.14264398921E+02  0.00000000000E+00 0. -1.
         23    2    1    2    0    0  0.40843430313E+02 -0.55756955217E+01  0.71517422871E+03  0.72720139821E+03  0.12509365279E+03 0.  0.
          5    1    3    3  502    0  0.55320634890E+02 -0.55950378679E+02  0.45407466383E+03  0.46086016345E+03  0.41800000000E+01 0. -1.
         -5    1    3    3    0  502 -0.14477204576E+02  0.50374683157E+02  0.26109956488E+03  0.26634123476E+03  0.41800000000E+01 0. -1.
        -11    1    1    2    0    0 -0.69654810408E+02  0.81367113648E+01  0.23552443000E+03  0.24574327216E+03  0.00000000000E+00 0. -1.
         11    1    1    2    0    0  0.28811380095E+02 -0.25610158431E+01  0.63441680158E+02  0.69724466340E+02  0.00000000000E+00 0.  1.
</event>
<event>
 7    1  0.7017065E-006  0.1114078E+03  0.7561462E-02  0.1257985E+00
         -2   -1    0    0    0  501 -0.00000000000E+00  0.00000000000E+00  0.10441329783E+03  0.10441329783E+03  0.00000000000E+00 0.  1.
          2   -1    0    0  501    0  0.00000000000E+00 -0.00000000000E+00 -0.24155841556E+03  0.24155841556E+03  0.00000000000E+00 0. -1.
         23    2    1    2    0    0  0.13481396134E+02 -0.40713708359E+02  0.32866900136E+02  0.13626277225E+03  0.12509178985E+03 0.  0.
          5    1    3    3  502    0  0.54762145472E+02 -0.44667997957E+02 -0.15443519491E+02  0.72457555248E+02  0.41800000000E+01 0. -1.
         -5    1    3    3    0  502 -0.41280749338E+02  0.39542895980E+01  0.48310419628E+02  0.63805217003E+02  0.41800000000E+01 0. -1.
        -11    1    1    2    0    0 -0.58018499221E+02  0.23350266715E+02 -0.48533466192E+02  0.79163618842E+02  0.00000000000E+00 0.  1.
         11    1    1    2    0    0  0.44537103087E+02  0.17363441644E+02 -0.12147855167E+03  0.13054532229E+03  0.00000000000E+00 0. -1.
</event>
<event>
 7    1  0.7017065E-006  0.1572035E+03  0.7561462E-02  0.1191891E+00
         -1   -1    0    0    0  501 -0.00000000000E+00  0.00000000000E+00  0.63186762159E+02  0.63186762159E+02  0.00000000000E+00 0.  1.
          1   -1    0    0  501    0  0.00000000000E+00 -0.00000000000E+00 -0.43839274452E+03  0.43839274452E+03  0.00000000000E+00 0. -1.
         23    2    1    2    0    0 -0.95829868468E+02 -0.75818628407E+02 -0.15672160921E+03  0.23481729281E+03  0.12508265308E+03 0.  0.
          5    1    3    3  502    0  0.24474114564E+02 -0.33070375218E+02 -0.14920773143E+02  0.43962869241E+02  0.41800000000E+01 0.  1.
         -5    1    3    3    0  502 -0.12030398303E+03 -0.42748253189E+02 -0.14180083607E+03  0.19085442357E+03  0.41800000000E+01 0.  1.
        -11    1    1    2    0    0  0.66202820476E+02  0.25184356009E+01 -0.58814966792E+02  0.88590949174E+02  0.00000000000E+00 0.  1.
         11    1    1    2    0    0  0.29627047992E+02  0.73300192806E+02 -0.15966940635E+03  0.17817126469E+03  0.00000000000E+00 0. -1.
</event>
<event>
 7    1  0.2153370E-005  0.4582531E+03  0.7561462E-02  0.1025289E+00
         -1   -1    0    0    0  501 -0.00000000000E+00  0.00000000000E+00  0.13819919639E+03  0.13819919639E+03  0.00000000000E+00 0.  1.
          1   -1    0    0  501    0  0.00000000000E+00 -0.00000000000E+00 -0.16634102337E+04  0.16634102337E+04  0.00000000000E+00 0. -1.
         23    2    1    2    0    0  0.35233060387E+03 -0.28671750770E+03 -0.56769857670E+03  0.73774880334E+03  0.12509132349E+03 0.  0.
          5    1    3    3  502    0  0.76399781546E+02 -0.28780174091E+02 -0.46459743207E+02  0.94027683051E+02  0.41800000000E+01 0. -1.
         -5    1    3    3    0  502  0.27593082232E+03 -0.25793733360E+03 -0.52123883349E+03  0.64372112029E+03  0.41800000000E+01 0. -1.
        -11    1    1    2    0    0 -0.26615952571E+03  0.18731443175E+03 -0.59471263510E+03  0.67794594757E+03  0.00000000000E+00 0.  1.
         11    1    1    2    0    0 -0.86171078153E+02  0.99403075947E+02 -0.36279982550E+03  0.38591467918E+03  0.00000000000E+00 0. -1.
</event>
<event>
 7    1  0.7017065E-006  0.9518854E+02  0.7561462E-02  0.1290752E+00
         -2   -1    0    0    0  501 -0.00000000000E+00  0.00000000000E+00  0.17996500864E+03  0.17996500864E+03  0.00000000000E+00 0.  1.
          2   -1    0    0  501    0  0.00000000000E+00 -0.00000000000E+00 -0.12168422209E+03  0.12168422209E+03  0.00000000000E+00 0. -1.
         23    2    1    2    0    0 -0.77029353712E+02 -0.46426733556E+02  0.69449849002E+02  0.16899148608E+03  0.12508348380E+03 0.  0.
          5    1    3    3  502    0 -0.82705545923E+01 -0.26828525010E+02 -0.33292965202E+02  0.43750037251E+02  0.41800000000E+01 0.  1.
         -5    1    3    3    0  502 -0.68758799120E+02 -0.19598208546E+02  0.10274281420E+03  0.12524144883E+03  0.41800000000E+01 0.  1.
        -11    1    1    2    0    0  0.37437381954E+02  0.17412154946E+02  0.42961808510E+02  0.59585717231E+02  0.00000000000E+00 0.  1.
         11    1    1    2    0    0  0.39591971758E+02  0.29014578609E+02 -0.54130870968E+02  0.73072027421E+02  0.00000000000E+00 0. -1.
</event>
<event>
 7    1  0.7017065E-006  0.1098105E+03  0.7561462E-02  0.1260921E+00
          1   -1    0    0  501    0  0.00000000000E+00  0.00000000000E+00  0.99880674246E+03  0.99880674246E+03  0.00000000000E+00 0. -1.
         -1   -1    0    0    0  501 -0.00000000000E+00 -0.00000000000E+00 -0.19324215864E+02  0.19324215864E+02  0.00000000000E+00 0.  1.
         23    2    1    2    0    0 -0.73720465080E+02  0.45960969557E+02  0.53081940598E+03  0.55223676276E+03  0.12509629362E+03 0.  0.
          5    1    3    3  502    0  0.55794359092E+01 -0.24987841062E+01 -0.46511497922E+01  0.87452628013E+01  0.41800000000E+01 0. -1.
         -5    1    3    3    0  502 -0.79299900989E+02  0.48459753663E+02  0.53547055577E+03  0.54349149995E+03  0.41800000000E+01 0. -1.
        -11    1    1    2    0    0  0.65360478452E+01 -0.51370630066E+02  0.12526685092E+03  0.13554868312E+03  0.00000000000E+00 0.  1.
         11    1    1    2    0    0  0.67184417234E+02  0.54096605091E+01  0.32339626969E+03  0.33034551245E+03  0.00000000000E+00 0. -1.
</event>
<event>
 7    1  0.7017065E-006  0.1652167E+03  0.7561462E-02  0.1182930E+00
         -2   -1    0    0    0  501 -0.00000000000E+00  0.00000000000E+00  0.43096366677E+02  0.43096366677E+02  0.00000000000E+00 0.  1.
          2   -1    0    0  501    0  0.00000000000E+00 -0.00000000000E+00 -0.82530895414E+03  0.82530895414E+03  0.00000000000E+00 0. -1.
         23    2    1    2    0    0 -0.11495592810E+03  0.10138742951E+03 -0.37747590103E+03  0.42618069087E+03  0.12509056377E+03 0.  0.
          5    1    3    3  502    0 -0.62216897438E+02  0.10228394397E+03 -0.14660287709E+03  0.18932201006E+03  0.41800000000E+01 0. -1.
         -5    1    3    3    0  502 -0.52739030660E+02 -0.89651445648E+00 -0.23087302394E+03  0.23685868081E+03  0.41800000000E+01 0. -1.
        -11    1    1    2    0    0  0.58135522690E+02 -0.75498382326E+02 -0.13428041685E+03  0.16465410740E+03  0.00000000000E+00 0.  1.
         11    1    1    2    0    0  0.56820405408E+02 -0.25889047187E+02 -0.27045626958E+03  0.27757052255E+03  0.00000000000E+00 0. -1.
</event>
<event>
 7    1  0.7017065E-006  0.1086095E+03  0.7561462E-02  0.1263167E+00
         -1   -1    0    0    0  501 -0.00000000000E+00  0.00000000000E+00  0.40558646375E+03  0.40558646375E+03  0.00000000000E+00 0.  1.
          1   -1    0    0  501    0  0.00000000000E+00 -0.00000000000E+00 -0.36063969125E+02  0.36063969125E+02  0.00000000000E+00 0. -1.
         23    2    1    2    0    0 -0.49937814540E+02 -0.11404566584E+02  0.23847020765E+03  0.27411628867E+03  0.12509136788E+03 0.  0.
          5    1    3    3  502    0 -0.90305816118E+02 -0.15844973864E+02  0.13870946529E+03  0.16632495838E+03  0.41800000000E+01 0.  1.
         -5    1    3    3    0  502  0.40368001578E+02  0.44404072795E+01  0.99760742358E+02  0.10779133028E+03  0.41800000000E+01 0.  1.
        -11    1    1    2    0    0  0.57837739178E+01 -0.26067151600E+02  0.28424295132E+01  0.26851961545E+02  0.00000000000E+00 0. -1.
         11    1    1    2    0    0  0.44154040622E+02  0.37471718185E+02  0.12820985746E+03  0.14068218266E+03  0.00000000000E+00 0.  1.
</event>
<event>
 7    1  0.7017065E-006  0.1105456E+03  0.7561462E-02  0.1259563E+00
          1   -1    0    0  501    0  0.00000000000E+00  0.00000000000E+00  0.34468951917E+03  0.34468951917E+03  0.00000000000E+00 0. -1.
         -1   -1    0    0    0  501 -0.00000000000E+00 -0.00000000000E+00 -0.80025264872E+02  0.80025264872E+02  0.00000000000E+00 0.  1.
         23    2    1    2    0    0  0.43980159949E+02  0.59233040581E+02  0.12467769560E+02  0.14575839912E+03  0.12508900059E+03 0.  0.
          5    1    3    3  502    0  0.14654663459E+02 -0.33489375709E+02  0.29224276480E+02  0.46987532200E+02  0.41800000000E+01 0.  1.
         -5    1    3    3    0  502  0.29325496491E+02  0.92722416290E+02 -0.16756506920E+02  0.98770866915E+02  0.41800000000E+01 0.  1.
        -11    1    1    2    0    0 -0.68030693655E+01 -0.47484291306E+02  0.22817152863E+03  0.23315935784E+03  0.00000000000E+00 0. -1.
         11    1    1    2    0    0 -0.37177090584E+02 -0.11748749275E+02  0.24024956114E+02  0.45797027088E+02  0.00000000000E+00 0.  1.
</event>
<event>
 7    1  0.7017065E-006  0.7482405E+02  0.7561462E-02  0.1344417E+00
         -1   -1    0    0    0  501 -0.00000000000E+00  0.00000000000E+00  0.14658710415E+02  0.14658710415E+02  0.00000000000E+00 0.  1.
          1   -1    0    0  501    0  0.00000000000E+00 -0.00000000000E+00 -0.86574691010E+03  0.86574691010E+03  0.00000000000E+00 0. -1.
         23    2    1    2    0    0  0.25692152149E+02  0.17945774381E+02 -0.45822101433E+03  0.47602123292E+03  0.12509028228E+03 0.  0.
          5    1    3    3  502    0  0.11085686353E+02  0.32086628944E+02 -0.45343238592E+03  0.45472062324E+03  0.41800000000E+01 0.  1.
         -5    1    3    3    0  502  0.14606465796E+02 -0.14140854563E+02 -0.47886284082E+01  0.21300609683E+02  0.41800000000E+01 0.  1.
        -11    1    1    2    0    0 -0.43727707665E+02 -0.44629681484E+02 -0.22832546800E+03  0.23672017283E+03  0.00000000000E+00 0.  1.
         11    1    1    2    0    0  0.18035555516E+02  0.26683907104E+02 -0.16454171736E+03  0.16766421477E+03  0.00000000000E+00 0. -1.
</event>
<event>
 7    1  0.7017065E-006  0.1154428E+03  0.7561462E-02  0.1250810E+00
          1   -1    0    0  501    0  0.00000000000E+00  0.00000000000E+00  0.88044620281E+02  0.88044620281E+02  0.00000000000E+00 0. -1.
         -1   -1    0    0    0  501 -0.00000000000E+00 -0.00000000000E+00 -0.22654350031E+03  0.22654350031E+03  0.00000000000E+00 0.  1.
         23    2    1    2    0    0 -0.31941917389E+02  0.62714653555E+02 -0.15100263660E+02  0.14433660918E+03  0.12510645439E+03 0.  0.
          5    1    3    3  502    0  0.45143297027E+02  0.19226278480E+02 -0.24916724279E+02  0.55189515304E+02  0.41800000000E+01 0.  1.
         -5    1    3    3    0  502 -0.77085214416E+02  0.43488375075E+02  0.98164606194E+01  0.89147093881E+02  0.41800000000E+01 0.  1.
        -11    1    1    2    0    0  0.50265044645E+02 -0.43346252220E+02 -0.12704765628E+03  0.14334078018E+03  0.00000000000E+00 0.  1.
         11    1    1    2    0    0 -0.18323127256E+02 -0.19368401336E+02  0.36490399184E+01  0.26910731225E+02  0.00000000000E+00 0. -1.
</event>
<event>
 7    1  0.7017065E-006  0.9333969E+02  0.7561462E-02  0.1294960E+00
         -1   -1    0    0    0  501 -0.00000000000E+00  0.00000000000E+00  0.80452384716E+02  0.80452384716E+02  0.00000000000E+00 0.  1.
          1   -1    0    0  501    0  0.00000000000E+00 -0.00000000000E+00 -0.16475089729E+03  0.16475089729E+03  0.00000000000E+00 0. -1.
         23    2    1    2    0    0  0.16078818500E+02 -0.31409977384E+02 -0.63895647825E+02  0.14482413974E+03  0.12508502132E+03 0.  0.
          5    1    3    3  502    0  0.50052339873E+01 -0.59472505091E+02 -0.87703207207E+02  0.10616664346E+03  0.41800000000E+01 0.  1.
         -5    1    3    3    0  502  0.11073584512E+02  0.28062527707E+02  0.23807559382E+02  0.38657496284E+02  0.41800000000E+01 0.  1.
        -11    1    1    2    0    0 -0.72290724872E+01 -0.31777636178E+02 -0.16311704474E+02  0.36443783461E+02  0.00000000000E+00 0. -1.
         11    1    1    2    0    0 -0.88497460125E+01  0.63187613563E+02 -0.40911602721E+01  0.63935358798E+02  0.00000000000E+00 0.  1.
</event>
<event>
 7    1  0.7017065E-006  0.2021474E+03  0.7561462E-02  0.1147940E+00
          1   -1    0    0  501    0  0.00000000000E+00  0.00000000000E+00  0.70580107614E+03  0.70580107614E+03  0.00000000000E+00 0. -1.
         -1   -1    0    0    0  501 -0.00000000000E+00 -0.00000000000E+00 -0.77461949413E+02  0.77461949413E+02  0.00000000000E+00 0.  1.
         23    2    1    2    0    0 -0.76407350642E+02 -0.15816357422E+03  0.14286049314E+03  0.25866925589E+03  0.12508742543E+03 0.  0.
          5    1    3    3  502    0  0.83874502677E+01  0.15793275319E+02  0.28314182339E+02  0.33748217565E+02  0.41800000000E+01 0. -1.
         -5    1    3    3    0  502 -0.84794800909E+02 -0.17395684954E+03  0.11454631080E+03  0.22492103833E+03  0.41800000000E+01 0. -1.
        -11    1    1    2    0    0  0.74682013012E+02  0.64490223684E+02  0.31466599155E+03  0.32977428380E+03  0.00000000000E+00 0.  1.
         11    1    1    2    0    0  0.17253376301E+01  0.93673350540E+02  0.17081264204E+03  0.19481948586E+03  0.00000000000E+00 0. -1.
</event>
<event>
 6    1  0.7017065E-006  0.1046049E+03  0.7561462E-02  0.1270900E+00
         -3   -1    0    0    0  501 -0.00000000000E+00  0.00000000000E+00  0.25361388074E+03  0.25361388074E+03  0.00000000000E+00 0.  1.
          3   -1    0    0  501    0  0.00000000000E+00 -0.00000000000E+00 -0.59880308240E+02  0.59880308240E+02  0.00000000000E+00 0. -1.
          5    1    1    2  502    0 -0.59266270106E+02 -0.57141414086E+01  0.21792248762E+02  0.63541456471E+02  0.41800000000E+01 0. -1.
         -5    1    1    2    0  502  0.64306765700E+02 -0.24145359450E+02  0.11197610842E+03  0.13143241516E+03  0.41800000000E+01 0.  1.
        -11    1    1    2    0    0  0.34763375420E+02  0.18138782071E+02  0.65821152286E+02  0.76615479989E+02  0.00000000000E+00 0.  1.
         11    1    1    2    0    0 -0.39803871014E+02  0.11720718788E+02 -0.58559369682E+01  0.41904837362E+02  0.00000000000E+00 0. -1.
</event>
<event>
 7    1  0.7017065E-006  0.9614258E+02  0.7561462E-02  0.1288623E+00
          1   -1    0    0  501    0  0.00000000000E+00  0.00000000000E+00  0.86888742871E+02  0.86888742871E+02  0.00000000000E+00 0. -1.
         -1   -1    0    0    0  501 -0.00000000000E+00 -0.00000000000E+00 -0.18145638849E+03  0.18145638849E+03  0.00000000000E+00 0.  1.
         23    2    1    2    0    0  0.43257815866E+02  0.12614561419E+02 -0.98278101080E+02  0.16533483609E+03  0.12508659832E+03 0.  0.
          5    1    3    3  502    0  0.34853362212E+02  0.67308298867E+02 -0.69032860567E+02  0.10260688180E+03  0.41800000000E+01 0. -1.
         -5    1    3    3    0  502  0.84044536542E+01 -0.54693737448E+02 -0.29245240514E+02  0.62727954294E+02  0.41800000000E+01 0. -1.
        -11    1    1    2    0    0 -0.15895910687E+01 -0.18701818204E+02 -0.38844838488E+02  0.43141700025E+02  0.00000000000E+00 0.  1.
         11    1    1    2    0    0 -0.41668224797E+02  0.60872567852E+01  0.42555293953E+02  0.59868595243E+02  0.00000000000E+00 0. -1.
</event>
<event>
 7    1  0.7017065E-006  0.1295860E+03  0.7561462E-02  0.1228071E+00
          2   -1    0    0  501    0  0.00000000000E+00  0.00000000000E+00  0.30526693755E+03  0.30526693755E+03  0.00000000000E+00 0. -1.
         -2   -1    0    0    0  501 -0.00000000000E+00 -0.00000000000E+00 -0.90033512997E+02  0.90033512997E+02  0.00000000000E+00 0.  1.
         23    2    1    2    0    0 -0.71406943665E+02  0.96679667663E+02  0.75079217045E+02  0.18902660041E+03  0.12509299376E+03 0.  0.
          5    1    3    3  502    0 -0.46222444155E+01 -0.77115983653E+01  0.63746545837E+02  0.64513009532E+02  0.41800000000E+01 0.  1.
         -5    1    3    3    0  502 -0.66784699249E+02  0.10439126603E+03  0.11332671208E+02  0.12451359088E+03  0.41800000000E+01 0.  1.
        -11    1    1    2    0    0  0.29244145290E+02 -0.13939113251E+02 -0.61609645785E+01  0.32976907019E+02  0.00000000000E+00 0.  1.
         11    1    1    2    0    0  0.42162798374E+02 -0.82740554412E+02  0.14631517209E+03  0.17329694312E+03  0.00000000000E+00 0. -1.
</event>
<event>
 7    1  0.7017065E-006  0.4029445E+02  0.7561462E-02  0.1506056E+00
         -1   -1    0    0    0  501 -0.00000000000E+00  0.00000000000E+00  0.84673368736E+02  0.84673368736E+02  0.00000000000E+00 0.  1.
          1   -1    0    0  501    0  0.00000000000E+00 -0.00000000000E+00 -0.14772385240E+03  0.14772385240E+03  0.00000000000E+00 0. -1.
         23    2    1    2    0    0 -0.10310705740E+01  0.29772050783E+02 -0.43971331780E+02  0.13589937079E+03  0.12509085837E+03 0.  0.
          5    1    3    3  502    0  0.36667867638E+01  0.58251431830E+01 -0.86400364376E+02  0.86774840723E+02  0.41800000000E+01 0. -1.
         -5    1    3    3    0  502 -0.46978573378E+01  0.23946907600E+02  0.42429032596E+02  0.49124530066E+02  0.41800000000E+01 0. -1.
        -11    1    1    2    0    0 -0.16718114000E+02 -0.52841406002E+01  0.32372473697E+02  0.36815683219E+02  0.00000000000E+00 0.  1.
         11    1    1    2    0    0  0.17749184574E+02 -0.24487910183E+02 -0.51451625579E+02  0.59682167126E+02  0.00000000000E+00 0. -1.
</event>
<event>
 7    1  0.7017065E-006  0.1539192E+03  0.7561462E-02  0.1195738E+00
         -2   -1    0    0    0  501 -0.00000000000E+00  0.00000000000E+00  0.22415809166E+03  0.22415809166E+03  0.00000000000E+00 0.  1.
          2   -1    0    0  501    0  0.00000000000E+00 -0.00000000000E+00 -0.10685010571E+03  0.10685010571E+03  0.00000000000E+00 0. -1.
         23    2    1    2    0    0 -0.96388936369E+02 -0.55736193295E+02  0.60729638737E+02  0.17813399848E+03  0.12508509942E+03 0.  0.
          5    1    3    3  502    0 -0.11055814455E+03 -0.15142785940E+01  0.47421919128E+02  0.12038150680E+03  0.41800000000E+01 0. -1.
         -5    1    3    3    0  502  0.14169208179E+02 -0.54221914701E+02  0.13307719609E+02  0.57752491682E+02  0.41800000000E+01 0. -1.
        -11    1    1    2    0    0  0.80096373355E+02 -0.28859656552E+01  0.23017763514E+02  0.83388100228E+02  0.00000000000E+00 0.  1.
         11    1    1    2    0    0  0.16292563014E+02  0.58622158950E+02  0.33560583703E+02  0.69486098667E+02  0.00000000000E+00 0. -1.
</event>
<event>
 7    1  0.7017065E-006  0.1204490E+03  0.7561462E-02  0.1242358E+00
         -1   -1    0    0    0  501 -0.00000000000E+00  0.00000000000E+00  0.77073536257E+03  0.77073536257E+03  0.00000000000E+00 0.  1.
          1   -1    0    0  501    0  0.00000000000E+00 -0.00000000000E+00 -0.22136883668E+02  0.22136883668E+02  0.00000000000E+00 0. -1.
         23    2    1    2    0    0 -0.69474792400E+02 -0.13758703307E+02  0.49607190938E+03  0.51643497493E+03  0.12490674663E+03 0.  0.
          5    1    3    3  502    0 -0.10474751510E+03 -0.57833885751E+01  0.32519057823E+03  0.34171899870E+03  0.41800000000E+01 0.  1.
         -5    1    3    3    0  502  0.35272722704E+02 -0.79753147324E+01  0.17088133115E+03  0.17471597623E+03  0.41800000000E+01 0.  1.
        -11    1    1    2    0    0  0.83882477885E+02  0.14267079930E+02  0.24657053372E+03  0.26083873900E+03  0.00000000000E+00 0.  1.
         11    1    1    2    0    0 -0.14407685485E+02 -0.50837662288E+00  0.59560358049E+01  0.15598532313E+02  0.00000000000E+00 0. -1.
</event>
<event>
 7    1  0.7017065E-006  0.1460899E+03  0.7561462E-02  0.1205362E+00
         -1   -1    0    0    0  501 -0.00000000000E+00  0.00000000000E+00  0.34706359971E+02  0.34706359971E+02  0.00000000000E+00 0.  1.
          1   -1    0    0  501    0  0.00000000000E+00 -0.00000000000E+00 -0.80696251974E+03  0.80696251974E+03  0.00000000000E+00 0. -1.
         23    2    1    2    0    0 -0.25288523711E+02 -0.10675779141E+03 -0.25016021748E+03  0.30043968218E+03  0.12508849971E+03 0.  0.
          5    1    3    3  502    0 -0.53849075599E+02 -0.11942201991E+03 -0.17264325229E+03  0.21675909842E+03  0.41800000000E+01 0.  1.
         -5    1    3    3    0  502  0.28560551888E+02  0.12664228501E+02 -0.77516965185E+02  0.83680583764E+02  0.41800000000E+01 0.  1.
        -11    1    1    2    0    0  0.48833736954E+02  0.81889661942E+02 -0.46480319306E+03  0.47448146316E+03  0.00000000000E+00 0. -1.
         11    1    1    2    0    0 -0.23545213243E+02  0.24868129471E+02 -0.57292749228E+02  0.66747734375E+02  0.00000000000E+00 0.  1.
</event>
<event>
 7    1  0.7017065E-006  0.1074617E+03  0.7561462E-02  0.1265344E+00
         -2   -1    0    0    0  501 -0.00000000000E+00  0.00000000000E+00  0.18403263137E+02  0.18403263137E+02  0.00000000000E+00 0. -1.
          2   -1    0    0  501    0  0.00000000000E+00 -0.00000000000E+00 -0.75019448417E+03  0.75019448417E+03  0.00000000000E+00 0.  1.
         23    2    1    2    0    0 -0.45472517563E+02  0.80198175933E+01 -0.42415018991E+03  0.44461470929E+03  0.12508712480E+03 0.  0.
          5    1    3    3  502    0 -0.60256570360E+01 -0.51422765600E+02 -0.10005868358E+03  0.11273784602E+03  0.41800000000E+01 0. -1.
         -5    1    3    3    0  502 -0.39446860527E+02  0.59442583193E+02 -0.32409150632E+03  0.33187686327E+03  0.41800000000E+01 0. -1.
        -11    1    1    2    0    0  0.42718495022E+02  0.30759453652E+02 -0.24228985621E+03  0.24794230826E+03  0.00000000000E+00 0.  1.
         11    1    1    2    0    0  0.27540225413E+01 -0.38779271245E+02 -0.65351174917E+02  0.76040729754E+02  0.00000000000E+00 0. -1.
</event>
<event>
 7    1  0.7017065E-006  0.1002278E+03  0.7561462E-02  0.1279818E+00
         -1   -1    0    0    0  501 -0.00000000000E+00  0.00000000000E+00  0.60208420098E+02  0.60208420098E+02  0.00000000000E+00 0.  1.
          1   -1    0    0  501    0  0.00000000000E+00 -0.00000000000E+00 -0.23191354911E+03  0.23191354911E+03  0.00000000000E+00 0. -1.
         23    2    1    2    0    0 -0.38390961527E+02  0.24851674381E+02 -0.86135549780E+02  0.15861366827E+03  0.12508993237E+03 0.  0.
          5    1    3    3  502    0 -0.67970338660E+02  0.38604868726E+02 -0.96382952974E+02  0.12416701998E+03  0.41800000000E+01 0. -1.
         -5    1    3    3    0  502  0.29579377133E+02 -0.13753194345E+02  0.10247403194E+02  0.34446648291E+02  0.41800000000E+01 0. -1.
        -11    1    1    2    0    0 -0.12095518651E+02 -0.35662043386E+02 -0.52446526000E+01  0.38020905970E+02  0.00000000000E+00 0.  1.
         11    1    1    2    0    0  0.50486480178E+02  0.10810369005E+02 -0.80324926630E+02  0.95487394963E+02  0.00000000000E+00 0. -1.
</event>
<event>
 7    1  0.7017065E-006  0.1136556E+03  0.7561462E-02  0.1253946E+00
          1   -1    0    0  501    0  0.00000000000E+00  0.00000000000E+00  0.64322859939E+03  0.64322859939E+03  0.00000000000E+00 0. -1.
         -1   -1    0    0    0  501 -0.00000000000E+00 -0.00000000000E+00 -0.25020139014E+02  0.25020139014E+02  0.00000000000E+00 0.  1.
         23    2    1    2    0    0 -0.11697297538E+02 -0.46357863032E+02  0.23076947206E+03  0.26680849690E+03  0.12508535704E+03 0.  0.
          5    1    3    3  502    0  0.53413744845E+02 -0.42360480824E+02  0.12594961173E+03  0.14327670979E+03  0.41800000000E+01 0.  1.
         -5    1    3    3    0  502 -0.65111042383E+02 -0.39973822078E+01  0.10481986034E+03  0.12353178711E+03  0.41800000000E+01 0.  1.
        -11    1    1    2    0    0  0.46364805323E+02  0.22318725856E+02  0.29970762422E+03  0.30409288172E+03  0.00000000000E+00 0. -1.
         11    1    1    2    0    0 -0.34667507785E+02  0.24039137176E+02  0.87731364085E+02  0.97347359782E+02  0.00000000000E+00 0.  1.
</event>
<event>
 7    1  0.7017065E-006  0.1095543E+03  0.7561462E-02  0.1261398E+00
          1   -1    0    0  501    0  0.00000000000E+00  0.00000000000E+00  0.46879126515E+03  0.46879126515E+03  0.00000000000E+00 0. -1.
         -1   -1    0    0    0  501 -0.00000000000E+00 -0.00000000000E+00 -0.30478757437E+02  0.30478757437E+02  0.00000000000E+00 0.  1.
         23    2    1    2    0    0 -0.40867635012E+02 -0.29381094781E+02  0.27046686571E+03  0.30221446702E+03  0.12509135187E+03 0.  0.
          5    1    3    3  502    0  0.38084996734E+02  0.86078215765E+01  0.13689514291E+03  0.14241598970E+03  0.41800000000E+01 0. -1.
         -5    1    3    3    0  502 -0.78952631746E+02 -0.37988916358E+02  0.13357172279E+03  0.15979847732E+03  0.41800000000E+01 0. -1.
        -11    1    1    2    0    0  0.38446796142E+02 -0.19550461610E+02  0.35267491192E+02  0.55715102241E+02  0.00000000000E+00 0.  1.
         11    1    1    2    0    0  0.24208388695E+01  0.48931556391E+02  0.13257815081E+03  0.14134045332E+03  0.00000000000E+00 0. -1.
</event>
<event>
 7    1  0.7017065E-006  0.1139214E+03  0.7561462E-02  0.1253476E+00
         -2   -1    0    0    0  501 -0.00000000000E+00  0.00000000000E+00  0.29167577909E+03  0.29167577909E+03  0.00000000000E+00 0.  1.
          2   -1    0    0  501    0  0.00000000000E+00 -0.00000000000E+00 -0.79664520067E+02  0.79664520067E+02  0.00000000000E+00 0. -1.
         23    2    1    2    0    0  0.63764578923E+01  0.98507540351E+02  0.16601873218E+03  0.23011393616E+03  0.12508321014E+03 0.  0.
          5    1    3    3  502    0  0.26487774364E+02  0.37845669634E+02 -0.58026372279E+01  0.46744410357E+02  0.41800000000E+01 0. -1.
         -5    1    3    3    0  502 -0.20111316472E+02  0.60661870717E+02  0.17182136940E+03  0.18336952580E+03  0.41800000000E+01 0. -1.
        -11    1    1    2    0    0  0.28520615715E+02 -0.37254749269E+02 -0.13672897641E+02  0.48870133965E+02  0.00000000000E+00 0. -1.
         11    1    1    2    0    0 -0.34897073607E+02 -0.61252791082E+02  0.59665424483E+02  0.92356229029E+02  0.00000000000E+00 0.  1.
</event>
<event>
 7    1  0.7017065E-006  0.1098756E+03  0.7561462E-02  0.1260800E+00
         -1   -1    0    0    0  501 -0.00000000000E+00  0.00000000000E+00  0.32940743511E+02  0.32940743511E+02  0.00000000000E+00 0.  1.
          1   -1    0    0  501    0  0.00000000000E+00 -0.00000000000E+00 -0.44449440240E+03  0.44449440240E+03  0.00000000000E+00 0. -1.
         23    2    1    2    0    0 -0.93628596362E+01  0.45853083157E+02 -0.18061548915E+03  0.22463493651E+03  0.12509488960E+03 0.  0.
          5    1    3    3  502    0  0.49373770093E+02  0.49527007395E+02 -0.12635657500E+03  0.14447889147E+03  0.41800000000E+01 0. -1.
         -5    1    3    3    0  502 -0.58736629729E+02 -0.36739242384E+01 -0.54258914152E+02  0.80156045038E+02  0.41800000000E+01 0. -1.
        -11    1    1    2    0    0  0.43589175225E+02 -0.30382275660E+02 -0.18978948166E+03  0.19708664647E+03  0.00000000000E+00 0. -1.
         11    1    1    2    0    0 -0.34226315589E+02 -0.15470807496E+02 -0.41148688076E+02  0.55713562925E+02  0.00000000000E+00 0.  1.
</event>
<event>
 7    1  0.7017065E-006  0.1194718E+03  0.7561462E-02  0.1243971E+00
         -1   -1    0    0    0  501 -0.00000000000E+00  0.00000000000E+00  0.56075520598E+02  0.56075520598E+02  0.00000000000E+00 0.  1.
          1   -1    0    0  501    0  0.00000000000E+00 -0.00000000000E+00 -0.45890156188E+03  0.45890156188E+03  0.00000000000E+00 0. -1.
         23    2    1    2    0    0 -0.11134657516E+03  0.29021435899E+02 -0.17085779185E+03  0.24049254827E+03  0.12411276000E+03 0.  0.
          5    1    3    3  502    0 -0.41405314218E+02 -0.10521082853E+02  0.86426091119E+01  0.43786531287E+02  0.41800000000E+01 0. -1.
         -5    1    3    3    0  502 -0.69941260942E+02  0.39542518752E+02 -0.17950040096E+03  0.19670601698E+03  0.41800000000E+01 0. -1.
        -11    1    1    2    0    0  0.56959089375E+02 -0.93094376346E+01 -0.31324227342E+02  0.65667425031E+02  0.00000000000E+00 0.  1.
         11    1    1    2    0    0  0.54387485785E+02 -0.19711998264E+02 -0.20064402210E+03  0.20881710918E+03  0.00000000000E+00 0. -1.
</event>
<event>
 7    1  0.7017065E-006  0.1145743E+03  0.7561462E-02  0.1252326E+00
         -2   -1    0    0    0  501 -0.00000000000E+00  0.00000000000E+00  0.17144882510E+03  0.17144882510E+03  0.00000000000E+00 0.  1.
          2   -1    0    0  501    0  0.00000000000E+00 -0.00000000000E+00 -0.84555918234E+02  0.84555918234E+02  0.00000000000E+00 0. -1.
         23    2    1    2    0    0  0.11469493614E+02 -0.39299183274E+02  0.14755329466E+02  0.13244786135E+03  0.12509492851E+03 0.  0.
          5    1    3    3  502    0 -0.19164131718E+02  0.39816231669E+02 -0.65719695546E+01  0.44869359620E+02  0.41800000000E+01 0.  1.
         -5    1    3    3    0  502  0.30633625331E+02 -0.79115414943E+02  0.21327299020E+02  0.87578501734E+02  0.41800000000E+01 0.  1.
        -11    1    1    2    0    0  0.10202833325E+01 -0.29691511817E+02  0.27198519280E+02  0.40278856775E+02  0.00000000000E+00 0.  1.
         11    1    1    2    0    0 -0.12489776946E+02  0.68990695091E+02  0.44939058119E+02  0.83278025204E+02  0.00000000000E+00 0. -1.
</event>
<event>
 7    1  0.7017065E-006  0.1215312E+03  0.7561462E-02  0.1240592E+00
         -1   -1    0    0    0  501 -0.00000000000E+00  0.00000000000E+00  0.74775214306E+02  0.74775214306E+02  0.00000000000E+00 0.  1.
          1   -1    0    0  501    0  0.00000000000E+00 -0.00000000000E+00 -0.30857927036E+03  0.30857927036E+03  0.00000000000E+00 0. -1.
         23    2    1    2    0    0 -0.17652700319E+01  0.90064939459E+02 -0.56712854939E+02  0.16427735366E+03  0.12512350503E+03 0.  0.
          5    1    3    3  502    0 -0.16552046240E+02  0.11617196562E+03 -0.24292008963E+02  0.11990608796E+03  0.41800000000E+01 0. -1.
         -5    1    3    3    0  502  0.14786776208E+02 -0.26107026163E+02 -0.32420845976E+02  0.44371265697E+02  0.41800000000E+01 0. -1.
        -11    1    1    2    0    0 -0.13586543244E+02 -0.24541869511E+02  0.16363841756E+01  0.28099382014E+02  0.00000000000E+00 0.  1.
         11    1    1    2    0    0  0.15351813276E+02 -0.65523069948E+02 -0.17872758529E+03  0.19097774899E+03  0.00000000000E+00 0. -1.
</event>
<event>
 7    1  0.7017065E-006  0.1495950E+03  0.7561462E-02  0.1200972E+00
         -1   -1    0    0    0  501 -0.00000000000E+00  0.00000000000E+00  0.91667397817E+02  0.91667397817E+02  0.00000000000E+00 0.  1.
          1   -1    0    0  501    0  0.00000000000E+00 -0.00000000000E+00 -0.35784008874E+03  0.35784008874E+03  0.00000000000E+00 0. -1.
         23    2    1    2    0    0  0.13012105779E+03  0.23502386074E+02 -0.64849908284E+02  0.19322888104E+03  0.12509211818E+03 0.  0.
          5    1    3    3  502    0  0.10208476572E+03 -0.16824002241E+02 -0.90625877671E+02  0.13760402809E+03  0.41800000000E+01 0.  1.
         -5    1    3    3    0  502  0.28036292074E+02  0.40326388315E+02  0.25775969387E+02  0.55624852949E+02  0.41800000000E+01 0.  1.
        -11    1    1    2    0    0 -0.99275786298E+02 -0.44750780611E+02 -0.18656514734E+03  0.21602052752E+03  0.00000000000E+00 0.  1.
         11    1    1    2    0    0 -0.30845271494E+02  0.21248394537E+02 -0.14757635300E+02  0.40258077992E+02  0.00000000000E+00 0. -1.
</event>
<event>
 7    1  0.7017065E-006  0.9199216E+02  0.7561462E-02  0.1298098E+00
         -2   -1    0    0    0  501 -0.00000000000E+00  0.00000000000E+00  0.36215776903E+03  0.36215776903E+03  0.00000000000E+00 0.  1.
          2   -1    0    0  501    0  0.00000000000E+00 -0.00000000000E+00 -0.42142545668E+02  0.42142545668E+02  0.00000000000E+00 0. -1.
         23    2    1    2    0    0 -0.51689310520E+02  0.13263567752E+02  0.20599130759E+03  0.24683817412E+03  0.12509579668E+03 0.  0.
          5    1    3    3  502    0 -0.55439699974E+02 -0.44948247469E+02  0.76247538518E+02  0.10452303485E+03  0.41800000000E+01 0.  1.
         -5    1    3    3    0  502  0.37503894544E+01  0.58211815221E+02  0.12974376907E+03  0.14231513927E+03  0.41800000000E+01 0.  1.
        -11    1    1    2    0    0  0.22701719993E+02 -0.15861369401E+01  0.12288855333E+03  0.12497791989E+03  0.00000000000E+00 0.  1.
         11    1    1    2    0    0  0.28987590527E+02 -0.11677430812E+02 -0.88646375540E+01  0.32484220691E+02  0.00000000000E+00 0. -1.
</event>
<event>
 7    1  0.7017065E-006  0.1232383E+03  0.7561462E-02  0.1237848E+00
         -1   -1    0    0    0  501 -0.00000000000E+00  0.00000000000E+00  0.57209589694E+02  0.57209589694E+02  0.00000000000E+00 0.  1.
          1   -1    0    0  501    0  0.00000000000E+00 -0.00000000000E+00 -0.49238075032E+03  0.49238075032E+03  0.00000000000E+00 0. -1.
         23    2    1    2    0    0  0.62052592791E+02 -0.33364839157E+02 -0.61893380860E+02  0.15904278294E+03  0.12845263503E+03 0.  0.
          5    1    3    3  502    0 -0.27624102284E+02  0.12929347080E+02 -0.48085269595E+02  0.57095749359E+02  0.41800000000E+01 0. -1.
         -5    1    3    3    0  502  0.89676695075E+02 -0.46294186237E+02 -0.13808111265E+02  0.10194703358E+03  0.41800000000E+01 0.  1.
        -11    1    1    2    0    0 -0.67492606356E+02 -0.12378313955E+02 -0.23360711603E+03  0.24347640385E+03  0.00000000000E+00 0. -1.
         11    1    1    2    0    0  0.54400135651E+01  0.45743153113E+02 -0.13967066374E+03  0.14707115323E+03  0.00000000000E+00 0.  1.
</event>
<event>
 7    1  0.7017065E-006  0.9538790E+02  0.7561462E-02  0.1290305E+00
         -1   -1    0    0    0  501 -0.00000000000E+00  0.00000000000E+00  0.39258559209E+03  0.39258559209E+03  0.00000000000E+00 0.  1.
          1   -1    0    0  501    0  0.00000000000E+00 -0.00000000000E+00 -0.60591835954E+02  0.60591835954E+02  0.00000000000E+00 0. -1.
         23    2    1    2    0    0 -0.54418439313E+02 -0.31365698458E+02  0.32626166172E+03  0.35501887568E+03  0.12508619667E+03 0.  0.
          5    1    3    3  502    0 -0.79357687181E+02  0.69508870865E+01  0.27438489900E+03  0.28574552061E+03  0.41800000000E+01 0. -1.
         -5    1    3    3    0  502  0.24939247868E+02 -0.38316585544E+02  0.51876762721E+02  0.69273355068E+02  0.41800000000E+01 0. -1.
        -11    1    1    2    0    0  0.34242609302E+02  0.99178544385E+01  0.39597800640E+02  0.53281384592E+02  0.00000000000E+00 0.  1.
         11    1    1    2    0    0  0.20175830011E+02  0.21447844019E+02 -0.33865706225E+02  0.44877167779E+02  0.00000000000E+00 0. -1.
</event>
<event>
 7    1  0.7017065E-006  0.9198605E+02  0.7561462E-02  0.1298112E+00
         -1   -1    0    0    0  501 -0.00000000000E+00  0.00000000000E+00  0.20306694648E+03  0.20306694648E+03  0.00000000000E+00 0.  1.
          1   -1    0    0  501    0  0.00000000000E+00 -0.00000000000E+00 -0.70251483074E+02  0.70251483074E+02  0.00000000000E+00 0. -1.
         23    2    1    2    0    0 -0.31428895462E+02 -0.99066752046E+01  0.11864111695E+03  0.17552595308E+03  0.12509087853E+03 0.  0.
          5    1    3    3  502    0 -0.72140770328E+02 -0.30134137286E+02  0.97973288610E+02  0.12541369405E+03  0.41800000000E+01 0. -1.
         -5    1    3    3    0  502  0.40711874866E+02  0.20227462082E+02  0.20667828337E+02  0.50112259034E+02  0.41800000000E+01 0. -1.
        -11    1    1    2    0    0  0.34227370225E+02 -0.13249613577E+02  0.45676409189E+02  0.58595217286E+02  0.00000000000E+00 0.  1.
         11    1    1    2    0    0 -0.27984747625E+01  0.23156288781E+02 -0.31502062733E+02  0.39197259184E+02  0.00000000000E+00 0. -1.
</event>
<event>
 7    1  0.7017065E-006  0.2499184E+03  0.7561462E-02  0.1113356E+00
          2   -1    0    0  501    0  0.00000000000E+00  0.00000000000E+00  0.12708223293E+04  0.12708223293E+04  0.00000000000E+00 0. -1.
         -2   -1    0    0    0  501 -0.00000000000E+00 -0.00000000000E+00 -0.75430336493E+02  0.75430336493E+02  0.00000000000E+00 0.  1.
         23    2    1    2    0    0 -0.64246030865E+02  0.23905325462E+03  0.28190853886E+03  0.39546418639E+03  0.12508192279E+03 0.  0.
          5    1    3    3  502    0 -0.33583386771E+02  0.48056870289E+02  0.15050439363E+03  0.16157460058E+03  0.41800000000E+01 0.  1.
         -5    1    3    3    0  502 -0.30662644094E+02  0.19099638433E+03  0.13140414523E+03  0.23388958582E+03  0.41800000000E+01 0.  1.
        -11    1    1    2    0    0  0.56710398094E+02 -0.21587751115E+03  0.88761630567E+03  0.91524962451E+03  0.00000000000E+00 0.  1.
         11    1    1    2    0    0  0.75356327709E+01 -0.23175743469E+02  0.25867148234E+02  0.35538854854E+02  0.00000000000E+00 0. -1.
</event>
<event>
 7    1  0.7017065E-006  0.1209265E+03  0.7561462E-02  0.1241576E+00
          2   -1    0    0  501    0  0.00000000000E+00  0.00000000000E+00  0.70956319980E+02  0.70956319980E+02  0.00000000000E+00 0. -1.
         -2   -1    0    0    0  501 -0.00000000000E+00 -0.00000000000E+00 -0.27945026324E+03  0.27945026324E+03  0.00000000000E+00 0.  1.
         23    2    1    2    0    0 -0.88081308019E+02  0.92510785783E+01 -0.15546429321E+03  0.21830927344E+03  0.12508354460E+03 0.  0.
          5    1    3    3  502    0  0.29626051757E+02 -0.11620465493E+02 -0.46506289629E+02  0.56507039703E+02  0.41800000000E+01 0. -1.
         -5    1    3    3    0  502 -0.11770735978E+03  0.20871544071E+02 -0.10895800358E+03  0.16180223373E+03  0.41800000000E+01 0. -1.
        -11    1    1    2    0    0  0.91933079722E+01  0.42100154832E+01  0.20855524241E+02  0.23177446650E+02  0.00000000000E+00 0. -1.
         11    1    1    2    0    0  0.78888000047E+02 -0.13461094061E+02 -0.73885174299E+02  0.10891986314E+03  0.00000000000E+00 0.  1.
</event>
<event>
 7    1  0.7017065E-006  0.1144792E+03  0.7561462E-02  0.1252493E+00
         -2   -1    0    0    0  501 -0.00000000000E+00  0.00000000000E+00  0.85617834320E+02  0.85617834320E+02  0.00000000000E+00 0.  1.
          2   -1    0    0  501    0  0.00000000000E+00 -0.00000000000E+00 -0.37380407421E+03  0.37380407421E+03  0.00000000000E+00 0. -1.
         23    2    1    2    0    0 -0.67347016497E+02 -0.68586568033E+01  0.15852422821E+02  0.14310582353E+03  0.12508123606E+03 0.  0.
          5    1    3    3  502    0 -0.29363067892E+01  0.53400989732E+02  0.10329350426E+02  0.54630170072E+02  0.41800000000E+01 0.  1.
         -5    1    3    3    0  502 -0.64410709708E+02 -0.60259646535E+02  0.55230723948E+01  0.88475653455E+02  0.41800000000E+01 0.  1.
        -11    1    1    2    0    0  0.40118809034E+02 -0.23287969484E+02 -0.14983295052E+03  0.15684948652E+03  0.00000000000E+00 0.  1.
         11    1    1    2    0    0  0.27228207464E+02  0.30146626287E+02 -0.15420571219E+03  0.15946659848E+03  0.00000000000E+00 0. -1.
</event>
<event>
 7    1  0.7017065E-006  0.1421578E+03  0.7561462E-02  0.1210455E+00
         -1   -1    0    0    0  501 -0.00000000000E+00  0.00000000000E+00  0.12608644083E+03  0.12608644083E+03  0.00000000000E+00 0.  1.
          1   -1    0    0  501    0  0.00000000000E+00 -0.00000000000E+00 -0.17412420076E+03  0.17412420076E+03  0.00000000000E+00 0. -1.
         23    2    1    2    0    0  0.15535046567E+02  0.98338862466E+02 -0.13475343695E+02  0.16044202391E+03  0.12509272004E+03 0.  0.
          5    1    3    3  502    0  0.21764775217E+02  0.12215887431E+03  0.12044358430E+02  0.12473586086E+03  0.41800000000E+01 0.  1.
         -5    1    3    3    0  502 -0.62297286503E+01 -0.23820011848E+02 -0.25519702125E+02  0.35706163054E+02  0.41800000000E+01 0.  1.
        -11    1    1    2    0    0  0.30115005104E+02 -0.80896714233E+02 -0.26038378121E+02  0.90162015512E+02  0.00000000000E+00 0.  1.
         11    1    1    2    0    0 -0.45650051671E+02 -0.17442148233E+02 -0.85240381139E+01  0.49606602164E+02  0.00000000000E+00 0. -1.
</event>
<event>
 7    1  0.7017065E-006  0.1596667E+03  0.7561462E-02  0.1189074E+00
         -2   -1    0    0    0  501 -0.00000000000E+00  0.00000000000E+00  0.15793476671E+03  0.15793476671E+03  0.00000000000E+00 0.  1.
          2   -1    0    0  501    0  0.00000000000E+00 -0.00000000000E+00 -0.19356327392E+03  0.19356327392E+03  0.00000000000E+00 0. -1.
         23    2    1    2    0    0  0.13671027143E+03 -0.89578287017E+01 -0.52746451943E+01  0.18549868520E+03  0.12494798646E+03 0.  0.
          5    1    3    3  502    0  0.70492144750E+02  0.41845657033E+02  0.39056904350E+02  0.90901681291E+02  0.41800000000E+01 0. -1.
         -5    1    3    3    0  502  0.66218126677E+02 -0.50803485735E+02 -0.44331549544E+02  0.94597003908E+02  0.41800000000E+01 0. -1.
        -11    1    1    2    0    0 -0.12440169245E+03  0.31207666946E+02 -0.45869397116E+02  0.13621197140E+03  0.00000000000E+00 0. -1.
         11    1    1    2    0    0 -0.12308578977E+02 -0.22249838245E+02  0.15515535098E+02  0.29787384036E+02  0.00000000000E+00 0.  1.
</event>
<event>
 7    1  0.7017065E-006  0.1641072E+03  0.7561462E-02  0.1184136E+00
         -2   -1    0    0    0  501 -0.00000000000E+00  0.00000000000E+00  0.88144521089E+02  0.88144521089E+02  0.00000000000E+00 0.  1.
          2   -1    0    0  501    0  0.00000000000E+00 -0.00000000000E+00 -0.40001930401E+03  0.40001930401E+03  0.00000000000E+00 0. -1.
         23    2    1    2    0    0 -0.13990470411E+03 -0.10655037154E+02 -0.89282866505E+02  0.20810091839E+03  0.12509079078E+03 0.  0.
          5    1    3    3  502    0 -0.10366502965E+03  0.27317783241E+02 -0.10798657963E+03  0.15222113334E+03  0.41800000000E+01 0. -1.
         -5    1    3    3    0  502 -0.36239674454E+02 -0.37972820395E+02  0.18703713125E+02  0.55879785057E+02  0.41800000000E+01 0. -1.
        -11    1    1    2    0    0  0.83743820932E+02  0.51963217268E+02 -0.11056444986E+03  0.14811381119E+03  0.00000000000E+00 0.  1.
         11    1    1    2    0    0  0.56160883176E+02 -0.41308180114E+02 -0.11202746656E+03  0.13194909551E+03  0.00000000000E+00 0. -1.
</event>
<event>
 6    1  0.7017065E-006  0.2748330E+03  0.7561462E-02  0.1098545E+00
         -2   -1    0    0    0  501 -0.00000000000E+00  0.00000000000E+00  0.10458847206E+03  0.10458847206E+03  0.00000000000E+00 0.  1.
          2   -1    0    0  501    0  0.00000000000E+00 -0.00000000000E+00 -0.94337615809E+03  0.94337615809E+03  0.00000000000E+00 0. -1.
          5    1    1    2  502    0 -0.12894080473E+03  0.24257099598E+03 -0.25040670221E+03  0.37173566970E+03  0.41800000000E+01 0. -1.
         -5    1    1    2    0  502  0.96387961138E+02 -0.18356648768E+03 -0.22303950923E+03  0.30455112794E+03  0.41800000000E+01 0.  1.
        -11    1    1    2    0    0  0.24718966720E+02 -0.48575526219E+02 -0.31462132745E+03  0.31930735781E+03  0.00000000000E+00 0.  1.
         11    1    1    2    0    0  0.78338768728E+01 -0.10428982081E+02 -0.50720147140E+02  0.52370474697E+02  0.00000000000E+00 0. -1.
</event>
<event>
 7    1  0.7017065E-006  0.1496981E+03  0.7561462E-02  0.1200844E+00
         -1   -1    0    0    0  501 -0.00000000000E+00  0.00000000000E+00  0.13824190912E+03  0.13824190912E+03  0.00000000000E+00 0.  1.
          1   -1    0    0  501    0  0.00000000000E+00 -0.00000000000E+00 -0.23314721737E+03  0.23314721737E+03  0.00000000000E+00 0. -1.
         23    2    1    2    0    0  0.11082127190E+03  0.64619421203E+02  0.11452531470E+02  0.17954326578E+03  0.12509036696E+03 0.  0.
          5    1    3    3  502    0  0.13159810538E+03  0.48720244683E+02 -0.16111552119E+02  0.14131092701E+03  0.41800000000E+01 0.  1.
         -5    1    3    3    0  502 -0.20776833479E+02  0.15899176520E+02  0.27564083588E+02  0.38232338765E+02  0.41800000000E+01 0.  1.
        -11    1    1    2    0    0 -0.44306465435E+02 -0.45031800994E+02  0.19957546509E+01  0.63205292633E+02  0.00000000000E+00 0.  1.
         11    1    1    2    0    0 -0.66514806467E+02 -0.19587620209E+02 -0.10835359437E+03  0.12864056809E+03  0.00000000000E+00 0. -1.
</event>
<event>
 7    1  0.7017065E-006  0.8525182E+02  0.7561462E-02  0.1314775E+00
          2   -1    0    0  501    0  0.00000000000E+00  0.00000000000E+00  0.92845975277E+03  0.92845975277E+03  0.00000000000E+00 0. -1.
         -2   -1    0    0    0  501 -0.00000000000E+00 -0.00000000000E+00 -0.14229008171E+02  0.14229008171E+02  0.00000000000E+00 0.  1.
         23    2    1    2    0    0 -0.36215724608E+02 -0.22515770620E+02  0.50889496591E+03  0.52577576071E+03  0.12509006990E+03 0.  0.
          5    1    3    3  502    0 -0.90356151629E+01 -0.39509215089E+02  0.48201405926E+03  0.48373303189E+03  0.41800000000E+01 0.  1.
         -5    1    3    3    0  502 -0.27180109446E+02  0.16993444469E+02  0.26880906655E+02  0.42042728824E+02  0.41800000000E+01 0.  1.
        -11    1    1    2    0    0  0.51182701623E+02  0.46506794482E+02  0.27753573926E+03  0.28602209258E+03  0.00000000000E+00 0.  1.
         11    1    1    2    0    0 -0.14966977015E+02 -0.23991023862E+02  0.12780003943E+03  0.13089090765E+03  0.00000000000E+00 0. -1.
</event>
<event>
 7    1  0.7017065E-006  0.1276035E+03  0.7561462E-02  0.1231056E+00
         -1   -1    0    0    0  501 -0.00000000000E+00  0.00000000000E+00  0.67793203812E+02  0.67793203812E+02  0.00000000000E+00 0.  1.
          1   -1    0    0  501    0  0.00000000000E+00 -0.00000000000E+00 -0.46931325483E+03  0.46931325483E+03  0.00000000000E+00 0. -1.
         23    2    1    2    0    0 -0.37742363060E+01 -0.78087088747E+02 -0.35781456331E+02  0.15178761395E+03  0.12508928349E+03 0.  0.
          5    1    3    3  502    0 -0.47671723540E+02 -0.76332994895E+02  0.69470902725E+01  0.90360687238E+02  0.41800000000E+01 0.  1.
         -5    1    3    3    0  502  0.43897487234E+02 -0.17540938529E+01 -0.42728546604E+02  0.61426926715E+02  0.41800000000E+01 0.  1.
        -11    1    1    2    0    0  0.33811331921E+02  0.83838853077E+02 -0.26137678092E+03  0.27656822134E+03  0.00000000000E+00 0.  1.
         11    1    1    2    0    0 -0.30037095615E+02 -0.57517643293E+01 -0.10436181376E+03  0.10875062334E+03  0.00000000000E+00 0. -1.
</event>
<event>
 7    1  0.7017065E-006  0.3125369E+03  0.7561462E-02  0.1079136E+00
         -2   -1    0    0    0  501 -0.00000000000E+00  0.00000000000E+00  0.13977278063E+03  0.13977278063E+03  0.00000000000E+00 0.  1.
          2   -1    0    0  501    0  0.00000000000E+00 -0.00000000000E+00 -0.73010647443E+03  0.73010647443E+03  0.00000000000E+00 0. -1.
         23    2    1    2    0    0 -0.29478272892E+03 -0.57148143643E+02 -0.29293917988E+03  0.43774695389E+03  0.12508503082E+03 0.  0.
          5    1    3    3  502    0 -0.37223161702E+02  0.33900705558E+02 -0.31109344535E+02  0.59330306942E+02  0.41800000000E+01 0.  1.
         -5    1    3    3    0  502 -0.25755956722E+03 -0.91048849201E+02 -0.26182983534E+03  0.37841664694E+03  0.41800000000E+01 0.  1.
        -11    1    1    2    0    0  0.21198792456E+03  0.52635419514E+02 -0.15669365299E+03  0.26881642143E+03  0.00000000000E+00 0. -1.
         11    1    1    2    0    0  0.82794804369E+02  0.45127241282E+01 -0.14070086093E+03  0.16331587974E+03  0.00000000000E+00 0.  1.
</event>
<event>
 7    1  0.7017065E-006  0.1002231E+03  0.7561462E-02  0.1279828E+00
          4   -1    0    0  501    0  0.00000000000E+00  0.00000000000E+00  0.22227500377E+02  0.22227500377E+02  0.00000000000E+00 0. -1.
         -4   -1    0    0    0  501 -0.00000000000E+00 -0.00000000000E+00 -0.84631894676E+03  0.84631894676E+03  0.00000000000E+00 0.  1.
         23    2    1    2    0    0  0.51483825506E+02  0.27024940359E+02 -0.63518507932E+03  0.65021308723E+03  0.12623803754E+03 0.  0.
          5    1    3    3  502    0 -0.94826493039E+01  0.29458531994E+02 -0.34944466859E+02  0.46864847264E+02  0.41800000000E+01 0. -1.
         -5    1    3    3    0  502  0.60966474810E+02 -0.24335916347E+01 -0.60024061246E+03  0.60334823996E+03  0.41800000000E+01 0.  1.
        -11    1    1    2    0    0 -0.73616455466E+02 -0.63725419897E+00 -0.11150887689E+03  0.13361892918E+03  0.00000000000E+00 0.  1.
         11    1    1    2    0    0  0.22132629960E+02 -0.26387686160E+02 -0.77397490174E+02  0.84714430737E+02  0.00000000000E+00 0. -1.
</event>
<event>
 7    1  0.7017065E-006  0.1136744E+03  0.7561462E-02  0.1253913E+00
          3   -1    0    0  501    0  0.00000000000E+00  0.00000000000E+00  0.85046620606E+02  0.85046620606E+02  0.00000000000E+00 0. -1.
         -3   -1    0    0    0  501 -0.00000000000E+00 -0.00000000000E+00 -0.22598999766E+03  0.22598999766E+03  0.00000000000E+00 0.  1.
         23    2    1    2    0    0  0.51468086581E+02  0.60173009093E+02 -0.11625219998E+03  0.18823288630E+03  0.12508913033E+03 0.  0.
          5    1    3    3  502    0  0.52852334708E+02 -0.27018117215E+02 -0.35377871678E+02  0.69227264473E+02  0.41800000000E+01 0.  1.
         -5    1    3    3    0  502 -0.13842481273E+01  0.87191126308E+02 -0.80874328298E+02  0.11900562183E+03  0.41800000000E+01 0.  1.
        -11    1    1    2    0    0 -0.48877438561E+02 -0.49522840422E+02 -0.56200287985E+02  0.89442652540E+02  0.00000000000E+00 0.  1.
         11    1    1    2    0    0 -0.25906480199E+01 -0.10650168671E+02  0.31509110908E+02  0.33361079420E+02  0.00000000000E+00 0. -1.
</event>
<event>
 7    1  0.7017065E-006  0.8632440E+02  0.7561462E-02  0.1312005E+00
          1   -1    0    0  501    0  0.00000000000E+00  0.00000000000E+00  0.31929941997E+03  0.31929941997E+03  0.00000000000E+00 0. -1.
         -1   -1    0    0    0  501 -0.00000000000E+00 -0.00000000000E+00 -0.47340632682E+02  0.47340632682E+02  0.00000000000E+00 0.  1.
         23    2    1    2    0    0 -0.15026249361E+02 -0.55577642299E+02  0.15598766170E+03  0.20807329383E+03  0.12509069713E+03 0.  0.
          5    1    3    3  502    0  0.85366202131E+01  0.62520898057E+01 -0.18329790470E+02  0.21573505285E+02  0.41800000000E+01 0. -1.
         -5    1    3    3    0  502 -0.23562869575E+02 -0.61829732104E+02  0.17431745217E+03  0.18649978854E+03  0.41800000000E+01 0. -1.
        -11    1    1    2    0    0 -0.30916523922E+02  0.19442153157E+02  0.10531741491E+02  0.38009819121E+02  0.00000000000E+00 0.  1.
         11    1    1    2    0    0  0.45942773283E+02  0.36135489141E+02  0.10543938410E+03  0.12055693971E+03  0.00000000000E+00 0. -1.
</event>
<event>
 7    1  0.7017065E-006  0.1662014E+03  0.7561462E-02  0.1181868E+00
         -1   -1    0    0    0  501 -0.00000000000E+00  0.00000000000E+00  0.27979955023E+02  0.27979955023E+02  0.00000000000E+00 0.  1.
          1   -1    0    0  501    0  0.00000000000E+00 -0.00000000000E+00 -0.12492994911E+04  0.12492994911E+04  0.00000000000E+00 0. -1.
         23    2    1    2    0    0  0.10697922078E+03 -0.90166384899E+02 -0.43969836499E+03  0.47807907750E+03  0.12510164477E+03 0.  0.
          5    1    3    3  502    0 -0.11536391938E+02  0.15244516752E+02 -0.14839126996E+02  0.24559228814E+02  0.41800000000E+01 0.  1.
         -5    1    3    3    0  502  0.11851561272E+03 -0.10541090165E+03 -0.42485923799E+03  0.45351984868E+03  0.41800000000E+01 0.  1.
        -11    1    1    2    0    0 -0.10656349366E+03  0.56719583523E+02 -0.70954241872E+03  0.71973837837E+03  0.00000000000E+00 0.  1.
         11    1    1    2    0    0 -0.41572712041E+00  0.33446801376E+02 -0.72078752324E+02  0.79461990209E+02  0.00000000000E+00 0. -1.
</event>
<event>
 7    1  0.7017065E-006  0.2330917E+03  0.7561462E-02  0.1124482E+00
         -2   -1    0    0    0  501 -0.00000000000E+00  0.00000000000E+00  0.45737789686E+03  0.45737789686E+03  0.00000000000E+00 0.  1.
          2   -1    0    0  501    0  0.00000000000E+00 -0.00000000000E+00 -0.12951273062E+03  0.12951273062E+03  0.00000000000E+00 0. -1.
         23    2    1    2    0    0  0.43410378269E+01 -0.20992580534E+03  0.23710264555E+03  0.34051820961E+03  0.12508916097E+03 0.  0.
          5    1    3    3  502    0 -0.62332226291E+01  0.15172174311E+02  0.29918831177E+02  0.34375235223E+02  0.41800000000E+01 0.  1.
         -5    1    3    3    0  502  0.10574260456E+02 -0.22509797965E+03  0.20718381438E+03  0.30614297439E+03  0.41800000000E+01 0.  1.
        -11    1    1    2    0    0 -0.36468870986E+02  0.57449489853E+02  0.52428522677E+02  0.85902109552E+02  0.00000000000E+00 0. -1.
         11    1    1    2    0    0  0.32127833159E+02  0.15247631549E+03  0.38333998008E+02  0.16047030832E+03  0.00000000000E+00 0.  1.
</event>
<event>
 7    1  0.7017065E-006  0.1569847E+03  0.7561462E-02  0.1192144E+00
         -1   -1    0    0    0  501 -0.00000000000E+00  0.00000000000E+00  0.99840898669E+02  0.99840898669E+02  0.00000000000E+00 0.  1.
          1   -1    0    0  501    0  0.00000000000E+00 -0.00000000000E+00 -0.35303300750E+03  0.35303300750E+03  0.00000000000E+00 0. -1.
         23    2    1    2    0    0 -0.79574107754E+01 -0.11197326119E+03 -0.97782778362E+01  0.16835926412E+03  0.12509154844E+03 0.  0.
          5    1    3    3  502    0 -0.55890225120E+02 -0.12315560454E+02 -0.47666178471E+01  0.57581102273E+02  0.41800000000E+01 0. -1.
         -5    1    3    3    0  502  0.47932814344E+02 -0.99657700733E+02 -0.50116599891E+01  0.11077816185E+03  0.41800000000E+01 0. -1.
        -11    1    1    2    0    0 -0.25632324957E+02 -0.33091331025E+01 -0.29637291664E+02  0.39323472656E+02  0.00000000000E+00 0. -1.
         11    1    1    2    0    0  0.33589735732E+02  0.11528239429E+03 -0.21377653933E+03  0.24519116939E+03  0.00000000000E+00 0.  1.
</event>
<event>
 7    1  0.7017065E-006  0.2840388E+03  0.7561462E-02  0.1093503E+00
          2   -1    0    0  501    0  0.00000000000E+00  0.00000000000E+00  0.11102669754E+04  0.11102669754E+04  0.00000000000E+00 0. -1.
         -2   -1    0    0    0  501 -0.00000000000E+00 -0.00000000000E+00 -0.82408731517E+02  0.82408731517E+02  0.00000000000E+00 0.  1.
         23    2    1    2    0    0  0.23095812729E+03 -0.14151056496E+03  0.36949966320E+03  0.47491559797E+03  0.12509167651E+03 0.  0.
          5    1    3    3  502    0 -0.72386005967E+01 -0.34472753803E+02  0.62376089508E+02  0.71756651508E+02  0.41800000000E+01 0. -1.
         -5    1    3    3    0  502  0.23819672789E+03 -0.10703781116E+03  0.30712357369E+03  0.40315894646E+03  0.41800000000E+01 0. -1.
        -11    1    1    2    0    0 -0.10495344192E+03  0.74583521229E+02  0.20134538826E+03  0.23899349779E+03  0.00000000000E+00 0.  1.
         11    1    1    2    0    0 -0.12600468537E+03  0.66927043730E+02  0.45701319241E+03  0.47876661115E+03  0.00000000000E+00 0. -1.
</event>
<event>
 7    1  0.7017065E-006  0.1061283E+03  0.7561462E-02  0.1267912E+00
         -4   -1    0    0    0  501 -0.00000000000E+00  0.00000000000E+00  0.79837079076E+02  0.79837079076E+02  0.00000000000E+00 0.  1.
          4   -1    0    0  501    0  0.00000000000E+00 -0.00000000000E+00 -0.21772039403E+03  0.21772039403E+03  0.00000000000E+00 0. -1.
         23    2    1    2    0    0 -0.16804810913E+02 -0.74410388981E+02 -0.72779314251E+02  0.16359463472E+03  0.12508824192E+03 0.  0.
          5    1    3    3  502    0 -0.64212480054E+02 -0.52106385334E+02 -0.73960908027E+02  0.11102254863E+03  0.41800000000E+01 0. -1.
         -5    1    3    3    0  502  0.47407669141E+02 -0.22304003647E+02  0.11815937762E+01  0.52572086091E+02  0.41800000000E+01 0. -1.
        -11    1    1    2    0    0  0.19287637871E+01  0.30011811233E+02  0.20495323392E+02  0.36393505247E+02  0.00000000000E+00 0.  1.
         11    1    1    2    0    0  0.14876047126E+02  0.44398577748E+02 -0.85599324096E+02  0.97569333142E+02  0.00000000000E+00 0. -1.
</event>
<event>
 7    1  0.7017065E-006  0.1102853E+03  0.7561462E-02  0.1260042E+00
          1   -1    0    0  501    0  0.00000000000E+00  0.00000000000E+00  0.37371348930E+03  0.37371348930E+03  0.00000000000E+00 0. -1.
         -1   -1    0    0    0  501 -0.00000000000E+00 -0.00000000000E+00 -0.55834487758E+02  0.55834487758E+02  0.00000000000E+00 0.  1.
         23    2    1    2    0    0 -0.27376271220E+02  0.88790336889E+02  0.14542080615E+03  0.21313888933E+03  0.12509113131E+03 0.  0.
          5    1    3    3  502    0 -0.43253600409E+02  0.92644754406E+02  0.16061233099E+03  0.19044085101E+03  0.41800000000E+01 0.  1.
         -5    1    3    3    0  502  0.15877329189E+02 -0.38544175175E+01 -0.15191524841E+02  0.22698038320E+02  0.41800000000E+01 0.  1.
        -11    1    1    2    0    0  0.12875848457E+02 -0.85555779516E+02  0.18002503395E+03  0.19973630549E+03  0.00000000000E+00 0. -1.
         11    1    1    2    0    0  0.14500422763E+02 -0.32345573730E+01 -0.75668385591E+01  0.16672782236E+02  0.00000000000E+00 0.  1.
</event>
<event>
 7    1  0.7017065E-006  0.1118946E+03  0.7561462E-02  0.1257101E+00
          2   -1    0    0  501    0  0.00000000000E+00  0.00000000000E+00  0.23632531692E+03  0.23632531692E+03  0.00000000000E+00 0. -1.
         -2   -1    0    0    0  501 -0.00000000000E+00 -0.00000000000E+00 -0.71034328719E+02  0.71034328719E+02  0.00000000000E+00 0.  1.
         23    2    1    2    0    0 -0.51339749736E+02 -0.30140471123E+02  0.45976632448E+02  0.14596381563E+03  0.12508943536E+03 0.  0.
          5    1    3    3  502    0 -0.76202777673E+02  0.29229048870E+01 -0.91448653965E+01  0.76918838143E+02  0.41800000000E+01 0. -1.
         -5    1    3    3    0  502  0.24863027937E+02 -0.33063376010E+02  0.55121497845E+02  0.69044977486E+02  0.41800000000E+01 0. -1.
        -11    1    1    2    0    0 -0.16894271562E+02 -0.16158688055E+02  0.43486038460E+02  0.49371602690E+02  0.00000000000E+00 0. -1.
         11    1    1    2    0    0  0.68234021298E+02  0.46299159178E+02  0.75828317288E+02  0.11202422732E+03  0.00000000000E+00 0.  1.
</event>
<event>
 7    1  0.7017065E-006  0.1996215E+03  0.7561462E-02  0.1150059E+00
         -2   -1    0    0    0  501 -0.00000000000E+00  0.00000000000E+00  0.12152220306E+03  0.12152220306E+03  0.00000000000E+00 0.  1.
          2   -1    0    0  501    0  0.00000000000E+00 -0.00000000000E+00 -0.46549104000E+03  0.46549104000E+03  0.00000000000E+00 0. -1.
         23    2    1    2    0    0  0.11248599741E+03  0.16432820460E+03 -0.94757452949E+02  0.25354080758E+03  0.12508839987E+03 0.  0.
          5    1    3    3  502    0  0.74255558474E+02  0.11281506753E+03 -0.12355773440E+03  0.18309864433E+03  0.41800000000E+01 0. -1.
         -5    1    3    3    0  502  0.38230438932E+02  0.51513137069E+02  0.28800281452E+02  0.70442163250E+02  0.41800000000E+01 0. -1.
        -11    1    1    2    0    0 -0.49177951844E+02 -0.86558059457E+02 -0.52201078411E+02  0.11240872382E+03  0.00000000000E+00 0.  1.
         11    1    1    2    0    0 -0.63308045562E+02 -0.77770145143E+02 -0.19701030558E+03  0.22106371166E+03  0.00000000000E+00 0. -1.
</event>
<event>
 7    1  0.7017065E-006  0.9039239E+02  0.7561462E-02  0.1301904E+00
         -2   -1    0    0    0  501 -0.00000000000E+00  0.00000000000E+00  0.38698624845E+02  0.38698624845E+02  0.00000000000E+00 0.  1.
          2   -1    0    0  501    0  0.00000000000E+00 -0.00000000000E+00 -0.36696762814E+03  0.36696762814E+03  0.00000000000E+00 0. -1.
         23    2    1    2    0    0 -0.10402124406E+02  0.21721695796E+02 -0.11138628096E+03  0.16923190607E+03  0.12510994438E+03 0.  0.
          5    1    3    3  502    0  0.29160571394E+02  0.38802154812E+02 -0.11588033635E+03  0.12570469719E+03  0.41800000000E+01 0.  1.
         -5    1    3    3    0  502 -0.39562695800E+02 -0.17080459016E+02  0.44940553854E+01  0.43527208881E+02  0.41800000000E+01 0.  1.
        -11    1    1    2    0    0 -0.79402583634E+01 -0.52416628026E+02 -0.88490987245E+02  0.10315621852E+03  0.00000000000E+00 0.  1.
         11    1    1    2    0    0  0.18342382769E+02  0.30694932230E+02 -0.12839173509E+03  0.13327812840E+03  0.00000000000E+00 0. -1.
</event>
<event>
 7    1  0.7017065E-006  0.1080972E+03  0.7561462E-02  0.1264135E+00
         -1   -1    0    0    0  501 -0.00000000000E+00  0.00000000000E+00  0.45012458266E+02  0.45012458266E+02  0.00000000000E+00 0.  1.
          1   -1    0    0  501    0  0.00000000000E+00 -0.00000000000E+00 -0.31284959878E+03  0.31284959878E+03  0.00000000000E+00 0. -1.
         23    2    1    2    0    0 -0.16513372802E+02  0.38486695541E+02 -0.11185570680E+03  0.17295428736E+03  0.12509024405E+03 0.  0.
          5    1    3    3  502    0 -0.18772423192E+02 -0.41873368137E+02 -0.18422230250E+02  0.49624931224E+02  0.41800000000E+01 0.  1.
         -5    1    3    3    0  502  0.22590503901E+01  0.80360063678E+02 -0.93433476552E+02  0.12332935613E+03  0.41800000000E+01 0.  1.
        -11    1    1    2    0    0 -0.30977552638E+02 -0.26172292805E+02 -0.32280233438E+02  0.51832529833E+02  0.00000000000E+00 0.  1.
         11    1    1    2    0    0  0.47490925440E+02 -0.12314402737E+02 -0.12370120027E+03  0.13307523986E+03  0.00000000000E+00 0. -1.
</event>
<event>
 7    1  0.7017065E-006  0.5459027E+02  0.7561462E-02  0.1422047E+00
          2   -1    0    0  501    0  0.00000000000E+00  0.00000000000E+00  0.63503364662E+02  0.63503364662E+02  0.00000000000E+00 0. -1.
         -2   -1    0    0    0  501 -0.00000000000E+00 -0.00000000000E+00 -0.20600750180E+03  0.20600750180E+03  0.00000000000E+00 0.  1.
         23    2    1    2    0    0 -0.20666135278E+02 -0.23820690987E+02 -0.99677485335E+02  0.16302193229E+03  0.12508411114E+03 0.  0.
          5    1    3    3  502    0  0.64953397206E+01  0.19217157998E+02 -0.10914115514E+03  0.11108894070E+03  0.41800000000E+01 0. -1.
         -5    1    3    3    0  502 -0.27161474998E+02 -0.43037848985E+02  0.94636698095E+01  0.51932991591E+02  0.41800000000E+01 0. -1.
        -11    1    1    2    0    0  0.46063567354E+01  0.20493629203E+02 -0.70916372574E+02  0.73961741862E+02  0.00000000000E+00 0.  1.
         11    1    1    2    0    0  0.16059778543E+02  0.33270617835E+01  0.28089720767E+02  0.32527192312E+02  0.00000000000E+00 0. -1.
</event>
<event>
 7    1  0.7017065E-006  0.1113787E+03  0.7561462E-02  0.1258038E+00
         -4   -1    0    0    0  501 -0.00000000000E+00  0.00000000000E+00  0.23648640511E+03  0.23648640511E+03  0.00000000000E+00 0.  1.
          4   -1    0    0  501    0  0.00000000000E+00 -0.00000000000E+00 -0.59210177988E+02  0.59210177988E+02  0.00000000000E+00 0. -1.
         23    2    1    2    0    0 -0.52344954529E+02  0.10564649831E+02  0.13308234855E+03  0.18154638760E+03  0.11133989969E+03 0.  0.
          5    1    3    3  502    0  0.16062639853E+02  0.39992838649E+02  0.24308634336E+02  0.49656999965E+02  0.41800000000E+01 0. -1.
         -5    1    3    3    0  502 -0.68407594382E+02 -0.29428188818E+02  0.10877371422E+03  0.13188938764E+03  0.41800000000E+01 0.  1.
        -11    1    1    2    0    0 -0.24740159379E+02  0.71978232633E+01  0.15099561061E+02  0.29864374932E+02  0.00000000000E+00 0.  1.
         11    1    1    2    0    0  0.77085113908E+02 -0.17762473095E+02  0.29094317501E+02  0.84285820560E+02  0.00000000000E+00 0. -1.
</event>
<event>
 7    1  0.7017065E-006  0.2468233E+03  0.7561462E-02  0.1115329E+00
         -1   -1    0    0    0  501 -0.00000000000E+00  0.00000000000E+00  0.83195714917E+02  0.83195714917E+02  0.00000000000E+00 0.  1.
          1   -1    0    0  501    0  0.00000000000E+00 -0.00000000000E+00 -0.81771479229E+03  0.81771479229E+03  0.00000000000E+00 0. -1.
         23    2    1    2    0    0 -0.19339770664E+03  0.12614528027E+03 -0.46438808341E+03  0.53349683600E+03  0.12508907763E+03 0.  0.
          5    1    3    3  502    0 -0.56245108842E+02 -0.22062394308E+02 -0.10197856021E+03  0.11860590480E+03  0.41800000000E+01 0.  1.
         -5    1    3    3    0  502 -0.13715259780E+03  0.14820767458E+03 -0.36240952320E+03  0.41489093120E+03  0.41800000000E+01 0.  1.
        -11    1    1    2    0    0  0.93773097591E+02 -0.55309395794E+02 -0.19668491751E+03  0.22480542669E+03  0.00000000000E+00 0. -1.
         11    1    1    2    0    0  0.99624609050E+02 -0.70835884474E+02 -0.73446076461E+02  0.14260824452E+03  0.00000000000E+00 0.  1.
</event>
<event>
 7    1  0.7017065E-006  0.8933276E+02  0.7561462E-02  0.1304476E+00
          1   -1    0    0  501    0  0.00000000000E+00  0.00000000000E+00  0.63408310718E+03  0.63408310718E+03  0.00000000000E+00 0. -1.
         -1   -1    0    0    0  501 -0.00000000000E+00 -0.00000000000E+00 -0.32083369886E+02  0.32083369886E+02  0.00000000000E+00 0.  1.
         23    2    1    2    0    0  0.15719324578E+02  0.82178433694E+02  0.24045899816E+03  0.28366650946E+03  0.12508303908E+03 0.  0.
          5    1    3    3  502    0  0.16241924679E+01  0.14083327255E+02  0.20493589199E+03  0.20546817353E+03  0.41800000000E+01 0.  1.
         -5    1    3    3    0  502  0.14095132110E+02  0.68095106440E+02  0.35523106162E+02  0.78198335926E+02  0.41800000000E+01 0.  1.
        -11    1    1    2    0    0 -0.30260278577E+02 -0.65113270866E+02  0.34999033109E+03  0.35727951853E+03  0.00000000000E+00 0. -1.
         11    1    1    2    0    0  0.14540954000E+02 -0.17065162828E+02  0.11550408043E+02  0.25220449075E+02  0.00000000000E+00 0.  1.
</event>
<event>
 7    1  0.7017065E-006  0.2647200E+03  0.7561462E-02  0.1104340E+00
          2   -1    0    0  501    0  0.00000000000E+00  0.00000000000E+00  0.13567471936E+04  0.13567471936E+04  0.00000000000E+00 0. -1.
         -2   -1    0    0    0  501 -0.00000000000E+00 -0.00000000000E+00 -0.65590503064E+02  0.65590503064E+02  0.00000000000E+00 0.  1.
         23    2    1    2    0    0  0.36522565303E+02 -0.24469585585E+03  0.35625762294E+03  0.45144372719E+03  0.12518780002E+03 0.  0.
          5    1    3    3  502    0  0.83086055569E+02 -0.15679705263E+03  0.23675365595E+03  0.29590264336E+03  0.41800000000E+01 0. -1.
         -5    1    3    3    0  502 -0.46563490266E+02 -0.87898803227E+02  0.11950396699E+03  0.15554108384E+03  0.41800000000E+01 0. -1.
        -11    1    1    2    0    0  0.16540230363E+01  0.15361775033E+03  0.43492726233E+03  0.46126226003E+03  0.00000000000E+00 0.  1.
         11    1    1    2    0    0 -0.38176588340E+02  0.91078105522E+02  0.49997180529E+03  0.50963170946E+03  0.00000000000E+00 0. -1.
</event>
<event>
 7    1  0.7017065E-006  0.8626892E+02  0.7561462E-02  0.1312147E+00
          4   -1    0    0  501    0  0.00000000000E+00  0.00000000000E+00  0.38824500176E+02  0.38824500176E+02  0.00000000000E+00 0.  1.
         -4   -1    0    0    0  501 -0.00000000000E+00 -0.00000000000E+00 -0.49481591886E+03  0.49481591886E+03  0.00000000000E+00 0. -1.
         23    2    1    2    0    0 -0.59060084138E+02  0.25421254882E+02 -0.35914208640E+03  0.38570191036E+03  0.12509433117E+03 0.  0.
          5    1    3    3  502    0 -0.56129448346E+02  0.33205051690E+02 -0.67641842090E+02  0.94053078794E+02  0.41800000000E+01 0. -1.
         -5    1    3    3    0  502 -0.29306357919E+01 -0.77837968072E+01 -0.29150024431E+03  0.29164883156E+03  0.41800000000E+01 0. -1.
        -11    1    1    2    0    0  0.66041912653E+02 -0.43107285930E+02 -0.40887132469E+02  0.88834283520E+02  0.00000000000E+00 0.  1.
         11    1    1    2    0    0 -0.69818285150E+01  0.17686031047E+02 -0.55962199815E+02  0.59104225160E+02  0.00000000000E+00 0. -1.
</event>
<event>
 6    1  0.7017065E-006  0.1303270E+03  0.7561462E-02  0.1226971E+00
         -2   -1    0    0    0  501 -0.00000000000E+00  0.00000000000E+00  0.10945426648E+04  0.10945426648E+04  0.00000000000E+00 0.  1.
          2   -1    0    0  501    0  0.00000000000E+00 -0.00000000000E+00 -0.19023928619E+02  0.19023928619E+02  0.00000000000E+00 0. -1.
          5    1    1    2  502    0 -0.46559073883E+02  0.70504558530E+02  0.27672080697E+03  0.28936226006E+03  0.41800000000E+01 0. -1.
         -5    1    1    2    0  502  0.61406068917E+02  0.53358449612E+01  0.47231909959E+03  0.47634229371E+03  0.41800000000E+01 0.  1.
        -11    1    1    2    0    0 -0.29340260579E+02 -0.89609208593E+02  0.21740988035E+03  0.23697619549E+03  0.00000000000E+00 0. -1.
         11    1    1    2    0    0  0.14493265545E+02  0.13768805102E+02  0.10906894923E+03  0.11088584412E+03  0.00000000000E+00 0.  1.
</event>
<event>
 7    1  0.7017065E-006  0.1344797E+03  0.7561462E-02  0.1220956E+00
         -2   -1    0    0    0  501 -0.00000000000E+00  0.00000000000E+00  0.37433514681E+02  0.37433514681E+02  0.00000000000E+00 0.  1.
          2   -1    0    0  501    0  0.00000000000E+00 -0.00000000000E+00 -0.49594541365E+03  0.49594541365E+03  0.00000000000E+00 0. -1.
         23    2    1    2    0    0  0.60246865887E+02  0.54350968027E+02 -0.25114461872E+03  0.29207295555E+03  0.12509707941E+03 0.  0.
          5    1    3    3  502    0  0.47835916991E+01 -0.39087448792E+02 -0.54538043518E+02  0.67398679464E+02  0.41800000000E+01 0. -1.
         -5    1    3    3    0  502  0.55463274188E+02  0.93438416820E+02 -0.19660657521E+03  0.22467427609E+03  0.41800000000E+01 0. -1.
        -11    1    1    2    0    0 -0.10232356557E+02 -0.68008006774E+02 -0.14281262127E+03  0.15850941581E+03  0.00000000000E+00 0.  1.
         11    1    1    2    0    0 -0.50014509329E+02  0.13657038746E+02 -0.64554658976E+02  0.82796556971E+02  0.00000000000E+00 0. -1.
</event>
<event>
 7    1  0.7017065E-006  0.1421409E+03  0.7561462E-02  0.1210477E+00
         -2   -1    0    0    0  501 -0.00000000000E+00  0.00000000000E+00  0.10273569043E+03  0.10273569043E+03  0.00000000000E+00 0.  1.
          2   -1    0    0  501    0  0.00000000000E+00 -0.00000000000E+00 -0.22226235609E+03  0.22226235609E+03  0.00000000000E+00 0. -1.
         23    2    1    2    0    0  0.31595787623E+02 -0.96325954503E+02 -0.91681483080E+02  0.18528254882E+03  0.12508854964E+03 0.  0.
          5    1    3    3  502    0 -0.47377176772E+02 -0.26692303520E+02 -0.41721788592E+02  0.68667721598E+02  0.41800000000E+01 0. -1.
         -5    1    3    3    0  502  0.78972964395E+02 -0.69633650983E+02 -0.49959694488E+02  0.11661482722E+03  0.41800000000E+01 0. -1.
        -11    1    1    2    0    0 -0.46763065663E+02  0.28266309628E+02  0.16500914407E+02  0.57079319779E+02  0.00000000000E+00 0.  1.
         11    1    1    2    0    0  0.15167278040E+02  0.68059644875E+02 -0.44346096980E+02  0.82636177919E+02  0.00000000000E+00 0. -1.
</event>
<event>
 7    1  0.7017065E-006  0.9292227E+02  0.7561462E-02  0.1295925E+00
         -2   -1    0    0    0  501 -0.00000000000E+00  0.00000000000E+00  0.76920030610E+02  0.76920030610E+02  0.00000000000E+00 0.  1.
          2   -1    0    0  501    0  0.00000000000E+00 -0.00000000000E+00 -0.18558257084E+03  0.18558257084E+03  0.00000000000E+00 0. -1.
         23    2    1    2    0    0  0.61578848459E+01  0.49612427280E+02 -0.51497965402E+02  0.14421811284E+03  0.12509001217E+03 0.  0.
          5    1    3    3  502    0 -0.31813685619E+02  0.27196868164E+02 -0.80812580893E+02  0.91103928900E+02  0.41800000000E+01 0. -1.
         -5    1    3    3    0  502  0.37971570464E+02  0.22415559116E+02  0.29314615491E+02  0.53114183938E+02  0.41800000000E+01 0. -1.
        -11    1    1    2    0    0 -0.46086916217E+02 -0.23018742078E+02 -0.13125287318E+02  0.53161447501E+02  0.00000000000E+00 0.  1.
         11    1    1    2    0    0  0.39929031371E+02 -0.26593685202E+02 -0.44039287506E+02  0.65123041106E+02  0.00000000000E+00 0. -1.
</event>
<event>
 7    1  0.7017065E-006  0.1140093E+03  0.7561462E-02  0.1253320E+00
          2   -1    0    0  501    0  0.00000000000E+00  0.00000000000E+00  0.45995239667E+03  0.45995239667E+03  0.00000000000E+00 0. -1.
         -2   -1    0    0    0  501 -0.00000000000E+00 -0.00000000000E+00 -0.29669644099E+02  0.29669644099E+02  0.00000000000E+00 0.  1.
         23    2    1    2    0    0  0.22434218010E+02  0.32921409615E+02  0.21082202780E+03  0.24836228886E+03  0.12510310057E+03 0.  0.
          5    1    3    3  502    0 -0.18976279113E+02  0.70919295386E+02  0.10110472286E+03  0.12501713087E+03  0.41800000000E+01 0.  1.
         -5    1    3    3    0  502  0.41410497123E+02 -0.37997885771E+02  0.10971730494E+03  0.12334515799E+03  0.41800000000E+01 0.  1.
        -11    1    1    2    0    0 -0.57128633232E+02 -0.14935066964E+02  0.15514382561E+03  0.16600103489E+03  0.00000000000E+00 0. -1.
         11    1    1    2    0    0  0.34694415222E+02 -0.17986342651E+02  0.64316899157E+02  0.75258717015E+02  0.00000000000E+00 0.  1.
</event>
<event>
 7    1  0.7017065E-006  0.2226301E+03  0.7561462E-02  0.1131937E+00
         -2   -1    0    0    0  501 -0.00000000000E+00  0.00000000000E+00  0.28537481287E+02  0.28537481287E+02  0.00000000000E+00 0.  1.
          2   -1    0    0  501    0  0.00000000000E+00 -0.00000000000E+00 -0.20401729014E+04  0.20401729014E+04  0.00000000000E+00 0. -1.
         23    2    1    2    0    0 -0.11756565137E+03  0.17920713742E+03 -0.10096555094E+04  0.10397060700E+04  0.12509030290E+03 0.  0.
          5    1    3    3  502    0  0.11714444900E+02  0.35064555880E+02 -0.60742925673E+02  0.71231500881E+02  0.41800000000E+01 0. -1.
         -5    1    3    3    0  502 -0.12928009627E+03  0.14414258154E+03 -0.94891258376E+03  0.96847456916E+03  0.41800000000E+01 0. -1.
        -11    1    1    2    0    0  0.28610414389E+02 -0.39839412090E+02 -0.93319112804E+02  0.10542386533E+03  0.00000000000E+00 0.  1.
         11    1    1    2    0    0  0.88955236979E+02 -0.13936772533E+03 -0.90866079786E+03  0.92358044729E+03  0.00000000000E+00 0. -1.
</event>
<event>
 7    1  0.7017065E-006  0.7660002E+02  0.7561462E-02  0.1338987E+00
         -1   -1    0    0    0  501 -0.00000000000E+00  0.00000000000E+00  0.30724372426E+02  0.30724372426E+02  0.00000000000E+00 0.  1.
          1   -1    0    0  501    0  0.00000000000E+00 -0.00000000000E+00 -0.43508534284E+03  0.43508534284E+03  0.00000000000E+00 0. -1.
         23    2    1    2    0    0  0.45205341120E+02 -0.14778349675E+02 -0.20541888000E+03  0.24220669958E+03  0.11918576500E+03 0.  0.
          5    1    3    3  502    0 -0.63402057599E+01  0.33030533716E+01 -0.18271719035E+03  0.18290476326E+03  0.41800000000E+01 0. -1.
         -5    1    3    3    0  502  0.51545546880E+02 -0.18081403046E+02 -0.22701689644E+02  0.59301936326E+02  0.41800000000E+01 0.  1.
        -11    1    1    2    0    0 -0.67053833602E+02  0.10508526479E+02 -0.18566655949E+03  0.19768337573E+03  0.00000000000E+00 0. -1.
         11    1    1    2    0    0  0.21848492481E+02  0.42698231955E+01 -0.13275530932E+02  0.25919639954E+02  0.00000000000E+00 0.  1.
</event>
<event>
 7    1  0.7017065E-006  0.2596870E+03  0.7561462E-02  0.1107331E+00
          1   -1    0    0  501    0  0.00000000000E+00  0.00000000000E+00  0.20433390030E+04  0.20433390030E+04  0.00000000000E+00 0. -1.
         -1   -1    0    0    0  501 -0.00000000000E+00 -0.00000000000E+00 -0.39995833593E+02  0.39995833593E+02  0.00000000000E+00 0.  1.
         23    2    1    2    0    0  0.88985289581E+02  0.22027492226E+03  0.60648224425E+03  0.66325520388E+03  0.12508928708E+03 0.  0.
          5    1    3    3  502    0  0.11152222072E+03  0.21195550464E+03  0.57853809783E+03  0.62616782471E+03  0.41800000000E+01 0. -1.
         -5    1    3    3    0  502 -0.22536931135E+02  0.83194176217E+01  0.27944146421E+02  0.37087379171E+02  0.41800000000E+01 0. -1.
        -11    1    1    2    0    0  0.12578042138E+02 -0.86904002766E+02  0.44819012847E+03  0.45671096341E+03  0.00000000000E+00 0.  1.
         11    1    1    2    0    0 -0.10156333172E+03 -0.13337091949E+03  0.94867079674E+03  0.96336866936E+03  0.00000000000E+00 0. -1.
</event>
<event>
 7    1  0.7017065E-006  0.8822122E+02  0.7561462E-02  0.1307217E+00
          2   -1    0    0  501    0  0.00000000000E+00  0.00000000000E+00  0.53361533771E+02  0.53361533771E+02  0.00000000000E+00 0. -1.
         -2   -1    0    0    0  501 -0.00000000000E+00 -0.00000000000E+00 -0.28611576136E+03  0.28611576136E+03  0.00000000000E+00 0.  1.
         23    2    1    2    0    0 -0.36751355514E+02 -0.39140596512E+02 -0.16514542891E+03  0.21401784251E+03  0.12509186942E+03 0.  0.
          5    1    3    3  502    0 -0.90851761513E+01  0.36276040646E+02 -0.11060645023E+03  0.11683214790E+03  0.41800000000E+01 0. -1.
         -5    1    3    3    0  502 -0.27666179363E+02 -0.75416637158E+02 -0.54538978682E+02  0.97185694608E+02  0.41800000000E+01 0. -1.
        -11    1    1    2    0    0  0.38129883221E+02  0.28398770624E+02 -0.89326686458E+02  0.10119108202E+03  0.00000000000E+00 0.  1.
         11    1    1    2    0    0 -0.13785277061E+01  0.10741825888E+02  0.21717887779E+02  0.24268370602E+02  0.00000000000E+00 0. -1.
</event>
<event>
 7    1  0.7017065E-006  0.9056608E+02  0.7561462E-02  0.1301487E+00
          2   -1    0    0  501    0  0.00000000000E+00  0.00000000000E+00  0.12385699821E+03  0.12385699821E+03  0.00000000000E+00 0. -1.
         -2   -1    0    0    0  501 -0.00000000000E+00 -0.00000000000E+00 -0.21249243969E+03  0.21249243969E+03  0.00000000000E+00 0.  1.
         23    2    1    2    0    0 -0.27325890547E+02 -0.22555659568E+02 -0.16770780652E+03  0.21219775225E+03  0.12508603286E+03 0.  0.
          5    1    3    3  502    0  0.27121003041E+02 -0.21922373872E+00 -0.14720037745E+03  0.14973650319E+03  0.41800000000E+01 0. -1.
         -5    1    3    3    0  502 -0.54446893588E+02 -0.22336435830E+02 -0.20507429070E+02  0.62461249059E+02  0.41800000000E+01 0. -1.
        -11    1    1    2    0    0  0.47571753268E+02  0.44283383160E+02  0.45546221682E+02  0.79363392333E+02  0.00000000000E+00 0. -1.
         11    1    1    2    0    0 -0.20245862720E+02 -0.21727723592E+02  0.33526143363E+02  0.44788293320E+02  0.00000000000E+00 0.  1.
</event>
<event>
 7    1  0.7017065E-006  0.1140385E+03  0.7561462E-02  0.1253269E+00
          1   -1    0    0  501    0  0.00000000000E+00  0.00000000000E+00  0.41421260037E+03  0.41421260037E+03  0.00000000000E+00 0. -1.
         -1   -1    0    0    0  501 -0.00000000000E+00 -0.00000000000E+00 -0.41855959134E+02  0.41855959134E+02  0.00000000000E+00 0.  1.
         23    2    1    2    0    0 -0.46321615695E+02  0.18335342014E+02  0.10863645398E+03  0.17300431466E+03  0.12508691743E+03 0.  0.
          5    1    3    3  502    0  0.35062841097E+02  0.25427789946E+02  0.70275025102E+02  0.82656075884E+02  0.41800000000E+01 0. -1.
         -5    1    3    3    0  502 -0.81384456792E+02 -0.70924479325E+01  0.38361428876E+02  0.90348238779E+02  0.41800000000E+01 0. -1.
        -11    1    1    2    0    0 -0.10146044714E+02 -0.40761742388E+02  0.10230905803E+03  0.11059658774E+03  0.00000000000E+00 0. -1.
         11    1    1    2    0    0  0.56467660409E+02  0.22426400374E+02  0.16141112923E+03  0.17246765709E+03  0.00000000000E+00 0.  1.
</event>
<event>
 7    1  0.7017065E-006  0.1291869E+03  0.7561462E-02  0.1228667E+00
          2   -1    0    0  501    0  0.00000000000E+00  0.00000000000E+00  0.69526746829E+03  0.69526746829E+03  0.00000000000E+00 0. -1.
         -2   -1    0    0    0  501 -0.00000000000E+00 -0.00000000000E+00 -0.32169303928E+02  0.32169303928E+02  0.00000000000E+00 0.  1.
         23    2    1    2    0    0 -0.93400623416E+02  0.25156389088E+02  0.27326501448E+03  0.31573181678E+03  0.12512510390E+03 0.  0.
          5    1    3    3  502    0 -0.12257733938E+03  0.19399797253E+02  0.18776074122E+03  0.22510691817E+03  0.41800000000E+01 0.  1.
         -5    1    3    3    0  502  0.29176715964E+02  0.57565918346E+01  0.85504273259E+02  0.90624898618E+02  0.41800000000E+01 0.  1.
        -11    1    1    2    0    0  0.14147308589E+02 -0.20330946849E+02  0.15895684357E+02  0.29430707115E+02  0.00000000000E+00 0.  1.
         11    1    1    2    0    0  0.79253314827E+02 -0.48254422387E+01  0.37393746552E+03  0.38227424832E+03  0.00000000000E+00 0. -1.
</event>
<event>
 7    1  0.7017065E-006  0.1207592E+03  0.7561462E-02  0.1241850E+00
          4   -1    0    0  501    0  0.00000000000E+00  0.00000000000E+00  0.15858883638E+03  0.15858883638E+03  0.00000000000E+00 0.  1.
         -4   -1    0    0    0  501 -0.00000000000E+00 -0.00000000000E+00 -0.12762648258E+03  0.12762648258E+03  0.00000000000E+00 0. -1.
         23    2    1    2    0    0  0.59364963735E+02  0.58184383021E+02 -0.89582804975E+01  0.15045603980E+03  0.12508855973E+03 0.  0.
          5    1    3    3  502    0  0.84574264572E+02  0.10640303725E+02  0.22131665098E+02  0.88166350108E+02  0.41800000000E+01 0. -1.
         -5    1    3    3    0  502 -0.25209300838E+02  0.47544079296E+02 -0.31089945596E+02  0.62289689693E+02  0.41800000000E+01 0. -1.
        -11    1    1    2    0    0 -0.22424101555E+02 -0.61157170125E+02 -0.17471904494E+02  0.67441139039E+02  0.00000000000E+00 0. -1.
         11    1    1    2    0    0 -0.36940862179E+02  0.29727871036E+01  0.57392538789E+02  0.68318140127E+02  0.00000000000E+00 0.  1.
</event>
<event>
 6    1  0.7017065E-006  0.1694572E+03  0.7561462E-02  0.1178415E+00
         -3   -1    0    0    0  501 -0.00000000000E+00  0.00000000000E+00  0.12238123372E+04  0.12238123372E+04  0.00000000000E+00 0.  1.
          3   -1    0    0  501    0  0.00000000000E+00 -0.00000000000E+00 -0.58211400059E+03  0.58211400059E+03  0.00000000000E+00 0. -1.
          5    1    1    2  502    0  0.12610747749E+03  0.14626572707E+02  0.34902251226E+03  0.37141784956E+03  0.41800000000E+01 0. -1.
         -5    1    1    2    0  502 -0.32700125493E+02 -0.71389580811E+02  0.85268087307E+03  0.85629896307E+03  0.41800000000E+01 0.  1.
        -11    1    1    2    0    0 -0.10143221709E+03  0.30681442450E+02 -0.51323265414E+03  0.52405877805E+03  0.00000000000E+00 0. -1.
         11    1    1    2    0    0  0.80248650942E+01  0.26081565654E+02 -0.46772394543E+02  0.54150747160E+02  0.00000000000E+00 0.  1.
</event>
<event>
 7    1  0.7017065E-006  0.1455691E+03  0.7561462E-02  0.1206026E+00
          1   -1    0    0  501    0  0.00000000000E+00  0.00000000000E+00  0.13351815677E+03  0.13351815677E+03  0.00000000000E+00 0. -1.
         -1   -1    0    0    0  501 -0.00000000000E+00 -0.00000000000E+00 -0.18913831339E+03  0.18913831339E+03  0.00000000000E+00 0.  1.
         23    2    1    2    0    0  0.41143078845E+02  0.10728070218E+03 -0.28911427434E+02  0.17229544656E+03  0.12509175941E+03 0.  0.
          5    1    3    3  502    0  0.37552120765E+02  0.13322133486E+03 -0.83295119621E+01  0.13872612950E+03  0.41800000000E+01 0. -1.
         -5    1    3    3    0  502  0.35909580799E+01 -0.25940632676E+02 -0.20581915472E+02  0.33569317062E+02  0.41800000000E+01 0. -1.
        -11    1    1    2    0    0 -0.53673463376E+02 -0.83494437933E+02  0.15355819894E+02  0.10043885225E+03  0.00000000000E+00 0. -1.
         11    1    1    2    0    0  0.12530384531E+02 -0.23786264251E+02 -0.42064549081E+02  0.49922171357E+02  0.00000000000E+00 0.  1.
</event>
<event>
 7    1  0.7017065E-006  0.1170675E+03  0.7561462E-02  0.1248015E+00
         -2   -1    0    0    0  501 -0.00000000000E+00  0.00000000000E+00  0.98324816694E+02  0.98324816694E+02  0.00000000000E+00 0.  1.
          2   -1    0    0  501    0  0.00000000000E+00 -0.00000000000E+00 -0.21463073014E+03  0.21463073014E+03  0.00000000000E+00 0. -1.
         23    2    1    2    0    0  0.11247354825E+02 -0.94232265543E+02 -0.48254789891E+02  0.16426236282E+03  0.12508947291E+03 0.  0.
          5    1    3    3  502    0  0.27959071114E+02 -0.41998469806E+02 -0.84419828123E+02  0.98436583158E+02  0.41800000000E+01 0. -1.
         -5    1    3    3    0  502 -0.16711716288E+02 -0.52233795737E+02  0.36165038231E+02  0.65825779666E+02  0.41800000000E+01 0. -1.
        -11    1    1    2    0    0  0.34795054645E+02  0.17321470968E+02 -0.51982769205E+01  0.39214171764E+02  0.00000000000E+00 0.  1.
         11    1    1    2    0    0 -0.46042409470E+02  0.76910794575E+02 -0.62852846633E+02  0.10947901224E+03  0.00000000000E+00 0. -1.
</event>
<event>
 7    1  0.7017065E-006  0.1056880E+03  0.7561462E-02  0.1268770E+00
         -1   -1    0    0    0  501 -0.00000000000E+00  0.00000000000E+00  0.50337932080E+03  0.50337932080E+03  0.00000000000E+00 0.  1.
          1   -1    0    0  501    0  0.00000000000E+00 -0.00000000000E+00 -0.32801955517E+02  0.32801955517E+02  0.00000000000E+00 0. -1.
         23    2    1    2    0    0 -0.33475962999E+02 -0.37983601998E+00  0.38676130045E+03  0.40786354997E+03  0.12509031734E+03 0.  0.
          5    1    3    3  502    0  0.84350208333E-01 -0.52629453971E+02  0.27424009231E+03  0.27927579052E+03  0.41800000000E+01 0. -1.
         -5    1    3    3    0  502 -0.33560313207E+02  0.52249617951E+02  0.11252120814E+03  0.12858775945E+03  0.41800000000E+01 0. -1.
        -11    1    1    2    0    0  0.29151009682E+02 -0.43436522578E+02  0.53739195081E+02  0.74996092879E+02  0.00000000000E+00 0.  1.
         11    1    1    2    0    0  0.43249533168E+01  0.43816358598E+02  0.30076869753E+02  0.53321633472E+02  0.00000000000E+00 0. -1.
</event>
<event>
 7    1  0.7017065E-006  0.7693171E+02  0.7561462E-02  0.1337991E+00
         -1   -1    0    0    0  501 -0.00000000000E+00  0.00000000000E+00  0.39151009310E+02  0.39151009310E+02  0.00000000000E+00 0.  1.
          1   -1    0    0  501    0  0.00000000000E+00 -0.00000000000E+00 -0.34733160067E+03  0.34733160067E+03  0.00000000000E+00 0. -1.
         23    2    1    2    0    0  0.14042585067E+02  0.24025814958E+01 -0.11235187385E+03  0.16874283191E+03  0.12509289816E+03 0.  0.
          5    1    3    3  502    0 -0.38148422384E+02  0.90478307350E+01 -0.10893855950E+03  0.11585442381E+03  0.41800000000E+01 0.  1.
         -5    1    3    3    0  502  0.52191007451E+02 -0.66452492392E+01 -0.34133143568E+01  0.52888408097E+02  0.41800000000E+01 0.  1.
        -11    1    1    2    0    0  0.30260362103E+01 -0.29487213833E+02 -0.17925585640E+03  0.18169016134E+03  0.00000000000E+00 0. -1.
         11    1    1    2    0    0 -0.17068621278E+02  0.27084632337E+02 -0.16572861108E+02  0.36049616731E+02  0.00000000000E+00 0.  1.
</event>
<event>
 7    1  0.7017065E-006  0.1174056E+03  0.7561462E-02  0.1247439E+00
          2   -1    0    0  501    0  0.00000000000E+00  0.00000000000E+00  0.21796901587E+03  0.21796901587E+03  0.00000000000E+00 0. -1.
         -2   -1    0    0    0  501 -0.00000000000E+00 -0.00000000000E+00 -0.12021754824E+03  0.12021754824E+03  0.00000000000E+00 0.  1.
         23    2    1    2    0    0 -0.97083635761E+02 -0.14174574202E+02 -0.19840013624E+02  0.16020908451E+03  0.12508866349E+03 0.  0.
          5    1    3    3  502    0 -0.28192098161E+02  0.32013892278E+02  0.39382826229E+02  0.58207929866E+02  0.41800000000E+01 0.  1.
         -5    1    3    3    0  502 -0.68891537601E+02 -0.46188466480E+02 -0.59222839853E+02  0.10200115465E+03  0.41800000000E+01 0.  1.
        -11    1    1    2    0    0  0.28238904355E+02 -0.17391969720E+02  0.92383104742E+02  0.98155765860E+02  0.00000000000E+00 0. -1.
         11    1    1    2    0    0  0.68844731406E+02  0.31566543922E+02  0.25208376519E+02  0.79821713739E+02  0.00000000000E+00 0.  1.
</event>
<event>
 7    1  0.7017065E-006  0.1394091E+03  0.7561462E-02  0.1214126E+00
          1   -1    0    0  501    0  0.00000000000E+00  0.00000000000E+00  0.18750669948E+03  0.18750669948E+03  0.00000000000E+00 0.  1.
         -1   -1    0    0    0  501 -0.00000000000E+00 -0.00000000000E+00 -0.11148831768E+03  0.11148831768E+03  0.00000000000E+00 0. -1.
         23    2    1    2    0    0 -0.13106759404E+02  0.90561774382E+02  0.15832335268E+02  0.15579304080E+03  0.12509031377E+03 0.  0.
          5    1    3    3  502    0  0.16403396963E+02  0.11501534227E+03  0.15124003485E+02  0.11723398940E+03  0.41800000000E+01 0.  1.
         -5    1    3    3    0  502 -0.29510156367E+02 -0.24453567884E+02  0.70833178349E+00  0.38559051402E+02  0.41800000000E+01 0.  1.
        -11    1    1    2    0    0  0.42078460119E+02 -0.17790035501E+02  0.43573942018E+02  0.63132959634E+02  0.00000000000E+00 0.  1.
         11    1    1    2    0    0 -0.28971700715E+02 -0.72771738881E+02  0.16612104516E+02  0.80069016720E+02  0.00000000000E+00 0. -1.
</event>
<event>
 7    1  0.7017065E-006  0.1307006E+03  0.7561462E-02  0.1226420E+00
          2   -1    0    0  501    0  0.00000000000E+00  0.00000000000E+00  0.32598742628E+03  0.32598742628E+03  0.00000000000E+00 0. -1.
         -2   -1    0    0    0  501 -0.00000000000E+00 -0.00000000000E+00 -0.11248330860E+03  0.11248330860E+03  0.00000000000E+00 0.  1.
         23    2    1    2    0    0  0.11071846822E+03  0.50959028897E+02 -0.37669778214E+01  0.17469023449E+03  0.12508831310E+03 0.  0.
          5    1    3    3  502    0  0.80141004656E+02  0.66658286376E+02 -0.51002250869E+02  0.11612325247E+03  0.41800000000E+01 0.  1.
         -5    1    3    3    0  502  0.30577463561E+02 -0.15699257479E+02  0.47235273048E+02  0.58566982022E+02  0.41800000000E+01 0.  1.
        -11    1    1    2    0    0 -0.74440607402E+02 -0.28069085324E+02  0.57000966420E+02  0.97869238038E+02  0.00000000000E+00 0.  1.
         11    1    1    2    0    0 -0.36277860815E+02 -0.22889943572E+02  0.16027012908E+03  0.16591126236E+03  0.00000000000E+00 0. -1.
</event>
<event>
 7    1  0.7017065E-006  0.8974784E+02  0.7561462E-02  0.1303463E+00
         -1   -1    0    0    0  501 -0.00000000000E+00  0.00000000000E+00  0.79988721502E+02  0.79988721502E+02  0.00000000000E+00 0.  1.
          1   -1    0    0  501    0  0.00000000000E+00 -0.00000000000E+00 -0.19356797597E+03  0.19356797597E+03  0.00000000000E+00 0. -1.
         23    2    1    2    0    0  0.26930042065E+01  0.41960283206E+02 -0.14645847032E+02  0.13277619437E+03  0.12508836604E+03 0.  0.
          5    1    3    3  502    0  0.79412110956E+01 -0.25415735252E+02 -0.49694472343E+02  0.56533489309E+02  0.41800000000E+01 0. -1.
         -5    1    3    3    0  502 -0.52482068892E+01  0.67376018458E+02  0.35048625311E+02  0.76242705061E+02  0.41800000000E+01 0. -1.
        -11    1    1    2    0    0  0.35246713982E+01 -0.62895320427E+02 -0.10079683378E+03  0.11886229991E+03  0.00000000000E+00 0. -1.
         11    1    1    2    0    0 -0.62176756046E+01  0.20935037221E+02  0.18634263428E+01  0.21918203191E+02  0.00000000000E+00 0.  1.
</event>
<event>
 7    1  0.7017065E-006  0.1307379E+03  0.7561462E-02  0.1226365E+00
         -2   -1    0    0    0  501 -0.00000000000E+00  0.00000000000E+00  0.64506610741E+03  0.64506610741E+03  0.00000000000E+00 0.  1.
          2   -1    0    0  501    0  0.00000000000E+00 -0.00000000000E+00 -0.50251185203E+02  0.50251185203E+02  0.00000000000E+00 0. -1.
         23    2    1    2    0    0 -0.81736520032E+02  0.91098076933E+01  0.54592024229E+03  0.56607509251E+03  0.12509297386E+03 0.  0.
          5    1    3    3  502    0 -0.72208843641E+02 -0.51081332277E+02  0.31425532819E+03  0.32649242457E+03  0.41800000000E+01 0.  1.
         -5    1    3    3    0  502 -0.95276763905E+01  0.60191139971E+02  0.23166491410E+03  0.23958266794E+03  0.41800000000E+01 0.  1.
        -11    1    1    2    0    0  0.96476255778E+02 -0.53131225236E+01  0.23185711634E+02  0.99365358269E+02  0.00000000000E+00 0. -1.
         11    1    1    2    0    0 -0.14739735746E+02 -0.37966851697E+01  0.25708968280E+02  0.29876841838E+02  0.00000000000E+00 0.  1.
</event>
<event>
 7    1  0.7017065E-006  0.1555660E+03  0.7561462E-02  0.1193796E+00
          2   -1    0    0  501    0  0.00000000000E+00  0.00000000000E+00  0.25154621562E+03  0.25154621562E+03  0.00000000000E+00 0. -1.
         -2   -1    0    0    0  501 -0.00000000000E+00 -0.00000000000E+00 -0.11604081030E+03  0.11604081030E+03  0.00000000000E+00 0.  1.
         23    2    1    2    0    0  0.12301294054E+03  0.41862239229E+02  0.90585987909E+02  0.20183717785E+03  0.12509114495E+03 0.  0.
          5    1    3    3  502    0  0.23458514600E+02  0.69517266866E+02  0.57354629758E+02  0.93220052856E+02  0.41800000000E+01 0. -1.
         -5    1    3    3    0  502  0.99554425942E+02 -0.27655027638E+02  0.33231358152E+02  0.10861712500E+03  0.41800000000E+01 0. -1.
        -11    1    1    2    0    0 -0.59013943735E+02 -0.37854277726E+02 -0.21592176001E+02  0.73360847608E+02  0.00000000000E+00 0.  1.
         11    1    1    2    0    0 -0.63998996808E+02 -0.40079615033E+01  0.66511593415E+02  0.92389000463E+02  0.00000000000E+00 0. -1.
</event>
<event>
 7    1  0.7017065E-006  0.1018446E+03  0.7561462E-02  0.1276464E+00
          2   -1    0    0  501    0  0.00000000000E+00  0.00000000000E+00  0.23192774140E+03  0.23192774140E+03  0.00000000000E+00 0. -1.
         -2   -1    0    0    0  501 -0.00000000000E+00 -0.00000000000E+00 -0.77183818965E+02  0.77183818965E+02  0.00000000000E+00 0.  1.
         23    2    1    2    0    0  0.78630673120E+02  0.53092920012E+01  0.91527103920E+02  0.17388296293E+03  0.12508837959E+03 0.  0.
          5    1    3    3  502    0  0.34049581198E+02  0.19289109342E+02 -0.26115780428E+02  0.47232934552E+02  0.41800000000E+01 0.  1.
         -5    1    3    3    0  502  0.44581091922E+02 -0.13979817341E+02  0.11764288435E+03  0.12665002838E+03  0.41800000000E+01 0.  1.
        -11    1    1    2    0    0  0.18693411150E+02 -0.73311189315E+01  0.21208942362E+02  0.29206303452E+02  0.00000000000E+00 0. -1.
         11    1    1    2    0    0 -0.97324084270E+02  0.20218269302E+01  0.42007876153E+02  0.10602229399E+03  0.00000000000E+00 0.  1.
</event>
<event>
 7    1  0.7017065E-006  0.1585958E+03  0.7561462E-02  0.1190291E+00
          2   -1    0    0  501    0  0.00000000000E+00  0.00000000000E+00  0.33316332806E+03  0.33316332806E+03  0.00000000000E+00 0. -1.
         -2   -1    0    0    0  501 -0.00000000000E+00 -0.00000000000E+00 -0.18667516027E+03  0.18667516027E+03  0.00000000000E+00 0.  1.
         23    2    1    2    0    0  0.67735868938E+02  0.11614666117E+03 -0.11666040729E+03  0.21047825818E+03  0.11230873384E+03 0.  0.
          5    1    3    3  502    0 -0.17315759458E+02  0.13171443412E+02  0.11817831900E+02  0.25108882850E+02  0.41800000000E+01 0. -1.
         -5    1    3    3    0  502  0.85051628395E+02  0.10297521776E+03 -0.12847823919E+03  0.18536937533E+03  0.41800000000E+01 0.  1.
        -11    1    1    2    0    0  0.38619240323E+01  0.13102252389E+02  0.13138619214E+02  0.18952751509E+02  0.00000000000E+00 0.  1.
         11    1    1    2    0    0 -0.71597792970E+02 -0.12924891356E+03  0.25000995587E+03  0.29040747864E+03  0.00000000000E+00 0. -1.
</event>
<event>
 7    1  0.7017065E-006  0.9637941E+02  0.7561462E-02  0.1288099E+00
         -3   -1    0    0    0  501 -0.00000000000E+00  0.00000000000E+00  0.37924426960E+03  0.37924426960E+03  0.00000000000E+00 0.  1.
          3   -1    0    0  501    0  0.00000000000E+00 -0.00000000000E+00 -0.48722295487E+02  0.48722295487E+02  0.00000000000E+00 0. -1.
         23    2    1    2    0    0  0.60924218959E+02  0.32824984111E+00  0.26792431476E+03  0.30190979105E+03  0.12511680657E+03 0.  0.
          5    1    3    3  502    0  0.28564623097E+02  0.43155366346E+02  0.23066011311E+03  0.23643156201E+03  0.41800000000E+01 0.  1.
         -5    1    3    3    0  502  0.32359595862E+02 -0.42827116505E+02  0.37264201654E+02  0.65478229034E+02  0.41800000000E+01 0.  1.
        -11    1    1    2    0    0  0.53919451346E+01  0.17512199089E+02  0.53783895317E+02  0.56819517639E+02  0.00000000000E+00 0.  1.
         11    1    1    2    0    0 -0.66316164093E+02 -0.17840448930E+02  0.88137640392E+01  0.69237256406E+02  0.00000000000E+00 0. -1.
</event>
<event>
 7    1  0.7017065E-006  0.1016356E+03  0.7561462E-02  0.1276894E+00
         -1   -1    0    0    0  501 -0.00000000000E+00  0.00000000000E+00  0.31554410706E+02  0.31554410706E+02  0.00000000000E+00 0.  1.
          1   -1    0    0  501    0  0.00000000000E+00 -0.00000000000E+00 -0.51997813895E+03  0.51997813895E+03  0.00000000000E+00 0. -1.
         23    2    1    2    0    0 -0.10009985492E+02  0.40610631712E+02 -0.16279947992E+03  0.20952438462E+03  0.12508946346E+03 0.  0.
          5    1    3    3  502    0 -0.62185142321E+02  0.45027856729E+00 -0.10349622250E+03  0.12081446581E+03  0.41800000000E+01 0. -1.
         -5    1    3    3    0  502  0.52175156829E+02  0.40160353145E+02 -0.59303257420E+02  0.88709918811E+02  0.41800000000E+01 0. -1.
        -11    1    1    2    0    0  0.59973984168E+01 -0.57397665294E+02 -0.31790503777E+03  0.32310071775E+03  0.00000000000E+00 0. -1.
         11    1    1    2    0    0  0.40125870753E+01  0.16787033582E+02 -0.77192105521E+01  0.18907447291E+02  0.00000000000E+00 0.  1.
</event>
<event>
 7    1  0.7017065E-006  0.1653230E+03  0.7561462E-02  0.1182815E+00
         -3   -1    0    0    0  501 -0.00000000000E+00  0.00000000000E+00  0.99795739745E+02  0.99795739745E+02  0.00000000000E+00 0.  1.
          3   -1    0    0  501    0  0.00000000000E+00 -0.00000000000E+00 -0.28852404639E+03  0.28852404639E+03  0.00000000000E+00 0. -1.
         23    2    1    2    0    0  0.69915204249E+02 -0.10902258422E+03 -0.88578606490E+02  0.20068795513E+03  0.12512164542E+03 0.  0.
          5    1    3    3  502    0  0.18286330432E+02 -0.12378274540E+03 -0.71555517368E+02  0.14420201942E+03  0.41800000000E+01 0. -1.
         -5    1    3    3    0  502  0.51628873817E+02  0.14760161181E+02 -0.17023089123E+02  0.56485935709E+02  0.41800000000E+01 0. -1.
        -11    1    1    2    0    0 -0.79102964002E+02  0.53932154326E+02 -0.35282918740E+02  0.10203352654E+03  0.00000000000E+00 0. -1.
         11    1    1    2    0    0  0.91877597522E+01  0.55090429895E+02 -0.64866781417E+02  0.85598304462E+02  0.00000000000E+00 0.  1.
</event>
<event>
 7    1  0.7017065E-006  0.9089115E+02  0.7561462E-02  0.1300708E+00
          1   -1    0    0  501    0  0.00000000000E+00  0.00000000000E+00  0.78620782636E+03  0.78620782636E+03  0.00000000000E+00 0. -1.
         -1   -1    0    0    0  501 -0.00000000000E+00 -0.00000000000E+00 -0.15613836850E+02  0.15613836850E+02  0.00000000000E+00 0.  1.
         23    2    1    2    0    0  0.56855642219E+01  0.21245698931E+02  0.42143998774E+03  0.44016273985E+03  0.12509144222E+03 0.  0.
          5    1    3    3  502    0  0.45278715937E+02  0.77106275550E+01  0.57079121486E+02  0.73383338734E+02  0.41800000000E+01 0.  1.
         -5    1    3    3    0  502 -0.39593151715E+02  0.13535071376E+02  0.36436086626E+03  0.36677940111E+03  0.41800000000E+01 0.  1.
        -11    1    1    2    0    0 -0.62775198605E+01 -0.57254312033E+02  0.19333092592E+03  0.20172830842E+03  0.00000000000E+00 0.  1.
         11    1    1    2    0    0  0.59195563856E+00  0.36008613103E+02  0.15582307584E+03  0.15993061494E+03  0.00000000000E+00 0. -1.
</event>
<event>
 6    1  0.7017065E-006  0.1322447E+03  0.7561462E-02  0.1224163E+00
         -2   -1    0    0    0  501 -0.00000000000E+00  0.00000000000E+00  0.15102805741E+03  0.15102805741E+03  0.00000000000E+00 0.  1.
          2   -1    0    0  501    0  0.00000000000E+00 -0.00000000000E+00 -0.12887633883E+03  0.12887633883E+03  0.00000000000E+00 0. -1.
          5    1    1    2  502    0  0.20083358344E+02 -0.59299271426E+02 -0.14453675169E+02  0.64390418541E+02  0.41800000000E+01 0. -1.
         -5    1    1    2    0  502 -0.57171077999E+02  0.94536004031E+02  0.17379189306E+02  0.11191557907E+03  0.41800000000E+01 0.  1.
        -11    1    1    2    0    0  0.31941276172E+02 -0.58880768479E+02 -0.76642363370E+01  0.67423516215E+02  0.00000000000E+00 0. -1.
         11    1    1    2    0    0  0.51464434829E+01  0.23644035873E+02  0.26890440779E+02  0.36174882421E+02  0.00000000000E+00 0.  1.
</event>
<event>
 7    1  0.7017065E-006  0.6991746E+02  0.7561462E-02  0.1360374E+00
         -1   -1    0    0    0  501 -0.00000000000E+00  0.00000000000E+00  0.51870363389E+03  0.51870363389E+03  0.00000000000E+00 0.  1.
          1   -1    0    0  501    0  0.00000000000E+00 -0.00000000000E+00 -0.29177911014E+02  0.29177911014E+02  0.00000000000E+00 0. -1.
         23    2    1    2    0    0  0.53194789347E+02  0.21016112795E+02  0.31342709403E+03  0.34227743779E+03  0.12508372611E+03 0.  0.
          5    1    3    3  502    0  0.49436636755E+02  0.17780239194E+01  0.29715258892E+02  0.57858546764E+02  0.41800000000E+01 0.  1.
         -5    1    3    3    0  502  0.37581525921E+01  0.19238088876E+02  0.28371183513E+03  0.28441889102E+03  0.41800000000E+01 0.  1.
        -11    1    1    2    0    0  0.50284864243E+01 -0.95688520288E+01 -0.71682322794E+01  0.12970434028E+02  0.00000000000E+00 0. -1.
         11    1    1    2    0    0 -0.58223275771E+02 -0.11447260767E+02  0.18326686113E+03  0.19263367310E+03  0.00000000000E+00 0.  1.
</event>
<event>
 7    1  0.7017065E-006  0.8908953E+02  0.7561462E-02  0.1305072E+00
         -2   -1    0    0    0  501 -0.00000000000E+00  0.00000000000E+00  0.93139981312E+02  0.93139981312E+02  0.00000000000E+00 0. -1.
          2   -1    0    0  501    0  0.00000000000E+00 -0.00000000000E+00 -0.12140715405E+03  0.12140715405E+03  0.00000000000E+00 0.  1.
         23    2    1    2    0    0 -0.29732554574E+02  0.20034932901E+02  0.18725091339E+02  0.13146737637E+03  0.12509044194E+03 0.  0.
          5    1    3    3  502    0  0.32587290701E+02  0.32885918194E+02  0.42914253931E+02  0.63265478115E+02  0.41800000000E+01 0.  1.
         -5    1    3    3    0  502 -0.62319845275E+02 -0.12850985293E+02 -0.24189162591E+02  0.68201898251E+02  0.41800000000E+01 0.  1.
        -11    1    1    2    0    0  0.44654098771E+02 -0.22509445518E+01 -0.25652607631E+02  0.51547178067E+02  0.00000000000E+00 0. -1.
         11    1    1    2    0    0 -0.14921544197E+02 -0.17783988350E+02 -0.21339656450E+02  0.31532580933E+02  0.00000000000E+00 0.  1.
</event>
<event>
 7    1  0.7017065E-006  0.1205912E+03  0.7561462E-02  0.1242125E+00
         -3   -1    0    0    0  501 -0.00000000000E+00  0.00000000000E+00  0.23124170410E+03  0.23124170410E+03  0.00000000000E+00 0.  1.
          3   -1    0    0  501    0  0.00000000000E+00 -0.00000000000E+00 -0.10657919339E+03  0.10657919339E+03  0.00000000000E+00 0. -1.
         23    2    1    2    0    0  0.64346612901E+02 -0.17050945712E+00  0.16683161972E+03  0.21822550694E+03  0.12509623046E+03 0.  0.
          5    1    3    3  502    0  0.33965109015E+02 -0.59005857208E+02  0.52652920902E+02  0.86169149321E+02  0.41800000000E+01 0. -1.
         -5    1    3    3    0  502  0.30381503886E+02  0.58835347751E+02  0.11417869882E+03  0.13205635762E+03  0.41800000000E+01 0. -1.
        -11    1    1    2    0    0 -0.18490587433E+02  0.41156665363E+02 -0.16952845365E+00  0.45119858902E+02  0.00000000000E+00 0.  1.
         11    1    1    2    0    0 -0.45856025468E+02 -0.40986155906E+02 -0.41999580558E+02  0.74475531651E+02  0.00000000000E+00 0. -1.
</event>
<event>
 7    1  0.7017065E-006  0.1363867E+03  0.7561462E-02  0.1218275E+00
         -3   -1    0    0    0  501 -0.00000000000E+00  0.00000000000E+00  0.99364184860E+02  0.99364184860E+02  0.00000000000E+00 0.  1.
          3   -1    0    0  501    0  0.00000000000E+00 -0.00000000000E+00 -0.37107227832E+03  0.37107227832E+03  0.00000000000E+00 0. -1.
         23    2    1    2    0    0 -0.95933486016E+02  0.93158355541E+02 -0.47747092928E+02  0.18923609352E+03  0.12509516882E+03 0.  0.
          5    1    3    3  502    0 -0.60243894576E+01  0.18858265945E+02  0.38919665102E+02  0.43865022448E+02  0.41800000000E+01 0. -1.
         -5    1    3    3    0  502 -0.89909096558E+02  0.74300089596E+02 -0.86666758030E+02  0.14537107107E+03  0.41800000000E+01 0. -1.
        -11    1    1    2    0    0  0.73408229612E+02 -0.55817133004E+02 -0.56491871508E+02  0.10814643803E+03  0.00000000000E+00 0.  1.
         11    1    1    2    0    0  0.22525256404E+02 -0.37341222537E+02 -0.16746912902E+03  0.17305393163E+03  0.00000000000E+00 0. -1.
</event>
<event>
 7    1  0.7017065E-006  0.1626301E+03  0.7561462E-02  0.1185759E+00
          3   -1    0    0  501    0  0.00000000000E+00  0.00000000000E+00  0.24889712489E+03  0.24889712489E+03  0.00000000000E+00 0. -1.
         -3   -1    0    0    0  501 -0.00000000000E+00 -0.00000000000E+00 -0.12689333796E+03  0.12689333796E+03  0.00000000000E+00 0.  1.
         23    2    1    2    0    0  0.13179078097E+03  0.46798775796E+02  0.62486694076E+02  0.19776458322E+03  0.12508920048E+03 0.  0.
          5    1    3    3  502    0  0.43750421167E+02  0.59789497811E+02 -0.19462803469E+02  0.76714773803E+02  0.41800000000E+01 0.  1.
         -5    1    3    3    0  502  0.88040359805E+02 -0.12990722015E+02  0.81949497545E+02  0.12104980942E+03  0.41800000000E+01 0.  1.
        -11    1    1    2    0    0 -0.71967501298E+02  0.17576878547E+02  0.42363585898E+01  0.74203872113E+02  0.00000000000E+00 0.  1.
         11    1    1    2    0    0 -0.59823279674E+02 -0.64375654343E+02  0.55280734260E+02  0.10382200751E+03  0.00000000000E+00 0. -1.
</event>
<event>
 7    1  0.7017065E-006  0.1817357E+03  0.7561462E-02  0.1166134E+00
         -1   -1    0    0    0  501 -0.00000000000E+00  0.00000000000E+00  0.60645809763E+02  0.60645809763E+02  0.00000000000E+00 0.  1.
          1   -1    0    0  501    0  0.00000000000E+00 -0.00000000000E+00 -0.66297475255E+03  0.66297475255E+03  0.00000000000E+00 0. -1.
         23    2    1    2    0    0  0.16136428928E+03 -0.57363424995E+00 -0.23533430237E+03  0.31155615337E+03  0.12508493082E+03 0.  0.
          5    1    3    3  502    0  0.17882379776E+02  0.46394164069E+02 -0.36290066714E+02  0.61697968428E+02  0.41800000000E+01 0.  1.
         -5    1    3    3    0  502  0.14348190950E+03 -0.46967798319E+02 -0.19904423565E+03  0.24985818494E+03  0.41800000000E+01 0.  1.
        -11    1    1    2    0    0 -0.69485910972E+02  0.99213076174E+01 -0.62882659825E+02  0.94238808752E+02  0.00000000000E+00 0. -1.
         11    1    1    2    0    0 -0.91878378308E+02 -0.93476733675E+01 -0.30411198059E+03  0.31782560019E+03  0.00000000000E+00 0.  1.
</event>
<event>
 7    1  0.2354986E-005  0.2988561E+03  0.7561462E-02  0.1085814E+00
          1   -1    0    0  501    0  0.00000000000E+00  0.00000000000E+00  0.19960631736E+04  0.19960631736E+04  0.00000000000E+00 0. -1.
         -1   -1    0    0    0  501 -0.00000000000E+00 -0.00000000000E+00 -0.46174134350E+02  0.46174134350E+02  0.00000000000E+00 0.  1.
         23    2    1    2    0    0 -0.36745967804E+02 -0.28073580678E+03  0.94872057588E+03  0.99793835075E+03  0.12508941380E+03 0.  0.
          5    1    3    3  502    0  0.38865393069E+02 -0.40312761443E+02  0.13985415581E+03  0.15070598797E+03  0.41800000000E+01 0.  1.
         -5    1    3    3    0  502 -0.75611360873E+02 -0.24042304533E+03  0.80886642007E+03  0.84723236278E+03  0.41800000000E+01 0.  1.
        -11    1    1    2    0    0  0.31093648360E+02  0.51302516560E+02  0.31806651076E+03  0.32367432465E+03  0.00000000000E+00 0. -1.
         11    1    1    2    0    0  0.56523194443E+01  0.22943329021E+03  0.68310195264E+03  0.72062463258E+03  0.00000000000E+00 0.  1.
</event>
<event>
 7    1  0.7017065E-006  0.1469424E+03  0.7561462E-02  0.1204281E+00
         -2   -1    0    0    0  501 -0.00000000000E+00  0.00000000000E+00  0.25670666482E+02  0.25670666482E+02  0.00000000000E+00 0. -1.
          2   -1    0    0  501    0  0.00000000000E+00 -0.00000000000E+00 -0.96413437586E+03  0.96413437586E+03  0.00000000000E+00 0.  1.
         23    2    1    2    0    0  0.48377494959E+02  0.98813777844E+02 -0.41472702400E+03  0.44693549260E+03  0.12509310694E+03 0.  0.
          5    1    3    3  502    0 -0.40245671848E+02  0.12275622170E+02 -0.92952008620E+02  0.10211735067E+03  0.41800000000E+01 0. -1.
         -5    1    3    3    0  502  0.88623166807E+02  0.86538155673E+02 -0.32177501538E+03  0.34481814193E+03  0.41800000000E+01 0. -1.
        -11    1    1    2    0    0  0.10047066264E+02  0.28193753384E+01 -0.60216422885E+01  0.12047929020E+02  0.00000000000E+00 0. -1.
         11    1    1    2    0    0 -0.58424561223E+02 -0.10163315318E+03 -0.51771504309E+03  0.53082162072E+03  0.00000000000E+00 0.  1.
</event>
<event>
 7    1  0.7017065E-006  0.1695448E+03  0.7561462E-02  0.1178323E+00
         -1   -1    0    0    0  501 -0.00000000000E+00  0.00000000000E+00  0.27426978266E+03  0.27426978266E+03  0.00000000000E+00 0.  1.
          1   -1    0    0  501    0  0.00000000000E+00 -0.00000000000E+00 -0.18207024085E+03  0.18207024085E+03  0.00000000000E+00 0. -1.
         23    2    1    2    0    0  0.13277042029E+03  0.45944551203E+02  0.18671132888E+03  0.26504102437E+03  0.12508692170E+03 0.  0.
          5    1    3    3  502    0  0.14815699388E+03  0.26620835163E+02  0.11618968113E+03  0.19020167744E+03  0.41800000000E+01 0.  1.
         -5    1    3    3    0  502 -0.15386573589E+02  0.19323716040E+02  0.70521647746E+02  0.74839346933E+02  0.41800000000E+01 0.  1.
        -11    1    1    2    0    0 -0.62920898974E+02  0.21362591281E+02 -0.21328123237E+02  0.69787453563E+02  0.00000000000E+00 0. -1.
         11    1    1    2    0    0 -0.69849521314E+02 -0.67307142484E+02 -0.73183663834E+02  0.12151154558E+03  0.00000000000E+00 0.  1.
</event>
<event>
 7    1  0.7017065E-006  0.1051442E+03  0.7561462E-02  0.1269836E+00
         -1   -1    0    0    0  501 -0.00000000000E+00  0.00000000000E+00  0.58672769952E+02  0.58672769952E+02  0.00000000000E+00 0.  1.
          1   -1    0    0  501    0  0.00000000000E+00 -0.00000000000E+00 -0.19905624473E+03  0.19905624473E+03  0.00000000000E+00 0. -1.
         23    2    1    2    0    0 -0.42123811843E+01  0.63056053610E+01 -0.55490129571E+02  0.13705486475E+03  0.12508947460E+03 0.  0.
          5    1    3    3  502    0  0.11360685275E+02 -0.57877724883E+02 -0.27103023022E+02  0.65045695203E+02  0.41800000000E+01 0. -1.
         -5    1    3    3    0  502 -0.15573066459E+02  0.64183330244E+02 -0.28387106549E+02  0.72009169544E+02  0.41800000000E+01 0. -1.
        -11    1    1    2    0    0  0.15005424130E+02 -0.43624123382E+02 -0.54123449766E+02  0.71116627512E+02  0.00000000000E+00 0. -1.
         11    1    1    2    0    0 -0.10793042946E+02  0.37318518021E+02 -0.30769895440E+02  0.49557522423E+02  0.00000000000E+00 0.  1.
</event>
<event>
 7    1  0.7017065E-006  0.1133594E+03  0.7561462E-02  0.1254472E+00
          2   -1    0    0  501    0  0.00000000000E+00  0.00000000000E+00  0.46489067740E+03  0.46489067740E+03  0.00000000000E+00 0. -1.
         -2   -1    0    0    0  501 -0.00000000000E+00 -0.00000000000E+00 -0.29958276556E+02  0.29958276556E+02  0.00000000000E+00 0.  1.
         23    2    1    2    0    0  0.27506358454E+02 -0.36148829023E+02  0.24645952611E+03  0.28009469815E+03  0.12508958520E+03 0.  0.
          5    1    3    3  502    0  0.54395839392E+02  0.24222340516E+02  0.72218571367E+02  0.93694309184E+02  0.41800000000E+01 0. -1.
         -5    1    3    3    0  502 -0.26889480938E+02 -0.60371169538E+02  0.17424095475E+03  0.18640038897E+03  0.41800000000E+01 0. -1.
        -11    1    1    2    0    0  0.33264206080E+02  0.10975754419E+02  0.87444989141E+02  0.94199791492E+02  0.00000000000E+00 0.  1.
         11    1    1    2    0    0 -0.60770564534E+02  0.25173074604E+02  0.10102788559E+03  0.12055446431E+03  0.00000000000E+00 0. -1.
</event>
<event>
 7    1  0.7017065E-006  0.1014868E+03  0.7561462E-02  0.1277200E+00
          2   -1    0    0  501    0  0.00000000000E+00  0.00000000000E+00  0.31864524121E+03  0.31864524121E+03  0.00000000000E+00 0.  1.
         -2   -1    0    0    0  501 -0.00000000000E+00 -0.00000000000E+00 -0.75663716340E+02  0.75663716340E+02  0.00000000000E+00 0. -1.
         23    2    1    2    0    0 -0.56436461363E+01  0.10935267283E+02 -0.83939769478E+01  0.12597337453E+03  0.12508957363E+03 0.  0.
          5    1    3    3  502    0  0.58268244758E+02  0.10213702183E+01  0.83848749940E+01  0.59025503581E+02  0.41800000000E+01 0.  1.
         -5    1    3    3    0  502 -0.63911890894E+02  0.99138970645E+01 -0.16778851942E+02  0.66947870953E+02  0.41800000000E+01 0.  1.
        -11    1    1    2    0    0  0.28323070635E+02  0.24643352227E+02  0.19114515487E+03  0.19479723142E+03  0.00000000000E+00 0.  1.
         11    1    1    2    0    0 -0.22679424498E+02 -0.35578619509E+02  0.60230346946E+02  0.73538351593E+02  0.00000000000E+00 0. -1.
</event>
<event>
 7    1  0.7017065E-006  0.7663286E+02  0.7561462E-02  0.1338888E+00
          1   -1    0    0  501    0  0.00000000000E+00  0.00000000000E+00  0.45904190220E+03  0.45904190220E+03  0.00000000000E+00 0. -1.
         -1   -1    0    0    0  501 -0.00000000000E+00 -0.00000000000E+00 -0.34293312097E+02  0.34293312097E+02  0.00000000000E+00 0.  1.
         23    2    1    2    0    0 -0.55854321138E+02 -0.26803154992E+02  0.23309247833E+03  0.27169855378E+03  0.12509950585E+03 0.  0.
          5    1    3    3  502    0 -0.58669124033E+02 -0.24050701744E+02  0.33147228234E+02  0.71670869318E+02  0.41800000000E+01 0. -1.
         -5    1    3    3    0  502  0.28148028948E+01 -0.27524532482E+01  0.19994525010E+03  0.20002768446E+03  0.41800000000E+01 0. -1.
        -11    1    1    2    0    0 -0.79932164138E+00  0.27310963322E+02  0.14694457044E+03  0.14946315403E+03  0.00000000000E+00 0. -1.
         11    1    1    2    0    0  0.56653642780E+02 -0.50780832952E+00  0.44711541332E+02  0.72173506482E+02  0.00000000000E+00 0.  1.
</event>
<event>
 7    1  0.7017065E-006  0.1318511E+03  0.7561462E-02  0.1224735E+00
          1   -1    0    0  501    0  0.00000000000E+00  0.00000000000E+00  0.24131716094E+03  0.24131716094E+03  0.00000000000E+00 0.  1.
         -1   -1    0    0    0  501 -0.00000000000E+00 -0.00000000000E+00 -0.10378204491E+03  0.10378204491E+03  0.00000000000E+00 0. -1.
         23    2    1    2    0    0  0.45879532420E+01 -0.94052997071E+02  0.23404176590E+01  0.15658911545E+03  0.12509059896E+03 0.  0.
          5    1    3    3  502    0 -0.96817900672E+01  0.29473731693E+02  0.70265907482E+01  0.32082445299E+02  0.41800000000E+01 0. -1.
         -5    1    3    3    0  502  0.14269743309E+02 -0.12352672876E+03 -0.46861730892E+01  0.12450667015E+03  0.41800000000E+01 0. -1.
        -11    1    1    2    0    0 -0.25804477906E+02  0.25736279255E+02  0.10449016881E+03  0.11066355556E+03  0.00000000000E+00 0.  1.
         11    1    1    2    0    0  0.21216524664E+02  0.68316717816E+02  0.30704529562E+02  0.77846534846E+02  0.00000000000E+00 0. -1.
</event>
<event>
 7    1  0.7017065E-006  0.1361164E+03  0.7561462E-02  0.1218652E+00
         -1   -1    0    0    0  501 -0.00000000000E+00  0.00000000000E+00  0.11983160753E+03  0.11983160753E+03  0.00000000000E+00 0.  1.
          1   -1    0    0  501    0  0.00000000000E+00 -0.00000000000E+00 -0.22571018493E+03  0.22571018493E+03  0.00000000000E+00 0. -1.
         23    2    1    2    0    0  0.56816502363E+02  0.94694632763E+02 -0.20068542711E+01  0.16687412785E+03  0.12509100154E+03 0.  0.
          5    1    3    3  502    0  0.77819655303E+02  0.10640151003E+03  0.20742145099E+02  0.13350988380E+03  0.41800000000E+01 0. -1.
         -5    1    3    3    0  502 -0.21003152939E+02 -0.11706877271E+02 -0.22748999370E+02  0.33364244052E+02  0.41800000000E+01 0. -1.
        -11    1    1    2    0    0 -0.66667439077E+01 -0.44454344741E+02 -0.97539603532E+02  0.10739929468E+03  0.00000000000E+00 0. -1.
         11    1    1    2    0    0 -0.50149758456E+02 -0.50240288023E+02 -0.63321195924E+01  0.71268369929E+02  0.00000000000E+00 0.  1.
</event>
<event>
 7    1  0.7017065E-006  0.8780949E+02  0.7561462E-02  0.1308245E+00
         -1   -1    0    0    0  501 -0.00000000000E+00  0.00000000000E+00  0.19184087862E+02  0.19184087862E+02  0.00000000000E+00 0.  1.
          1   -1    0    0  501    0  0.00000000000E+00 -0.00000000000E+00 -0.65491009181E+03  0.65491009181E+03  0.00000000000E+00 0. -1.
         23    2    1    2    0    0  0.43671690626E+01 -0.15122624822E+02 -0.39214887153E+03  0.41191769827E+03  0.12509071410E+03 0.  0.
          5    1    3    3  502    0  0.36128483206E+02 -0.41941531362E+02 -0.82350387150E+02  0.99314742186E+02  0.41800000000E+01 0. -1.
         -5    1    3    3    0  502 -0.31761314143E+02  0.26818906540E+02 -0.30979848438E+03  0.31260295608E+03  0.41800000000E+01 0. -1.
        -11    1    1    2    0    0 -0.38719798784E+02 -0.41404904656E+01 -0.44028090978E+02  0.58777880826E+02  0.00000000000E+00 0.  1.
         11    1    1    2    0    0  0.34352629721E+02  0.19263115288E+02 -0.19954904144E+03  0.20339860058E+03  0.00000000000E+00 0. -1.
</event>
<event>
 7    1  0.7017065E-006  0.1330586E+03  0.7561462E-02  0.1222987E+00
         -2   -1    0    0    0  501 -0.00000000000E+00  0.00000000000E+00  0.63222167403E+02  0.63222167403E+02  0.00000000000E+00 0.  1.
          2   -1    0    0  501    0  0.00000000000E+00 -0.00000000000E+00 -0.49826872162E+03  0.49826872162E+03  0.00000000000E+00 0. -1.
         23    2    1    2    0    0  0.45242310809E+02  0.89727387835E+02 -0.77965380736E+02  0.17841152849E+03  0.12511675384E+03 0.  0.
          5    1    3    3  502    0  0.21159237945E+02  0.11728494726E+03 -0.76230902099E+02  0.14153478384E+03  0.41800000000E+01 0. -1.
         -5    1    3    3    0  502  0.24083072864E+02 -0.27557559421E+02 -0.17344786369E+01  0.36876744649E+02  0.41800000000E+01 0. -1.
        -11    1    1    2    0    0  0.32912606187E+01 -0.41427172597E+02 -0.36637130531E+02  0.55401465318E+02  0.00000000000E+00 0.  1.
         11    1    1    2    0    0 -0.48533571428E+02 -0.48300215238E+02 -0.32044404295E+03  0.32767789521E+03  0.00000000000E+00 0. -1.
</event>
<event>
 7    1  0.7017065E-006  0.6893374E+02  0.7561462E-02  0.1363757E+00
          2   -1    0    0  501    0  0.00000000000E+00  0.00000000000E+00  0.60686579850E+03  0.60686579850E+03  0.00000000000E+00 0. -1.
         -2   -1    0    0    0  501 -0.00000000000E+00 -0.00000000000E+00 -0.26376047350E+02  0.26376047350E+02  0.00000000000E+00 0.  1.
         23    2    1    2    0    0  0.53699380387E+02 -0.32561719503E+02  0.35022316464E+03  0.37715693456E+03  0.12508876530E+03 0.  0.
          5    1    3    3  502    0  0.21980008495E+02 -0.10185098988E+02 -0.18163388306E+00  0.24583783389E+02  0.41800000000E+01 0. -1.
         -5    1    3    3    0  502  0.31719371892E+02 -0.22376620515E+02  0.35040479852E+03  0.35257315117E+03  0.41800000000E+01 0. -1.
        -11    1    1    2    0    0  0.40541412130E+01  0.12439448747E+02 -0.42252642770E+01  0.13748774648E+02  0.00000000000E+00 0.  1.
         11    1    1    2    0    0 -0.57753521600E+02  0.20122270756E+02  0.23449185079E+03  0.24233613665E+03  0.00000000000E+00 0. -1.
</event>
<event>
 7    1  0.7017065E-006  0.1575277E+03  0.7561462E-02  0.1191517E+00
          1   -1    0    0  501    0  0.00000000000E+00  0.00000000000E+00  0.90385891869E+03  0.90385891869E+03  0.00000000000E+00 0. -1.
         -1   -1    0    0    0  501 -0.00000000000E+00 -0.00000000000E+00 -0.40850633019E+02  0.40850633019E+02  0.00000000000E+00 0.  1.
         23    2    1    2    0    0  0.14303940461E+03  0.61056239339E+02  0.35958968698E+03  0.41126749217E+03  0.12509225196E+03 0.  0.
          5    1    3    3  502    0  0.94925585483E+02  0.31546636634E+02  0.86299727637E+02  0.13217856276E+03  0.41800000000E+01 0. -1.
         -5    1    3    3    0  502  0.48113819124E+02  0.29509602705E+02  0.27328995934E+03  0.27908892941E+03  0.41800000000E+01 0. -1.
        -11    1    1    2    0    0 -0.24849444273E+02  0.96057246748E+00  0.19931397374E+02  0.31869706328E+02  0.00000000000E+00 0.  1.
         11    1    1    2    0    0 -0.11818996033E+03 -0.62016811806E+02  0.48348720132E+03  0.50157235322E+03  0.00000000000E+00 0. -1.
</event>
<event>
 7    1  0.7017065E-006  0.7368403E+02  0.7561462E-02  0.1347995E+00
         -4   -1    0    0    0  501 -0.00000000000E+00  0.00000000000E+00  0.10501573935E+03  0.10501573935E+03  0.00000000000E+00 0.  1.
          4   -1    0    0  501    0  0.00000000000E+00 -0.00000000000E+00 -0.11740286134E+03  0.11740286134E+03  0.00000000000E+00 0. -1.
         23    2    1    2    0    0  0.24864756624E+01 -0.20804720983E+02 -0.21040731672E+02  0.12856248423E+03  0.12508629415E+03 0.  0.
          5    1    3    3  502    0 -0.52692791367E+02 -0.52454870454E+01 -0.41646398274E+02  0.67497705781E+02  0.41800000000E+01 0.  1.
         -5    1    3    3    0  502  0.55179267030E+02 -0.15559233937E+02  0.20605666603E+02  0.61064778447E+02  0.41800000000E+01 0.  1.
        -11    1    1    2    0    0  0.11650697950E+02  0.19307972585E+02  0.47450565427E+02  0.52536584657E+02  0.00000000000E+00 0.  1.
         11    1    1    2    0    0 -0.14137173613E+02  0.14967483973E+01 -0.38796955748E+02  0.41319531808E+02  0.00000000000E+00 0. -1.
</event>
<event>
 7    1  0.7017065E-006  0.1839701E+03  0.7561462E-02  0.1164015E+00
          2   -1    0    0  501    0  0.00000000000E+00  0.00000000000E+00  0.76580775370E+02  0.76580775370E+02  0.00000000000E+00 0. -1.
         -2   -1    0    0    0  501 -0.00000000000E+00 -0.00000000000E+00 -0.56465817307E+03  0.56465817307E+03  0.00000000000E+00 0.  1.
         23    2    1    2    0    0 -0.10436989953E+03  0.12476499820E+03 -0.36217897072E+03  0.41626690956E+03  0.12508058385E+03 0.  0.
          5    1    3    3  502    0 -0.11020813490E+02  0.10868538308E+03 -0.17279819577E+03  0.20447655046E+03  0.41800000000E+01 0.  1.
         -5    1    3    3    0  502 -0.93349086039E+02  0.16079615116E+02 -0.18938077495E+03  0.21179035910E+03  0.41800000000E+01 0.  1.
        -11    1    1    2    0    0  0.67690908885E+02 -0.94532749338E+02 -0.13328271116E+03  0.17686938949E+03  0.00000000000E+00 0. -1.
         11    1    1    2    0    0  0.36678990643E+02 -0.30232248858E+02  0.73842841860E+01  0.48102649393E+02  0.00000000000E+00 0.  1.
</event>
<event>
 7    1  0.7017065E-006  0.5866602E+02  0.7561462E-02  0.1403517E+00
          1   -1    0    0  501    0  0.00000000000E+00  0.00000000000E+00  0.21956206693E+03  0.21956206693E+03  0.00000000000E+00 0. -1.
         -1   -1    0    0    0  501 -0.00000000000E+00 -0.00000000000E+00 -0.57265733348E+02  0.57265733348E+02  0.00000000000E+00 0.  1.
         23    2    1    2    0    0  0.29644128063E+02  0.85902757155E+00  0.89503951173E+02  0.15664463550E+03  0.12508825804E+03 0.  0.
          5    1    3    3  502    0  0.44261713930E+02 -0.83776383000E+00 -0.18063037854E+02  0.47995280026E+02  0.41800000000E+01 0.  1.
         -5    1    3    3    0  502 -0.14617585867E+02  0.16967914016E+01  0.10756698903E+03  0.10864935548E+03  0.41800000000E+01 0.  1.
        -11    1    1    2    0    0  0.62541323622E+01  0.16534305528E+02 -0.15364422115E+02  0.23421419637E+02  0.00000000000E+00 0.  1.
         11    1    1    2    0    0 -0.35898260425E+02 -0.17393333099E+02  0.88156804522E+02  0.96761745133E+02  0.00000000000E+00 0. -1.
</event>
<event>
 7    1  0.7017065E-006  0.1078673E+03  0.7561462E-02  0.1264571E+00
         -1   -1    0    0    0  501 -0.00000000000E+00  0.00000000000E+00  0.71146895009E+02  0.71146895009E+02  0.00000000000E+00 0.  1.
          1   -1    0    0  501    0  0.00000000000E+00 -0.00000000000E+00 -0.23940890478E+03  0.23940890478E+03  0.00000000000E+00 0. -1.
         23    2    1    2    0    0  0.43109233107E+02 -0.30938349144E+02 -0.39086664410E+02  0.14138621222E+03  0.12508679484E+03 0.  0.
          5    1    3    3  502    0  0.39173790122E+02 -0.69084871272E+02 -0.57991724907E+02  0.98426712984E+02  0.41800000000E+01 0. -1.
         -5    1    3    3    0  502  0.39354429849E+01  0.38146522128E+02  0.18905060497E+02  0.42959499233E+02  0.41800000000E+01 0. -1.
        -11    1    1    2    0    0 -0.21687396457E+01  0.51686670785E+02 -0.10555528857E+03  0.11755056067E+03  0.00000000000E+00 0. -1.
         11    1    1    2    0    0 -0.40940493461E+02 -0.20748321641E+02 -0.23620056792E+02  0.51619026905E+02  0.00000000000E+00 0.  1.
</event>
<event>
 7    1  0.7017065E-006  0.1431380E+03  0.7561462E-02  0.1209168E+00
         -1   -1    0    0    0  501 -0.00000000000E+00  0.00000000000E+00  0.71029715024E+02  0.71029715024E+02  0.00000000000E+00 0.  1.
          1   -1    0    0  501    0  0.00000000000E+00 -0.00000000000E+00 -0.34085708423E+03  0.34085708423E+03  0.00000000000E+00 0. -1.
         23    2    1    2    0    0  0.48708811182E+01  0.94873638096E+02 -0.67976031359E+02  0.17115247001E+03  0.12509074491E+03 0.  0.
          5    1    3    3  502    0 -0.51370478359E+02  0.84126585791E+02 -0.52176698931E+02  0.11160684923E+03  0.41800000000E+01 0. -1.
         -5    1    3    3    0  502  0.56241359477E+02  0.10747052305E+02 -0.15799332428E+02  0.59545620781E+02  0.41800000000E+01 0. -1.
        -11    1    1    2    0    0 -0.40003382514E+02 -0.84632548048E+02 -0.13125132470E+03  0.16121367509E+03  0.00000000000E+00 0. -1.
         11    1    1    2    0    0  0.35132501396E+02 -0.10241090049E+02 -0.70600013146E+02  0.79520654147E+02  0.00000000000E+00 0.  1.
</event>
<event>
 7    1  0.7017065E-006  0.9060172E+02  0.7561462E-02  0.1301401E+00
          2   -1    0    0  501    0  0.00000000000E+00  0.00000000000E+00  0.19480799652E+03  0.19480799652E+03  0.00000000000E+00 0. -1.
         -2   -1    0    0    0  501 -0.00000000000E+00 -0.00000000000E+00 -0.59265609382E+02  0.59265609382E+02  0.00000000000E+00 0.  1.
         23    2    1    2    0    0 -0.53640188579E+01 -0.96451834205E+01  0.73816999597E+02  0.14283311469E+03  0.12178073312E+03 0.  0.
          5    1    3    3  502    0  0.76286585300E+01  0.41101070051E+02  0.79559703019E+02  0.89970623733E+02  0.41800000000E+01 0. -1.
         -5    1    3    3    0  502 -0.12992677388E+02 -0.50746253472E+02 -0.57427034220E+01  0.52862490953E+02  0.41800000000E+01 0.  1.
        -11    1    1    2    0    0 -0.21811352297E+02 -0.30905932213E+02  0.80255576644E+01  0.38669384670E+02  0.00000000000E+00 0.  1.
         11    1    1    2    0    0  0.27175371155E+02  0.40551115633E+02  0.53699829874E+02  0.72571106544E+02  0.00000000000E+00 0. -1.
</event>
<event>
 7    1  0.7017065E-006  0.8661148E+02  0.7561462E-02  0.1311271E+00
          1   -1    0    0  501    0  0.00000000000E+00  0.00000000000E+00  0.23041982534E+03  0.23041982534E+03  0.00000000000E+00 0. -1.
         -1   -1    0    0    0  501 -0.00000000000E+00 -0.00000000000E+00 -0.74208483053E+02  0.74208483053E+02  0.00000000000E+00 0.  1.
         23    2    1    2    0    0  0.39421163396E+02 -0.28368061890E+02  0.24403001616E+02  0.13638959386E+03  0.12509132570E+03 0.  0.
          5    1    3    3  502    0 -0.37730466952E+02 -0.24226366261E+02  0.36635549874E+02  0.58052914425E+02  0.41800000000E+01 0. -1.
         -5    1    3    3    0  502  0.77151630348E+02 -0.41416956291E+01 -0.12232548258E+02  0.78336679435E+02  0.41800000000E+01 0. -1.
        -11    1    1    2    0    0 -0.22629152026E+02  0.71013690594E+01  0.13834601050E+03  0.14036426392E+03  0.00000000000E+00 0. -1.
         11    1    1    2    0    0 -0.16792011370E+02  0.21266692831E+02 -0.65376698363E+01  0.27874450608E+02  0.00000000000E+00 0.  1.
</event>
<event>
 7    1  0.7017065E-006  0.8307197E+02  0.7561462E-02  0.1320553E+00
         -2   -1    0    0    0  501 -0.00000000000E+00  0.00000000000E+00  0.41424317820E+02  0.41424317820E+02  0.00000000000E+00 0.  1.
          2   -1    0    0  501    0  0.00000000000E+00 -0.00000000000E+00 -0.43435809096E+03  0.43435809096E+03  0.00000000000E+00 0. -1.
         23    2    1    2    0    0 -0.70197627611E+02  0.28875345319E+01 -0.15356986498E+03  0.21016029865E+03  0.12509037900E+03 0.  0.
          5    1    3    3  502    0 -0.65079617816E+02 -0.56754670791E+01 -0.10042633636E+02  0.66226086039E+02  0.41800000000E+01 0.  1.
         -5    1    3    3    0  502 -0.51180097952E+01  0.85630016110E+01 -0.14352723135E+03  0.14393421261E+03  0.41800000000E+01 0.  1.
        -11    1    1    2    0    0  0.13813315781E+02 -0.25593308887E+02 -0.17379975780E+03  0.17621629029E+03  0.00000000000E+00 0. -1.
         11    1    1    2    0    0  0.56384311830E+02  0.22705774355E+02 -0.65564150358E+02  0.89405819843E+02  0.00000000000E+00 0.  1.
</event>
<event>
 7    1  0.7017065E-006  0.1042616E+03  0.7561462E-02  0.1271581E+00
         -1   -1    0    0    0  501 -0.00000000000E+00  0.00000000000E+00  0.72410261517E+02  0.72410261517E+02  0.00000000000E+00 0.  1.
          1   -1    0    0  501    0  0.00000000000E+00 -0.00000000000E+00 -0.17915329777E+03  0.17915329777E+03  0.00000000000E+00 0. -1.
         23    2    1    2    0    0  0.18761844569E+02 -0.36594198427E+02 -0.74597018712E+02  0.15134026678E+03  0.12509204203E+03 0.  0.
          5    1    3    3  502    0 -0.47818341563E+02 -0.21071246002E+02 -0.62857193816E+02  0.81847971339E+02  0.41800000000E+01 0.  1.
         -5    1    3    3    0  502  0.66580186132E+02 -0.15522952425E+02 -0.11739824896E+02  0.69492295443E+02  0.41800000000E+01 0.  1.
        -11    1    1    2    0    0 -0.35697066555E+02  0.53084292581E+02 -0.49072683256E+01  0.64158428611E+02  0.00000000000E+00 0.  1.
         11    1    1    2    0    0  0.16935221986E+02 -0.16490094154E+02 -0.27238749214E+02  0.36064863894E+02  0.00000000000E+00 0. -1.
</event>
<event>
 7    1  0.7017065E-006  0.4917789E+02  0.7561462E-02  0.1449827E+00
          1   -1    0    0  501    0  0.00000000000E+00  0.00000000000E+00  0.34505138149E+02  0.34505138149E+02  0.00000000000E+00 0. -1.
         -1   -1    0    0    0  501 -0.00000000000E+00 -0.00000000000E+00 -0.56052810120E+03  0.56052810120E+03  0.00000000000E+00 0.  1.
         23    2    1    2    0    0 -0.27624959507E+02 -0.21321113503E+01 -0.46996261057E+03  0.48711477212E+03  0.12509301176E+03 0.  0.
          5    1    3    3  502    0 -0.29941783590E+02 -0.14259510248E+02 -0.47262917159E+03  0.47380971949E+03  0.41800000000E+01 0.  1.
         -5    1    3    3    0  502  0.23168240830E+01  0.12127398898E+02  0.26665610204E+01  0.13305052632E+02  0.41800000000E+01 0.  1.
        -11    1    1    2    0    0  0.27860454658E+02  0.19828703103E+02 -0.74736678450E+02  0.82188524176E+02  0.00000000000E+00 0.  1.
         11    1    1    2    0    0 -0.23549515094E+00 -0.17696591753E+02  0.18676325975E+02  0.25729943054E+02  0.00000000000E+00 0. -1.
</event>
<event>
 6    1  0.7017065E-006  0.1698225E+03  0.7561462E-02  0.1178033E+00
         -1   -1    0    0    0  501 -0.00000000000E+00  0.00000000000E+00  0.30037160068E+02  0.30037160068E+02  0.00000000000E+00 0.  1.
          1   -1    0    0  501    0  0.00000000000E+00 -0.00000000000E+00 -0.10959305220E+04  0.10959305220E+04  0.00000000000E+00 0. -1.
          5    1    1    2  502    0 -0.31370699167E+02 -0.73909397994E+01 -0.15744322298E+03  0.16076251932E+03  0.41800000000E+01 0. -1.
         -5    1    1    2    0  502  0.13662891876E+03 -0.67988170854E+02 -0.30567823421E+03  0.34168188142E+03  0.41800000000E+01 0.  1.
        -11    1    1    2    0    0 -0.58344478785E+02 -0.79171708943E+01 -0.30989312249E+03  0.31543700982E+03  0.00000000000E+00 0.  1.
         11    1    1    2    0    0 -0.46913740807E+02  0.83296281548E+02 -0.29287878222E+03  0.30808627148E+03  0.00000000000E+00 0. -1.
</event>
<event>
 7    1  0.7017065E-006  0.1271937E+03  0.7561462E-02  0.1231680E+00
          1   -1    0    0  501    0  0.00000000000E+00  0.00000000000E+00  0.63026854383E+03  0.63026854383E+03  0.00000000000E+00 0. -1.
         -1   -1    0    0    0  501 -0.00000000000E+00 -0.00000000000E+00 -0.40339035004E+02  0.40339035004E+02  0.00000000000E+00 0.  1.
         23    2    1    2    0    0 -0.51525338232E+02 -0.96743877003E+02  0.23254836077E+03  0.28590717179E+03  0.12509969051E+03 0.  0.
          5    1    3    3  502    0 -0.43357109348E+02 -0.97792413250E+02  0.81424450556E+02  0.13450133296E+03  0.41800000000E+01 0.  1.
         -5    1    3    3    0  502 -0.81682288847E+01  0.10485362478E+01  0.15112391022E+03  0.15140583883E+03  0.41800000000E+01 0.  1.
        -11    1    1    2    0    0 -0.19831417994E+02  0.47287288325E+02  0.18078455775E+03  0.18791601608E+03  0.00000000000E+00 0.  1.
         11    1    1    2    0    0  0.71356756226E+02  0.49456588678E+02  0.17659659030E+03  0.19678439097E+03  0.00000000000E+00 0. -1.
</event>
<event>
 7    1  0.7017065E-006  0.1113113E+03  0.7561462E-02  0.1258161E+00
          2   -1    0    0  501    0  0.00000000000E+00  0.00000000000E+00  0.27351268868E+03  0.27351268868E+03  0.00000000000E+00 0. -1.
         -2   -1    0    0    0  501 -0.00000000000E+00 -0.00000000000E+00 -0.86701452417E+02  0.86701452417E+02  0.00000000000E+00 0.  1.
         23    2    1    2    0    0  0.73377913403E+02  0.50460334690E+00  0.63246248454E+01  0.14516159903E+03  0.12508923276E+03 0.  0.
          5    1    3    3  502    0 -0.61885856198E+01  0.37141332754E+02  0.36315641762E+02  0.52479285697E+02  0.41800000000E+01 0.  1.
         -5    1    3    3    0  502  0.79566499023E+02 -0.36636729407E+02 -0.29991016917E+02  0.92682313329E+02  0.41800000000E+01 0.  1.
        -11    1    1    2    0    0 -0.11651575626E+02  0.27044007018E+02  0.12251202422E+03  0.12600132384E+03  0.00000000000E+00 0.  1.
         11    1    1    2    0    0 -0.61726337777E+02 -0.27548610365E+02  0.57974587200E+02  0.89051218236E+02  0.00000000000E+00 0. -1.
</event>
<event>
 7    1  0.7017065E-006  0.1895213E+03  0.7561462E-02  0.1158894E+00
          1   -1    0    0  501    0  0.00000000000E+00  0.00000000000E+00  0.11294881757E+04  0.11294881757E+04  0.00000000000E+00 0. -1.
         -1   -1    0    0    0  501 -0.00000000000E+00 -0.00000000000E+00 -0.44935626930E+02  0.44935626930E+02  0.00000000000E+00 0.  1.
         23    2    1    2    0    0  0.17336026912E+03  0.33024159935E+02  0.78218806254E+03  0.81154921050E+03  0.12509827275E+03 0.  0.
          5    1    3    3  502    0  0.14567011581E+03  0.42739104176E+01  0.73625967549E+03  0.75055568155E+03  0.41800000000E+01 0.  1.
         -5    1    3    3    0  502  0.27690153309E+02  0.28750249517E+02  0.45928387043E+02  0.60993528951E+02  0.41800000000E+01 0.  1.
        -11    1    1    2    0    0 -0.13202464787E+03  0.11300336662E+02  0.24926495689E+03  0.28229634073E+03  0.00000000000E+00 0. -1.
         11    1    1    2    0    0 -0.41335621245E+02 -0.44324496597E+02  0.53099529345E+02  0.80578251402E+02  0.00000000000E+00 0.  1.
</event>
<event>
 7    1  0.7017065E-006  0.1850096E+03  0.7561462E-02  0.1163041E+00
          1   -1    0    0  501    0  0.00000000000E+00  0.00000000000E+00  0.38217451300E+03  0.38217451300E+03  0.00000000000E+00 0. -1.
         -1   -1    0    0    0  501 -0.00000000000E+00 -0.00000000000E+00 -0.10429779791E+03  0.10429779791E+03  0.00000000000E+00 0.  1.
         23    2    1    2    0    0 -0.13972944520E+03  0.83290381050E+02  0.99915929128E+02  0.22824010928E+03  0.12509496057E+03 0.  0.
          5    1    3    3  502    0 -0.56926993777E+02 -0.28841919573E+02  0.17710390566E+02  0.66360148276E+02  0.41800000000E+01 0. -1.
         -5    1    3    3    0  502 -0.82802451421E+02  0.11213230062E+03  0.82205538562E+02  0.16187996100E+03  0.41800000000E+01 0. -1.
        -11    1    1    2    0    0  0.12033190261E+02  0.31149831623E+01 -0.94028005993E+01  0.15585680834E+02  0.00000000000E+00 0.  1.
         11    1    1    2    0    0  0.12769625494E+03 -0.86405364212E+02  0.18736358656E+03  0.24264652080E+03  0.00000000000E+00 0. -1.
</event>
<event>
 7    1  0.7017065E-006  0.8355201E+02  0.7561462E-02  0.1319263E+00
          3   -1    0    0  501    0  0.00000000000E+00  0.00000000000E+00  0.46948941082E+03  0.46948941082E+03  0.00000000000E+00 0. -1.
         -3   -1    0    0    0  501 -0.00000000000E+00 -0.00000000000E+00 -0.24387670313E+02  0.24387670313E+02  0.00000000000E+00 0.  1.
         23    2    1    2    0    0 -0.14868908027E+02  0.46707183257E+01  0.23166244702E+03  0.26373675234E+03  0.12508671049E+03 0.  0.
          5    1    3    3  502    0  0.40728426268E+02  0.62742345439E+01  0.18907790474E+03  0.19356161083E+03  0.41800000000E+01 0.  1.
         -5    1    3    3    0  502 -0.55597334295E+02 -0.16035162183E+01  0.42584542278E+02  0.70175141511E+02  0.41800000000E+01 0.  1.
        -11    1    1    2    0    0 -0.20443143279E+02  0.18581771117E+02  0.25811924159E+02  0.37808196912E+02  0.00000000000E+00 0.  1.
         11    1    1    2    0    0  0.35312051306E+02 -0.23252489442E+02  0.18762736933E+03  0.19233213188E+03  0.00000000000E+00 0. -1.
</event>
<event>
 7    1  0.7017065E-006  0.8578399E+02  0.7561462E-02  0.1313395E+00
          1   -1    0    0  501    0  0.00000000000E+00  0.00000000000E+00  0.15331033134E+03  0.15331033134E+03  0.00000000000E+00 0. -1.
         -1   -1    0    0    0  501 -0.00000000000E+00 -0.00000000000E+00 -0.11447725913E+03  0.11447725913E+03  0.00000000000E+00 0.  1.
         23    2    1    2    0    0 -0.54102408007E+02 -0.47085978317E+02  0.21107332881E+01  0.14420906059E+03  0.12509051944E+03 0.  0.
          5    1    3    3  502    0 -0.78633923991E+01  0.38980425710E+01 -0.54272534839E+02  0.55136268587E+02  0.41800000000E+01 0. -1.
         -5    1    3    3    0  502 -0.46239015608E+02 -0.50984020888E+02  0.56383268127E+02  0.89072792002E+02  0.41800000000E+01 0. -1.
        -11    1    1    2    0    0 -0.64626200669E+01  0.28959401343E+02  0.50781454395E+02  0.58814696248E+02  0.00000000000E+00 0. -1.
         11    1    1    2    0    0  0.60565028074E+02  0.18126576974E+02 -0.14059115471E+02  0.64763833628E+02  0.00000000000E+00 0.  1.
</event>
<event>
 7    1  0.7017065E-006  0.1111309E+03  0.7561462E-02  0.1258490E+00
          2   -1    0    0  501    0  0.00000000000E+00  0.00000000000E+00  0.56298390837E+02  0.56298390837E+02  0.00000000000E+00 0. -1.
         -2   -1    0    0    0  501 -0.00000000000E+00 -0.00000000000E+00 -0.30736477863E+03  0.30736477863E+03  0.00000000000E+00 0.  1.
         23    2    1    2    0    0  0.74500193727E+02  0.85027362661E+01 -0.14764761928E+03  0.20753576348E+03  0.12509475711E+03 0.  0.
          5    1    3    3  502    0 -0.12138342410E+02 -0.40320568110E+02 -0.67842358337E+02  0.79957148235E+02  0.41800000000E+01 0.  1.
         -5    1    3    3    0  502  0.86638536137E+02  0.48823304376E+02 -0.79805260944E+02  0.12757861525E+03  0.41800000000E+01 0.  1.
        -11    1    1    2    0    0 -0.86779727847E+01 -0.11634078164E+02 -0.87018423798E+02  0.88220547871E+02  0.00000000000E+00 0.  1.
         11    1    1    2    0    0 -0.65822220942E+02  0.31313418983E+01 -0.16400344710E+02  0.67906858110E+02  0.00000000000E+00 0. -1.
</event>
<event>
 7    1  0.7017065E-006  0.1053345E+03  0.7561462E-02  0.1269462E+00
          2   -1    0    0  501    0  0.00000000000E+00  0.00000000000E+00  0.75301442973E+02  0.75301442973E+02  0.00000000000E+00 0. -1.
         -2   -1    0    0    0  501 -0.00000000000E+00 -0.00000000000E+00 -0.19175102394E+03  0.19175102394E+03  0.00000000000E+00 0.  1.
         23    2    1    2    0    0 -0.28958665523E+02  0.17001107670E+02 -0.10971402936E+03  0.16974169279E+03  0.12508969607E+03 0.  0.
          5    1    3    3  502    0 -0.26590057153E+02  0.67191221639E+02 -0.37090593761E+02  0.81331887660E+02  0.41800000000E+01 0.  1.
         -5    1    3    3    0  502 -0.23686083703E+01 -0.50190113969E+02 -0.72623435594E+02  0.88409805131E+02  0.41800000000E+01 0.  1.
        -11    1    1    2    0    0  0.27384959628E+02 -0.48837919909E+02 -0.24161906911E+02  0.60982589158E+02  0.00000000000E+00 0.  1.
         11    1    1    2    0    0  0.15737058948E+01  0.31836812239E+02  0.17426355299E+02  0.36328184964E+02  0.00000000000E+00 0. -1.
</event>
<event>
 6    1  0.7017065E-006  0.2752858E+03  0.7561462E-02  0.1098292E+00
         -1   -1    0    0    0  501 -0.00000000000E+00  0.00000000000E+00  0.19271901656E+03  0.19271901656E+03  0.00000000000E+00 0.  1.
          1   -1    0    0  501    0  0.00000000000E+00 -0.00000000000E+00 -0.59587988076E+03  0.59587988076E+03  0.00000000000E+00 0. -1.
          5    1    1    2  502    0 -0.55054977546E+02  0.16553938071E+03 -0.28271289267E+03  0.33223243250E+03  0.41800000000E+01 0. -1.
         -5    1    1    2    0  502 -0.96351794093E+02 -0.17673605134E+03  0.54485034805E+02  0.20857946085E+03  0.41800000000E+01 0.  1.
        -11    1    1    2    0    0  0.12540304994E+02  0.31948295244E+02 -0.43998919184E+02  0.55801950752E+02  0.00000000000E+00 0.  1.
         11    1    1    2    0    0  0.13886646665E+03 -0.20751624617E+02 -0.13093408716E+03  0.19198505323E+03  0.00000000000E+00 0. -1.
</event>
<event>
 7    1  0.7017065E-006  0.1309981E+03  0.7561462E-02  0.1225982E+00
          1   -1    0    0  501    0  0.00000000000E+00  0.00000000000E+00  0.85958479000E+03  0.85958479000E+03  0.00000000000E+00 0. -1.
         -1   -1    0    0    0  501 -0.00000000000E+00 -0.00000000000E+00 -0.26899511188E+02  0.26899511188E+02  0.00000000000E+00 0.  1.
         23    2    1    2    0    0 -0.42343814635E+02  0.97336352944E+02  0.41608600078E+03  0.44726079799E+03  0.12508915673E+03 0.  0.
          5    1    3    3  502    0  0.75201928751E+01 -0.92598157935E+01 -0.20984555928E+01  0.12813017025E+02  0.41800000000E+01 0. -1.
         -5    1    3    3    0  502 -0.49864007510E+02  0.10659616874E+03  0.41818445637E+03  0.43444778096E+03  0.41800000000E+01 0. -1.
        -11    1    1    2    0    0  0.56390291936E+02 -0.32138266411E+02  0.13442194521E+03  0.14927153964E+03  0.00000000000E+00 0.  1.
         11    1    1    2    0    0 -0.14046477301E+02 -0.65198086533E+02  0.28217733282E+03  0.28995196356E+03  0.00000000000E+00 0. -1.
</event>
<event>
 7    1  0.7017065E-006  0.1070450E+03  0.7561462E-02  0.1266142E+00
          2   -1    0    0  501    0  0.00000000000E+00  0.00000000000E+00  0.34495987193E+03  0.34495987193E+03  0.00000000000E+00 0.  1.
         -2   -1    0    0    0  501 -0.00000000000E+00 -0.00000000000E+00 -0.57032701284E+02  0.57032701284E+02  0.00000000000E+00 0. -1.
         23    2    1    2    0    0  0.74030665733E+02 -0.20140873712E+02  0.90547232328E+02  0.17242893004E+03  0.12508693125E+03 0.  0.
          5    1    3    3  502    0 -0.48346520121E+01  0.37714406685E+02 -0.11811015951E+01  0.38270324439E+02  0.41800000000E+01 0. -1.
         -5    1    3    3    0  502  0.78865317745E+02 -0.57855280398E+02  0.91728333923E+02  0.13415860560E+03  0.41800000000E+01 0. -1.
        -11    1    1    2    0    0 -0.29560301175E+02  0.11515223791E+01  0.17281121735E+03  0.17532499609E+03  0.00000000000E+00 0.  1.
         11    1    1    2    0    0 -0.44470364558E+02  0.18989351333E+02  0.24568720963E+02  0.54238647086E+02  0.00000000000E+00 0. -1.
</event>
<event>
 7    1  0.7017065E-006  0.1290548E+03  0.7561462E-02  0.1228865E+00
          1   -1    0    0  501    0  0.00000000000E+00  0.00000000000E+00  0.37298183490E+02  0.37298183490E+02  0.00000000000E+00 0. -1.
         -1   -1    0    0    0  501 -0.00000000000E+00 -0.00000000000E+00 -0.61183456259E+03  0.61183456259E+03  0.00000000000E+00 0.  1.
         23    2    1    2    0    0  0.70973845858E+02  0.13099705429E+02 -0.46380138996E+03  0.48576497975E+03  0.12508795765E+03 0.  0.
          5    1    3    3  502    0  0.18795266331E+02 -0.54626861412E+02 -0.21426290791E+03  0.22195364861E+03  0.41800000000E+01 0. -1.
         -5    1    3    3    0  502  0.52178579527E+02  0.67726566841E+02 -0.24953848205E+03  0.26381133115E+03  0.41800000000E+01 0. -1.
        -11    1    1    2    0    0 -0.89247180352E+02 -0.25124388753E+02 -0.66753716591E+02  0.11424689400E+03  0.00000000000E+00 0. -1.
         11    1    1    2    0    0  0.18273334493E+02  0.12024683324E+02 -0.43981272548E+02  0.49120872320E+02  0.00000000000E+00 0.  1.
</event>
<event>
 7    1  0.7017065E-006  0.1242015E+03  0.7561462E-02  0.1236323E+00
          1   -1    0    0  501    0  0.00000000000E+00  0.00000000000E+00  0.11851603711E+03  0.11851603711E+03  0.00000000000E+00 0. -1.
         -1   -1    0    0    0  501 -0.00000000000E+00 -0.00000000000E+00 -0.14494635298E+03  0.14494635298E+03  0.00000000000E+00 0.  1.
         23    2    1    2    0    0 -0.43082079990E+02  0.43253054510E+02 -0.55620153770E+02  0.14988974298E+03  0.12508573541E+03 0.  0.
          5    1    3    3  502    0 -0.21808891046E+02 -0.43997031031E+02 -0.20037804753E+02  0.53201057203E+02  0.41800000000E+01 0.  1.
         -5    1    3    3    0  502 -0.21273188944E+02  0.87250085541E+02 -0.35582349017E+02  0.96688685772E+02  0.41800000000E+01 0.  1.
        -11    1    1    2    0    0  0.11601365288E+02  0.28549115455E+02  0.13373176384E+02  0.33592938490E+02  0.00000000000E+00 0. -1.
         11    1    1    2    0    0  0.31480714702E+02 -0.71802169965E+02  0.15816661518E+02  0.79979708623E+02  0.00000000000E+00 0.  1.
</event>
<event>
 7    1  0.7017065E-006  0.9112393E+02  0.7561462E-02  0.1300153E+00
          2   -1    0    0  501    0  0.00000000000E+00  0.00000000000E+00  0.54498259966E+02  0.54498259966E+02  0.00000000000E+00 0. -1.
         -2   -1    0    0    0  501 -0.00000000000E+00 -0.00000000000E+00 -0.28614805126E+03  0.28614805126E+03  0.00000000000E+00 0.  1.
         23    2    1    2    0    0  0.36618302759E+02 -0.25815604011E+02 -0.19384935295E+03  0.23501376116E+03  0.12508617344E+03 0.  0.
          5    1    3    3  502    0  0.27818163258E+02 -0.53361243040E+02 -0.27811146952E+02  0.66424428945E+02  0.41800000000E+01 0.  1.
         -5    1    3    3    0  502  0.88001395007E+01  0.27545639029E+02 -0.16603820600E+03  0.16858933221E+03  0.41800000000E+01 0.  1.
        -11    1    1    2    0    0 -0.49002191214E+02 -0.14039170637E+02 -0.26073885568E+01  0.51040293211E+02  0.00000000000E+00 0. -1.
         11    1    1    2    0    0  0.12383888455E+02  0.39854774648E+02 -0.35193049790E+02  0.54592256860E+02  0.00000000000E+00 0.  1.
</event>
<event>
 7    1  0.7017065E-006  0.1097631E+03  0.7561462E-02  0.1261009E+00
         -2   -1    0    0    0  501 -0.00000000000E+00  0.00000000000E+00  0.18213660246E+03  0.18213660246E+03  0.00000000000E+00 0.  1.
          2   -1    0    0  501    0  0.00000000000E+00 -0.00000000000E+00 -0.67410735288E+02  0.67410735288E+02  0.00000000000E+00 0. -1.
         23    2    1    2    0    0 -0.17073873545E+02 -0.15644147582E+02  0.68265205206E+02  0.14447305044E+03  0.12520410356E+03 0.  0.
          5    1    3    3  502    0 -0.67373389721E+02  0.10708680937E+02  0.49975575689E+02  0.84669239133E+02  0.41800000000E+01 0.  1.
         -5    1    3    3    0  502  0.50299516176E+02 -0.26352828519E+02  0.18289629516E+02  0.59803811302E+02  0.41800000000E+01 0.  1.
        -11    1    1    2    0    0  0.49773455669E+02 -0.12251401592E+02  0.24808572251E+02  0.56946984005E+02  0.00000000000E+00 0.  1.
         11    1    1    2    0    0 -0.32699582124E+02  0.27895549174E+02  0.21652089720E+02  0.48127303311E+02  0.00000000000E+00 0. -1.
</event>
<event>
 7    1  0.7017065E-006  0.1725958E+03  0.7561462E-02  0.1175168E+00
         -2   -1    0    0    0  501 -0.00000000000E+00  0.00000000000E+00  0.46361412186E+02  0.46361412186E+02  0.00000000000E+00 0.  1.
          2   -1    0    0  501    0  0.00000000000E+00 -0.00000000000E+00 -0.90637458997E+03  0.90637458997E+03  0.00000000000E+00 0. -1.
         23    2    1    2    0    0  0.14713936898E+03  0.39077104395E+02 -0.25583298718E+03  0.32291715884E+03  0.12509180688E+03 0.  0.
          5    1    3    3  502    0  0.20212622714E+02  0.37942876503E+02 -0.72871832651E+01  0.43803965965E+02  0.41800000000E+01 0.  1.
         -5    1    3    3    0  502  0.12692674626E+03  0.11342278921E+01 -0.24854580392E+03  0.27911319287E+03  0.41800000000E+01 0.  1.
        -11    1    1    2    0    0 -0.14669261766E+03 -0.56773222731E+02 -0.50040290923E+03  0.52454265266E+03  0.00000000000E+00 0.  1.
         11    1    1    2    0    0 -0.44675131971E+00  0.17696118335E+02 -0.10377728137E+03  0.10527619066E+03  0.00000000000E+00 0. -1.
</event>
<event>
 7    1  0.7017065E-006  0.1177179E+03  0.7561462E-02  0.1246910E+00
         -1   -1    0    0    0  501 -0.00000000000E+00  0.00000000000E+00  0.13317811235E+03  0.13317811235E+03  0.00000000000E+00 0.  1.
          1   -1    0    0  501    0  0.00000000000E+00 -0.00000000000E+00 -0.15218746389E+03  0.15218746389E+03  0.00000000000E+00 0. -1.
         23    2    1    2    0    0  0.15297462957E+02  0.95342647339E+02  0.14712841068E+02  0.14782966541E+03  0.11096355036E+03 0.  0.
          5    1    3    3  502    0  0.29747542682E+02  0.65939145545E+02 -0.40857873079E+02  0.83184886868E+02  0.41800000000E+01 0. -1.
         -5    1    3    3    0  502 -0.14450079725E+02  0.29403501795E+02  0.55570714147E+02  0.64644778541E+02  0.41800000000E+01 0.  1.
        -11    1    1    2    0    0  0.34809740744E+02 -0.57264875561E+02 -0.32763056183E+02  0.74594918554E+02  0.00000000000E+00 0.  1.
         11    1    1    2    0    0 -0.50107203701E+02 -0.38077771779E+02 -0.95913643123E+00  0.62940992279E+02  0.00000000000E+00 0. -1.
</event>
<event>
 7    1  0.7017065E-006  0.9341279E+02  0.7561462E-02  0.1294791E+00
          2   -1    0    0  501    0  0.00000000000E+00  0.00000000000E+00  0.46986708021E+03  0.46986708021E+03  0.00000000000E+00 0. -1.
         -2   -1    0    0    0  501 -0.00000000000E+00 -0.00000000000E+00 -0.36118495319E+02  0.36118495319E+02  0.00000000000E+00 0.  1.
         23    2    1    2    0    0 -0.42389250958E+02  0.61709837206E+02  0.22914692938E+03  0.27158983381E+03  0.12509104678E+03 0.  0.
          5    1    3    3  502    0 -0.90019943299E+01 -0.17449054711E+02  0.15992934634E+03  0.16118428470E+03  0.41800000000E+01 0.  1.
         -5    1    3    3    0  502 -0.33387256628E+02  0.79158891917E+02  0.69217583038E+02  0.11040554912E+03  0.41800000000E+01 0.  1.
        -11    1    1    2    0    0  0.38619880418E+02 -0.30259799472E+02  0.31240399922E+02  0.58164535715E+02  0.00000000000E+00 0.  1.
         11    1    1    2    0    0  0.37693705394E+01 -0.31450037734E+02  0.17336125559E+03  0.17623120600E+03  0.00000000000E+00 0. -1.
</event>
<event>
 7    1  0.7017065E-006  0.1011880E+03  0.7561462E-02  0.1277817E+00
         -2   -1    0    0    0  501 -0.00000000000E+00  0.00000000000E+00  0.11244319001E+03  0.11244319001E+03  0.00000000000E+00 0.  1.
          2   -1    0    0  501    0  0.00000000000E+00 -0.00000000000E+00 -0.12598046358E+03  0.12598046358E+03  0.00000000000E+00 0. -1.
         23    2    1    2    0    0  0.13400583396E+02 -0.21499492620E+02  0.34276345950E+02  0.13215152771E+03  0.12508938631E+03 0.  0.
          5    1    3    3  502    0 -0.91934047740E+01  0.48359506677E+02 -0.34032786822E+01  0.49519847367E+02  0.41800000000E+01 0. -1.
         -5    1    3    3    0  502  0.22593988170E+02 -0.69858999298E+02  0.37679624632E+02  0.82631680346E+02  0.41800000000E+01 0. -1.
        -11    1    1    2    0    0 -0.26769026568E+02 -0.21543441558E+02 -0.50544505328E+02  0.61118308848E+02  0.00000000000E+00 0. -1.
         11    1    1    2    0    0  0.13368443171E+02  0.43042934179E+02  0.27308858039E+01  0.45153817035E+02  0.00000000000E+00 0.  1.
</event>
<event>
 7    1  0.7017065E-006  0.9707027E+02  0.7561462E-02  0.1286580E+00
         -2   -1    0    0    0  501 -0.00000000000E+00  0.00000000000E+00  0.50241700042E+02  0.50241700042E+02  0.00000000000E+00 0.  1.
          2   -1    0    0  501    0  0.00000000000E+00 -0.00000000000E+00 -0.31226809561E+03  0.31226809561E+03  0.00000000000E+00 0. -1.
         23    2    1    2    0    0 -0.31797184914E+02  0.41697208353E+02 -0.10276603892E+03  0.17017427549E+03  0.12509479257E+03 0.  0.
          5    1    3    3  502    0 -0.34617812375E+02  0.69779044230E+02 -0.11513941216E+03  0.13907575123E+03  0.41800000000E+01 0. -1.
         -5    1    3    3    0  502  0.28206274618E+01 -0.28081835877E+02  0.12373373241E+02  0.31098524255E+02  0.41800000000E+01 0. -1.
        -11    1    1    2    0    0 -0.12026583667E+02 -0.42093317861E+02 -0.13568259226E+03  0.14257016506E+03  0.00000000000E+00 0. -1.
         11    1    1    2    0    0  0.43823768581E+02  0.39610950834E+00 -0.23577764389E+02  0.49765355107E+02  0.00000000000E+00 0.  1.
</event>
<event>
 7    1  0.7017065E-006  0.1226213E+03  0.7561462E-02  0.1238834E+00
          1   -1    0    0  501    0  0.00000000000E+00  0.00000000000E+00  0.22033187133E+03  0.22033187133E+03  0.00000000000E+00 0. -1.
         -1   -1    0    0    0  501 -0.00000000000E+00 -0.00000000000E+00 -0.84845197710E+02  0.84845197710E+02  0.00000000000E+00 0.  1.
         23    2    1    2    0    0 -0.84089049164E+02  0.18166047504E+02  0.91453004125E+02  0.17723954246E+03  0.12509688237E+03 0.  0.
          5    1    3    3  502    0 -0.22553519793E+02  0.51586364919E+02 -0.64233618576E+01  0.56820298117E+02  0.41800000000E+01 0.  1.
         -5    1    3    3    0  502 -0.61535529371E+02 -0.33420317415E+02  0.97876365982E+02  0.12041924435E+03  0.41800000000E+01 0.  1.
        -11    1    1    2    0    0  0.81865341213E+02  0.16823860110E+02  0.39970364587E+02  0.92642357516E+02  0.00000000000E+00 0. -1.
         11    1    1    2    0    0  0.22237079510E+01 -0.34989907614E+02  0.40633049038E+01  0.35295169055E+02  0.00000000000E+00 0.  1.
</event>
<event>
 7    1  0.7017065E-006  0.1457639E+03  0.7561462E-02  0.1205777E+00
          4   -1    0    0  501    0  0.00000000000E+00  0.00000000000E+00  0.10206046481E+03  0.10206046481E+03  0.00000000000E+00 0. -1.
         -4   -1    0    0    0  501 -0.00000000000E+00 -0.00000000000E+00 -0.23033053848E+03  0.23033053848E+03  0.00000000000E+00 0.  1.
         23    2    1    2    0    0 -0.89293763549E+02  0.52896211596E+02 -0.99571847466E+02  0.19061415956E+03  0.12509124513E+03 0.  0.
          5    1    3    3  502    0 -0.97852932964E+02  0.81981633664E+02 -0.96043153246E+02  0.15980595869E+03  0.41800000000E+01 0. -1.
         -5    1    3    3    0  502  0.85591694149E+01 -0.29085422067E+02 -0.35286942190E+01  0.30808200869E+02  0.41800000000E+01 0. -1.
        -11    1    1    2    0    0 -0.15989074331E+02 -0.15583107154E+01 -0.18046281010E+02  0.24160858605E+02  0.00000000000E+00 0.  1.
         11    1    1    2    0    0  0.10528283788E+03 -0.51337900881E+02 -0.10651945193E+02  0.11761598512E+03  0.00000000000E+00 0. -1.
</event>
<event>
 7    1  0.7017065E-006  0.1060037E+03  0.7561462E-02  0.1268155E+00
         -2   -1    0    0    0  501 -0.00000000000E+00  0.00000000000E+00  0.14874465916E+02  0.14874465916E+02  0.00000000000E+00 0.  1.
          2   -1    0    0  501    0  0.00000000000E+00 -0.00000000000E+00 -0.86315458681E+03  0.86315458681E+03  0.00000000000E+00 0. -1.
         23    2    1    2    0    0  0.29397861274E+02 -0.13676120975E+01 -0.52274447028E+03  0.53830755254E+03  0.12508850988E+03 0.  0.
          5    1    3    3  502    0  0.30737384758E+02 -0.58004919388E+02 -0.35932255343E+03  0.36529375481E+03  0.41800000000E+01 0.  1.
         -5    1    3    3    0  502 -0.13395234838E+01  0.56637307291E+02 -0.16342191685E+03  0.17301379774E+03  0.41800000000E+01 0.  1.
        -11    1    1    2    0    0 -0.17959933575E+02 -0.41412235274E+02 -0.23046148249E+03  0.23484042956E+03  0.00000000000E+00 0. -1.
         11    1    1    2    0    0 -0.11437927700E+02  0.42779847371E+02 -0.95074168123E+02  0.10488107062E+03  0.00000000000E+00 0.  1.
</event>
<event>
 7    1  0.7017065E-006  0.8525893E+02  0.7561462E-02  0.1314757E+00
         -2   -1    0    0    0  501 -0.00000000000E+00  0.00000000000E+00  0.13909806534E+03  0.13909806534E+03  0.00000000000E+00 0.  1.
          2   -1    0    0  501    0  0.00000000000E+00 -0.00000000000E+00 -0.10025119327E+03  0.10025119327E+03  0.00000000000E+00 0. -1.
         23    2    1    2    0    0  0.38814563408E+02  0.23176884575E+02  0.60288873626E+02  0.14603328150E+03  0.12508889924E+03 0.  0.
          5    1    3    3  502    0  0.84879101386E+01  0.46457609363E+02  0.87088039187E+02  0.99157213836E+02  0.41800000000E+01 0.  1.
         -5    1    3    3    0  502  0.30326653269E+02 -0.23280724788E+02 -0.26799165562E+02  0.46876067668E+02  0.41800000000E+01 0.  1.
        -11    1    1    2    0    0 -0.17699995967E+02  0.25813971639E+02  0.81063581242E+01  0.32332089803E+02  0.00000000000E+00 0.  1.
         11    1    1    2    0    0 -0.21114567441E+02 -0.48990856213E+02 -0.29548359683E+02  0.60983887304E+02  0.00000000000E+00 0. -1.
</event>
<event>
 7    1  0.7017065E-006  0.1412326E+03  0.7561462E-02  0.1211680E+00
         -2   -1    0    0    0  501 -0.00000000000E+00  0.00000000000E+00  0.18499295616E+03  0.18499295616E+03  0.00000000000E+00 0.  1.
          2   -1    0    0  501    0  0.00000000000E+00 -0.00000000000E+00 -0.18343744992E+03  0.18343744992E+03  0.00000000000E+00 0. -1.
         23    2    1    2    0    0  0.43946168866E+02  0.92149662395E+02  0.10952285808E+03  0.19510408530E+03  0.12509005405E+03 0.  0.
          5    1    3    3  502    0  0.77404516686E+02  0.35318044805E+02  0.26951392075E+02  0.89345808111E+02  0.41800000000E+01 0. -1.
         -5    1    3    3    0  502 -0.33458347821E+02  0.56831617590E+02  0.82571466003E+02  0.10575827719E+03  0.41800000000E+01 0. -1.
        -11    1    1    2    0    0 -0.14517479523E+02  0.14527453116E+02 -0.35610187078E+02  0.41108265951E+02  0.00000000000E+00 0.  1.
         11    1    1    2    0    0 -0.29428689343E+02 -0.10667711551E+03 -0.72357164754E+02  0.13221805482E+03  0.00000000000E+00 0. -1.
</event>
<event>
 7    1  0.7017065E-006  0.1500672E+03  0.7561462E-02  0.1200390E+00
          2   -1    0    0  501    0  0.00000000000E+00  0.00000000000E+00  0.61408016062E+02  0.61408016062E+02  0.00000000000E+00 0. -1.
         -2   -1    0    0    0  501 -0.00000000000E+00 -0.00000000000E+00 -0.40492867055E+03  0.40492867055E+03  0.00000000000E+00 0.  1.
         23    2    1    2    0    0  0.83879606274E+02 -0.61774872935E+02 -0.25283252683E+03  0.30070324530E+03  0.12508489851E+03 0.  0.
          5    1    3    3  502    0 -0.25541119596E+02 -0.44953534982E+02 -0.86215506674E+02  0.10061687278E+03  0.41800000000E+01 0.  1.
         -5    1    3    3    0  502  0.10942072587E+03 -0.16821337952E+02 -0.16661702015E+03  0.20008637251E+03  0.41800000000E+01 0.  1.
        -11    1    1    2    0    0  0.43021923313E+01  0.48040799127E+02 -0.21987566378E+02  0.53008304206E+02  0.00000000000E+00 0. -1.
         11    1    1    2    0    0 -0.88181798605E+02  0.13734073807E+02 -0.68700561287E+02  0.11262513711E+03  0.00000000000E+00 0.  1.
</event>
<event>
 7    1  0.7017065E-006  0.1136069E+03  0.7561462E-02  0.1254033E+00
         -1   -1    0    0    0  501 -0.00000000000E+00  0.00000000000E+00  0.10266823291E+03  0.10266823291E+03  0.00000000000E+00 0.  1.
          1   -1    0    0  501    0  0.00000000000E+00 -0.00000000000E+00 -0.24499225761E+03  0.24499225761E+03  0.00000000000E+00 0. -1.
         23    2    1    2    0    0 -0.69842134739E+02  0.51563296151E+02  0.10075870311E+02  0.15259546140E+03  0.12508858614E+03 0.  0.
          5    1    3    3  502    0 -0.80911210055E+02  0.39385180518E+02 -0.40849551346E+02  0.98913975768E+02  0.41800000000E+01 0.  1.
         -5    1    3    3    0  502  0.11069075316E+02  0.12178115633E+02  0.50925421657E+02  0.53681485632E+02  0.41800000000E+01 0.  1.
        -11    1    1    2    0    0 -0.19110261879E+02 -0.13486910372E+02 -0.18283958891E+02  0.29688415472E+02  0.00000000000E+00 0.  1.
         11    1    1    2    0    0  0.88952396618E+02 -0.38076385779E+02 -0.13411593613E+03  0.16537661365E+03  0.00000000000E+00 0. -1.
</event>
<event>
 7    1  0.7017065E-006  0.1453489E+03  0.7561462E-02  0.1206308E+00
         -2   -1    0    0    0  501 -0.00000000000E+00  0.00000000000E+00  0.28977182899E+02  0.28977182899E+02  0.00000000000E+00 0.  1.
          2   -1    0    0  501    0  0.00000000000E+00 -0.00000000000E+00 -0.94921190444E+03  0.94921190444E+03  0.00000000000E+00 0. -1.
         23    2    1    2    0    0  0.75128874908E+02  0.58176078380E+02 -0.27995277911E+03  0.32101660435E+03  0.12509715342E+03 0.  0.
          5    1    3    3  502    0  0.63139511876E+02  0.89086417627E+02 -0.26016369459E+03  0.28218009878E+03  0.41800000000E+01 0.  1.
         -5    1    3    3    0  502  0.11989363032E+02 -0.30910339247E+02 -0.19789084523E+02  0.38836505566E+02  0.41800000000E+01 0.  1.
        -11    1    1    2    0    0 -0.90693380846E+02 -0.30684199011E+01 -0.39869256528E+03  0.40888930793E+03  0.00000000000E+00 0. -1.
         11    1    1    2    0    0  0.15564505938E+02 -0.55107658479E+02 -0.24158937715E+03  0.24828317507E+03  0.00000000000E+00 0.  1.
</event>
<event>
 7    1  0.7017065E-006  0.3161804E+03  0.7561462E-02  0.1077421E+00
          4   -1    0    0  501    0  0.00000000000E+00  0.00000000000E+00  0.65670615192E+03  0.65670615192E+03  0.00000000000E+00 0. -1.
         -4   -1    0    0    0  501 -0.00000000000E+00 -0.00000000000E+00 -0.19524103262E+03  0.19524103262E+03  0.00000000000E+00 0.  1.
         23    2    1    2    0    0 -0.49738116846E+02  0.31139741355E+03  0.79829578630E+02  0.34851793601E+03  0.12509900344E+03 0.  0.
          5    1    3    3  502    0 -0.45305532799E+02  0.25950060706E+03  0.13127779405E+02  0.26378583616E+03  0.41800000000E+01 0. -1.
         -5    1    3    3    0  502 -0.44325840466E+01  0.51896806496E+02  0.66701799225E+02  0.84732099854E+02  0.41800000000E+01 0. -1.
        -11    1    1    2    0    0  0.47005469439E+02 -0.20925137585E+03  0.19124293099E+03  0.28734911016E+03  0.00000000000E+00 0.  1.
         11    1    1    2    0    0  0.27326474061E+01 -0.10214603770E+03  0.19039260968E+03  0.21608013838E+03  0.00000000000E+00 0. -1.
</event>
<event>
 7    1  0.7017065E-006  0.1756862E+03  0.7561462E-02  0.1172045E+00
         -1   -1    0    0    0  501 -0.00000000000E+00  0.00000000000E+00  0.23321881490E+02  0.23321881490E+02  0.00000000000E+00 0.  1.
          1   -1    0    0  501    0  0.00000000000E+00 -0.00000000000E+00 -0.15396437455E+04  0.15396437455E+04  0.00000000000E+00 0. -1.
         23    2    1    2    0    0 -0.14371549420E+03  0.47408701983E+02 -0.71421870005E+03  0.74071499004E+03  0.12509443102E+03 0.  0.
          5    1    3    3  502    0  0.20149144023E+01 -0.20061850786E+02 -0.22181137452E+03  0.22276511397E+03  0.41800000000E+01 0. -1.
         -5    1    3    3    0  502 -0.14573040861E+03  0.67470552770E+02 -0.49240732553E+03  0.51794987607E+03  0.41800000000E+01 0. -1.
        -11    1    1    2    0    0 -0.59788710569E+01 -0.16137065959E+02 -0.25696844543E+02  0.30927004645E+02  0.00000000000E+00 0.  1.
         11    1    1    2    0    0  0.14969436526E+03 -0.31271636024E+02 -0.77640631944E+03  0.79132363232E+03  0.00000000000E+00 0. -1.
</event>
<event>
 7    1  0.7017065E-006  0.9816749E+02  0.7561462E-02  0.1284197E+00
          2   -1    0    0  501    0  0.00000000000E+00  0.00000000000E+00  0.34676280859E+03  0.34676280859E+03  0.00000000000E+00 0.  1.
         -2   -1    0    0    0  501 -0.00000000000E+00 -0.00000000000E+00 -0.60983800625E+02  0.60983800625E+02  0.00000000000E+00 0. -1.
         23    2    1    2    0    0  0.73318175065E+01  0.26861032738E+02  0.25783600661E+02  0.13072250341E+03  0.12509319808E+03 0.  0.
          5    1    3    3  502    0 -0.43938953776E+02 -0.37050653962E+01 -0.26197743976E+02  0.51460211406E+02  0.41800000000E+01 0.  1.
         -5    1    3    3    0  502  0.51270771283E+02  0.30566098134E+02  0.51981344637E+02  0.79262292002E+02  0.41800000000E+01 0.  1.
        -11    1    1    2    0    0 -0.41594789488E+02  0.90536425775E+01  0.84108123245E+02  0.94267021552E+02  0.00000000000E+00 0. -1.
         11    1    1    2    0    0  0.34262971981E+02 -0.35914675315E+02  0.17588728406E+03  0.18275708426E+03  0.00000000000E+00 0.  1.
</event>
<event>
 7    1  0.7017065E-006  0.3635314E+03  0.7561462E-02  0.1057194E+00
         -1   -1    0    0    0  501 -0.00000000000E+00  0.00000000000E+00  0.23258514154E+03  0.23258514154E+03  0.00000000000E+00 0.  1.
          1   -1    0    0  501    0  0.00000000000E+00 -0.00000000000E+00 -0.71125040934E+03  0.71125040934E+03  0.00000000000E+00 0. -1.
         23    2    1    2    0    0  0.18774141128E+03 -0.31099616742E+03 -0.72427888408E+02  0.39096818542E+03  0.12507945210E+03 0.  0.
          5    1    3    3  502    0  0.13978672524E+03 -0.21707678125E+03 -0.10756981859E+03  0.27973450946E+03  0.41800000000E+01 0.  1.
         -5    1    3    3    0  502  0.47954686042E+02 -0.93919386167E+02  0.35141930184E+02  0.11123367596E+03  0.41800000000E+01 0.  1.
        -11    1    1    2    0    0 -0.68506698492E+02  0.10910437615E+03 -0.81921054559E+02  0.15266955103E+03  0.00000000000E+00 0.  1.
         11    1    1    2    0    0 -0.11923471279E+03  0.20189179127E+03 -0.32431632483E+03  0.40019781442E+03  0.00000000000E+00 0. -1.
</event>
<event>
 7    1  0.7017065E-006  0.8444794E+02  0.7561462E-02  0.1316883E+00
         -2   -1    0    0    0  501 -0.00000000000E+00  0.00000000000E+00  0.21937177730E+02  0.21937177730E+02  0.00000000000E+00 0.  1.
          2   -1    0    0  501    0  0.00000000000E+00 -0.00000000000E+00 -0.61708372124E+03  0.61708372124E+03  0.00000000000E+00 0. -1.
         23    2    1    2    0    0 -0.79914485738E+00  0.25114313635E+02 -0.25406210822E+03  0.28430151547E+03  0.12509368283E+03 0.  0.
          5    1    3    3  502    0 -0.20544494614E+02 -0.18560912431E+02 -0.24247236785E+01  0.28105789690E+02  0.41800000000E+01 0.  1.
         -5    1    3    3    0  502  0.19745349757E+02  0.43675226066E+02 -0.25163738454E+03  0.25619572578E+03  0.41800000000E+01 0.  1.
        -11    1    1    2    0    0  0.40951025032E+02 -0.32092415779E+02 -0.13572891574E+03  0.14535903195E+03  0.00000000000E+00 0.  1.
         11    1    1    2    0    0 -0.40151880175E+02  0.69781021436E+01 -0.20535551955E+03  0.20936035155E+03  0.00000000000E+00 0. -1.
</event>
<event>
 7    1  0.7017065E-006  0.1422004E+03  0.7561462E-02  0.1210398E+00
         -4   -1    0    0    0  501 -0.00000000000E+00  0.00000000000E+00  0.63478207207E+02  0.63478207207E+02  0.00000000000E+00 0.  1.
          4   -1    0    0  501    0  0.00000000000E+00 -0.00000000000E+00 -0.46018784383E+03  0.46018784383E+03  0.00000000000E+00 0. -1.
         23    2    1    2    0    0 -0.13672613463E+03  0.34689053562E+02 -0.21173295403E+03  0.28350542215E+03  0.12508842568E+03 0.  0.
          5    1    3    3  502    0 -0.10425833406E+03  0.19060913089E+02 -0.22180185684E+03  0.24585901392E+03  0.41800000000E+01 0.  1.
         -5    1    3    3    0  502 -0.32467800568E+02  0.15628140474E+02  0.10068902813E+02  0.37646408225E+02  0.41800000000E+01 0.  1.
        -11    1    1    2    0    0  0.11763531764E+03 -0.35718609275E+02 -0.11761616608E+03  0.17013950020E+03  0.00000000000E+00 0.  1.
         11    1    1    2    0    0  0.19090816989E+02  0.10295557126E+01 -0.67360516513E+02  0.70021128691E+02  0.00000000000E+00 0. -1.
</event>
<event>
 7    1  0.7017065E-006  0.2334248E+03  0.7561462E-02  0.1124252E+00
         -2   -1    0    0    0  501 -0.00000000000E+00  0.00000000000E+00  0.54539705372E+03  0.54539705372E+03  0.00000000000E+00 0.  1.
          2   -1    0    0  501    0  0.00000000000E+00 -0.00000000000E+00 -0.16456824295E+03  0.16456824295E+03  0.00000000000E+00 0. -1.
         23    2    1    2    0    0 -0.23052887893E+03  0.27360961585E+02  0.37690512986E+03  0.45999656907E+03  0.12508869015E+03 0.  0.
          5    1    3    3  502    0 -0.17058758173E+03  0.25550357075E+02  0.35727815097E+03  0.39675949056E+03  0.41800000000E+01 0.  1.
         -5    1    3    3    0  502 -0.59941297202E+02  0.18106045102E+01  0.19626978891E+02  0.63237078517E+02  0.41800000000E+01 0.  1.
        -11    1    1    2    0    0  0.92115983466E+02  0.42639668083E+01  0.44378920246E+02  0.10233779549E+03  0.00000000000E+00 0.  1.
         11    1    1    2    0    0  0.13841289547E+03 -0.31624928394E+02 -0.40455239326E+02  0.14763093211E+03  0.00000000000E+00 0. -1.
</event>
<event>
 7    1  0.7017065E-006  0.1072045E+03  0.7561462E-02  0.1265836E+00
          2   -1    0    0  501    0  0.00000000000E+00  0.00000000000E+00  0.15151961751E+03  0.15151961751E+03  0.00000000000E+00 0.  1.
         -2   -1    0    0    0  501 -0.00000000000E+00 -0.00000000000E+00 -0.78363357762E+02  0.78363357762E+02  0.00000000000E+00 0. -1.
         23    2    1    2    0    0 -0.22611306312E+02 -0.17112891861E+02  0.36339562626E+02  0.13331274367E+03  0.12509037362E+03 0.  0.
          5    1    3    3  502    0  0.16326354422E+01  0.53306817792E+02  0.11746956420E+02  0.54769934332E+02  0.41800000000E+01 0. -1.
         -5    1    3    3    0  502 -0.24243941754E+02 -0.70419709653E+02  0.24592606205E+02  0.78542809342E+02  0.41800000000E+01 0. -1.
        -11    1    1    2    0    0 -0.21289547917E+02  0.33305247611E+02  0.46776452983E+01  0.39804079370E+02  0.00000000000E+00 0. -1.
         11    1    1    2    0    0  0.43900854229E+02 -0.16192355750E+02  0.32139051824E+02  0.56766152229E+02  0.00000000000E+00 0.  1.
</event>
<event>
 7    1  0.7017065E-006  0.8270002E+02  0.7561462E-02  0.1321559E+00
          1   -1    0    0  501    0  0.00000000000E+00  0.00000000000E+00  0.94750620905E+02  0.94750620905E+02  0.00000000000E+00 0. -1.
         -1   -1    0    0    0  501 -0.00000000000E+00 -0.00000000000E+00 -0.13597041669E+03  0.13597041669E+03  0.00000000000E+00 0.  1.
         23    2    1    2    0    0 -0.41282975029E+01  0.89198457275E+01 -0.57826630425E+02  0.13815118305E+03  0.12508086865E+03 0.  0.
          5    1    3    3  502    0 -0.48085365929E+02  0.43177470101E+02 -0.49793123737E+02  0.81690415058E+02  0.41800000000E+01 0.  1.
         -5    1    3    3    0  502  0.43957068426E+02 -0.34257624374E+02 -0.80335066879E+01  0.56460767990E+02  0.41800000000E+01 0.  1.
        -11    1    1    2    0    0 -0.16093875928E+02 -0.16600515058E+02  0.48675303026E+02  0.53887615156E+02  0.00000000000E+00 0. -1.
         11    1    1    2    0    0  0.20222173431E+02  0.76806693303E+01 -0.32068468386E+02  0.38682239391E+02  0.00000000000E+00 0.  1.
</event>
<event>
 7    1  0.7017065E-006  0.1043575E+03  0.7561462E-02  0.1271391E+00
         -2   -1    0    0    0  501 -0.00000000000E+00  0.00000000000E+00  0.99118047412E+02  0.99118047412E+02  0.00000000000E+00 0.  1.
          2   -1    0    0  501    0  0.00000000000E+00 -0.00000000000E+00 -0.17496199402E+03  0.17496199402E+03  0.00000000000E+00 0. -1.
         23    2    1    2    0    0  0.47460772563E+02 -0.30870233792E+02  0.76847666230E+01  0.13752061014E+03  0.12508943324E+03 0.  0.
          5    1    3    3  502    0  0.77007310328E+02 -0.53495659618E+02  0.23679773971E+02  0.96799357112E+02  0.41800000000E+01 0.  1.
         -5    1    3    3    0  502 -0.29546537766E+02  0.22625425826E+02 -0.15995007348E+02  0.40721253024E+02  0.41800000000E+01 0.  1.
        -11    1    1    2    0    0 -0.55458293833E+01 -0.14569323827E+02 -0.72007656936E+02  0.73675803882E+02  0.00000000000E+00 0. -1.
         11    1    1    2    0    0 -0.41914943179E+02  0.45439557620E+02 -0.11521056294E+02  0.62883627412E+02  0.00000000000E+00 0.  1.
</event>
<event>
 7    1  0.7017065E-006  0.2030672E+03  0.7561462E-02  0.1147177E+00
          2   -1    0    0  501    0  0.00000000000E+00  0.00000000000E+00  0.75152304842E+03  0.75152304842E+03  0.00000000000E+00 0. -1.
         -2   -1    0    0    0  501 -0.00000000000E+00 -0.00000000000E+00 -0.71932714152E+02  0.71932714152E+02  0.00000000000E+00 0.  1.
         23    2    1    2    0    0  0.16475918808E+02  0.18963237547E+03  0.21662506590E+03  0.31432722369E+03  0.12507314119E+03 0.  0.
          5    1    3    3  502    0  0.37459859361E+02  0.18834443093E+03  0.14814895475E+03  0.24257462959E+03  0.41800000000E+01 0. -1.
         -5    1    3    3    0  502 -0.20983940552E+02  0.12879445473E+01  0.68476111149E+02  0.71752594102E+02  0.41800000000E+01 0. -1.
        -11    1    1    2    0    0 -0.20892640457E+02 -0.73703884239E+02  0.88235697928E+02  0.11685162971E+03  0.00000000000E+00 0.  1.
         11    1    1    2    0    0  0.44167216484E+01 -0.11592849124E+03  0.37472957044E+03  0.39227690917E+03  0.00000000000E+00 0. -1.
</event>
<event>
 7    1  0.7017065E-006  0.1021219E+03  0.7561462E-02  0.1275896E+00
         -3   -1    0    0    0  501 -0.00000000000E+00  0.00000000000E+00  0.11219850272E+03  0.11219850272E+03  0.00000000000E+00 0.  1.
          3   -1    0    0  501    0  0.00000000000E+00 -0.00000000000E+00 -0.14254452550E+03  0.14254452550E+03  0.00000000000E+00 0. -1.
         23    2    1    2    0    0 -0.46720607669E+02  0.38164014585E+02  0.30371403604E+01  0.13890921079E+03  0.12508891810E+03 0.  0.
          5    1    3    3  502    0 -0.63662049628E+02  0.10450193936E+02 -0.46422263062E+02  0.79589961829E+02  0.41800000000E+01 0.  1.
         -5    1    3    3    0  502  0.16941441959E+02  0.27713820650E+02  0.49459403422E+02  0.59319248963E+02  0.41800000000E+01 0.  1.
        -11    1    1    2    0    0  0.56616585250E+02 -0.60229364025E+02 -0.11952831544E+02  0.83521758830E+02  0.00000000000E+00 0.  1.
         11    1    1    2    0    0 -0.98959775807E+01  0.22065349440E+02 -0.21430331603E+02  0.32312058597E+02  0.00000000000E+00 0. -1.
</event>
<event>
 7    1  0.7017065E-006  0.1494712E+03  0.7561462E-02  0.1201124E+00
          1   -1    0    0  501    0  0.00000000000E+00  0.00000000000E+00  0.59469692565E+03  0.59469692565E+03  0.00000000000E+00 0. -1.
         -1   -1    0    0    0  501 -0.00000000000E+00 -0.00000000000E+00 -0.43218251568E+02  0.43218251568E+02  0.00000000000E+00 0.  1.
         23    2    1    2    0    0 -0.17570680340E+02  0.12653650464E+03  0.33812508111E+03  0.38248671921E+03  0.12508918451E+03 0.  0.
          5    1    3    3  502    0  0.40968328272E+02  0.43823807093E+02  0.54072189651E+02  0.80871528261E+02  0.41800000000E+01 0.  1.
         -5    1    3    3    0  502 -0.58539008612E+02  0.82712697545E+02  0.28405289146E+03  0.30161519095E+03  0.41800000000E+01 0.  1.
        -11    1    1    2    0    0 -0.17602026424E+02 -0.32027777007E+02  0.35349725866E+02  0.50844989458E+02  0.00000000000E+00 0.  1.
         11    1    1    2    0    0  0.35172706763E+02 -0.94508727631E+02  0.17800386710E+03  0.20458346855E+03  0.00000000000E+00 0. -1.
</event>
<event>
 6    1  0.7017065E-006  0.1263895E+03  0.7561462E-02  0.1232914E+00
          1   -1    0    0  501    0  0.00000000000E+00  0.00000000000E+00  0.14266705767E+03  0.14266705767E+03  0.00000000000E+00 0. -1.
         -1   -1    0    0    0  501 -0.00000000000E+00 -0.00000000000E+00 -0.72350772990E+03  0.72350772990E+03  0.00000000000E+00 0.  1.
          5    1    1    2  502    0  0.15473504679E+01  0.92892774049E+02 -0.24624450378E+03  0.26322099044E+03  0.41800000000E+01 0. -1.
         -5    1    1    2    0  502 -0.39799615987E+02 -0.37697991367E+02 -0.44331562285E+03  0.44671172119E+03  0.41800000000E+01 0.  1.
        -11    1    1    2    0    0  0.60344484937E+02 -0.20618916372E+02  0.37306261153E+02  0.73880672005E+02  0.00000000000E+00 0.  1.
         11    1    1    2    0    0 -0.22092219418E+02 -0.34575866309E+02  0.71413193248E+02  0.82361403944E+02  0.00000000000E+00 0. -1.
</event>
<event>
 7    1  0.7017065E-006  0.2022374E+03  0.7561462E-02  0.1147865E+00
          2   -1    0    0  501    0  0.00000000000E+00  0.00000000000E+00  0.99164180067E+03  0.99164180067E+03  0.00000000000E+00 0. -1.
         -2   -1    0    0    0  501 -0.00000000000E+00 -0.00000000000E+00 -0.74292249102E+02  0.74292249102E+02  0.00000000000E+00 0.  1.
         23    2    1    2    0    0  0.10478730233E+03  0.13627888855E+03  0.11795136988E+03  0.24312996410E+03  0.12508932645E+03 0.  0.
          5    1    3    3  502    0  0.12614866221E+03  0.79227472980E+02  0.10006376045E+03  0.17950127022E+03  0.41800000000E+01 0. -1.
         -5    1    3    3    0  502 -0.21361359881E+02  0.57051415566E+02  0.17887609429E+02  0.63628693882E+02  0.41800000000E+01 0. -1.
        -11    1    1    2    0    0 -0.33630462147E+02 -0.11544662489E+03  0.52171641563E+03  0.53539420012E+03  0.00000000000E+00 0. -1.
         11    1    1    2    0    0 -0.71156840186E+02 -0.20832263651E+02  0.27768176605E+03  0.28740988555E+03  0.00000000000E+00 0.  1.
</event>
<event>
 7    1  0.7017065E-006  0.1689412E+03  0.7561462E-02  0.1178957E+00
         -3   -1    0    0    0  501 -0.00000000000E+00  0.00000000000E+00  0.87734509441E+02  0.87734509441E+02  0.00000000000E+00 0.  1.
          3   -1    0    0  501    0  0.00000000000E+00 -0.00000000000E+00 -0.42239797575E+03  0.42239797575E+03  0.00000000000E+00 0. -1.
         23    2    1    2    0    0  0.61104832154E+02 -0.13079515301E+03 -0.88711721092E+02  0.21061391056E+03  0.12508907746E+03 0.  0.
          5    1    3    3  502    0 -0.34864748430E+02 -0.67167896138E+02 -0.35939011016E+02  0.83881832762E+02  0.41800000000E+01 0. -1.
         -5    1    3    3    0  502  0.95969580584E+02 -0.63627256873E+02 -0.52772710076E+02  0.12673207780E+03  0.41800000000E+01 0. -1.
        -11    1    1    2    0    0 -0.33073345170E+02  0.99506858425E+02 -0.90569792058E+02  0.13855810430E+03  0.00000000000E+00 0.  1.
         11    1    1    2    0    0 -0.28031486984E+02  0.31288294587E+02 -0.15538195316E+03  0.16096047032E+03  0.00000000000E+00 0. -1.
</event>
<event>
 7    1  0.7017065E-006  0.1298992E+03  0.7561462E-02  0.1227605E+00
         -1   -1    0    0    0  501 -0.00000000000E+00  0.00000000000E+00  0.33886200554E+02  0.33886200554E+02  0.00000000000E+00 0.  1.
          1   -1    0    0  501    0  0.00000000000E+00 -0.00000000000E+00 -0.56305662385E+03  0.56305662385E+03  0.00000000000E+00 0. -1.
         23    2    1    2    0    0 -0.42208542643E+02  0.66394195660E+02 -0.35374801046E+03  0.38337378145E+03  0.12509217046E+03 0.  0.
          5    1    3    3  502    0 -0.14605879936E+02  0.96191203324E+02 -0.17751652113E+03  0.20247386745E+03  0.41800000000E+01 0.  1.
         -5    1    3    3    0  502 -0.27602662707E+02 -0.29797007663E+02 -0.17623148933E+03  0.18089991400E+03  0.41800000000E+01 0.  1.
        -11    1    1    2    0    0 -0.29648324293E+02 -0.24062138062E+02 -0.61323084061E+02  0.72239395486E+02  0.00000000000E+00 0. -1.
         11    1    1    2    0    0  0.71856866936E+02 -0.42332057598E+02 -0.11409932877E+03  0.14132964746E+03  0.00000000000E+00 0.  1.
</event>
<event>
 7    1  0.7017065E-006  0.1301612E+03  0.7561462E-02  0.1227217E+00
          2   -1    0    0  501    0  0.00000000000E+00  0.00000000000E+00  0.31011817787E+03  0.31011817787E+03  0.00000000000E+00 0.  1.
         -2   -1    0    0    0  501 -0.00000000000E+00 -0.00000000000E+00 -0.70371672702E+02  0.70371672702E+02  0.00000000000E+00 0. -1.
         23    2    1    2    0    0  0.95458385762E+02 -0.14804847052E+02  0.88215209505E+02  0.18099870820E+03  0.12508845779E+03 0.  0.
          5    1    3    3  502    0  0.80097728693E+02  0.40047860479E+02  0.19680033631E+02  0.91783731643E+02  0.41800000000E+01 0. -1.
         -5    1    3    3    0  502  0.15360657070E+02 -0.54852707531E+02  0.68535175874E+02  0.89214976552E+02  0.41800000000E+01 0. -1.
        -11    1    1    2    0    0 -0.59232345036E+02  0.38155407478E+02  0.42579925840E+02  0.82324698012E+02  0.00000000000E+00 0. -1.
         11    1    1    2    0    0 -0.36226040727E+02 -0.23350560426E+02  0.10895136982E+03  0.11716644437E+03  0.00000000000E+00 0.  1.
</event>
<event>
 7    1  0.7017065E-006  0.1171778E+03  0.7561462E-02  0.1247827E+00
          2   -1    0    0  501    0  0.00000000000E+00  0.00000000000E+00  0.48220987130E+03  0.48220987130E+03  0.00000000000E+00 0. -1.
         -2   -1    0    0    0  501 -0.00000000000E+00 -0.00000000000E+00 -0.29737591575E+02  0.29737591575E+02  0.00000000000E+00 0.  1.
         23    2    1    2    0    0 -0.24995541384E+02 -0.38724200065E+02  0.21905747989E+03  0.25643350010E+03  0.12509044614E+03 0.  0.
          5    1    3    3  502    0 -0.70912339200E+02 -0.48309371350E+02  0.13294067572E+03  0.15828155569E+03  0.41800000000E+01 0. -1.
         -5    1    3    3    0  502  0.45916797816E+02  0.95851712847E+01  0.86116804174E+02  0.98151944410E+02  0.41800000000E+01 0. -1.
        -11    1    1    2    0    0 -0.20149356867E+01  0.64197781948E+02  0.11901914836E+03  0.13524412316E+03  0.00000000000E+00 0.  1.
         11    1    1    2    0    0  0.27010477071E+02 -0.25473581882E+02  0.11439565147E+03  0.12026983961E+03  0.00000000000E+00 0. -1.
</event>
<event>
 7    1  0.7017065E-006  0.9130247E+02  0.7561462E-02  0.1299728E+00
          1   -1    0    0  501    0  0.00000000000E+00  0.00000000000E+00  0.10101789004E+03  0.10101789004E+03  0.00000000000E+00 0. -1.
         -1   -1    0    0    0  501 -0.00000000000E+00 -0.00000000000E+00 -0.13739459940E+03  0.13739459940E+03  0.00000000000E+00 0.  1.
         23    2    1    2    0    0  0.51498318595E+01 -0.43427456996E+02 -0.32743756277E+02  0.13650166322E+03  0.12509230871E+03 0.  0.
          5    1    3    3  502    0 -0.34285385273E+01  0.18422913298E+02 -0.63807856947E+02  0.66633877412E+02  0.41800000000E+01 0.  1.
         -5    1    3    3    0  502  0.85783703868E+01 -0.61850370294E+02  0.31064100669E+02  0.69867785813E+02  0.41800000000E+01 0.  1.
        -11    1    1    2    0    0 -0.46465921618E+02  0.96510405793E+01 -0.89042687566E+01  0.48285716916E+02  0.00000000000E+00 0.  1.
         11    1    1    2    0    0  0.41316089758E+02  0.33776416416E+02  0.52713156788E+01  0.53625109304E+02  0.00000000000E+00 0. -1.
</event>
<event>
 7    1  0.7017065E-006  0.9662514E+02  0.7561462E-02  0.1287557E+00
          4   -1    0    0  501    0  0.00000000000E+00  0.00000000000E+00  0.21147593923E+03  0.21147593923E+03  0.00000000000E+00 0. -1.
         -4   -1    0    0    0  501 -0.00000000000E+00 -0.00000000000E+00 -0.63722043556E+02  0.63722043556E+02  0.00000000000E+00 0.  1.
         23    2    1    2    0    0 -0.41290293723E+02 -0.24210939709E+02  0.51519297997E+02  0.14350424707E+03  0.12509265727E+03 0.  0.
          5    1    3    3  502    0 -0.64153634601E+02 -0.46841011234E+02  0.70182318036E+02  0.10607921253E+03  0.41800000000E+01 0. -1.
         -5    1    3    3    0  502  0.22863340878E+02  0.22630071525E+02 -0.18663020038E+02  0.37425034540E+02  0.41800000000E+01 0. -1.
        -11    1    1    2    0    0  0.50888635859E+02 -0.44098860706E+01  0.85611562149E+02  0.99691724473E+02  0.00000000000E+00 0.  1.
         11    1    1    2    0    0 -0.95983421363E+01  0.28620825780E+02  0.10623035533E+02  0.32002011249E+02  0.00000000000E+00 0. -1.
</event>
<event>
 7    1  0.7017065E-006  0.5258859E+02  0.7561462E-02  0.1431859E+00
          1   -1    0    0  501    0  0.00000000000E+00  0.00000000000E+00  0.72665442432E+02  0.72665442432E+02  0.00000000000E+00 0. -1.
         -1   -1    0    0    0  501 -0.00000000000E+00 -0.00000000000E+00 -0.24920335636E+03  0.24920335636E+03  0.00000000000E+00 0.  1.
         23    2    1    2    0    0 -0.54842652550E+01 -0.48313844111E+02 -0.17254539510E+03  0.21859383383E+03  0.12508815339E+03 0.  0.
          5    1    3    3  502    0  0.28038497002E+01 -0.46484494971E+02 -0.97867041761E+00  0.46766441405E+02  0.41800000000E+01 0. -1.
         -5    1    3    3    0  502 -0.82881149552E+01 -0.18293491402E+01 -0.17156672469E+03  0.17182739243E+03  0.41800000000E+01 0. -1.
        -11    1    1    2    0    0  0.14077903426E+01  0.35176369693E+02 -0.46656601541E+02  0.58448244848E+02  0.00000000000E+00 0.  1.
         11    1    1    2    0    0  0.40764749124E+01  0.13137474419E+02  0.42664082720E+02  0.44826720113E+02  0.00000000000E+00 0. -1.
</event>
<event>
 7    1  0.7017065E-006  0.1493232E+03  0.7561462E-02  0.1201307E+00
          2   -1    0    0  501    0  0.00000000000E+00  0.00000000000E+00  0.16206433802E+03  0.16206433802E+03  0.00000000000E+00 0. -1.
         -2   -1    0    0    0  501 -0.00000000000E+00 -0.00000000000E+00 -0.21588729598E+03  0.21588729598E+03  0.00000000000E+00 0.  1.
         23    2    1    2    0    0  0.29462000440E+02  0.13817095928E+03 -0.84284670384E+02  0.20666626854E+03  0.12509123644E+03 0.  0.
          5    1    3    3  502    0  0.51468517948E+02  0.94120434599E+02 -0.10762406379E+03  0.15201340748E+03  0.41800000000E+01 0. -1.
         -5    1    3    3    0  502 -0.22006517508E+02  0.44050524685E+02  0.23339393401E+02  0.54652861062E+02  0.41800000000E+01 0. -1.
        -11    1    1    2    0    0  0.93193186005E+00 -0.14184814655E+02 -0.27599007347E+02  0.31044849337E+02  0.00000000000E+00 0.  1.
         11    1    1    2    0    0 -0.30393932300E+02 -0.12398614463E+03  0.58060719776E+02  0.14024051612E+03  0.00000000000E+00 0. -1.
</event>
<event>
 7    1  0.7017065E-006  0.8244769E+02  0.7561462E-02  0.1322245E+00
         -4   -1    0    0    0  501 -0.00000000000E+00  0.00000000000E+00  0.59243141105E+02  0.59243141105E+02  0.00000000000E+00 0.  1.
          4   -1    0    0  501    0  0.00000000000E+00 -0.00000000000E+00 -0.27356906712E+03  0.27356906712E+03  0.00000000000E+00 0. -1.
         23    2    1    2    0    0 -0.23114901541E+02 -0.37464004811E+02 -0.66391003632E+02  0.14830298970E+03  0.12509260994E+03 0.  0.
          5    1    3    3  502    0 -0.25165214458E+02 -0.88923291263E+01  0.34226585842E+02  0.43603819952E+02  0.41800000000E+01 0.  1.
         -5    1    3    3    0  502  0.20503129170E+01 -0.28571675685E+02 -0.10061758947E+03  0.10469916975E+03  0.41800000000E+01 0.  1.
        -11    1    1    2    0    0 -0.78427243042E+01 -0.31965101648E+02 -0.58581138506E+02  0.67193941963E+02  0.00000000000E+00 0.  1.
         11    1    1    2    0    0  0.30957625845E+02  0.69429106459E+02 -0.89353783873E+02  0.11731527656E+03  0.00000000000E+00 0. -1.
</event>
<event>
 7    1  0.7017065E-006  0.5342635E+02  0.7561462E-02  0.1427691E+00
          3   -1    0    0  501    0  0.00000000000E+00  0.00000000000E+00  0.28084278557E+03  0.28084278557E+03  0.00000000000E+00 0.  1.
         -3   -1    0    0    0  501 -0.00000000000E+00 -0.00000000000E+00 -0.59913292912E+02  0.59913292912E+02  0.00000000000E+00 0. -1.
         23    2    1    2    0    0 -0.20978490477E+02  0.41599047825E+02  0.51794878245E+02  0.14318052297E+03  0.12508946760E+03 0.  0.
          5    1    3    3  502    0 -0.21205565844E+02  0.34627350876E+02  0.92797972144E+02  0.10137882168E+03  0.41800000000E+01 0.  1.
         -5    1    3    3    0  502  0.22707536689E+00  0.69716969498E+01 -0.41003093899E+02  0.41801701292E+02  0.41800000000E+01 0.  1.
        -11    1    1    2    0    0  0.30600958850E+02 -0.30362953922E+02  0.17604618791E+03  0.18124731152E+03  0.00000000000E+00 0.  1.
         11    1    1    2    0    0 -0.96224683729E+01 -0.11236093904E+02 -0.69115734960E+01  0.16328243996E+02  0.00000000000E+00 0. -1.
</event>
<event>
 7    1  0.7017065E-006  0.9041560E+02  0.7561462E-02  0.1301848E+00
         -1   -1    0    0    0  501 -0.00000000000E+00  0.00000000000E+00  0.62614811895E+03  0.62614811895E+03  0.00000000000E+00 0.  1.
          1   -1    0    0  501    0  0.00000000000E+00 -0.00000000000E+00 -0.26157091430E+02  0.26157091430E+02  0.00000000000E+00 0. -1.
         23    2    1    2    0    0 -0.14341486635E+02 -0.30238839777E+02  0.47502293349E+03  0.49235602082E+03  0.12509036024E+03 0.  0.
          5    1    3    3  502    0  0.21155289323E+02 -0.63209581333E+02  0.37772054538E+03  0.38357956181E+03  0.41800000000E+01 0. -1.
         -5    1    3    3    0  502 -0.35496775958E+02  0.32970741556E+02  0.97302388118E+02  0.10877645901E+03  0.41800000000E+01 0. -1.
        -11    1    1    2    0    0 -0.19834247307E+02  0.75027239865E-01 -0.64446824649E+01  0.20855141510E+02  0.00000000000E+00 0. -1.
         11    1    1    2    0    0  0.34175733941E+02  0.30163812537E+02  0.13141277649E+03  0.13909404804E+03  0.00000000000E+00 0.  1.
</event>
<event>
 7    1  0.7017065E-006  0.8591532E+02  0.7561462E-02  0.1313056E+00
          2   -1    0    0  501    0  0.00000000000E+00  0.00000000000E+00  0.21537264020E+02  0.21537264020E+02  0.00000000000E+00 0. -1.
         -2   -1    0    0    0  501 -0.00000000000E+00 -0.00000000000E+00 -0.69185630127E+03  0.69185630127E+03  0.00000000000E+00 0.  1.
         23    2    1    2    0    0  0.10131284077E+02 -0.55309796498E+02 -0.37794606664E+03  0.40205928568E+03  0.12508646375E+03 0.  0.
          5    1    3    3  502    0 -0.18907935970E+02 -0.40979690268E+02 -0.36356838234E+03  0.36638270441E+03  0.41800000000E+01 0.  1.
         -5    1    3    3    0  502  0.29039220047E+02 -0.14330106229E+02 -0.14377684300E+02  0.35676581273E+02  0.41800000000E+01 0.  1.
        -11    1    1    2    0    0  0.22113353606E+02  0.57430315952E+02 -0.10932552460E+03  0.12545641445E+03  0.00000000000E+00 0. -1.
         11    1    1    2    0    0 -0.32244637683E+02 -0.21205194539E+01 -0.18304744602E+03  0.18587786516E+03  0.00000000000E+00 0.  1.
</event>
<event>
 7    1  0.7017065E-006  0.1200601E+03  0.7561462E-02  0.1242998E+00
          2   -1    0    0  501    0  0.00000000000E+00  0.00000000000E+00  0.21192530190E+03  0.21192530190E+03  0.00000000000E+00 0. -1.
         -2   -1    0    0    0  501 -0.00000000000E+00 -0.00000000000E+00 -0.11503852591E+03  0.11503852591E+03  0.00000000000E+00 0.  1.
         23    2    1    2    0    0  0.26499442830E+02  0.36189092595E+02 -0.53217978704E+02  0.14120552693E+03  0.12286161600E+03 0.  0.
          5    1    3    3  502    0 -0.48820903453E+02  0.23189461148E+02 -0.20451922456E+02  0.57939496498E+02  0.41800000000E+01 0. -1.
         -5    1    3    3    0  502  0.75320346283E+02  0.12999631447E+02 -0.32766056248E+02  0.83266030432E+02  0.41800000000E+01 0.  1.
        -11    1    1    2    0    0 -0.14997798228E+02  0.34565406619E+02  0.54829914339E+02  0.66528345785E+02  0.00000000000E+00 0.  1.
         11    1    1    2    0    0 -0.11501644602E+02 -0.70754499214E+02  0.95274840354E+02  0.11922995510E+03  0.00000000000E+00 0. -1.
</event>
<event>
 7    1  0.7017065E-006  0.1005988E+03  0.7561462E-02  0.1279042E+00
          2   -1    0    0  501    0  0.00000000000E+00  0.00000000000E+00  0.66969515780E+03  0.66969515780E+03  0.00000000000E+00 0. -1.
         -2   -1    0    0    0  501 -0.00000000000E+00 -0.00000000000E+00 -0.18477845424E+02  0.18477845424E+02  0.00000000000E+00 0.  1.
         23    2    1    2    0    0 -0.26101133477E+02  0.78700457603E-01  0.34352907513E+03  0.36652514155E+03  0.12508868280E+03 0.  0.
          5    1    3    3  502    0  0.22073405637E+02 -0.45274680996E+02  0.78760598141E+02  0.93582777236E+02  0.41800000000E+01 0.  1.
         -5    1    3    3    0  502 -0.48174539114E+02  0.45353381454E+02  0.26476847699E+03  0.27294236431E+03  0.41800000000E+01 0.  1.
        -11    1    1    2    0    0 -0.67298247177E+01  0.35392247043E+02  0.66177735661E+02  0.75348486306E+02  0.00000000000E+00 0.  1.
         11    1    1    2    0    0  0.32830958195E+02 -0.35470947500E+02  0.24151050158E+03  0.24629937537E+03  0.00000000000E+00 0. -1.
</event>
<event>
 7    1  0.7017065E-006  0.1811892E+03  0.7561462E-02  0.1166657E+00
          2   -1    0    0  501    0  0.00000000000E+00  0.00000000000E+00  0.57973182640E+03  0.57973182640E+03  0.00000000000E+00 0. -1.
         -2   -1    0    0    0  501 -0.00000000000E+00 -0.00000000000E+00 -0.69961278568E+02  0.69961278568E+02  0.00000000000E+00 0.  1.
         23    2    1    2    0    0  0.38107334677E+02  0.16373528840E+03  0.23242433331E+03  0.31294111310E+03  0.12509858486E+03 0.  0.
          5    1    3    3  502    0  0.28157524434E+02 -0.95595234787E+00  0.91783665678E+02  0.96101372063E+02  0.41800000000E+01 0.  1.
         -5    1    3    3    0  502  0.99498102432E+01  0.16469124075E+03  0.14064066763E+03  0.21683974104E+03  0.41800000000E+01 0.  1.
        -11    1    1    2    0    0 -0.15488587369E+02 -0.36953733623E+02  0.12035630403E+02  0.41836959337E+02  0.00000000000E+00 0.  1.
         11    1    1    2    0    0 -0.22618747308E+02 -0.12678155478E+03  0.26531058412E+03  0.29491503253E+03  0.00000000000E+00 0. -1.
</event>
<event>
 7    1  0.7017065E-006  0.7410441E+02  0.7561462E-02  0.1346667E+00
         -1   -1    0    0    0  501 -0.00000000000E+00  0.00000000000E+00  0.11696058491E+02  0.11696058491E+02  0.00000000000E+00 0.  1.
          1   -1    0    0  501    0  0.00000000000E+00 -0.00000000000E+00 -0.11511104035E+04  0.11511104035E+04  0.00000000000E+00 0. -1.
         23    2    1    2    0    0  0.32379895688E+02  0.32115482681E+02 -0.65170045008E+03  0.66516236524E+03  0.12509050175E+03 0.  0.
          5    1    3    3  502    0 -0.49170764849E+00  0.57141047196E+01 -0.59152729297E+03  0.59156986358E+03  0.41800000000E+01 0. -1.
         -5    1    3    3    0  502  0.32871603336E+02  0.26401377961E+02 -0.60173157112E+02  0.73592501663E+02  0.41800000000E+01 0. -1.
        -11    1    1    2    0    0 -0.59917964189E+02 -0.50474320600E+01 -0.28239978588E+03  0.28873045920E+03  0.00000000000E+00 0. -1.
         11    1    1    2    0    0  0.27538068501E+02 -0.27068050621E+02 -0.20531410909E+03  0.20891363760E+03  0.00000000000E+00 0.  1.
</event>
<event>
 7    1  0.7017065E-006  0.1075510E+03  0.7561462E-02  0.1265173E+00
          1   -1    0    0  501    0  0.00000000000E+00  0.00000000000E+00  0.29174743340E+03  0.29174743340E+03  0.00000000000E+00 0. -1.
         -1   -1    0    0    0  501 -0.00000000000E+00 -0.00000000000E+00 -0.58345499605E+02  0.58345499605E+02  0.00000000000E+00 0.  1.
         23    2    1    2    0    0  0.89007197343E+00  0.75647894453E+02  0.13086942343E+03  0.19620812854E+03  0.12508967804E+03 0.  0.
          5    1    3    3  502    0 -0.11011371140E+02 -0.25114030937E+02  0.75741002730E+02  0.80660626943E+02  0.41800000000E+01 0. -1.
         -5    1    3    3    0  502  0.11901443113E+02  0.10076192539E+03  0.55128420696E+02  0.11554750160E+03  0.41800000000E+01 0. -1.
        -11    1    1    2    0    0 -0.13669732670E+02 -0.70862129023E+02  0.26880888294E+02  0.77012239784E+02  0.00000000000E+00 0.  1.
         11    1    1    2    0    0  0.12779660697E+02 -0.47857654300E+01  0.75651622075E+02  0.76872564683E+02  0.00000000000E+00 0. -1.
</event>
<event>
 7    1  0.7017065E-006  0.8918998E+02  0.7561462E-02  0.1304825E+00
          2   -1    0    0  501    0  0.00000000000E+00  0.00000000000E+00  0.31817665767E+03  0.31817665767E+03  0.00000000000E+00 0. -1.
         -2   -1    0    0    0  501 -0.00000000000E+00 -0.00000000000E+00 -0.36476910940E+02  0.36476910940E+02  0.00000000000E+00 0.  1.
         23    2    1    2    0    0  0.27403121020E+02  0.19607769797E+02  0.10784872715E+03  0.16260961753E+03  0.11694077170E+03 0.  0.
          5    1    3    3  502    0 -0.19198276545E+02 -0.30608649185E+02  0.81214741320E+02  0.88987470100E+02  0.41800000000E+01 0. -1.
         -5    1    3    3    0  502  0.46601397565E+02  0.50216418982E+02  0.26633985834E+02  0.73622147428E+02  0.41800000000E+01 0.  1.
        -11    1    1    2    0    0  0.10177952840E+02 -0.32174250358E+02  0.39405588088E+02  0.51880376663E+02  0.00000000000E+00 0. -1.
         11    1    1    2    0    0 -0.37581073860E+02  0.12566480561E+02  0.13444543149E+03  0.14016357442E+03  0.00000000000E+00 0.  1.
</event>
<event>
 7    1  0.7017065E-006  0.1098483E+03  0.7561462E-02  0.1260851E+00
         -1   -1    0    0    0  501 -0.00000000000E+00  0.00000000000E+00  0.11182435354E+03  0.11182435354E+03  0.00000000000E+00 0.  1.
          1   -1    0    0  501    0  0.00000000000E+00 -0.00000000000E+00 -0.24601434016E+03  0.24601434016E+03  0.00000000000E+00 0. -1.
         23    2    1    2    0    0  0.42075520415E+02  0.44537968739E+02  0.46163027246E+02  0.14673688418E+03  0.12508680193E+03 0.  0.
          5    1    3    3  502    0  0.57846740312E+02 -0.70055832567E+01 -0.19585247103E+02  0.61614753636E+02  0.41800000000E+01 0.  1.
         -5    1    3    3    0  502 -0.15771219898E+02  0.51543551996E+02  0.65748274348E+02  0.85122130549E+02  0.41800000000E+01 0.  1.
        -11    1    1    2    0    0 -0.33473452889E+02 -0.71480949103E+02 -0.15072752121E+03  0.17014342122E+03  0.00000000000E+00 0. -1.
         11    1    1    2    0    0 -0.86020675257E+01  0.26942980364E+02 -0.29625492659E+02  0.40958388297E+02  0.00000000000E+00 0.  1.
</event>
<event>
 7    1  0.7017065E-006  0.1888904E+03  0.7561462E-02  0.1159466E+00
          2   -1    0    0  501    0  0.00000000000E+00  0.00000000000E+00  0.26241821037E+03  0.26241821037E+03  0.00000000000E+00 0.  1.
         -2   -1    0    0    0  501 -0.00000000000E+00 -0.00000000000E+00 -0.15321463668E+03  0.15321463668E+03  0.00000000000E+00 0. -1.
         23    2    1    2    0    0  0.89761335333E+02 -0.14017892986E+03  0.33142169421E+02  0.21086206126E+03  0.12512863696E+03 0.  0.
          5    1    3    3  502    0  0.66846669723E+02 -0.88492942222E+00  0.89903530815E+01  0.67583719945E+02  0.41800000000E+01 0.  1.
         -5    1    3    3    0  502  0.22914665610E+02 -0.13929400044E+03  0.24151816339E+02  0.14327834132E+03  0.41800000000E+01 0.  1.
        -11    1    1    2    0    0 -0.32541469787E+02  0.25265291230E+02  0.63624538767E+02  0.75798180256E+02  0.00000000000E+00 0.  1.
         11    1    1    2    0    0 -0.57219865546E+02  0.11491363863E+03  0.12436865502E+02  0.12897260554E+03  0.00000000000E+00 0. -1.
</event>
<event>
 7    1  0.7017065E-006  0.9730975E+02  0.7561462E-02  0.1286057E+00
          2   -1    0    0  501    0  0.00000000000E+00  0.00000000000E+00  0.27791134813E+02  0.27791134813E+02  0.00000000000E+00 0. -1.
         -2   -1    0    0    0  501 -0.00000000000E+00 -0.00000000000E+00 -0.57022984119E+03  0.57022984119E+03  0.00000000000E+00 0.  1.
         23    2    1    2    0    0  0.62400115920E+02 -0.14790824397E+02 -0.31792953153E+03  0.34761855059E+03  0.12508767623E+03 0.  0.
          5    1    3    3  502    0 -0.17608730172E+02 -0.49380902096E+01 -0.21959898324E+03  0.22039881568E+03  0.41800000000E+01 0. -1.
         -5    1    3    3    0  502  0.80008846092E+02 -0.98527341879E+01 -0.98330548282E+02  0.12721973491E+03  0.41800000000E+01 0. -1.
        -11    1    1    2    0    0 -0.78110864673E+02  0.14371650156E+02 -0.22023073626E+03  0.23411413606E+03  0.00000000000E+00 0.  1.
         11    1    1    2    0    0  0.15710748754E+02  0.41917424167E+00 -0.42784385932E+01  0.16288289359E+02  0.00000000000E+00 0. -1.
</event>
<event>
 7    1  0.7017065E-006  0.1381910E+03  0.7561462E-02  0.1215784E+00
          1   -1    0    0  501    0  0.00000000000E+00  0.00000000000E+00  0.24483526556E+03  0.24483526556E+03  0.00000000000E+00 0. -1.
         -1   -1    0    0    0  501 -0.00000000000E+00 -0.00000000000E+00 -0.87507983716E+02  0.87507983716E+02  0.00000000000E+00 0.  1.
         23    2    1    2    0    0  0.82695379397E+02  0.43568182392E+02  0.66679784652E+02  0.16978193673E+03  0.12507197955E+03 0.  0.
          5    1    3    3  502    0  0.38264932712E+02  0.82140125700E+02  0.16205398290E+02  0.92148210287E+02  0.41800000000E+01 0.  1.
         -5    1    3    3    0  502  0.44430446686E+02 -0.38571943308E+02  0.50474386362E+02  0.77633726446E+02  0.41800000000E+01 0.  1.
        -11    1    1    2    0    0 -0.24231015775E+02 -0.61032860399E+02  0.18810171496E+02  0.68307940430E+02  0.00000000000E+00 0. -1.
         11    1    1    2    0    0 -0.58464363622E+02  0.17464678008E+02  0.71837325699E+02  0.94253372116E+02  0.00000000000E+00 0.  1.
</event>
<event>
 7    1  0.7017065E-006  0.1011629E+03  0.7561462E-02  0.1277869E+00
         -2   -1    0    0    0  501 -0.00000000000E+00  0.00000000000E+00  0.49423312216E+02  0.49423312216E+02  0.00000000000E+00 0.  1.
          2   -1    0    0  501    0  0.00000000000E+00 -0.00000000000E+00 -0.27286491893E+03  0.27286491893E+03  0.00000000000E+00 0. -1.
         23    2    1    2    0    0  0.59622891289E+01 -0.38554510864E+02 -0.10674058328E+03  0.16901440785E+03  0.12510123397E+03 0.  0.
          5    1    3    3  502    0 -0.44451928644E+02 -0.13094961483E+02  0.18260298203E+01  0.46564565512E+02  0.41800000000E+01 0.  1.
         -5    1    3    3    0  502  0.50414217773E+02 -0.25459549381E+02 -0.10856661310E+03  0.12244984233E+03  0.41800000000E+01 0.  1.
        -11    1    1    2    0    0 -0.25096224976E+02 -0.23405860996E+02 -0.45109186674E+02  0.56678863427E+02  0.00000000000E+00 0.  1.
         11    1    1    2    0    0  0.19133935847E+02  0.61960371859E+02 -0.71591836768E+02  0.96594959878E+02  0.00000000000E+00 0. -1.
</event>
<event>
 7    1  0.7017065E-006  0.1103482E+03  0.7561462E-02  0.1259926E+00
         -2   -1    0    0    0  501 -0.00000000000E+00  0.00000000000E+00  0.10854013516E+03  0.10854013516E+03  0.00000000000E+00 0.  1.
          2   -1    0    0  501    0  0.00000000000E+00 -0.00000000000E+00 -0.16955638647E+03  0.16955638647E+03  0.00000000000E+00 0. -1.
         23    2    1    2    0    0 -0.73662048155E+02  0.22800680451E+02 -0.61966977861E+01  0.14707838951E+03  0.12509070801E+03 0.  0.
          5    1    3    3  502    0 -0.10549389387E+03  0.30872652655E+02 -0.18919920900E+02  0.11161325250E+03  0.41800000000E+01 0. -1.
         -5    1    3    3    0  502  0.31831845717E+02 -0.80719722042E+01  0.12723223114E+02  0.35465137014E+02  0.41800000000E+01 0. -1.
        -11    1    1    2    0    0  0.56836457809E+02 -0.13697133868E+02  0.13557785950E+02  0.60015064545E+02  0.00000000000E+00 0.  1.
         11    1    1    2    0    0  0.16825590346E+02 -0.91035465827E+01 -0.68377339478E+02  0.71003067574E+02  0.00000000000E+00 0. -1.
</event>
<event>
 7    1  0.7017065E-006  0.9577279E+02  0.7561462E-02  0.1289445E+00
          3   -1    0    0  501    0  0.00000000000E+00  0.00000000000E+00  0.13082440413E+03  0.13082440413E+03  0.00000000000E+00 0. -1.
         -3   -1    0    0    0  501 -0.00000000000E+00 -0.00000000000E+00 -0.16413757490E+03  0.16413757490E+03  0.00000000000E+00 0.  1.
         23    2    1    2    0    0 -0.78146167566E+02  0.43780980459E+02 -0.58703627401E+02  0.16467356929E+03  0.12509065033E+03 0.  0.
          5    1    3    3  502    0  0.37094786970E+01  0.62896770188E+01  0.34208653253E+02  0.35228179439E+02  0.41800000000E+01 0. -1.
         -5    1    3    3    0  502 -0.81855646263E+02  0.37491303440E+02 -0.92912280653E+02  0.12944538986E+03  0.41800000000E+01 0. -1.
        -11    1    1    2    0    0  0.55019031576E+02 -0.16932124096E+02 -0.29707294287E+02  0.64778962602E+02  0.00000000000E+00 0.  1.
         11    1    1    2    0    0  0.23127135990E+02 -0.26848856363E+02  0.55097750918E+02  0.65509447131E+02  0.00000000000E+00 0. -1.
</event>
<event>
 7    1  0.7017065E-006  0.1466923E+03  0.7561462E-02  0.1204597E+00
          2   -1    0    0  501    0  0.00000000000E+00  0.00000000000E+00  0.40604400533E+03  0.40604400533E+03  0.00000000000E+00 0. -1.
         -2   -1    0    0    0  501 -0.00000000000E+00 -0.00000000000E+00 -0.61954041266E+02  0.61954041266E+02  0.00000000000E+00 0.  1.
         23    2    1    2    0    0  0.54823015093E+02 -0.92412328157E+02  0.12471238784E+03  0.20675068850E+03  0.12508823340E+03 0.  0.
          5    1    3    3  502    0 -0.29689567942E+02 -0.57347428026E+02  0.85221401252E+02  0.10700634363E+03  0.41800000000E+01 0.  1.
         -5    1    3    3    0  502  0.84512583034E+02 -0.35064900131E+02  0.39490986592E+02  0.99744344874E+02  0.41800000000E+01 0.  1.
        -11    1    1    2    0    0 -0.77863111183E+02  0.75872286361E+02  0.14202159159E+03  0.17885580896E+03  0.00000000000E+00 0.  1.
         11    1    1    2    0    0  0.23040096090E+02  0.16540041795E+02  0.77355984634E+02  0.82391549137E+02  0.00000000000E+00 0. -1.
</event>
<event>
 7    1  0.7017065E-006  0.2303047E+03  0.7561462E-02  0.1126425E+00
         -2   -1    0    0    0  501 -0.00000000000E+00  0.00000000000E+00  0.17985349386E+03  0.17985349386E+03  0.00000000000E+00 0.  1.
          2   -1    0    0  501    0  0.00000000000E+00 -0.00000000000E+00 -0.76925286718E+03  0.76925286718E+03  0.00000000000E+00 0. -1.
         23    2    1    2    0    0  0.21210896626E+03 -0.55478473404E+02  0.58424715614E+02  0.25908512119E+03  0.12507429010E+03 0.  0.
          5    1    3    3  502    0  0.15704760668E+03 -0.18971125145E+02 -0.16504791483E+02  0.15910290662E+03  0.41800000000E+01 0. -1.
         -5    1    3    3    0  502  0.55061359587E+02 -0.36507348259E+02  0.74929507096E+02  0.99982214569E+02  0.41800000000E+01 0. -1.
        -11    1    1    2    0    0 -0.14482849919E+03  0.78902253105E+02 -0.48560389888E+03  0.51284696190E+03  0.00000000000E+00 0.  1.
         11    1    1    2    0    0 -0.67280467073E+02 -0.23423779700E+02 -0.16222019006E+03  0.17717427795E+03  0.00000000000E+00 0. -1.
</event>
<event>
 7    1  0.7017065E-006  0.1213718E+03  0.7561462E-02  0.1240851E+00
         -3   -1    0    0    0  501 -0.00000000000E+00  0.00000000000E+00  0.12402996145E+03  0.12402996145E+03  0.00000000000E+00 0.  1.
          3   -1    0    0  501    0  0.00000000000E+00 -0.00000000000E+00 -0.12232372737E+03  0.12232372737E+03  0.00000000000E+00 0. -1.
         23    2    1    2    0    0  0.34943930269E+02 -0.46272194626E+02 -0.18105565342E+02  0.13941754336E+03  0.12548802988E+03 0.  0.
          5    1    3    3  502    0  0.45452879843E+01  0.42923066125E+02 -0.11483220026E+02  0.44859625395E+02  0.41800000000E+01 0. -1.
         -5    1    3    3    0  502  0.30398642284E+02 -0.89195260750E+02 -0.66223453159E+01  0.94557917969E+02  0.41800000000E+01 0.  1.
        -11    1    1    2    0    0  0.25663233746E+02  0.35009612441E+02  0.94848497052E+01  0.44432385750E+02  0.00000000000E+00 0.  1.
         11    1    1    2    0    0 -0.60607164015E+02  0.11262582185E+02  0.10326949715E+02  0.62503759709E+02  0.00000000000E+00 0. -1.
</event>
<event>
 7    1  0.7017065E-006  0.1395133E+03  0.7561462E-02  0.1213985E+00
         -2   -1    0    0    0  501 -0.00000000000E+00  0.00000000000E+00  0.14272006369E+03  0.14272006369E+03  0.00000000000E+00 0.  1.
          2   -1    0    0  501    0  0.00000000000E+00 -0.00000000000E+00 -0.21177683024E+03  0.21177683024E+03  0.00000000000E+00 0. -1.
         23    2    1    2    0    0 -0.11351938962E+03  0.57739072293E+02  0.36161786546E+01  0.17945996355E+03  0.12638176087E+03 0.  0.
          5    1    3    3  502    0 -0.79256053264E+02  0.61616367651E+02 -0.52574456356E+02  0.11340037303E+03  0.41800000000E+01 0. -1.
         -5    1    3    3    0  502 -0.34263336359E+02 -0.38772953579E+01  0.56190635011E+02  0.66059590528E+02  0.41800000000E+01 0.  1.
        -11    1    1    2    0    0  0.75008026238E+02 -0.72288977020E+00 -0.75161072147E+02  0.10618810355E+03  0.00000000000E+00 0.  1.
         11    1    1    2    0    0  0.38511363385E+02 -0.57016182522E+02  0.24881269370E+01  0.68848826823E+02  0.00000000000E+00 0. -1.
</event>
<event>
 7    1  0.7017065E-006  0.1320622E+03  0.7561462E-02  0.1224427E+00
          2   -1    0    0  501    0  0.00000000000E+00  0.00000000000E+00  0.64975084946E+02  0.64975084946E+02  0.00000000000E+00 0. -1.
         -2   -1    0    0    0  501 -0.00000000000E+00 -0.00000000000E+00 -0.41665343743E+03  0.41665343743E+03  0.00000000000E+00 0.  1.
         23    2    1    2    0    0 -0.11935279204E+03  0.21613706715E+02 -0.15645770170E+03  0.23417466444E+03  0.12508604942E+03 0.  0.
          5    1    3    3  502    0  0.28578734324E+01 -0.11822404830E+02 -0.90238924271E+02  0.91150823091E+02  0.41800000000E+01 0.  1.
         -5    1    3    3    0  502 -0.12221066547E+03  0.33436111545E+02 -0.66218777432E+02  0.14302384135E+03  0.41800000000E+01 0.  1.
        -11    1    1    2    0    0  0.34219220838E+02  0.65114636713E+01 -0.25297704630E+01  0.34924976342E+02  0.00000000000E+00 0. -1.
         11    1    1    2    0    0  0.85133571198E+02 -0.28125170386E+02 -0.19269088032E+03  0.21252888160E+03  0.00000000000E+00 0.  1.
</event>
<event>
 7    1  0.7017065E-006  0.1051589E+03  0.7561462E-02  0.1269807E+00
          1   -1    0    0  501    0  0.00000000000E+00  0.00000000000E+00  0.19797746155E+03  0.19797746155E+03  0.00000000000E+00 0. -1.
         -1   -1    0    0    0  501 -0.00000000000E+00 -0.00000000000E+00 -0.11222093688E+03  0.11222093688E+03  0.00000000000E+00 0.  1.
         23    2    1    2    0    0 -0.22059747434E+02 -0.90555009082E+02  0.54121107175E+01  0.15608918607E+03  0.12509077080E+03 0.  0.
          5    1    3    3  502    0  0.57741582751E+01 -0.39449940929E+02  0.62636371149E+02  0.74366834905E+02  0.41800000000E+01 0. -1.
         -5    1    3    3    0  502 -0.27833905709E+02 -0.51105068154E+02 -0.57224260432E+02  0.81722351165E+02  0.41800000000E+01 0. -1.
        -11    1    1    2    0    0  0.32742324975E+02  0.15770723002E+02 -0.86676719129E+01  0.37361799811E+02  0.00000000000E+00 0.  1.
         11    1    1    2    0    0 -0.10682577541E+02  0.74784286080E+02  0.89012085862E+02  0.11674741255E+03  0.00000000000E+00 0. -1.
</event>
<event>
 7    1  0.7017065E-006  0.9479050E+02  0.7561462E-02  0.1291649E+00
          3   -1    0    0  501    0  0.00000000000E+00  0.00000000000E+00  0.74234698832E+02  0.74234698832E+02  0.00000000000E+00 0. -1.
         -3   -1    0    0    0  501 -0.00000000000E+00 -0.00000000000E+00 -0.16654095699E+03  0.16654095699E+03  0.00000000000E+00 0.  1.
         23    2    1    2    0    0 -0.11289481180E+02 -0.82140009220E+01 -0.83129892245E+02  0.15084216009E+03  0.12509139091E+03 0.  0.
          5    1    3    3  502    0  0.37962931094E+02 -0.31970830023E+02  0.16907414284E+01  0.49836222933E+02  0.41800000000E+01 0.  1.
         -5    1    3    3    0  502 -0.49252412275E+02  0.23756829101E+02 -0.84820633673E+02  0.10100593715E+03  0.41800000000E+01 0.  1.
        -11    1    1    2    0    0  0.47902650320E+02  0.38021936007E+01 -0.19153237122E+02  0.51729750397E+02  0.00000000000E+00 0. -1.
         11    1    1    2    0    0 -0.36613169140E+02  0.44118073212E+01  0.99768712118E+01  0.38203745333E+02  0.00000000000E+00 0.  1.
</event>
<event>
 7    1  0.7017065E-006  0.2790494E+03  0.7561462E-02  0.1096209E+00
         -1   -1    0    0    0  501 -0.00000000000E+00  0.00000000000E+00  0.17378901065E+03  0.17378901065E+03  0.00000000000E+00 0.  1.
          1   -1    0    0  501    0  0.00000000000E+00 -0.00000000000E+00 -0.65183432948E+03  0.65183432948E+03  0.00000000000E+00 0. -1.
         23    2    1    2    0    0 -0.10259103540E+03  0.25082589683E+03 -0.31741023896E+02  0.29566152771E+03  0.11388457009E+03 0.  0.
          5    1    3    3  502    0 -0.13710999324E+02  0.80223940521E+02 -0.59981672732E+02  0.10118866339E+03  0.41800000000E+01 0. -1.
         -5    1    3    3    0  502 -0.88880036076E+02  0.17060195631E+03  0.28240648836E+02  0.19447286432E+03  0.41800000000E+01 0.  1.
        -11    1    1    2    0    0  0.55887274293E+02 -0.22285073793E+03 -0.33723534668E+03  0.40806067916E+03  0.00000000000E+00 0.  1.
         11    1    1    2    0    0  0.46703761106E+02 -0.27975158902E+02 -0.10906894825E+03  0.12190113326E+03  0.00000000000E+00 0. -1.
</event>
<event>
 7    1  0.7017065E-006  0.1009178E+03  0.7561462E-02  0.1278378E+00
          2   -1    0    0  501    0  0.00000000000E+00  0.00000000000E+00  0.27826769954E+03  0.27826769954E+03  0.00000000000E+00 0. -1.
         -2   -1    0    0    0  501 -0.00000000000E+00 -0.00000000000E+00 -0.70904547142E+02  0.70904547142E+02  0.00000000000E+00 0.  1.
         23    2    1    2    0    0  0.33712818889E+02  0.77222273796E+02  0.78275652323E+02  0.16991311559E+03  0.12507419948E+03 0.  0.
          5    1    3    3  502    0  0.23911012945E+02  0.58111015859E+02  0.11271215981E+03  0.12911285790E+03  0.41800000000E+01 0. -1.
         -5    1    3    3    0  502  0.98018059438E+01  0.19111257937E+02 -0.34436507492E+02  0.40800257695E+02  0.41800000000E+01 0. -1.
        -11    1    1    2    0    0 -0.69974350805E+01 -0.87921206804E+02  0.12030183601E+03  0.14916981750E+03  0.00000000000E+00 0. -1.
         11    1    1    2    0    0 -0.26715383808E+02  0.10698933008E+02  0.87856640613E+01  0.30089313594E+02  0.00000000000E+00 0.  1.
</event>
<event>
 7    1  0.7017065E-006  0.1071876E+03  0.7561462E-02  0.1265868E+00
          4   -1    0    0  501    0  0.00000000000E+00  0.00000000000E+00  0.16427603521E+03  0.16427603521E+03  0.00000000000E+00 0. -1.
         -4   -1    0    0    0  501 -0.00000000000E+00 -0.00000000000E+00 -0.78840771696E+02  0.78840771696E+02  0.00000000000E+00 0.  1.
         23    2    1    2    0    0 -0.40036811252E+02 -0.12876478309E+01  0.52382479240E+02  0.14140798367E+03  0.12509072476E+03 0.  0.
          5    1    3    3  502    0 -0.92422996734E+01  0.60713503780E+02  0.18873176771E+02  0.64383373987E+02  0.41800000000E+01 0. -1.
         -5    1    3    3    0  502 -0.30794511579E+02 -0.62001151611E+02  0.33509302469E+02  0.77024609680E+02  0.41800000000E+01 0. -1.
        -11    1    1    2    0    0  0.53206419105E+02  0.23085901140E+02 -0.24095438972E+01  0.58049011768E+02  0.00000000000E+00 0.  1.
         11    1    1    2    0    0 -0.13169607853E+02 -0.21798253310E+02  0.35462328174E+02  0.43659811473E+02  0.00000000000E+00 0. -1.
</event>
<event>
 7    1  0.7017065E-006  0.2939655E+03  0.7561462E-02  0.1088297E+00
          2   -1    0    0  501    0  0.00000000000E+00  0.00000000000E+00  0.19517526685E+03  0.19517526685E+03  0.00000000000E+00 0. -1.
         -2   -1    0    0    0  501 -0.00000000000E+00 -0.00000000000E+00 -0.51263939976E+03  0.51263939976E+03  0.00000000000E+00 0.  1.
         23    2    1    2    0    0 -0.15487368680E+03 -0.24603942039E+03 -0.22838738667E+03  0.39034153174E+03  0.12523760521E+03 0.  0.
          5    1    3    3  502    0 -0.77149291947E+02 -0.16687888590E+03 -0.20770156091E+03  0.27741302531E+03  0.41800000000E+01 0.  1.
         -5    1    3    3    0  502 -0.77724394858E+02 -0.79160534491E+02 -0.20685825759E+02  0.11292850643E+03  0.41800000000E+01 0.  1.
        -11    1    1    2    0    0  0.12695914502E+03  0.17118590848E+03 -0.10244989049E+03  0.23647245046E+03  0.00000000000E+00 0.  1.
         11    1    1    2    0    0  0.27914541782E+02  0.74853511914E+02  0.13373144243E+02  0.81000684415E+02  0.00000000000E+00 0. -1.
</event>
<event>
 7    1  0.7017065E-006  0.1081821E+03  0.7561462E-02  0.1263974E+00
         -1   -1    0    0    0  501 -0.00000000000E+00  0.00000000000E+00  0.70121361980E+02  0.70121361980E+02  0.00000000000E+00 0.  1.
          1   -1    0    0  501    0  0.00000000000E+00 -0.00000000000E+00 -0.24009278580E+03  0.24009278580E+03  0.00000000000E+00 0. -1.
         23    2    1    2    0    0  0.32361080662E+02 -0.53260506665E+02 -0.61316325026E+02  0.15427892792E+03  0.12711559610E+03 0.  0.
          5    1    3    3  502    0 -0.67748972215E+01  0.25281448428E+02  0.21055338729E+02  0.33850414414E+02  0.41800000000E+01 0.  1.
         -5    1    3    3    0  502  0.39135977884E+02 -0.78541955093E+02 -0.82371663755E+02  0.12042851350E+03  0.41800000000E+01 0. -1.
        -11    1    1    2    0    0 -0.35744006452E+02  0.73370829212E+02 -0.54686317522E+02  0.98242078055E+02  0.00000000000E+00 0.  1.
         11    1    1    2    0    0  0.33829257901E+01 -0.20110322546E+02 -0.53968781274E+02  0.57693141811E+02  0.00000000000E+00 0. -1.
</event>
<event>
 7    1  0.7017065E-006  0.1051169E+03  0.7561462E-02  0.1269889E+00
         -2   -1    0    0    0  501 -0.00000000000E+00  0.00000000000E+00  0.40247102304E+02  0.40247102304E+02  0.00000000000E+00 0.  1.
          2   -1    0    0  501    0  0.00000000000E+00 -0.00000000000E+00 -0.45823039093E+03  0.45823039093E+03  0.00000000000E+00 0. -1.
         23    2    1    2    0    0 -0.22300758165E+01  0.47718203899E+02 -0.10959761152E+03  0.17307490617E+03  0.12514506172E+03 0.  0.
          5    1    3    3  502    0  0.55257675361E+02  0.36023162448E+02 -0.26364905033E+02  0.71159395279E+02  0.41800000000E+01 0. -1.
         -5    1    3    3    0  502 -0.57487751178E+02  0.11695041451E+02 -0.83232706492E+02  0.10191551089E+03  0.41800000000E+01 0. -1.
        -11    1    1    2    0    0 -0.32399086087E+02 -0.95254630893E+01 -0.41119367251E+02  0.53209375015E+02  0.00000000000E+00 0.  1.
         11    1    1    2    0    0  0.34629161904E+02 -0.38192740810E+02 -0.26726630985E+03  0.27219321205E+03  0.00000000000E+00 0. -1.
</event>
<event>
 7    1  0.7017065E-006  0.7112864E+02  0.7561462E-02  0.1356297E+00
          1   -1    0    0  501    0  0.00000000000E+00  0.00000000000E+00  0.84815752155E+02  0.84815752155E+02  0.00000000000E+00 0. -1.
         -1   -1    0    0    0  501 -0.00000000000E+00 -0.00000000000E+00 -0.17930281200E+03  0.17930281200E+03  0.00000000000E+00 0.  1.
         23    2    1    2    0    0 -0.41564902557E+02 -0.36153205001E+01 -0.98068225835E+02  0.16433184248E+03  0.12508743289E+03 0.  0.
          5    1    3    3  502    0 -0.10916709235E+02  0.37692792372E+02  0.13253815976E+02  0.41630003306E+02  0.41800000000E+01 0.  1.
         -5    1    3    3    0  502 -0.30648193322E+02 -0.41308112872E+02 -0.11132204181E+03  0.12270183917E+03  0.41800000000E+01 0.  1.
        -11    1    1    2    0    0  0.29326910495E+02  0.16308019026E+02  0.44206736034E+02  0.55500042113E+02  0.00000000000E+00 0. -1.
         11    1    1    2    0    0  0.12237992062E+02 -0.12692698526E+02 -0.40625570041E+02  0.44286679563E+02  0.00000000000E+00 0.  1.
</event>
<event>
 7    1  0.7017065E-006  0.1248832E+03  0.7561462E-02  0.1235252E+00
         -3   -1    0    0    0  501 -0.00000000000E+00  0.00000000000E+00  0.39091609499E+03  0.39091609499E+03  0.00000000000E+00 0.  1.
          3   -1    0    0  501    0  0.00000000000E+00 -0.00000000000E+00 -0.40001072939E+02  0.40001072939E+02  0.00000000000E+00 0. -1.
         23    2    1    2    0    0  0.43943253238E+02 -0.45081051742E+02  0.19518777036E+03  0.24022652675E+03  0.12508879935E+03 0.  0.
          5    1    3    3  502    0  0.33909262973E+02  0.40941097951E+02  0.73161074857E+02  0.90531910899E+02  0.41800000000E+01 0.  1.
         -5    1    3    3    0  502  0.10033990265E+02 -0.86022149693E+02  0.12202669550E+03  0.14969461585E+03  0.41800000000E+01 0.  1.
        -11    1    1    2    0    0 -0.40252108602E+01 -0.27022150898E+02  0.32722276313E+02  0.42627999352E+02  0.00000000000E+00 0.  1.
         11    1    1    2    0    0 -0.39918042378E+02  0.72103202639E+02  0.12300497538E+03  0.14806264183E+03  0.00000000000E+00 0. -1.
</event>
<event>
 7    1  0.7017065E-006  0.7928768E+02  0.7561462E-02  0.1331085E+00
          1   -1    0    0  501    0  0.00000000000E+00  0.00000000000E+00  0.47646836787E+03  0.47646836787E+03  0.00000000000E+00 0. -1.
         -1   -1    0    0    0  501 -0.00000000000E+00 -0.00000000000E+00 -0.29540071394E+02  0.29540071394E+02  0.00000000000E+00 0.  1.
         23    2    1    2    0    0  0.45695212922E+02  0.12265759208E+02  0.23749269710E+03  0.27256035468E+03  0.12509142430E+03 0.  0.
          5    1    3    3  502    0 -0.89875241947E+01  0.73400048087E+01  0.21116850539E+03  0.21152839367E+03  0.41800000000E+01 0.  1.
         -5    1    3    3    0  502  0.54682737117E+02  0.49257543991E+01  0.26324191717E+02  0.61031961008E+02  0.41800000000E+01 0.  1.
        -11    1    1    2    0    0 -0.39622735170E+02 -0.43801277051E+02  0.76275217971E+02  0.96469797814E+02  0.00000000000E+00 0.  1.
         11    1    1    2    0    0 -0.60724777515E+01  0.31535517844E+02  0.13316038140E+03  0.13697828677E+03  0.00000000000E+00 0. -1.
</event>
<event>
 7    1  0.7017065E-006  0.1688442E+03  0.7561462E-02  0.1179059E+00
          2   -1    0    0  501    0  0.00000000000E+00  0.00000000000E+00  0.70096074688E+03  0.70096074688E+03  0.00000000000E+00 0.  1.
         -2   -1    0    0    0  501 -0.00000000000E+00 -0.00000000000E+00 -0.80939132722E+02  0.80939132722E+02  0.00000000000E+00 0. -1.
         23    2    1    2    0    0 -0.14623364797E+03 -0.56468811756E+01  0.68685059101E+02  0.20440657305E+03  0.12509293625E+03 0.  0.
          5    1    3    3  502    0 -0.13897402634E+03 -0.31481239252E+02  0.13866404824E+02  0.14322918001E+03  0.41800000000E+01 0. -1.
         -5    1    3    3    0  502 -0.72596216245E+01  0.25834358076E+02  0.54818654277E+02  0.61177393048E+02  0.41800000000E+01 0. -1.
        -11    1    1    2    0    0  0.45256008097E+02  0.40919600136E+02  0.26224725260E+03  0.26925107509E+03  0.00000000000E+00 0.  1.
         11    1    1    2    0    0  0.10097763987E+03 -0.35272718961E+02  0.28908930246E+03  0.30824223145E+03  0.00000000000E+00 0. -1.
</event>
<event>
 7    1  0.7017065E-006  0.1528696E+03  0.7561462E-02  0.1196990E+00
         -1   -1    0    0    0  501 -0.00000000000E+00  0.00000000000E+00  0.21398853659E+03  0.21398853659E+03  0.00000000000E+00 0.  1.
          1   -1    0    0  501    0  0.00000000000E+00 -0.00000000000E+00 -0.21190077448E+03  0.21190077448E+03  0.00000000000E+00 0. -1.
         23    2    1    2    0    0  0.10899166415E+03 -0.95651559605E+01  0.14620595579E+03  0.22134844328E+03  0.12509307242E+03 0.  0.
          5    1    3    3  502    0 -0.25819368143E+02 -0.50091029774E+01  0.46398893506E+02  0.53498229901E+02  0.41800000000E+01 0. -1.
         -5    1    3    3    0  502  0.13481103230E+03 -0.45560529831E+01  0.99807062287E+02  0.16785021338E+03  0.41800000000E+01 0. -1.
        -11    1    1    2    0    0  0.15717507403E+02 -0.89382584861E+01 -0.26771884594E+02  0.32305824683E+02  0.00000000000E+00 0. -1.
         11    1    1    2    0    0 -0.12470917156E+03  0.18503414447E+02 -0.11734630909E+03  0.17223504311E+03  0.00000000000E+00 0.  1.
</event>
<event>
 7    1  0.7017065E-006  0.4370570E+03  0.7561462E-02  0.1031654E+00
         -1   -1    0    0    0  501 -0.00000000000E+00  0.00000000000E+00  0.11409380678E+03  0.11409380678E+03  0.00000000000E+00 0.  1.
          1   -1    0    0  501    0  0.00000000000E+00 -0.00000000000E+00 -0.24860762080E+04  0.24860762080E+04  0.00000000000E+00 0. -1.
         23    2    1    2    0    0 -0.39364190180E+03 -0.16215840226E+03 -0.45938877517E+03  0.63870678526E+03  0.12513599204E+03 0.  0.
          5    1    3    3  502    0 -0.59342227414E+02  0.19043283026E+02 -0.80568394678E+02  0.10194550115E+03  0.41800000000E+01 0. -1.
         -5    1    3    3    0  502 -0.33429967439E+03 -0.18120168528E+03 -0.37882038050E+03  0.53676128412E+03  0.41800000000E+01 0. -1.
        -11    1    1    2    0    0  0.27911528028E+03  0.14815326958E+03 -0.12796405931E+04  0.13180799591E+04  0.00000000000E+00 0.  1.
         11    1    1    2    0    0  0.11452662152E+03  0.14005132679E+02 -0.63295303299E+03  0.64338327049E+03  0.00000000000E+00 0. -1.
</event>
<event>
 7    1  0.7017065E-006  0.3244831E+03  0.7561462E-02  0.1073604E+00
         -1   -1    0    0    0  501 -0.00000000000E+00  0.00000000000E+00  0.18744504619E+03  0.18744504619E+03  0.00000000000E+00 0.  1.
          1   -1    0    0  501    0  0.00000000000E+00 -0.00000000000E+00 -0.11594180331E+04  0.11594180331E+04  0.00000000000E+00 0. -1.
         23    2    1    2    0    0 -0.18610222345E+03  0.25098962005E+03 -0.16292132057E+02  0.33696072879E+03  0.12508905721E+03 0.  0.
          5    1    3    3  502    0  0.11967122991E+02 -0.38643685664E+01 -0.43232413156E+01  0.13939447355E+02  0.41800000000E+01 0.  1.
         -5    1    3    3    0  502 -0.19806934644E+03  0.25485398861E+03 -0.11968890741E+02  0.32302128143E+03  0.41800000000E+01 0.  1.
        -11    1    1    2    0    0  0.13797540357E+03 -0.19799610945E+03 -0.83894492735E+03  0.87296521263E+03  0.00000000000E+00 0.  1.
         11    1    1    2    0    0  0.48126819882E+02 -0.52993510595E+02 -0.11673592751E+03  0.13693713788E+03  0.00000000000E+00 0. -1.
</event>
<event>
 7    1  0.7017065E-006  0.1380409E+03  0.7561462E-02  0.1215990E+00
          1   -1    0    0  501    0  0.00000000000E+00  0.00000000000E+00  0.31144915779E+03  0.31144915779E+03  0.00000000000E+00 0. -1.
         -1   -1    0    0    0  501 -0.00000000000E+00 -0.00000000000E+00 -0.85509837463E+02  0.85509837463E+02  0.00000000000E+00 0.  1.
         23    2    1    2    0    0 -0.12832793922E+02 -0.11758875695E+03  0.86224478809E+02  0.19254482972E+03  0.12508818627E+03 0.  0.
          5    1    3    3  502    0 -0.41101528739E+02 -0.55364337532E+02 -0.14659790096E+02  0.70618180242E+02  0.41800000000E+01 0. -1.
         -5    1    3    3    0  502  0.28268734816E+02 -0.62224419419E+02  0.10088426891E+03  0.12192664948E+03  0.41800000000E+01 0. -1.
        -11    1    1    2    0    0  0.24020175404E+02  0.39516440781E+01  0.61131347451E+02  0.65799893302E+02  0.00000000000E+00 0. -1.
         11    1    1    2    0    0 -0.11187381482E+02  0.11363711287E+03  0.78583494068E+02  0.13861427223E+03  0.00000000000E+00 0.  1.
</event>
<event>
 6    1  0.7017065E-006  0.1346155E+03  0.7561462E-02  0.1220763E+00
          2   -1    0    0  501    0  0.00000000000E+00  0.00000000000E+00  0.60200003113E+02  0.60200003113E+02  0.00000000000E+00 0. -1.
         -2   -1    0    0    0  501 -0.00000000000E+00 -0.00000000000E+00 -0.38702797496E+03  0.38702797496E+03  0.00000000000E+00 0.  1.
          5    1    1    2  502    0 -0.68356487889E+02 -0.49109306681E+02 -0.11877722864E+03  0.14563597043E+03  0.41800000000E+01 0. -1.
         -5    1    1    2    0  502  0.84354781060E+02  0.41165243337E+02 -0.18457103069E+03  0.20710925647E+03  0.41800000000E+01 0.  1.
        -11    1    1    2    0    0  0.36035294681E+02  0.13912624036E+02 -0.14940333573E+02  0.41416387307E+02  0.00000000000E+00 0.  1.
         11    1    1    2    0    0 -0.52033587851E+02 -0.59685606923E+01 -0.85393789476E+01  0.53066363868E+02  0.00000000000E+00 0. -1.
</event>
<event>
 7    1  0.7017065E-006  0.1326294E+03  0.7561462E-02  0.1223606E+00
         -1   -1    0    0    0  501 -0.00000000000E+00  0.00000000000E+00  0.27258824544E+03  0.27258824544E+03  0.00000000000E+00 0.  1.
          1   -1    0    0  501    0  0.00000000000E+00 -0.00000000000E+00 -0.82459402483E+02  0.82459402483E+02  0.00000000000E+00 0. -1.
         23    2    1    2    0    0  0.81830998017E+02  0.63893609804E+02  0.97626873927E+02  0.18963316074E+03  0.12510405081E+03 0.  0.
          5    1    3    3  502    0  0.54445944184E+01  0.79533625409E+02  0.26785311021E+02  0.84203126222E+02  0.41800000000E+01 0.  1.
         -5    1    3    3    0  502  0.76386403599E+02 -0.15640015606E+02  0.70841562906E+02  0.10543003452E+03  0.41800000000E+01 0.  1.
        -11    1    1    2    0    0 -0.31660095684E+02 -0.42026026634E+02 -0.57678471261E+01  0.52932189014E+02  0.00000000000E+00 0. -1.
         11    1    1    2    0    0 -0.50170902333E+02 -0.21867583170E+02  0.98269816151E+02  0.11248229817E+03  0.00000000000E+00 0.  1.
</event>
<event>
 7    1  0.7017065E-006  0.1147615E+03  0.7561462E-02  0.1251998E+00
         -2   -1    0    0    0  501 -0.00000000000E+00  0.00000000000E+00  0.62331818420E+02  0.62331818420E+02  0.00000000000E+00 0.  1.
          2   -1    0    0  501    0  0.00000000000E+00 -0.00000000000E+00 -0.35422551247E+03  0.35422551247E+03  0.00000000000E+00 0. -1.
         23    2    1    2    0    0  0.27461210350E+02  0.73768519484E+02 -0.69045000191E+02  0.16313287642E+03  0.12509680563E+03 0.  0.
          5    1    3    3  502    0 -0.21326780322E+02  0.89382060143E+02 -0.62754909369E+02  0.11135364962E+03  0.41800000000E+01 0.  1.
         -5    1    3    3    0  502  0.48787990672E+02 -0.15613540658E+02 -0.62900908218E+01  0.51779226803E+02  0.41800000000E+01 0.  1.
        -11    1    1    2    0    0 -0.30311722569E+02 -0.31281086855E+02 -0.23330686702E+02  0.49412830945E+02  0.00000000000E+00 0.  1.
         11    1    1    2    0    0  0.28505122193E+01 -0.42487432629E+02 -0.19951800716E+03  0.20401162352E+03  0.00000000000E+00 0. -1.
</event>
<event>
 7    1  0.7017065E-006  0.9285575E+02  0.7561462E-02  0.1296080E+00
          2   -1    0    0  501    0  0.00000000000E+00  0.00000000000E+00  0.51737668342E+02  0.51737668342E+02  0.00000000000E+00 0. -1.
         -2   -1    0    0    0  501 -0.00000000000E+00 -0.00000000000E+00 -0.25997616622E+03  0.25997616622E+03  0.00000000000E+00 0.  1.
         23    2    1    2    0    0  0.56219820793E+01  0.38083422388E+02 -0.15011899733E+03  0.19916177285E+03  0.12509094556E+03 0.  0.
          5    1    3    3  502    0  0.24410073198E+02  0.80241546538E+02 -0.10536291580E+03  0.13473445696E+03  0.41800000000E+01 0. -1.
         -5    1    3    3    0  502 -0.18788091118E+02 -0.42158124150E+02 -0.44756081530E+02  0.64427315897E+02  0.41800000000E+01 0. -1.
        -11    1    1    2    0    0  0.13508743590E+02 -0.32907801550E+02  0.13646129812E+02  0.38100215420E+02  0.00000000000E+00 0. -1.
         11    1    1    2    0    0 -0.19130725669E+02 -0.51756208380E+01 -0.71765630351E+02  0.74451846286E+02  0.00000000000E+00 0.  1.
</event>
<event>
 7    1  0.7017065E-006  0.1088366E+03  0.7561462E-02  0.1262740E+00
          2   -1    0    0  501    0  0.00000000000E+00  0.00000000000E+00  0.48039789528E+03  0.48039789528E+03  0.00000000000E+00 0. -1.
         -2   -1    0    0    0  501 -0.00000000000E+00 -0.00000000000E+00 -0.41980310807E+02  0.41980310807E+02  0.00000000000E+00 0.  1.
         23    2    1    2    0    0 -0.54631661300E+02  0.10168746362E+02  0.10325830709E+03  0.17145834856E+03  0.12509062910E+03 0.  0.
          5    1    3    3  502    0  0.31245944571E+01  0.53232028843E+02  0.78846489245E+02  0.95276719358E+02  0.41800000000E+01 0. -1.
         -5    1    3    3    0  502 -0.57756255757E+02 -0.43063282481E+02  0.24411817846E+02  0.76181629201E+02  0.41800000000E+01 0. -1.
        -11    1    1    2    0    0  0.34426517532E+02 -0.42007790916E+02  0.27192126116E+03  0.27729228601E+03  0.00000000000E+00 0. -1.
         11    1    1    2    0    0  0.20205143768E+02  0.31839044554E+02  0.63238016218E+02  0.73627571521E+02  0.00000000000E+00 0.  1.
</event>
<event>
 6    1  0.7017065E-006  0.1509748E+03  0.7561462E-02  0.1199280E+00
         -1   -1    0    0    0  501 -0.00000000000E+00  0.00000000000E+00  0.62904032155E+02  0.62904032155E+02  0.00000000000E+00 0.  1.
          1   -1    0    0  501    0  0.00000000000E+00 -0.00000000000E+00 -0.45622389905E+03  0.45622389905E+03  0.00000000000E+00 0. -1.
          5    1    1    2  502    0  0.11480329668E+03  0.43518344910E+02 -0.16338796575E+03  0.20441805944E+03  0.41800000000E+01 0. -1.
         -5    1    1    2    0  502 -0.10313579038E+03 -0.44548461899E+02 -0.77623477638E+02  0.13661783703E+03  0.41800000000E+01 0.  1.
        -11    1    1    2    0    0 -0.21433933279E+02 -0.28452297733E+02 -0.17381327638E+02  0.39636565095E+02  0.00000000000E+00 0.  1.
         11    1    1    2    0    0  0.97664269755E+01  0.29482414722E+02 -0.13492709586E+03  0.13845546963E+03  0.00000000000E+00 0. -1.
</event>
<event>
 7    1  0.7017065E-006  0.1025844E+03  0.7561462E-02  0.1274953E+00
          3   -1    0    0  501    0  0.00000000000E+00  0.00000000000E+00  0.20234367627E+03  0.20234367627E+03  0.00000000000E+00 0. -1.
         -3   -1    0    0    0  501 -0.00000000000E+00 -0.00000000000E+00 -0.73941751769E+02  0.73941751769E+02  0.00000000000E+00 0.  1.
         23    2    1    2    0    0 -0.13049893383E+02 -0.10901985144E+02  0.11791457134E+02  0.12678960430E+03  0.12508961708E+03 0.  0.
          5    1    3    3  502    0  0.47622827533E+01  0.49022073843E+02 -0.23659737722E+02  0.54800535125E+02  0.41800000000E+01 0.  1.
         -5    1    3    3    0  502 -0.17812176136E+02 -0.59924058987E+02  0.35451194856E+02  0.71989069177E+02  0.41800000000E+01 0.  1.
        -11    1    1    2    0    0  0.45799532288E+02  0.30399084575E+02  0.61454722530E+02  0.82452316050E+02  0.00000000000E+00 0.  1.
         11    1    1    2    0    0 -0.32749638905E+02 -0.19497099431E+02  0.55155744840E+02  0.67043507691E+02  0.00000000000E+00 0. -1.
</event>
<event>
 7    1  0.7017065E-006  0.1233560E+03  0.7561462E-02  0.1237661E+00
          1   -1    0    0  501    0  0.00000000000E+00  0.00000000000E+00  0.33353547818E+02  0.33353547818E+02  0.00000000000E+00 0. -1.
         -1   -1    0    0    0  501 -0.00000000000E+00 -0.00000000000E+00 -0.64146527552E+03  0.64146527552E+03  0.00000000000E+00 0.  1.
         23    2    1    2    0    0  0.86645183096E+02 -0.45014063203E+02 -0.30359336425E+03  0.34256276651E+03  0.12508662815E+03 0.  0.
          5    1    3    3  502    0  0.92796404805E+02 -0.57363963950E+02 -0.13622769769E+03  0.17457736142E+03  0.41800000000E+01 0. -1.
         -5    1    3    3    0  502 -0.61512217090E+01  0.12349900747E+02 -0.16736566657E+03  0.16798540509E+03  0.41800000000E+01 0. -1.
        -11    1    1    2    0    0  0.71294563123E+01  0.26620492787E+02 -0.26341842708E+02  0.38123122391E+02  0.00000000000E+00 0. -1.
         11    1    1    2    0    0 -0.93774639408E+02  0.18393570417E+02 -0.27817652074E+03  0.29413293444E+03  0.00000000000E+00 0.  1.
</event>
<event>
 7    1  0.7017065E-006  0.2283090E+03  0.7561462E-02  0.1127836E+00
          1   -1    0    0  501    0  0.00000000000E+00  0.00000000000E+00  0.28490108512E+03  0.28490108512E+03  0.00000000000E+00 0. -1.
         -1   -1    0    0    0  501 -0.00000000000E+00 -0.00000000000E+00 -0.20855125281E+03  0.20855125281E+03  0.00000000000E+00 0.  1.
         23    2    1    2    0    0  0.21351110489E+03 -0.35216083268E+02  0.67437826172E+02  0.25888791391E+03  0.12509167492E+03 0.  0.
          5    1    3    3  502    0  0.14273058829E+03  0.27605957088E+02  0.51760650610E+01  0.14552791398E+03  0.41800000000E+01 0.  1.
         -5    1    3    3    0  502  0.70780516608E+02 -0.62822040357E+02  0.62261761111E+02  0.11335999992E+03  0.41800000000E+01 0.  1.
        -11    1    1    2    0    0 -0.20343757939E+02  0.19055787078E+01 -0.28439933297E+02  0.35018988038E+02  0.00000000000E+00 0.  1.
         11    1    1    2    0    0 -0.19316734695E+03  0.33310504561E+02  0.37351939442E+02  0.19954543599E+03  0.00000000000E+00 0. -1.
</event>
<event>
 7    1  0.7017065E-006  0.9937047E+02  0.7561462E-02  0.1281625E+00
         -1   -1    0    0    0  501 -0.00000000000E+00  0.00000000000E+00  0.43085171619E+02  0.43085171619E+02  0.00000000000E+00 0.  1.
          1   -1    0    0  501    0  0.00000000000E+00 -0.00000000000E+00 -0.29011484256E+03  0.29011484256E+03  0.00000000000E+00 0. -1.
         23    2    1    2    0    0  0.29076563518E+02 -0.20024866841E+02 -0.12516540093E+03  0.18044517595E+03  0.12509053559E+03 0.  0.
          5    1    3    3  502    0  0.48030321980E+02  0.32404943879E+02 -0.20168724359E+02  0.61491804817E+02  0.41800000000E+01 0. -1.
         -5    1    3    3    0  502 -0.18953758462E+02 -0.52429810721E+02 -0.10499667657E+03  0.11895337113E+03  0.41800000000E+01 0. -1.
        -11    1    1    2    0    0 -0.34170884485E+02  0.46543417868E+02 -0.51438493244E+02  0.77329539508E+02  0.00000000000E+00 0.  1.
         11    1    1    2    0    0  0.50943209672E+01 -0.26518551027E+02 -0.70425776767E+02  0.75425298726E+02  0.00000000000E+00 0. -1.
</event>
<event>
 7    1  0.7017065E-006  0.9883263E+02  0.7561462E-02  0.1282770E+00
         -2   -1    0    0    0  501 -0.00000000000E+00  0.00000000000E+00  0.45528360837E+02  0.45528360837E+02  0.00000000000E+00 0.  1.
          2   -1    0    0  501    0  0.00000000000E+00 -0.00000000000E+00 -0.23924998853E+03  0.23924998853E+03  0.00000000000E+00 0. -1.
         23    2    1    2    0    0  0.25291734991E+02  0.56015843200E+02 -0.93058531417E+02  0.16382173489E+03  0.12000093334E+03 0.  0.
          5    1    3    3  502    0  0.20587716230E+02 -0.35275639364E+02 -0.15562512498E+02  0.43907732660E+02  0.41800000000E+01 0. -1.
         -5    1    3    3    0  502  0.47040187616E+01  0.91291482565E+02 -0.77496018919E+02  0.11991400223E+03  0.41800000000E+01 0.  1.
        -11    1    1    2    0    0  0.28867113286E+01 -0.15388659681E+02 -0.13169411228E+02  0.20459162768E+02  0.00000000000E+00 0.  1.
         11    1    1    2    0    0 -0.28178446320E+02 -0.40627183519E+02 -0.87493685050E+02  0.10049745172E+03  0.00000000000E+00 0. -1.
</event>
<event>
 7    1  0.7017065E-006  0.1281251E+03  0.7561462E-02  0.1230265E+00
         -2   -1    0    0    0  501 -0.00000000000E+00  0.00000000000E+00  0.70120719190E+03  0.70120719190E+03  0.00000000000E+00 0.  1.
          2   -1    0    0  501    0  0.00000000000E+00 -0.00000000000E+00 -0.34595324581E+02  0.34595324581E+02  0.00000000000E+00 0. -1.
         23    2    1    2    0    0 -0.59684733576E+02 -0.50682761284E+02  0.54769514031E+03  0.56729082058E+03  0.12537104401E+03 0.  0.
          5    1    3    3  502    0 -0.95518947883E+02 -0.36989044325E+02  0.31073161818E+03  0.32720585224E+03  0.41800000000E+01 0.  1.
         -5    1    3    3    0  502  0.35834214307E+02 -0.13693716958E+02  0.23696352213E+03  0.24008496834E+03  0.41800000000E+01 0.  1.
        -11    1    1    2    0    0  0.64062458340E+02  0.70261998611E+02  0.78158697368E+02  0.12308342290E+03  0.00000000000E+00 0. -1.
         11    1    1    2    0    0 -0.43777247634E+01 -0.19579237328E+02  0.40758029637E+02  0.45428273007E+02  0.00000000000E+00 0.  1.
</event>
<event>
 7    1  0.7017065E-006  0.1471649E+03  0.7561462E-02  0.1204001E+00
          2   -1    0    0  501    0  0.00000000000E+00  0.00000000000E+00  0.85128082211E+02  0.85128082211E+02  0.00000000000E+00 0.  1.
         -2   -1    0    0    0  501 -0.00000000000E+00 -0.00000000000E+00 -0.30738603119E+03  0.30738603119E+03  0.00000000000E+00 0. -1.
         23    2    1    2    0    0 -0.97343164551E+02  0.47993307225E+02 -0.17994967385E+03  0.24455222123E+03  0.12507939305E+03 0.  0.
          5    1    3    3  502    0 -0.12568370375E+03  0.41532383001E+02 -0.12430103923E+03  0.18163026450E+03  0.41800000000E+01 0. -1.
         -5    1    3    3    0  502  0.28340539203E+02  0.64609242243E+01 -0.55648634617E+02  0.62921956731E+02  0.41800000000E+01 0. -1.
        -11    1    1    2    0    0  0.62454568063E+02  0.11553581489E+02  0.58840450318E+01  0.63786207781E+02  0.00000000000E+00 0.  1.
         11    1    1    2    0    0  0.34888596488E+02 -0.59546888715E+02 -0.48192320165E+02  0.84175684395E+02  0.00000000000E+00 0. -1.
</event>
<event>
 7    1  0.7017065E-006  0.1102710E+03  0.7561462E-02  0.1260069E+00
         -1   -1    0    0    0  501 -0.00000000000E+00  0.00000000000E+00  0.19718613283E+03  0.19718613283E+03  0.00000000000E+00 0.  1.
          1   -1    0    0  501    0  0.00000000000E+00 -0.00000000000E+00 -0.85253075901E+02  0.85253075901E+02  0.00000000000E+00 0. -1.
         23    2    1    2    0    0 -0.25298604380E+02  0.74503121950E+02  0.72466738582E+02  0.15569805935E+03  0.11313586046E+03 0.  0.
          5    1    3    3  502    0 -0.59596223339E+02  0.79888212673E+02  0.67335111036E+02  0.12035499964E+03  0.41800000000E+01 0. -1.
         -5    1    3    3    0  502  0.34297618959E+02 -0.53850907236E+01  0.51316275463E+01  0.35343059710E+02  0.41800000000E+01 0.  1.
        -11    1    1    2    0    0 -0.79620832777E+01 -0.71593494668E+01 -0.25358005869E+02  0.27525978939E+02  0.00000000000E+00 0. -1.
         11    1    1    2    0    0  0.33260687657E+02 -0.67343772483E+02  0.64824324215E+02  0.99215170441E+02  0.00000000000E+00 0.  1.
</event>
<event>
 7    1  0.7017065E-006  0.9845151E+02  0.7561462E-02  0.1283586E+00
         -1   -1    0    0    0  501 -0.00000000000E+00  0.00000000000E+00  0.28487273853E+03  0.28487273853E+03  0.00000000000E+00 0.  1.
          1   -1    0    0  501    0  0.00000000000E+00 -0.00000000000E+00 -0.52995195655E+02  0.52995195655E+02  0.00000000000E+00 0. -1.
         23    2    1    2    0    0  0.57381597967E+02  0.48028878338E+01  0.14871773782E+03  0.20268177804E+03  0.12508885678E+03 0.  0.
          5    1    3    3  502    0  0.72822273834E+01  0.48233374213E+02  0.11595247245E+02  0.50313133299E+02  0.41800000000E+01 0. -1.
         -5    1    3    3    0  502  0.50099370584E+02 -0.43430486379E+02  0.13712249057E+03  0.15236864474E+03  0.41800000000E+01 0. -1.
        -11    1    1    2    0    0 -0.68767567058E+02  0.90287912857E+00  0.95344811357E+02  0.11756031015E+03  0.00000000000E+00 0.  1.
         11    1    1    2    0    0  0.11385969090E+02 -0.57057669624E+01 -0.12185006295E+02  0.17625845999E+02  0.00000000000E+00 0. -1.
</event>
<event>
 7    1  0.7017065E-006  0.1167201E+03  0.7561462E-02  0.1248608E+00
         -1   -1    0    0    0  501 -0.00000000000E+00  0.00000000000E+00  0.63656851255E+02  0.63656851255E+02  0.00000000000E+00 0.  1.
          1   -1    0    0  501    0  0.00000000000E+00 -0.00000000000E+00 -0.26062331176E+03  0.26062331176E+03  0.00000000000E+00 0. -1.
         23    2    1    2    0    0  0.54399394717E+02  0.41438401504E+02 -0.96034935600E+02  0.17189173275E+03  0.12509046193E+03 0.  0.
          5    1    3    3  502    0  0.73857748849E+02 -0.17526831470E+02 -0.73385589681E+02  0.10566491404E+03  0.41800000000E+01 0.  1.
         -5    1    3    3    0  502 -0.19458354132E+02  0.58965232974E+02 -0.22649345919E+02  0.66226818705E+02  0.41800000000E+01 0.  1.
        -11    1    1    2    0    0  0.14297368244E+02  0.11700957020E+01 -0.60168091533E+02  0.61854531777E+02  0.00000000000E+00 0. -1.
         11    1    1    2    0    0 -0.68696762961E+02 -0.42608497206E+02 -0.40763433367E+02  0.90533898488E+02  0.00000000000E+00 0.  1.
</event>
<event>
 7    1  0.7017065E-006  0.1090736E+03  0.7561462E-02  0.1262295E+00
         -2   -1    0    0    0  501 -0.00000000000E+00  0.00000000000E+00  0.14500144409E+03  0.14500144409E+03  0.00000000000E+00 0.  1.
          2   -1    0    0  501    0  0.00000000000E+00 -0.00000000000E+00 -0.89712685848E+02  0.89712685848E+02  0.00000000000E+00 0. -1.
         23    2    1    2    0    0  0.22705864082E+02 -0.21929851139E+02  0.37814050387E+02  0.13444198753E+03  0.12509304925E+03 0.  0.
          5    1    3    3  502    0  0.67970866354E+02 -0.27841998356E+02 -0.21857414997E+01  0.73603433421E+02  0.41800000000E+01 0. -1.
         -5    1    3    3    0  502 -0.45265002272E+02  0.59121472175E+01  0.39999791886E+02  0.60838554112E+02  0.41800000000E+01 0. -1.
        -11    1    1    2    0    0  0.13797924548E+02 -0.31291552248E+02  0.63539657855E+01  0.34783858974E+02  0.00000000000E+00 0.  1.
         11    1    1    2    0    0 -0.36503788630E+02  0.53221403387E+02  0.11120742071E+02  0.65488283433E+02  0.00000000000E+00 0. -1.
</event>
<event>
 7    1  0.7017065E-006  0.9810519E+02  0.7561462E-02  0.1284332E+00
         -2   -1    0    0    0  501 -0.00000000000E+00  0.00000000000E+00  0.56360036162E+02  0.56360036162E+02  0.00000000000E+00 0.  1.
          2   -1    0    0  501    0  0.00000000000E+00 -0.00000000000E+00 -0.19846255859E+03  0.19846255859E+03  0.00000000000E+00 0. -1.
         23    2    1    2    0    0 -0.26638707225E+02 -0.38850513660E+02 -0.61853135393E+02  0.14728431279E+03  0.12509146774E+03 0.  0.
          5    1    3    3  502    0  0.10763764550E+01  0.40763919815E+02  0.26163587728E+01  0.41075217324E+02  0.41800000000E+01 0. -1.
         -5    1    3    3    0  502 -0.27715083680E+02 -0.79614433475E+02 -0.64469494166E+02  0.10620909546E+03  0.41800000000E+01 0. -1.
        -11    1    1    2    0    0 -0.70829994143E+01  0.36313075202E+02 -0.49752094124E+02  0.62000638554E+02  0.00000000000E+00 0. -1.
         11    1    1    2    0    0  0.33721706639E+02  0.25374384579E+01 -0.30497292912E+02  0.45537643413E+02  0.00000000000E+00 0.  1.
</event>
<event>
 7    1  0.7017065E-006  0.9137399E+02  0.7561462E-02  0.1299558E+00
         -1   -1    0    0    0  501 -0.00000000000E+00  0.00000000000E+00  0.60373317462E+02  0.60373317462E+02  0.00000000000E+00 0.  1.
          1   -1    0    0  501    0  0.00000000000E+00 -0.00000000000E+00 -0.25590323991E+03  0.25590323991E+03  0.00000000000E+00 0. -1.
         23    2    1    2    0    0  0.35920033244E+02  0.45461571331E+02 -0.80278090406E+02  0.15952814437E+03  0.12509058235E+03 0.  0.
          5    1    3    3  502    0 -0.14266963651E+02  0.15311985044E+02 -0.96338969139E+02  0.98674578856E+02  0.41800000000E+01 0. -1.
         -5    1    3    3    0  502  0.50186996895E+02  0.30149586287E+02  0.16060878732E+02  0.60853565518E+02  0.41800000000E+01 0. -1.
        -11    1    1    2    0    0  0.19000369088E+02  0.12592565146E+02 -0.10778471855E+02  0.25214324857E+02  0.00000000000E+00 0.  1.
         11    1    1    2    0    0 -0.54920402332E+02 -0.58054136477E+02 -0.10447336018E+03  0.13153408814E+03  0.00000000000E+00 0. -1.
</event>
<event>
 7    1  0.9700964E-006  0.2957631E+03  0.7561462E-02  0.1087378E+00
         -1   -1    0    0    0  501 -0.00000000000E+00  0.00000000000E+00  0.26260737204E+03  0.26260737204E+03  0.00000000000E+00 0.  1.
          1   -1    0    0  501    0  0.00000000000E+00 -0.00000000000E+00 -0.36376723661E+03  0.36376723661E+03  0.00000000000E+00 0. -1.
         23    2    1    2    0    0 -0.14085492964E+03  0.25069717242E+03 -0.20831038370E+02  0.31427854829E+03  0.12509152767E+03 0.  0.
          5    1    3    3  502    0 -0.13604488687E+03  0.14931915697E+03  0.23581219555E+02  0.20341575209E+03  0.41800000000E+01 0. -1.
         -5    1    3    3    0  502 -0.48100427638E+01  0.10137801545E+03 -0.44412257924E+02  0.11086279621E+03  0.41800000000E+01 0. -1.
        -11    1    1    2    0    0  0.13002329338E+03 -0.22261692701E+03 -0.99578434999E+02  0.27636971203E+03  0.00000000000E+00 0. -1.
         11    1    1    2    0    0  0.10831636256E+02 -0.28080245409E+02  0.19249608798E+02  0.35726348332E+02  0.00000000000E+00 0.  1.
</event>
<event>
 7    1  0.7017065E-006  0.1021038E+03  0.7561462E-02  0.1275933E+00
          2   -1    0    0  501    0  0.00000000000E+00  0.00000000000E+00  0.46979452385E+03  0.46979452385E+03  0.00000000000E+00 0. -1.
         -2   -1    0    0    0  501 -0.00000000000E+00 -0.00000000000E+00 -0.25343419431E+02  0.25343419431E+02  0.00000000000E+00 0.  1.
         23    2    1    2    0    0  0.37488682624E+01 -0.10391245954E+02  0.23757033066E+03  0.26871716277E+03  0.12508884662E+03 0.  0.
          5    1    3    3  502    0  0.13672752514E+01 -0.61557461083E+02  0.18575277486E+03  0.19573644583E+03  0.41800000000E+01 0.  1.
         -5    1    3    3    0  502  0.23815930110E+01  0.51166215129E+02  0.51817555798E+02  0.72980716938E+02  0.41800000000E+01 0.  1.
        -11    1    1    2    0    0 -0.41893551279E+02  0.26633146673E+02  0.12839891129E+03  0.13766144907E+03  0.00000000000E+00 0.  1.
         11    1    1    2    0    0  0.38144683016E+02 -0.16241900719E+02  0.78481862471E+02  0.88759331443E+02  0.00000000000E+00 0. -1.
</event>
<event>
 7    1  0.7017065E-006  0.6322719E+02  0.7561462E-02  0.1384767E+00
          1   -1    0    0  501    0  0.00000000000E+00  0.00000000000E+00  0.24536069466E+03  0.24536069466E+03  0.00000000000E+00 0. -1.
         -1   -1    0    0    0  501 -0.00000000000E+00 -0.00000000000E+00 -0.48685389265E+02  0.48685389265E+02  0.00000000000E+00 0.  1.
         23    2    1    2    0    0  0.19219703817E+01  0.18912205101E+02  0.11129809688E+03  0.16851240513E+03  0.12509116212E+03 0.  0.
          5    1    3    3  502    0  0.10805082401E+02 -0.12457790592E+02  0.12972070318E+03  0.13083149309E+03  0.41800000000E+01 0.  1.
         -5    1    3    3    0  502 -0.88831120191E+01  0.31369995693E+02 -0.18422606298E+02  0.37680912034E+02  0.41800000000E+01 0.  1.
        -11    1    1    2    0    0 -0.21253827291E+02  0.22449998727E+02  0.26303261682E+01  0.31026540785E+02  0.00000000000E+00 0.  1.
         11    1    1    2    0    0  0.19331856910E+02 -0.41362203828E+02  0.82746882342E+02  0.94507138008E+02  0.00000000000E+00 0. -1.
</event>
<event>
 7    1  0.7017065E-006  0.9284911E+02  0.7561462E-02  0.1296095E+00
         -1   -1    0    0    0  501 -0.00000000000E+00  0.00000000000E+00  0.14419436047E+02  0.14419436047E+02  0.00000000000E+00 0.  1.
          1   -1    0    0  501    0  0.00000000000E+00 -0.00000000000E+00 -0.10118141028E+04  0.10118141028E+04  0.00000000000E+00 0. -1.
         23    2    1    2    0    0 -0.19507746925E+02 -0.15109795567E+02 -0.74845979494E+03  0.75924237401E+03  0.12509220493E+03 0.  0.
          5    1    3    3  502    0 -0.71303184390E+02 -0.10155669982E+02 -0.34836998692E+03  0.35576172071E+03  0.41800000000E+01 0.  1.
         -5    1    3    3    0  502  0.51795437465E+02 -0.49541255846E+01 -0.40008980802E+03  0.40348065330E+03  0.41800000000E+01 0.  1.
        -11    1    1    2    0    0 -0.19473325634E+02 -0.20178894270E+00 -0.58630540037E+01  0.20337810410E+02  0.00000000000E+00 0.  1.
         11    1    1    2    0    0  0.38981072559E+02  0.15311584509E+02 -0.24307181786E+03  0.24665335448E+03  0.00000000000E+00 0. -1.
</event>
<event>
 7    1  0.7017065E-006  0.1510994E+03  0.7561462E-02  0.1199129E+00
         -1   -1    0    0    0  501 -0.00000000000E+00  0.00000000000E+00  0.21366044503E+03  0.21366044503E+03  0.00000000000E+00 0.  1.
          1   -1    0    0  501    0  0.00000000000E+00 -0.00000000000E+00 -0.13089341119E+03  0.13089341119E+03  0.00000000000E+00 0. -1.
         23    2    1    2    0    0 -0.88996462938E+02 -0.96256821229E+02  0.37656580090E+02  0.18507581286E+03  0.12509713199E+03 0.  0.
          5    1    3    3  502    0  0.11552783158E+02 -0.22578798437E+02 -0.32920920225E+02  0.41767551114E+02  0.41800000000E+01 0.  1.
         -5    1    3    3    0  502 -0.10054924610E+03 -0.73678022792E+02  0.70577500316E+02  0.14330826174E+03  0.41800000000E+01 0.  1.
        -11    1    1    2    0    0 -0.96167761628E+01  0.33566297780E+02  0.18968226354E+02  0.39736284947E+02  0.00000000000E+00 0.  1.
         11    1    1    2    0    0  0.98613239100E+02  0.62690523450E+02  0.26142227390E+02  0.11974175842E+03  0.00000000000E+00 0. -1.
</event>
<event>
 7    1  0.7017065E-006  0.8719440E+02  0.7561462E-02  0.1309792E+00
         -4   -1    0    0    0  501 -0.00000000000E+00  0.00000000000E+00  0.26189963251E+02  0.26189963251E+02  0.00000000000E+00 0. -1.
          4   -1    0    0  501    0  0.00000000000E+00 -0.00000000000E+00 -0.66491684356E+03  0.66491684356E+03  0.00000000000E+00 0.  1.
         23    2    1    2    0    0  0.38240428950E+02  0.64683840865E+02 -0.36356668407E+03  0.39175789144E+03  0.12508869678E+03 0.  0.
          5    1    3    3  502    0  0.45841807245E+02  0.15043357441E+02 -0.32423821899E+03  0.32783481961E+03  0.41800000000E+01 0.  1.
         -5    1    3    3    0  502 -0.76013782947E+01  0.49640483424E+02 -0.39328465081E+02  0.63923071830E+02  0.41800000000E+01 0.  1.
        -11    1    1    2    0    0 -0.95736363668E+01 -0.23635603396E+02 -0.68466303532E+01  0.26404026367E+02  0.00000000000E+00 0. -1.
         11    1    1    2    0    0 -0.28666792583E+02 -0.41048237469E+02 -0.26831356589E+03  0.27294488901E+03  0.00000000000E+00 0.  1.
</event>
<event>
 7    1  0.7017065E-006  0.1676081E+03  0.7561462E-02  0.1180365E+00
         -1   -1    0    0    0  501 -0.00000000000E+00  0.00000000000E+00  0.23530658094E+03  0.23530658094E+03  0.00000000000E+00 0.  1.
          1   -1    0    0  501    0  0.00000000000E+00 -0.00000000000E+00 -0.22229009135E+03  0.22229009135E+03  0.00000000000E+00 0. -1.
         23    2    1    2    0    0 -0.11886474632E+03 -0.55014744965E+02  0.15918164853E+03  0.24112905987E+03  0.12509586805E+03 0.  0.
          5    1    3    3  502    0 -0.13422155176E+03 -0.72204585651E+02  0.15483611001E+03  0.21730306144E+03  0.41800000000E+01 0.  1.
         -5    1    3    3    0  502  0.15356805442E+02  0.17189840686E+02  0.43455385140E+01  0.23825998430E+02  0.41800000000E+01 0.  1.
        -11    1    1    2    0    0  0.13351559637E+03  0.55670036284E+02 -0.12831661700E+03  0.19336680587E+03  0.00000000000E+00 0.  1.
         11    1    1    2    0    0 -0.14650850055E+02 -0.65529131960E+00 -0.17848541931E+02  0.23100806547E+02  0.00000000000E+00 0. -1.
</event>
<event>
 7    1  0.7017065E-006  0.1319321E+03  0.7561462E-02  0.1224617E+00
         -4   -1    0    0    0  501 -0.00000000000E+00  0.00000000000E+00  0.85952856430E+03  0.85952856430E+03  0.00000000000E+00 0.  1.
          4   -1    0    0  501    0  0.00000000000E+00 -0.00000000000E+00 -0.23024780373E+02  0.23024780373E+02  0.00000000000E+00 0. -1.
         23    2    1    2    0    0 -0.85275292919E+02 -0.57615645379E+01  0.53174381142E+03  0.55290396323E+03  0.12508493261E+03 0.  0.
          5    1    3    3  502    0 -0.15255635528E+02  0.53588930332E+02  0.26351863782E+03  0.26937715707E+03  0.41800000000E+01 0.  1.
         -5    1    3    3    0  502 -0.70019657391E+02 -0.59350494870E+02  0.26822517359E+03  0.28352680616E+03  0.41800000000E+01 0.  1.
        -11    1    1    2    0    0  0.96713049281E+02  0.19051107584E+02  0.29135685264E+03  0.30757954123E+03  0.00000000000E+00 0.  1.
         11    1    1    2    0    0 -0.11437756362E+02 -0.13289543046E+02  0.13403119871E+02  0.22069840218E+02  0.00000000000E+00 0. -1.
</event>
<event>
 7    1  0.7017065E-006  0.4484712E+02  0.7561462E-02  0.1475298E+00
          2   -1    0    0  501    0  0.00000000000E+00  0.00000000000E+00  0.52781723894E+02  0.52781723894E+02  0.00000000000E+00 0. -1.
         -2   -1    0    0    0  501 -0.00000000000E+00 -0.00000000000E+00 -0.26332132052E+03  0.26332132052E+03  0.00000000000E+00 0.  1.
         23    2    1    2    0    0  0.11260509906E+02 -0.20082243308E+02 -0.17710253798E+03  0.21804165228E+03  0.12508700008E+03 0.  0.
          5    1    3    3  502    0  0.44462943849E+01 -0.34313506619E+02 -0.19248380670E+03  0.19561358468E+03  0.41800000000E+01 0. -1.
         -5    1    3    3    0  502  0.68142155213E+01  0.14231263312E+02  0.15381268721E+02  0.22428067596E+02  0.41800000000E+01 0. -1.
        -11    1    1    2    0    0  0.39430155505E+01  0.22745236133E+02 -0.61689731888E+02  0.65867413481E+02  0.00000000000E+00 0.  1.
         11    1    1    2    0    0 -0.15203525457E+02 -0.26629928248E+01  0.28252673236E+02  0.32193978661E+02  0.00000000000E+00 0. -1.
</event>
<event>
 7    1  0.7017065E-006  0.6832683E+02  0.7561462E-02  0.1365877E+00
          2   -1    0    0  501    0  0.00000000000E+00  0.00000000000E+00  0.13203037312E+03  0.13203037312E+03  0.00000000000E+00 0. -1.
         -2   -1    0    0    0  501 -0.00000000000E+00 -0.00000000000E+00 -0.99890787280E+02  0.99890787280E+02  0.00000000000E+00 0.  1.
         23    2    1    2    0    0 -0.25573777320E+02  0.11259300143E+02 -0.49375237482E+01  0.12827927632E+03  0.12510157340E+03 0.  0.
          5    1    3    3  502    0 -0.21049247964E+02 -0.53851186496E+01 -0.63417063337E+02  0.67165963590E+02  0.41800000000E+01 0.  1.
         -5    1    3    3    0  502 -0.45245293559E+01  0.16644418793E+02  0.58479539589E+02  0.61113312734E+02  0.41800000000E+01 0.  1.
        -11    1    1    2    0    0  0.58229741275E+02 -0.22233085523E+02  0.23519506957E+02  0.66619667279E+02  0.00000000000E+00 0.  1.
         11    1    1    2    0    0 -0.32655963955E+02  0.10973785380E+02  0.13557602630E+02  0.37022216796E+02  0.00000000000E+00 0. -1.
</event>
<event>
 7    1  0.7017065E-006  0.1069454E+03  0.7561462E-02  0.1266333E+00
          2   -1    0    0  501    0  0.00000000000E+00  0.00000000000E+00  0.73348636143E+03  0.73348636143E+03  0.00000000000E+00 0. -1.
         -2   -1    0    0    0  501 -0.00000000000E+00 -0.00000000000E+00 -0.24426331453E+02  0.24426331453E+02  0.00000000000E+00 0.  1.
         23    2    1    2    0    0  0.66262488868E+02  0.39068955914E+02  0.34952611005E+03  0.37912130037E+03  0.12508940020E+03 0.  0.
          5    1    3    3  502    0  0.22604189846E+02  0.45270645394E+02  0.35418020626E+02  0.61905486979E+02  0.41800000000E+01 0. -1.
         -5    1    3    3    0  502  0.43658299022E+02 -0.62016894800E+01  0.31410808943E+03  0.31721581340E+03  0.41800000000E+01 0. -1.
        -11    1    1    2    0    0 -0.86384537480E+02 -0.15380943920E+02  0.25097764996E+03  0.26587335807E+03  0.00000000000E+00 0.  1.
         11    1    1    2    0    0  0.20122048612E+02 -0.23688011994E+02  0.10855626997E+03  0.11291803444E+03  0.00000000000E+00 0. -1.
</event>
<event>
 7    1  0.7017065E-006  0.1396479E+03  0.7561462E-02  0.1213804E+00
         -2   -1    0    0    0  501 -0.00000000000E+00  0.00000000000E+00  0.50132207618E+02  0.50132207618E+02  0.00000000000E+00 0.  1.
          2   -1    0    0  501    0  0.00000000000E+00 -0.00000000000E+00 -0.59147153048E+03  0.59147153048E+03  0.00000000000E+00 0. -1.
         23    2    1    2    0    0  0.61879592413E+02 -0.78396443775E+02 -0.12298177988E+03  0.20185931454E+03  0.12509028072E+03 0.  0.
          5    1    3    3  502    0 -0.37840467118E+02 -0.30426411382E+02 -0.45800440024E+02  0.66879145985E+02  0.41800000000E+01 0.  1.
         -5    1    3    3    0  502  0.99720059531E+02 -0.47970032393E+02 -0.77181339851E+02  0.13498016855E+03  0.41800000000E+01 0.  1.
        -11    1    1    2    0    0 -0.46643921955E+02  0.74203283781E+01 -0.73774917393E+02  0.87598260056E+02  0.00000000000E+00 0.  1.
         11    1    1    2    0    0 -0.15235670458E+02  0.70976115397E+02 -0.34458262559E+03  0.35214616350E+03  0.00000000000E+00 0. -1.
</event>
<event>
 7    1  0.7017065E-006  0.1142765E+03  0.7561462E-02  0.1252849E+00
          1   -1    0    0  501    0  0.00000000000E+00  0.00000000000E+00  0.12045937736E+02  0.12045937736E+02  0.00000000000E+00 0. -1.
         -1   -1    0    0    0  501 -0.00000000000E+00 -0.00000000000E+00 -0.13159349360E+04  0.13159349360E+04  0.00000000000E+00 0.  1.
         23    2    1    2    0    0  0.41430344865E+02 -0.12412505546E+02 -0.98050538551E+03  0.98939878535E+03  0.12509437106E+03 0.  0.
          5    1    3    3  502    0 -0.25498810978E+02 -0.46505780315E+02 -0.52906587792E+03  0.53173409948E+03  0.41800000000E+01 0.  1.
         -5    1    3    3    0  502  0.66929155843E+02  0.34093274769E+02 -0.45143950759E+03  0.45766468588E+03  0.41800000000E+01 0.  1.
        -11    1    1    2    0    0 -0.33278670190E+02 -0.37160555887E+02 -0.15094235842E+03  0.15897160869E+03  0.00000000000E+00 0. -1.
         11    1    1    2    0    0 -0.81516746746E+01  0.49573061433E+02 -0.17244125429E+03  0.17961047965E+03  0.00000000000E+00 0.  1.
</event>
<event>
 7    1  0.7017065E-006  0.1394924E+03  0.7561462E-02  0.1214014E+00
          2   -1    0    0  501    0  0.00000000000E+00  0.00000000000E+00  0.38499487674E+03  0.38499487674E+03  0.00000000000E+00 0. -1.
         -2   -1    0    0    0  501 -0.00000000000E+00 -0.00000000000E+00 -0.53622206242E+02  0.53622206242E+02  0.00000000000E+00 0.  1.
         23    2    1    2    0    0 -0.62680735852E+02 -0.69809107607E+02  0.17331666264E+03  0.23342728933E+03  0.12508975858E+03 0.  0.
          5    1    3    3  502    0 -0.10100312776E+03 -0.46404549177E+02  0.12550321640E+03  0.16770075649E+03  0.41800000000E+01 0.  1.
         -5    1    3    3    0  502  0.38322391908E+02 -0.23404558430E+02  0.47813446238E+02  0.65726532831E+02  0.41800000000E+01 0.  1.
        -11    1    1    2    0    0  0.81691209520E+02  0.53953021482E+02  0.90810621200E+02  0.13353258465E+03  0.00000000000E+00 0.  1.
         11    1    1    2    0    0 -0.19010473668E+02  0.15856086125E+02  0.67245386658E+02  0.71657209010E+02  0.00000000000E+00 0. -1.
</event>
<event>
 7    1  0.7017065E-006  0.2131557E+03  0.7561462E-02  0.1139091E+00
         -2   -1    0    0    0  501 -0.00000000000E+00  0.00000000000E+00  0.37209600440E+03  0.37209600440E+03  0.00000000000E+00 0.  1.
          2   -1    0    0  501    0  0.00000000000E+00 -0.00000000000E+00 -0.13993605778E+03  0.13993605778E+03  0.00000000000E+00 0. -1.
         23    2    1    2    0    0 -0.20143585216E+03  0.17899845784E+02  0.12799144827E+03  0.27004461465E+03  0.12508187741E+03 0.  0.
          5    1    3    3  502    0 -0.13086158697E+02  0.22962086905E+02 -0.17485429399E+02  0.31964318008E+02  0.41800000000E+01 0. -1.
         -5    1    3    3    0  502 -0.18834969346E+03 -0.50622411206E+01  0.14547687767E+03  0.23808029664E+03  0.41800000000E+01 0. -1.
        -11    1    1    2    0    0  0.12223787389E+03 -0.40428040634E+02  0.93150825413E+02  0.15891381487E+03  0.00000000000E+00 0.  1.
         11    1    1    2    0    0  0.79197978269E+02  0.22528194850E+02  0.11017672938E+02  0.83073632652E+02  0.00000000000E+00 0. -1.
</event>
<event>
 7    1  0.7017065E-006  0.1818574E+03  0.7561462E-02  0.1166017E+00
          2   -1    0    0  501    0  0.00000000000E+00  0.00000000000E+00  0.93914424489E+03  0.93914424489E+03  0.00000000000E+00 0.  1.
         -2   -1    0    0    0  501 -0.00000000000E+00 -0.00000000000E+00 -0.44769782520E+02  0.44769782520E+02  0.00000000000E+00 0. -1.
         23    2    1    2    0    0  0.15841756197E+03  0.61670544617E+02  0.38052027383E+03  0.43513622690E+03  0.12509387335E+03 0.  0.
          5    1    3    3  502    0  0.14258720982E+03  0.35859068085E+02  0.37661876078E+03  0.40432183783E+03  0.41800000000E+01 0. -1.
         -5    1    3    3    0  502  0.15830352147E+02  0.25811476532E+02  0.39015130486E+01  0.30814389073E+02  0.41800000000E+01 0. -1.
        -11    1    1    2    0    0 -0.14588453467E+03 -0.78039237170E+02  0.39660666250E+03  0.42973161943E+03  0.00000000000E+00 0. -1.
         11    1    1    2    0    0 -0.12533027304E+02  0.16368692553E+02  0.11724752604E+03  0.11904618109E+03  0.00000000000E+00 0.  1.
</event>
<event>
 7    1  0.7017065E-006  0.1165964E+03  0.7561462E-02  0.1248820E+00
         -4   -1    0    0    0  501 -0.00000000000E+00  0.00000000000E+00  0.59703051306E+02  0.59703051306E+02  0.00000000000E+00 0. -1.
          4   -1    0    0  501    0  0.00000000000E+00 -0.00000000000E+00 -0.27148391335E+03  0.27148391335E+03  0.00000000000E+00 0.  1.
         23    2    1    2    0    0  0.14078004601E+02  0.59719636478E+02 -0.86625660827E+02  0.16406280160E+03  0.12509185649E+03 0.  0.
          5    1    3    3  502    0 -0.71039410748E+00  0.89186982550E+02 -0.94394292003E+02  0.12993297225E+03  0.41800000000E+01 0. -1.
         -5    1    3    3    0  502  0.14788398709E+02 -0.29467346072E+02  0.77686311760E+01  0.34129829347E+02  0.41800000000E+01 0. -1.
        -11    1    1    2    0    0 -0.84082560463E+01 -0.84669087603E+02 -0.93428512509E+02  0.12636629343E+03  0.00000000000E+00 0.  1.
         11    1    1    2    0    0 -0.56697485549E+01  0.24949451126E+02 -0.31726688711E+02  0.40757869629E+02  0.00000000000E+00 0. -1.
</event>
<event>
 7    1  0.7017065E-006  0.1067716E+03  0.7561462E-02  0.1266668E+00
         -1   -1    0    0    0  501 -0.00000000000E+00  0.00000000000E+00  0.13398797372E+02  0.13398797372E+02  0.00000000000E+00 0.  1.
          1   -1    0    0  501    0  0.00000000000E+00 -0.00000000000E+00 -0.95946688052E+03  0.95946688052E+03  0.00000000000E+00 0. -1.
         23    2    1    2    0    0  0.73107843207E-01  0.31386788760E+02 -0.51241251230E+03  0.52839323922E+03  0.12509075359E+03 0.  0.
          5    1    3    3  502    0 -0.39568861254E+01  0.74455170348E+02 -0.21018030129E+03  0.22305259647E+03  0.41800000000E+01 0. -1.
         -5    1    3    3    0  502  0.40299939686E+01 -0.43068381587E+02 -0.30223221101E+03  0.30534064275E+03  0.41800000000E+01 0. -1.
        -11    1    1    2    0    0  0.30482552979E+02 -0.50773380881E+02 -0.31108196345E+03  0.31666877052E+03  0.00000000000E+00 0. -1.
         11    1    1    2    0    0 -0.30555660822E+02  0.19386592120E+02 -0.12257360740E+03  0.12780366816E+03  0.00000000000E+00 0.  1.
</event>
<event>
 7    1  0.7017065E-006  0.1436825E+03  0.7561462E-02  0.1208458E+00
          1   -1    0    0  501    0  0.00000000000E+00  0.00000000000E+00  0.12950365359E+03  0.12950365359E+03  0.00000000000E+00 0. -1.
         -1   -1    0    0    0  501 -0.00000000000E+00 -0.00000000000E+00 -0.23776037906E+03  0.23776037906E+03  0.00000000000E+00 0.  1.
         23    2    1    2    0    0  0.17331667467E+02 -0.12146255345E+03 -0.12287324239E+03  0.21401616808E+03  0.12510614660E+03 0.  0.
          5    1    3    3  502    0  0.58735047392E+02 -0.50747683376E+02 -0.16144093994E+02  0.79392929982E+02  0.41800000000E+01 0.  1.
         -5    1    3    3    0  502 -0.41403379925E+02 -0.70714870071E+02 -0.10672914840E+03  0.13462323810E+03  0.41800000000E+01 0.  1.
        -11    1    1    2    0    0  0.10840794195E+02  0.35572195428E+02  0.44546996939E+02  0.58028775988E+02  0.00000000000E+00 0. -1.
         11    1    1    2    0    0 -0.28172461662E+02  0.85890358019E+02 -0.29930480020E+02  0.95219088585E+02  0.00000000000E+00 0.  1.
</event>
<event>
 7    1  0.7017065E-006  0.1140372E+03  0.7561462E-02  0.1253271E+00
         -3   -1    0    0    0  501 -0.00000000000E+00  0.00000000000E+00  0.42132539419E+03  0.42132539419E+03  0.00000000000E+00 0.  1.
          3   -1    0    0  501    0  0.00000000000E+00 -0.00000000000E+00 -0.51053655823E+02  0.51053655823E+02  0.00000000000E+00 0. -1.
         23    2    1    2    0    0  0.20930511185E+02  0.77170748658E+02  0.29294960209E+03  0.32842181540E+03  0.12509200103E+03 0.  0.
          5    1    3    3  502    0 -0.45163402342E+02  0.66903708020E+02  0.14514788147E+03  0.16613614583E+03  0.41800000000E+01 0.  1.
         -5    1    3    3    0  502  0.66093913527E+02  0.10267040638E+02  0.14780172062E+03  0.16228566957E+03  0.41800000000E+01 0.  1.
        -11    1    1    2    0    0 -0.11316038441E+02 -0.53420562987E+02  0.97226877559E+02  0.11151177066E+03  0.00000000000E+00 0.  1.
         11    1    1    2    0    0 -0.96144727435E+01 -0.23750185672E+02 -0.19904741281E+02  0.32445463951E+02  0.00000000000E+00 0. -1.
</event>
<event>
 7    1  0.7017065E-006  0.9231357E+02  0.7561462E-02  0.1297344E+00
          2   -1    0    0  501    0  0.00000000000E+00  0.00000000000E+00  0.81564889041E+02  0.81564889041E+02  0.00000000000E+00 0. -1.
         -2   -1    0    0    0  501 -0.00000000000E+00 -0.00000000000E+00 -0.20414016167E+03  0.20414016167E+03  0.00000000000E+00 0.  1.
         23    2    1    2    0    0 -0.45594358684E+02  0.53652316146E+02 -0.80095820875E+02  0.16437820351E+03  0.12508971458E+03 0.  0.
          5    1    3    3  502    0 -0.14678963313E+02  0.21323181245E+02  0.33312551634E+02  0.42395147348E+02  0.41800000000E+01 0. -1.
         -5    1    3    3    0  502 -0.30915395372E+02  0.32329134900E+02 -0.11340837251E+03  0.12198305616E+03  0.41800000000E+01 0. -1.
        -11    1    1    2    0    0 -0.27142345387E+02 -0.12194619567E+02 -0.14082433610E+02  0.32920063728E+02  0.00000000000E+00 0.  1.
         11    1    1    2    0    0  0.72736704071E+02 -0.41457696579E+02 -0.28397018141E+02  0.88406783473E+02  0.00000000000E+00 0. -1.
</event>
<event>
 7    1  0.7017065E-006  0.1501389E+03  0.7561462E-02  0.1200302E+00
          2   -1    0    0  501    0  0.00000000000E+00  0.00000000000E+00  0.48962399134E+03  0.48962399134E+03  0.00000000000E+00 0. -1.
         -2   -1    0    0    0  501 -0.00000000000E+00 -0.00000000000E+00 -0.53281115235E+02  0.53281115235E+02  0.00000000000E+00 0.  1.
         23    2    1    2    0    0  0.11221206415E+02  0.11572711057E+03  0.27148803752E+03  0.32067099943E+03  0.12492179861E+03 0.  0.
          5    1    3    3  502    0 -0.32174242544E+02  0.11234689257E+03  0.23939985283E+03  0.26643342149E+03  0.41800000000E+01 0. -1.
         -5    1    3    3    0  502  0.43395448959E+02  0.33802179988E+01  0.32088184690E+02  0.54237577940E+02  0.41800000000E+01 0. -1.
        -11    1    1    2    0    0  0.29189447250E+02 -0.19119443038E+02  0.11901810220E+02  0.36867736835E+02  0.00000000000E+00 0.  1.
         11    1    1    2    0    0 -0.40410653665E+02 -0.96607667530E+02  0.15295302837E+03  0.18536637031E+03  0.00000000000E+00 0. -1.
</event>
<event>
 7    1  0.7017065E-006  0.1217940E+03  0.7561462E-02  0.1240167E+00
         -1   -1    0    0    0  501 -0.00000000000E+00  0.00000000000E+00  0.48888360153E+03  0.48888360153E+03  0.00000000000E+00 0.  1.
          1   -1    0    0  501    0  0.00000000000E+00 -0.00000000000E+00 -0.46176151608E+02  0.46176151608E+02  0.00000000000E+00 0. -1.
         23    2    1    2    0    0 -0.44449139298E+02 -0.40764108994E+02  0.38768173525E+03  0.41180184556E+03  0.12508474564E+03 0.  0.
          5    1    3    3  502    0  0.37794740572E+02  0.67745872549E+01  0.67172487474E+02  0.77485178717E+02  0.41800000000E+01 0. -1.
         -5    1    3    3    0  502 -0.82243879870E+02 -0.47538696249E+02  0.32050924778E+03  0.33431666684E+03  0.41800000000E+01 0. -1.
        -11    1    1    2    0    0  0.21850828480E+02 -0.29133616062E+02  0.23345630634E+02  0.43257886678E+02  0.00000000000E+00 0. -1.
         11    1    1    2    0    0  0.22598310818E+02  0.69897725056E+02  0.31680084038E+02  0.80000020903E+02  0.00000000000E+00 0.  1.
</event>
<event>
 7    1  0.7017065E-006  0.9767418E+02  0.7561462E-02  0.1285264E+00
          2   -1    0    0  501    0  0.00000000000E+00  0.00000000000E+00  0.16832865780E+03  0.16832865780E+03  0.00000000000E+00 0. -1.
         -2   -1    0    0    0  501 -0.00000000000E+00 -0.00000000000E+00 -0.14640688262E+03  0.14640688262E+03  0.00000000000E+00 0.  1.
         23    2    1    2    0    0 -0.30942096451E+02  0.50306997352E+01 -0.97246580321E+02  0.16151394803E+03  0.12508851566E+03 0.  0.
          5    1    3    3  502    0  0.30392369745E+02  0.28121762592E+02  0.29418512048E+01  0.41721176379E+02  0.41800000000E+01 0. -1.
         -5    1    3    3    0  502 -0.61334466195E+02 -0.23091062856E+02 -0.10018843153E+03  0.11979277165E+03  0.41800000000E+01 0. -1.
        -11    1    1    2    0    0  0.20739399046E+02  0.38294804286E+02  0.28019042042E+02  0.51784953655E+02  0.00000000000E+00 0. -1.
         11    1    1    2    0    0  0.10202697404E+02 -0.43325504021E+02  0.91149313462E+02  0.10143663873E+03  0.00000000000E+00 0.  1.
</event>
<event>
 7    1  0.7017065E-006  0.1569145E+03  0.7561462E-02  0.1192225E+00
         -3   -1    0    0    0  501 -0.00000000000E+00  0.00000000000E+00  0.50697438628E+03  0.50697438628E+03  0.00000000000E+00 0.  1.
          3   -1    0    0  501    0  0.00000000000E+00 -0.00000000000E+00 -0.51625854628E+02  0.51625854628E+02  0.00000000000E+00 0. -1.
         23    2    1    2    0    0 -0.10003486732E+03  0.52597725168E+02  0.30561300943E+03  0.34902739672E+03  0.12508923516E+03 0.  0.
          5    1    3    3  502    0 -0.78082991842E+02 -0.29121268829E+02  0.13928166341E+03  0.16236334585E+03  0.41800000000E+01 0.  1.
         -5    1    3    3    0  502 -0.21951875480E+02  0.81718993998E+02  0.16633134602E+03  0.18666405087E+03  0.41800000000E+01 0.  1.
        -11    1    1    2    0    0  0.12965353356E+01  0.21925135168E+02  0.31882458221E+02  0.38715419386E+02  0.00000000000E+00 0.  1.
         11    1    1    2    0    0  0.98738331987E+02 -0.74522860337E+02  0.11785306400E+03  0.17085742480E+03  0.00000000000E+00 0. -1.
</event>
<event>
 7    1  0.7017065E-006  0.1466549E+03  0.7561462E-02  0.1204645E+00
          1   -1    0    0  501    0  0.00000000000E+00  0.00000000000E+00  0.18952875582E+03  0.18952875582E+03  0.00000000000E+00 0. -1.
         -1   -1    0    0    0  501 -0.00000000000E+00 -0.00000000000E+00 -0.21287252198E+03  0.21287252198E+03  0.00000000000E+00 0.  1.
         23    2    1    2    0    0 -0.67667972435E+02 -0.10819438759E+03 -0.12242670041E+03  0.21660968709E+03  0.12508588877E+03 0.  0.
          5    1    3    3  502    0  0.10381366994E+02  0.15582197822E+02  0.77705993702E+01  0.20698605852E+02  0.41800000000E+01 0.  1.
         -5    1    3    3    0  502 -0.78049339429E+02 -0.12377658541E+03 -0.13019729978E+03  0.19591108124E+03  0.41800000000E+01 0.  1.
        -11    1    1    2    0    0  0.11997251673E+02  0.23462712148E+02 -0.17237810899E+02  0.31489284425E+02  0.00000000000E+00 0.  1.
         11    1    1    2    0    0  0.55670720762E+02  0.84731675444E+02  0.11632074515E+03  0.15430230628E+03  0.00000000000E+00 0. -1.
</event>
<event>
 7    1  0.7017065E-006  0.6220387E+02  0.7561462E-02  0.1388809E+00
         -4   -1    0    0    0  501 -0.00000000000E+00  0.00000000000E+00  0.89991767016E+02  0.89991767016E+02  0.00000000000E+00 0.  1.
          4   -1    0    0  501    0  0.00000000000E+00 -0.00000000000E+00 -0.13180088274E+03  0.13180088274E+03  0.00000000000E+00 0. -1.
         23    2    1    2    0    0 -0.18025381490E+02  0.65973530706E-01  0.56102980929E+01  0.11783451090E+03  0.11631241458E+03 0.  0.
          5    1    3    3  502    0  0.23674454998E+01 -0.26807660210E+02 -0.47513637293E+02  0.54765624008E+02  0.41800000000E+01 0. -1.
         -5    1    3    3    0  502 -0.20392826990E+02  0.26873633741E+02  0.53123935386E+02  0.63068886894E+02  0.41800000000E+01 0.  1.
        -11    1    1    2    0    0  0.40397603629E+02  0.34017301188E+01  0.10409458806E+02  0.41855644534E+02  0.00000000000E+00 0. -1.
         11    1    1    2    0    0 -0.22372222138E+02 -0.34677036495E+01 -0.57828872626E+02  0.62102494323E+02  0.00000000000E+00 0.  1.
</event>
<event>
 7    1  0.7017065E-006  0.1102394E+03  0.7561462E-02  0.1260127E+00
          1   -1    0    0  501    0  0.00000000000E+00  0.00000000000E+00  0.12684760325E+02  0.12684760325E+02  0.00000000000E+00 0. -1.
         -1   -1    0    0    0  501 -0.00000000000E+00 -0.00000000000E+00 -0.13891705040E+04  0.13891705040E+04  0.00000000000E+00 0.  1.
         23    2    1    2    0    0 -0.30819244591E+01  0.74121091838E+02 -0.85314830779E+03  0.86545521797E+03  0.12508902716E+03 0.  0.
          5    1    3    3  502    0 -0.36436723884E+02  0.30145773569E+02 -0.10467465191E+03  0.11493762510E+03  0.41800000000E+01 0. -1.
         -5    1    3    3    0  502  0.33354799425E+02  0.43975318269E+02 -0.74847365588E+03  0.75051759287E+03  0.41800000000E+01 0. -1.
        -11    1    1    2    0    0 -0.63861823977E+01  0.21056920815E+02 -0.96122310554E+02  0.98608700559E+02  0.00000000000E+00 0. -1.
         11    1    1    2    0    0  0.94681068568E+01 -0.95178012653E+02 -0.42721512531E+03  0.43779134577E+03  0.00000000000E+00 0.  1.
</event>
<event>
 7    1  0.7017065E-006  0.9151686E+02  0.7561462E-02  0.1299219E+00
         -2   -1    0    0    0  501 -0.00000000000E+00  0.00000000000E+00  0.42643836728E+02  0.42643836728E+02  0.00000000000E+00 0.  1.
          2   -1    0    0  501    0  0.00000000000E+00 -0.00000000000E+00 -0.38751340879E+03  0.38751340879E+03  0.00000000000E+00 0. -1.
         23    2    1    2    0    0  0.50768217756E+02  0.42942996829E+02 -0.21792534821E+03  0.25992496995E+03  0.12509204493E+03 0.  0.
          5    1    3    3  502    0 -0.17487138107E+02 -0.15747165843E+02 -0.13616556690E+03  0.13824726848E+03  0.41800000000E+01 0.  1.
         -5    1    3    3    0  502  0.68255355863E+02  0.58690162672E+02 -0.81759781304E+02  0.12167770148E+03  0.41800000000E+01 0.  1.
        -11    1    1    2    0    0 -0.10068102583E+02 -0.19761877560E+02  0.10853210341E+02  0.24691915054E+02  0.00000000000E+00 0.  1.
         11    1    1    2    0    0 -0.40700115173E+02 -0.23181119268E+02 -0.13779743420E+03  0.14554036051E+03  0.00000000000E+00 0. -1.
</event>
<event>
 7    1  0.7017065E-006  0.1583686E+03  0.7561462E-02  0.1190551E+00
         -2   -1    0    0    0  501 -0.00000000000E+00  0.00000000000E+00  0.16228011293E+03  0.16228011293E+03  0.00000000000E+00 0.  1.
          2   -1    0    0  501    0  0.00000000000E+00 -0.00000000000E+00 -0.19600682156E+03  0.19600682156E+03  0.00000000000E+00 0. -1.
         23    2    1    2    0    0 -0.89848395687E+02  0.10746458158E+03 -0.23940536319E+01  0.18781605738E+03  0.12509104451E+03 0.  0.
          5    1    3    3  502    0 -0.95802626044E+02  0.33774314513E+02  0.31420279848E+02  0.10641218851E+03  0.41800000000E+01 0.  1.
         -5    1    3    3    0  502  0.59542303569E+01  0.73690267062E+02 -0.33814333480E+02  0.81403868873E+02  0.41800000000E+01 0.  1.
        -11    1    1    2    0    0  0.69566538236E+02 -0.71675030624E+02 -0.63404881627E+02  0.11830888501E+03  0.00000000000E+00 0. -1.
         11    1    1    2    0    0  0.20281857452E+02 -0.35789550951E+02  0.32072226633E+02  0.52161992103E+02  0.00000000000E+00 0.  1.
</event>
<event>
 7    1  0.7017065E-006  0.1090552E+03  0.7561462E-02  0.1262330E+00
         -1   -1    0    0    0  501 -0.00000000000E+00  0.00000000000E+00  0.65391367210E+02  0.65391367210E+02  0.00000000000E+00 0.  1.
          1   -1    0    0  501    0  0.00000000000E+00 -0.00000000000E+00 -0.21136199064E+03  0.21136199064E+03  0.00000000000E+00 0. -1.
         23    2    1    2    0    0 -0.32595465060E+02 -0.40447693027E+01 -0.43849154210E+02  0.13656219979E+03  0.12509061350E+03 0.  0.
          5    1    3    3  502    0  0.43584890097E+02 -0.12987240296E+02 -0.38195478955E+02  0.59537199026E+02  0.41800000000E+01 0.  1.
         -5    1    3    3    0  502 -0.76180355157E+02  0.89424709930E+01 -0.56536752555E+01  0.77025000767E+02  0.41800000000E+01 0.  1.
        -11    1    1    2    0    0  0.19220314747E+02  0.46923004731E+02 -0.60684207240E+02  0.79080730145E+02  0.00000000000E+00 0. -1.
         11    1    1    2    0    0  0.13375150313E+02 -0.42878235428E+02 -0.41437261983E+02  0.61110427915E+02  0.00000000000E+00 0.  1.
</event>
<event>
 6    1  0.7017065E-006  0.1680559E+03  0.7561462E-02  0.1179891E+00
         -1   -1    0    0    0  501 -0.00000000000E+00  0.00000000000E+00  0.79841948720E+02  0.79841948720E+02  0.00000000000E+00 0.  1.
          1   -1    0    0  501    0  0.00000000000E+00 -0.00000000000E+00 -0.82885071150E+03  0.82885071150E+03  0.00000000000E+00 0. -1.
          5    1    1    2  502    0 -0.37016032811E+01  0.12075621390E+03 -0.54116343479E+03  0.55450076701E+03  0.41800000000E+01 0. -1.
         -5    1    1    2    0  502  0.56508554500E+02 -0.14398537046E+03 -0.48800078574E+02  0.16224649058E+03  0.41800000000E+01 0.  1.
        -11    1    1    2    0    0 -0.43870269256E+02  0.10792219556E+02 -0.16816025980E+03  0.17412336289E+03  0.00000000000E+00 0.  1.
         11    1    1    2    0    0 -0.89366819630E+01  0.12436937002E+02  0.91150103743E+01  0.17822039744E+02  0.00000000000E+00 0. -1.
</event>
<event>
 7    1  0.7017065E-006  0.9570670E+02  0.7561462E-02  0.1289592E+00
          1   -1    0    0  501    0  0.00000000000E+00  0.00000000000E+00  0.32195116257E+03  0.32195116257E+03  0.00000000000E+00 0. -1.
         -1   -1    0    0    0  501 -0.00000000000E+00 -0.00000000000E+00 -0.40137892211E+02  0.40137892211E+02  0.00000000000E+00 0.  1.
         23    2    1    2    0    0 -0.15849518556E+02  0.28257945386E+02  0.17012475941E+03  0.21363463645E+03  0.12509038896E+03 0.  0.
          5    1    3    3  502    0  0.22779373260E+02 -0.21745650755E+02  0.13990894452E+03  0.14347040924E+03  0.41800000000E+01 0.  1.
         -5    1    3    3    0  502 -0.38628891816E+02  0.50003596141E+02  0.30215814897E+02  0.70164227209E+02  0.41800000000E+01 0.  1.
        -11    1    1    2    0    0  0.53661053167E+02 -0.21992509693E+02  0.79496037252E+02  0.98401214669E+02  0.00000000000E+00 0. -1.
         11    1    1    2    0    0 -0.37811534612E+02 -0.62654356932E+01  0.32192473693E+02  0.50053203660E+02  0.00000000000E+00 0.  1.
</event>
<event>
 7    1  0.7017065E-006  0.1034661E+03  0.7561462E-02  0.1273171E+00
          2   -1    0    0  501    0  0.00000000000E+00  0.00000000000E+00  0.28021130103E+03  0.28021130103E+03  0.00000000000E+00 0. -1.
         -2   -1    0    0    0  501 -0.00000000000E+00 -0.00000000000E+00 -0.52677912099E+02  0.52677912099E+02  0.00000000000E+00 0.  1.
         23    2    1    2    0    0  0.44777137943E+01  0.21857699133E+02  0.57865560710E+02  0.13962195416E+03  0.12509219814E+03 0.  0.
          5    1    3    3  502    0 -0.14864082410E+01 -0.49496687695E+02  0.44406701129E+02  0.66645022376E+02  0.41800000000E+01 0.  1.
         -5    1    3    3    0  502  0.59641220353E+01  0.71354386828E+02  0.13458859580E+02  0.72976931783E+02  0.41800000000E+01 0.  1.
        -11    1    1    2    0    0  0.34008945662E+02  0.10110703173E+02  0.36011766479E+02  0.50553753854E+02  0.00000000000E+00 0.  1.
         11    1    1    2    0    0 -0.38486659457E+02 -0.31968402306E+02  0.13365606175E+03  0.14271350512E+03  0.00000000000E+00 0. -1.
</event>
<event>
 7    1  0.7017065E-006  0.1196028E+03  0.7561462E-02  0.1243754E+00
          1   -1    0    0  501    0  0.00000000000E+00  0.00000000000E+00  0.82095623448E+03  0.82095623448E+03  0.00000000000E+00 0. -1.
         -1   -1    0    0    0  501 -0.00000000000E+00 -0.00000000000E+00 -0.19331929257E+02  0.19331929257E+02  0.00000000000E+00 0.  1.
         23    2    1    2    0    0  0.39449062083E+02  0.47296933185E+02  0.41854563851E+03  0.44115866359E+03  0.12508911446E+03 0.  0.
          5    1    3    3  502    0  0.63609181612E+02  0.72390589227E+02  0.36185223362E+03  0.37448769909E+03  0.41800000000E+01 0. -1.
         -5    1    3    3    0  502 -0.24160119529E+02 -0.25093656041E+02  0.56693404890E+02  0.66670964499E+02  0.41800000000E+01 0. -1.
        -11    1    1    2    0    0 -0.15928895567E+02 -0.71890741069E+02  0.20487546865E+03  0.21770614603E+03  0.00000000000E+00 0.  1.
         11    1    1    2    0    0 -0.23520166516E+02  0.24593807884E+02  0.17820319806E+03  0.18142335412E+03  0.00000000000E+00 0. -1.
</event>
<event>
 7    1  0.7017065E-006  0.1026515E+03  0.7561462E-02  0.1274817E+00
          4   -1    0    0  501    0  0.00000000000E+00  0.00000000000E+00  0.24345168091E+02  0.24345168091E+02  0.00000000000E+00 0. -1.
         -4   -1    0    0    0  501 -0.00000000000E+00 -0.00000000000E+00 -0.60096111535E+03  0.60096111535E+03  0.00000000000E+00 0.  1.
         23    2    1    2    0    0  0.32586904115E+02  0.92833222115E+01 -0.43483979534E+03  0.45374232373E+03  0.12509341447E+03 0.  0.
          5    1    3    3  502    0 -0.21649350253E+02 -0.35369935495E+02 -0.28694667024E+03  0.28995791189E+03  0.41800000000E+01 0. -1.
         -5    1    3    3    0  502  0.54236254369E+02  0.44653257707E+02 -0.14789312510E+03  0.16378441185E+03  0.41800000000E+01 0. -1.
        -11    1    1    2    0    0 -0.57897606063E+02 -0.25416649041E+02 -0.11548575668E+03  0.13166282251E+03  0.00000000000E+00 0.  1.
         11    1    1    2    0    0  0.25310701947E+02  0.16133326829E+02 -0.26290395239E+02  0.39901137195E+02  0.00000000000E+00 0. -1.
</event>
<event>
 7    1  0.7017065E-006  0.1457260E+03  0.7561462E-02  0.1205825E+00
         -3   -1    0    0    0  501 -0.00000000000E+00  0.00000000000E+00  0.33660723202E+03  0.33660723202E+03  0.00000000000E+00 0.  1.
          3   -1    0    0  501    0  0.00000000000E+00 -0.00000000000E+00 -0.82882992992E+02  0.82882992992E+02  0.00000000000E+00 0. -1.
         23    2    1    2    0    0  0.16539347755E+02 -0.12628131006E+03  0.14455049728E+03  0.22969559186E+03  0.12507877263E+03 0.  0.
          5    1    3    3  502    0 -0.32660019984E+02 -0.68119805607E+02  0.13232475282E+03  0.15242800736E+03  0.41800000000E+01 0.  1.
         -5    1    3    3    0  502  0.49199367740E+02 -0.58161504456E+02  0.12225744461E+02  0.77267584498E+02  0.41800000000E+01 0.  1.
        -11    1    1    2    0    0 -0.13987001034E+02  0.82067799825E+00 -0.96214555800E+01  0.16996532523E+02  0.00000000000E+00 0.  1.
         11    1    1    2    0    0 -0.25523467211E+01  0.12546063206E+03  0.11879519733E+03  0.17279810063E+03  0.00000000000E+00 0. -1.
</event>
<event>
 7    1  0.7017065E-006  0.1704879E+03  0.7561462E-02  0.1177340E+00
         -2   -1    0    0    0  501 -0.00000000000E+00  0.00000000000E+00  0.77738315456E+02  0.77738315456E+02  0.00000000000E+00 0.  1.
          2   -1    0    0  501    0  0.00000000000E+00 -0.00000000000E+00 -0.50456804296E+03  0.50456804296E+03  0.00000000000E+00 0. -1.
         23    2    1    2    0    0  0.15317821867E+03  0.10620829411E+02 -0.13315016758E+03  0.23864722704E+03  0.12508862121E+03 0.  0.
          5    1    3    3  502    0  0.15680810368E+03  0.19949092043E+02 -0.67205187423E+02  0.17181605649E+03  0.41800000000E+01 0. -1.
         -5    1    3    3    0  502 -0.36298850092E+01 -0.93282626318E+01 -0.65944980160E+02  0.66831170551E+02  0.41800000000E+01 0. -1.
        -11    1    1    2    0    0 -0.67750975023E+01  0.21134462676E+02 -0.13591937613E+02  0.26025146049E+02  0.00000000000E+00 0.  1.
         11    1    1    2    0    0 -0.14640312117E+03 -0.31755292088E+02 -0.28008762231E+03  0.31763398532E+03  0.00000000000E+00 0. -1.
</event>
<event>
 7    1  0.7017065E-006  0.1318008E+03  0.7561462E-02  0.1224808E+00
          1   -1    0    0  501    0  0.00000000000E+00  0.00000000000E+00  0.45816323634E+03  0.45816323634E+03  0.00000000000E+00 0. -1.
         -1   -1    0    0    0  501 -0.00000000000E+00 -0.00000000000E+00 -0.66798914897E+02  0.66798914897E+02  0.00000000000E+00 0.  1.
         23    2    1    2    0    0 -0.55758704456E+02  0.66598746668E+02  0.52446861317E+02  0.16106581707E+03  0.12508836071E+03 0.  0.
          5    1    3    3  502    0  0.29447506255E+02  0.16531188199E+02 -0.19067246424E+02  0.39006000745E+02  0.41800000000E+01 0. -1.
         -5    1    3    3    0  502 -0.85206210711E+02  0.50067558469E+02  0.71514107741E+02  0.12205981632E+03  0.41800000000E+01 0. -1.
        -11    1    1    2    0    0 -0.17480265352E+02 -0.53465727101E+02  0.17648625215E+03  0.18523374652E+03  0.00000000000E+00 0. -1.
         11    1    1    2    0    0  0.73238969808E+02 -0.13133019568E+02  0.16243120798E+03  0.17866258765E+03  0.00000000000E+00 0.  1.
</event>
<event>
 7    1  0.7017065E-006  0.1078057E+03  0.7561462E-02  0.1264688E+00
          1   -1    0    0  501    0  0.00000000000E+00  0.00000000000E+00  0.26488052197E+02  0.26488052197E+02  0.00000000000E+00 0. -1.
         -1   -1    0    0    0  501 -0.00000000000E+00 -0.00000000000E+00 -0.82022047871E+03  0.82022047871E+03  0.00000000000E+00 0.  1.
         23    2    1    2    0    0  0.38037050751E+02  0.66554570996E+02 -0.61192778764E+03  0.62927145177E+03  0.12510241636E+03 0.  0.
          5    1    3    3  502    0  0.58780726740E+02 -0.83903063273E+01 -0.37962323969E+03  0.38426143130E+03  0.41800000000E+01 0.  1.
         -5    1    3    3    0  502 -0.20743675990E+02  0.74944877323E+02 -0.23230454795E+03  0.24501002047E+03  0.41800000000E+01 0.  1.
        -11    1    1    2    0    0 -0.87774011693E+01 -0.30724952729E+02 -0.16524079240E+03  0.16830206465E+03  0.00000000000E+00 0.  1.
         11    1    1    2    0    0 -0.29259649582E+02 -0.35829618267E+02 -0.16563846473E+02  0.49135014488E+02  0.00000000000E+00 0. -1.
</event>
<event>
 7    1  0.7017065E-006  0.1055261E+03  0.7561462E-02  0.1269087E+00
          1   -1    0    0  501    0  0.00000000000E+00  0.00000000000E+00  0.10673676159E+03  0.10673676159E+03  0.00000000000E+00 0. -1.
         -1   -1    0    0    0  501 -0.00000000000E+00 -0.00000000000E+00 -0.28072112049E+03  0.28072112049E+03  0.00000000000E+00 0.  1.
         23    2    1    2    0    0 -0.15816707347E+02 -0.33156775666E+02 -0.23681312899E+03  0.27032844611E+03  0.12508985055E+03 0.  0.
          5    1    3    3  502    0 -0.35254560372E+02  0.34242104022E+02 -0.15406972338E+03  0.16177254951E+03  0.41800000000E+01 0.  1.
         -5    1    3    3    0  502  0.19437853024E+02 -0.67398879688E+02 -0.82743405619E+02  0.10855589660E+03  0.41800000000E+01 0.  1.
        -11    1    1    2    0    0 -0.58511603346E+01 -0.26943090728E+02  0.41408280387E+02  0.49747481342E+02  0.00000000000E+00 0. -1.
         11    1    1    2    0    0  0.21667867682E+02  0.60099866394E+02  0.21420489703E+02  0.67381954629E+02  0.00000000000E+00 0.  1.
</event>
<event>
 7    1  0.7017065E-006  0.9266208E+02  0.7561462E-02  0.1296530E+00
          1   -1    0    0  501    0  0.00000000000E+00  0.00000000000E+00  0.37959437993E+03  0.37959437993E+03  0.00000000000E+00 0. -1.
         -1   -1    0    0    0  501 -0.00000000000E+00 -0.00000000000E+00 -0.50420571724E+02  0.50420571724E+02  0.00000000000E+00 0.  1.
         23    2    1    2    0    0 -0.42413734116E+02  0.22267614820E+02  0.74711271121E+02  0.15297946076E+03  0.12460405238E+03 0.  0.
          5    1    3    3  502    0  0.20748639203E+01  0.44613374810E+02  0.90145510142E+02  0.10068934239E+03  0.41800000000E+01 0.  1.
         -5    1    3    3    0  502 -0.44488598036E+02 -0.22345759990E+02 -0.15434239021E+02  0.52290118368E+02  0.41800000000E+01 0.  1.
        -11    1    1    2    0    0  0.55936239611E+01  0.27800518819E+02  0.20585549247E+02  0.35041722467E+02  0.00000000000E+00 0.  1.
         11    1    1    2    0    0  0.36820110155E+02 -0.50068133639E+02  0.23387698783E+03  0.24199376842E+03  0.00000000000E+00 0. -1.
</event>
<event>
 7    1  0.7017065E-006  0.1329926E+03  0.7561462E-02  0.1223082E+00
         -1   -1    0    0    0  501 -0.00000000000E+00  0.00000000000E+00  0.28606030026E+03  0.28606030026E+03  0.00000000000E+00 0.  1.
          1   -1    0    0  501    0  0.00000000000E+00 -0.00000000000E+00 -0.72541679997E+02  0.72541679997E+02  0.00000000000E+00 0. -1.
         23    2    1    2    0    0  0.72178422823E+02  0.53236365727E+02  0.15537671727E+03  0.21870837152E+03  0.12509033595E+03 0.  0.
          5    1    3    3  502    0 -0.26401068811E+02 -0.17827060655E+02  0.28104224314E+02  0.42686535936E+02  0.41800000000E+01 0.  1.
         -5    1    3    3    0  502  0.98579491635E+02  0.71063426381E+02  0.12727249295E+03  0.17602183558E+03  0.41800000000E+01 0.  1.
        -11    1    1    2    0    0 -0.19709622477E+02 -0.56352014063E+02 -0.23637030339E+01  0.59746178114E+02  0.00000000000E+00 0. -1.
         11    1    1    2    0    0 -0.52468800346E+02  0.31156483365E+01  0.60505606033E+02  0.80147430625E+02  0.00000000000E+00 0.  1.
</event>
<event>
 7    1  0.7017065E-006  0.1076102E+03  0.7561462E-02  0.1265061E+00
          1   -1    0    0  501    0  0.00000000000E+00  0.00000000000E+00  0.17402893801E+03  0.17402893801E+03  0.00000000000E+00 0. -1.
         -1   -1    0    0    0  501 -0.00000000000E+00 -0.00000000000E+00 -0.72066887080E+02  0.72066887080E+02  0.00000000000E+00 0.  1.
         23    2    1    2    0    0  0.25520657467E+02  0.49145898420E+01  0.47619907471E+02  0.13634805646E+03  0.12509068615E+03 0.  0.
          5    1    3    3  502    0 -0.50310572583E+02  0.46711948765E+01  0.10333175466E+02  0.51741865935E+02  0.41800000000E+01 0. -1.
         -5    1    3    3    0  502  0.75831230050E+02  0.24339496551E+00  0.37286732004E+02  0.84606190527E+02  0.41800000000E+01 0. -1.
        -11    1    1    2    0    0 -0.49008167637E+01  0.39396532426E+02  0.45212091072E+01  0.39956802974E+02  0.00000000000E+00 0.  1.
         11    1    1    2    0    0 -0.20619840703E+02 -0.44311122268E+02  0.49820934352E+02  0.69790965655E+02  0.00000000000E+00 0. -1.
</event>
<event>
 7    1  0.7017065E-006  0.2161508E+03  0.7561462E-02  0.1136786E+00
          2   -1    0    0  501    0  0.00000000000E+00  0.00000000000E+00  0.12888058955E+04  0.12888058955E+04  0.00000000000E+00 0. -1.
         -2   -1    0    0    0  501 -0.00000000000E+00 -0.00000000000E+00 -0.37353245963E+02  0.37353245963E+02  0.00000000000E+00 0.  1.
         23    2    1    2    0    0  0.18838548051E+03 -0.48143085638E+02  0.67543170250E+03  0.71390642097E+03  0.12509015628E+03 0.  0.
          5    1    3    3  502    0  0.25720834889E+02 -0.58929912085E+02  0.25339805023E+03  0.26146192867E+03  0.41800000000E+01 0. -1.
         -5    1    3    3    0  502  0.16266464562E+03  0.10786826447E+02  0.42203365227E+03  0.45244449230E+03  0.41800000000E+01 0. -1.
        -11    1    1    2    0    0 -0.10635283445E+03  0.59677672754E+02  0.38994420598E+03  0.40856925215E+03  0.00000000000E+00 0. -1.
         11    1    1    2    0    0 -0.82032646053E+02 -0.11534587116E+02  0.18607674110E+03  0.20368346840E+03  0.00000000000E+00 0.  1.
</event>
<event>
 7    1  0.7017065E-006  0.1157328E+03  0.7561462E-02  0.1250307E+00
          2   -1    0    0  501    0  0.00000000000E+00  0.00000000000E+00  0.76689272769E+03  0.76689272769E+03  0.00000000000E+00 0. -1.
         -2   -1    0    0    0  501 -0.00000000000E+00 -0.00000000000E+00 -0.18658357412E+02  0.18658357412E+02  0.00000000000E+00 0.  1.
         23    2    1    2    0    0 -0.35371447105E+02  0.33952397981E+02  0.40262270709E+03  0.42444602772E+03  0.12508189949E+03 0.  0.
          5    1    3    3  502    0  0.15863991730E+02  0.64831180012E+02  0.14123176029E+03  0.15626461739E+03  0.41800000000E+01 0.  1.
         -5    1    3    3    0  502 -0.51235438835E+02 -0.30878782031E+02  0.26139094681E+03  0.26818141033E+03  0.41800000000E+01 0.  1.
        -11    1    1    2    0    0 -0.24470496989E+02  0.13773936290E+02  0.95553540141E+02  0.99594204536E+02  0.00000000000E+00 0.  1.
         11    1    1    2    0    0  0.59841944093E+02 -0.47726334271E+02  0.25005812304E+03  0.26151085285E+03  0.00000000000E+00 0. -1.
</event>
<event>
 7    1  0.7017065E-006  0.1054708E+03  0.7561462E-02  0.1269195E+00
          1   -1    0    0  501    0  0.00000000000E+00  0.00000000000E+00  0.17210498351E+03  0.17210498351E+03  0.00000000000E+00 0. -1.
         -1   -1    0    0    0  501 -0.00000000000E+00 -0.00000000000E+00 -0.81027102134E+02  0.81027102134E+02  0.00000000000E+00 0.  1.
         23    2    1    2    0    0  0.70550881700E+01 -0.76896441102E+01  0.11926847247E+02  0.12608970848E+03  0.12508980775E+03 0.  0.
          5    1    3    3  502    0  0.43361475185E+02  0.35973111937E+02  0.32939625605E+02  0.65397046169E+02  0.41800000000E+01 0. -1.
         -5    1    3    3    0  502 -0.36306387015E+02 -0.43662756047E+02 -0.21012778358E+02  0.60692662308E+02  0.41800000000E+01 0. -1.
        -11    1    1    2    0    0 -0.35823287012E+02 -0.32306584225E+02  0.51423308059E+02  0.70508012937E+02  0.00000000000E+00 0.  1.
         11    1    1    2    0    0  0.28768198842E+02  0.39996228335E+02  0.27727726066E+02  0.56534364226E+02  0.00000000000E+00 0. -1.
</event>
<event>
 7    1  0.7017065E-006  0.8011357E+02  0.7561462E-02  0.1328729E+00
          1   -1    0    0  501    0  0.00000000000E+00  0.00000000000E+00  0.10183558844E+03  0.10183558844E+03  0.00000000000E+00 0. -1.
         -1   -1    0    0    0  501 -0.00000000000E+00 -0.00000000000E+00 -0.75629914181E+02  0.75629914181E+02  0.00000000000E+00 0.  1.
         23    2    1    2    0    0  0.18367380324E+02 -0.32755657903E+02  0.23581057229E+01  0.13063328752E+03  0.12509676799E+03 0.  0.
          5    1    3    3  502    0 -0.19894960369E+02 -0.66589993384E+02 -0.23172536886E+02  0.73378985635E+02  0.41800000000E+01 0. -1.
         -5    1    3    3    0  502  0.38262340692E+02  0.33834335481E+02  0.25530642609E+02  0.57254301889E+02  0.41800000000E+01 0. -1.
        -11    1    1    2    0    0 -0.71498325739E+01  0.24240211508E+02  0.20009975066E+02  0.32235183603E+02  0.00000000000E+00 0. -1.
         11    1    1    2    0    0 -0.11217547750E+02  0.85154463950E+01  0.38375934719E+01  0.14597031496E+02  0.00000000000E+00 0.  1.
</event>
<event>
 7    1  0.7017065E-006  0.6675882E+02  0.7561462E-02  0.1371475E+00
          3   -1    0    0  501    0  0.00000000000E+00  0.00000000000E+00  0.20919293662E+03  0.20919293662E+03  0.00000000000E+00 0. -1.
         -3   -1    0    0    0  501 -0.00000000000E+00 -0.00000000000E+00 -0.57164587475E+02  0.57164587475E+02  0.00000000000E+00 0.  1.
         23    2    1    2    0    0 -0.12708710055E+01  0.10404979033E+01  0.64729725240E+02  0.14085691004E+03  0.12509210217E+03 0.  0.
          5    1    3    3  502    0 -0.24993662078E+02 -0.11355386209E+02 -0.30853066972E+02  0.41509180690E+02  0.41800000000E+01 0. -1.
         -5    1    3    3    0  502  0.23722791073E+02  0.12395884112E+02  0.95582792212E+02  0.99347729346E+02  0.41800000000E+01 0. -1.
        -11    1    1    2    0    0 -0.24614158113E+02 -0.30662694516E+02  0.12969867688E+02  0.41403805168E+02  0.00000000000E+00 0.  1.
         11    1    1    2    0    0  0.25885029119E+02  0.29622196612E+02  0.74328756215E+02  0.84096808888E+02  0.00000000000E+00 0. -1.
</event>
<event>
 7    1  0.7017065E-006  0.6474132E+02  0.7561462E-02  0.1378947E+00
          2   -1    0    0  501    0  0.00000000000E+00  0.00000000000E+00  0.13278941236E+02  0.13278941236E+02  0.00000000000E+00 0. -1.
         -2   -1    0    0    0  501 -0.00000000000E+00 -0.00000000000E+00 -0.10046303805E+04  0.10046303805E+04  0.00000000000E+00 0.  1.
         23    2    1    2    0    0 -0.12474947492E+02 -0.77095854635E+01 -0.74196900721E+03  0.75258237368E+03  0.12508860654E+03 0.  0.
          5    1    3    3  502    0  0.16291061036E+02  0.16173616210E+02 -0.23456834643E+02  0.33085949019E+02  0.41800000000E+01 0.  1.
         -5    1    3    3    0  502 -0.28766008528E+02 -0.23883201674E+02 -0.71851217257E+03  0.71949642466E+03  0.41800000000E+01 0.  1.
        -11    1    1    2    0    0  0.29786388187E+02  0.28670179888E+02 -0.22513453659E+03  0.22889903386E+03  0.00000000000E+00 0.  1.
         11    1    1    2    0    0 -0.17311440695E+02 -0.20960594425E+02 -0.24247895422E+02  0.36427914159E+02  0.00000000000E+00 0. -1.
</event>
<event>
 7    1  0.7017065E-006  0.1332366E+03  0.7561462E-02  0.1222731E+00
         -2   -1    0    0    0  501 -0.00000000000E+00  0.00000000000E+00  0.24152881904E+03  0.24152881904E+03  0.00000000000E+00 0.  1.
          2   -1    0    0  501    0  0.00000000000E+00 -0.00000000000E+00 -0.12647086056E+03  0.12647086056E+03  0.00000000000E+00 0. -1.
         23    2    1    2    0    0  0.30395120674E+02 -0.89661598712E+02  0.16114732773E+03  0.22489605820E+03  0.12508681031E+03 0.  0.
          5    1    3    3  502    0  0.70544461813E+02 -0.22943206110E+02  0.10575184625E+03  0.12924332549E+03  0.41800000000E+01 0. -1.
         -5    1    3    3    0  502 -0.40149341139E+02 -0.66718392601E+02  0.55395481479E+02  0.95652732703E+02  0.41800000000E+01 0. -1.
        -11    1    1    2    0    0 -0.28929668148E+02  0.99821684395E+02 -0.86569728709E+01  0.10428920152E+03  0.00000000000E+00 0.  1.
         11    1    1    2    0    0 -0.14654525254E+01 -0.10160085683E+02 -0.37432396384E+02  0.38814419888E+02  0.00000000000E+00 0. -1.
</event>
<event>
 7    1  0.7017065E-006  0.1223850E+03  0.7561462E-02  0.1239214E+00
         -3   -1    0    0    0  501 -0.00000000000E+00  0.00000000000E+00  0.12960662980E+03  0.12960662980E+03  0.00000000000E+00 0.  1.
          3   -1    0    0  501    0  0.00000000000E+00 -0.00000000000E+00 -0.15105224377E+03  0.15105224377E+03  0.00000000000E+00 0. -1.
         23    2    1    2    0    0  0.29069739780E+02  0.72750684099E+02  0.31007297593E+02  0.15081974048E+03  0.12508968706E+03 0.  0.
          5    1    3    3  502    0  0.59967956368E+02  0.87498636989E+02  0.26893584823E+01  0.10619261893E+03  0.41800000000E+01 0. -1.
         -5    1    3    3    0  502 -0.30898216588E+02 -0.14747952890E+02  0.28317939111E+02  0.44627121555E+02  0.41800000000E+01 0. -1.
        -11    1    1    2    0    0 -0.41449575459E+01  0.13613717818E+02  0.12497994171E+02  0.18939742453E+02  0.00000000000E+00 0.  1.
         11    1    1    2    0    0 -0.24924782234E+02 -0.86364401916E+02 -0.64950905735E+02  0.11089939064E+03  0.00000000000E+00 0. -1.
</event>
<event>
 7    1  0.7017065E-006  0.9693236E+02  0.7561462E-02  0.1286882E+00
          1   -1    0    0  501    0  0.00000000000E+00  0.00000000000E+00  0.40991452113E+03  0.40991452113E+03  0.00000000000E+00 0. -1.
         -1   -1    0    0    0  501 -0.00000000000E+00 -0.00000000000E+00 -0.46922607261E+02  0.46922607261E+02  0.00000000000E+00 0.  1.
         23    2    1    2    0    0 -0.41329708435E+02  0.48557557898E+02  0.10402221191E+03  0.17473896047E+03  0.12508837879E+03 0.  0.
          5    1    3    3  502    0 -0.44265067034E+02  0.61587760569E+02  0.65220969373E+01  0.76239481634E+02  0.41800000000E+01 0.  1.
         -5    1    3    3    0  502  0.29353585989E+01 -0.13030202671E+02  0.97500114969E+02  0.98499478834E+02  0.41800000000E+01 0.  1.
        -11    1    1    2    0    0  0.63742061643E+02 -0.50627527926E+02  0.23722423394E+03  0.25080178264E+03  0.00000000000E+00 0. -1.
         11    1    1    2    0    0 -0.22412353209E+02  0.20699700284E+01  0.21745468020E+02  0.31296385282E+02  0.00000000000E+00 0.  1.
</event>
<event>
 7    1  0.7017065E-006  0.8829221E+02  0.7561462E-02  0.1307041E+00
         -2   -1    0    0    0  501 -0.00000000000E+00  0.00000000000E+00  0.33314489721E+02  0.33314489721E+02  0.00000000000E+00 0.  1.
          2   -1    0    0  501    0  0.00000000000E+00 -0.00000000000E+00 -0.62739936602E+03  0.62739936602E+03  0.00000000000E+00 0. -1.
         23    2    1    2    0    0 -0.32606145229E+02 -0.23516416181E+02 -0.12577834290E+03  0.18188903168E+03  0.12508895142E+03 0.  0.
          5    1    3    3  502    0 -0.51415168930E+02 -0.26784742868E+02 -0.36842957231E+01  0.58240780228E+02  0.41800000000E+01 0.  1.
         -5    1    3    3    0  502  0.18809023701E+02  0.32683266867E+01 -0.12209404717E+03  0.12364825145E+03  0.41800000000E+01 0.  1.
        -11    1    1    2    0    0  0.63834530330E+02  0.22461308887E+02 -0.34860098346E+03  0.35510843883E+03  0.00000000000E+00 0. -1.
         11    1    1    2    0    0 -0.31228385101E+02  0.10551072936E+01 -0.11970554994E+03  0.12371638523E+03  0.00000000000E+00 0.  1.
</event>
<event>
 7    1  0.7017065E-006  0.1217897E+03  0.7561462E-02  0.1240173E+00
         -2   -1    0    0    0  501 -0.00000000000E+00  0.00000000000E+00  0.89508721043E+02  0.89508721043E+02  0.00000000000E+00 0.  1.
          2   -1    0    0  501    0  0.00000000000E+00 -0.00000000000E+00 -0.24734617779E+03  0.24734617779E+03  0.00000000000E+00 0. -1.
         23    2    1    2    0    0  0.73444569140E+01  0.86402013827E+02 -0.24737154205E+02  0.15420675067E+03  0.12509414900E+03 0.  0.
          5    1    3    3  502    0  0.61233007652E+02  0.31989550059E+02 -0.33716585488E+02  0.76987616382E+02  0.41800000000E+01 0.  1.
         -5    1    3    3    0  502 -0.53888550738E+02  0.54412463768E+02  0.89794312839E+01  0.77219134288E+02  0.41800000000E+01 0.  1.
        -11    1    1    2    0    0  0.17623967192E+02 -0.19609230418E+02 -0.10111538914E+03  0.10449616288E+03  0.00000000000E+00 0. -1.
         11    1    1    2    0    0 -0.24968424106E+02 -0.66792783409E+02 -0.31984913408E+02  0.78151985282E+02  0.00000000000E+00 0.  1.
</event>
<event>
 6    1  0.7017065E-006  0.1687324E+03  0.7561462E-02  0.1179176E+00
         -2   -1    0    0    0  501 -0.00000000000E+00  0.00000000000E+00  0.51563390245E+02  0.51563390245E+02  0.00000000000E+00 0.  1.
          2   -1    0    0  501    0  0.00000000000E+00 -0.00000000000E+00 -0.58602389580E+03  0.58602389580E+03  0.00000000000E+00 0. -1.
          5    1    1    2  502    0 -0.71376419299E+02  0.11880884145E+03 -0.19892310467E+03  0.24248300561E+03  0.41800000000E+01 0. -1.
         -5    1    1    2    0  502  0.57257188438E+02 -0.11150013986E+03 -0.18669766056E+03  0.22490921652E+03  0.41800000000E+01 0.  1.
        -11    1    1    2    0    0  0.17263887736E+02 -0.38419434425E+02 -0.44509283205E+02  0.61279450493E+02  0.00000000000E+00 0. -1.
         11    1    1    2    0    0 -0.31446568750E+01  0.31110732830E+02 -0.10433045713E+03  0.10891561343E+03  0.00000000000E+00 0.  1.
</event>
<event>
 7    1  0.7017065E-006  0.1212613E+03  0.7561462E-02  0.1241031E+00
         -1   -1    0    0    0  501 -0.00000000000E+00  0.00000000000E+00  0.47885997246E+02  0.47885997246E+02  0.00000000000E+00 0.  1.
          1   -1    0    0  501    0  0.00000000000E+00 -0.00000000000E+00 -0.33944880499E+03  0.33944880499E+03  0.00000000000E+00 0. -1.
         23    2    1    2    0    0  0.26072839744E+02 -0.52101601999E+02 -0.11325249100E+03  0.17851887752E+03  0.12509393675E+03 0.  0.
          5    1    3    3  502    0 -0.42935024266E+02 -0.51118468383E+02 -0.40700868733E+02  0.78297811171E+02  0.41800000000E+01 0. -1.
         -5    1    3    3    0  502  0.69007864010E+02 -0.98313361611E+00 -0.72551622268E+02  0.10022106635E+03  0.41800000000E+01 0. -1.
        -11    1    1    2    0    0 -0.59470226617E+02  0.32608247004E+02 -0.92556371123E+02  0.11474618713E+03  0.00000000000E+00 0.  1.
         11    1    1    2    0    0  0.33397386873E+02  0.19493354996E+02 -0.85753945621E+02  0.94069737581E+02  0.00000000000E+00 0. -1.
</event>
<event>
 7    1  0.7017065E-006  0.9104433E+02  0.7561462E-02  0.1300342E+00
         -2   -1    0    0    0  501 -0.00000000000E+00  0.00000000000E+00  0.45612512017E+03  0.45612512017E+03  0.00000000000E+00 0.  1.
          2   -1    0    0  501    0  0.00000000000E+00 -0.00000000000E+00 -0.30503287618E+02  0.30503287618E+02  0.00000000000E+00 0. -1.
         23    2    1    2    0    0  0.20460109156E+02  0.12621129044E+02  0.33437327042E+03  0.35781240264E+03  0.12508526109E+03 0.  0.
          5    1    3    3  502    0  0.43159808422E+02  0.56715622339E+02  0.24856974133E+03  0.25861906269E+03  0.41800000000E+01 0. -1.
         -5    1    3    3    0  502 -0.22699699265E+02 -0.44094493295E+02  0.85803529095E+02  0.99193339952E+02  0.41800000000E+01 0. -1.
        -11    1    1    2    0    0 -0.50364403444E+01  0.22241060490E+02 -0.66524839015E+01  0.23754705747E+02  0.00000000000E+00 0. -1.
         11    1    1    2    0    0 -0.15423668812E+02 -0.34862189534E+02  0.97901046032E+02  0.10506129941E+03  0.00000000000E+00 0.  1.
</event>
<event>
 7    1  0.7017065E-006  0.1090111E+03  0.7561462E-02  0.1262412E+00
         -2   -1    0    0    0  501 -0.00000000000E+00  0.00000000000E+00  0.89928211646E+02  0.89928211646E+02  0.00000000000E+00 0.  1.
          2   -1    0    0  501    0  0.00000000000E+00 -0.00000000000E+00 -0.28131680860E+03  0.28131680860E+03  0.00000000000E+00 0. -1.
         23    2    1    2    0    0  0.22023221013E+02  0.87600685206E+02 -0.17158146236E+02  0.15524532367E+03  0.12509119165E+03 0.  0.
          5    1    3    3  502    0  0.49675808094E+02  0.30745339681E+02  0.39174294099E+02  0.70463178612E+02  0.41800000000E+01 0. -1.
         -5    1    3    3    0  502 -0.27652587082E+02  0.56855345525E+02 -0.56332440335E+02  0.84782145061E+02  0.41800000000E+01 0. -1.
        -11    1    1    2    0    0 -0.18241960777E+02 -0.15633516635E+02  0.34402452363E+01  0.24269554233E+02  0.00000000000E+00 0.  1.
         11    1    1    2    0    0 -0.37812602355E+01 -0.71967168571E+02 -0.17767069596E+03  0.19173014234E+03  0.00000000000E+00 0. -1.
</event>
<event>
 7    1  0.7073606E-006  0.4567248E+03  0.7561462E-02  0.1025735E+00
         -2   -1    0    0    0  501 -0.00000000000E+00  0.00000000000E+00  0.88073020415E+03  0.88073020415E+03  0.00000000000E+00 0. -1.
          2   -1    0    0  501    0  0.00000000000E+00 -0.00000000000E+00 -0.29001582521E+03  0.29001582521E+03  0.00000000000E+00 0.  1.
         23    2    1    2    0    0 -0.44071610363E+03 -0.71149670512E+02  0.54078469127E+03  0.71231206477E+03  0.12508971059E+03 0.  0.
          5    1    3    3  502    0 -0.13538535249E+03 -0.80658697736E+02  0.16916790711E+03  0.23123639935E+03  0.41800000000E+01 0. -1.
         -5    1    3    3    0  502 -0.30533075114E+03  0.95090272241E+01  0.37161678416E+03  0.48107566542E+03  0.41800000000E+01 0. -1.
        -11    1    1    2    0    0  0.29133005819E+03  0.75110902063E+02  0.66379796727E+02  0.30809272602E+03  0.00000000000E+00 0. -1.
         11    1    1    2    0    0  0.14938604543E+03 -0.39612315503E+01 -0.16450109060E+02  0.15034123857E+03  0.00000000000E+00 0.  1.
</event>
<event>
 7    1  0.7017065E-006  0.9515965E+02  0.7561462E-02  0.1290817E+00
          2   -1    0    0  501    0  0.00000000000E+00  0.00000000000E+00  0.37963770339E+02  0.37963770339E+02  0.00000000000E+00 0.  1.
         -2   -1    0    0    0  501 -0.00000000000E+00 -0.00000000000E+00 -0.55424070403E+03  0.55424070403E+03  0.00000000000E+00 0. -1.
         23    2    1    2    0    0 -0.81728779958E+02 -0.44269954195E+02 -0.22999635198E+03  0.27782400512E+03  0.12509369921E+03 0.  0.
          5    1    3    3  502    0 -0.43863687392E+02 -0.10488219213E+02 -0.22164750164E+03  0.22622801153E+03  0.41800000000E+01 0. -1.
         -5    1    3    3    0  502 -0.37865092566E+02 -0.33781734982E+02 -0.83488503313E+01  0.51595993597E+02  0.41800000000E+01 0. -1.
        -11    1    1    2    0    0  0.50716483223E+02  0.19190869735E+02 -0.46882455593E+02  0.71682744047E+02  0.00000000000E+00 0.  1.
         11    1    1    2    0    0  0.31012296735E+02  0.25079084460E+02 -0.23939812612E+03  0.24269772520E+03  0.00000000000E+00 0. -1.
</event>
<event>
 7    1  0.7017065E-006  0.6732172E+02  0.7561462E-02  0.1369445E+00
         -1   -1    0    0    0  501 -0.00000000000E+00  0.00000000000E+00  0.11029345439E+03  0.11029345439E+03  0.00000000000E+00 0.  1.
          1   -1    0    0  501    0  0.00000000000E+00 -0.00000000000E+00 -0.12211082824E+03  0.12211082824E+03  0.00000000000E+00 0. -1.
         23    2    1    2    0    0  0.97110243896E+01 -0.34483216678E+02  0.16347266563E+02  0.13114715831E+03  0.12509575445E+03 0.  0.
          5    1    3    3  502    0  0.30109989583E+02  0.26702091733E+01 -0.46264786308E+02  0.55422417322E+02  0.41800000000E+01 0. -1.
         -5    1    3    3    0  502 -0.20398965194E+02 -0.37153425852E+02  0.62612052870E+02  0.75724740991E+02  0.41800000000E+01 0. -1.
        -11    1    1    2    0    0  0.18503006804E+02  0.21545345813E+01  0.26107314480E+02  0.32071718841E+02  0.00000000000E+00 0.  1.
         11    1    1    2    0    0 -0.28214031194E+02  0.32328682097E+02 -0.54271954896E+02  0.69185405474E+02  0.00000000000E+00 0. -1.
</event>
<event>
 7    1  0.7017065E-006  0.1521899E+03  0.7561462E-02  0.1197808E+00
          2   -1    0    0  501    0  0.00000000000E+00  0.00000000000E+00  0.12923898817E+03  0.12923898817E+03  0.00000000000E+00 0. -1.
         -2   -1    0    0    0  501 -0.00000000000E+00 -0.00000000000E+00 -0.25361892267E+03  0.25361892267E+03  0.00000000000E+00 0.  1.
         23    2    1    2    0    0 -0.11729944447E+03  0.41914094570E+02 -0.14279247583E+03  0.22705333976E+03  0.12509027518E+03 0.  0.
          5    1    3    3  502    0 -0.12463055909E+03  0.66119039338E+02 -0.87392577091E+02  0.16601035676E+03  0.41800000000E+01 0. -1.
         -5    1    3    3    0  502  0.73311146141E+01 -0.24204944768E+02 -0.55399898743E+02  0.61042983000E+02  0.41800000000E+01 0. -1.
        -11    1    1    2    0    0  0.51813641534E+02 -0.49523314601E+02 -0.26077169170E+02  0.76270773498E+02  0.00000000000E+00 0.  1.
         11    1    1    2    0    0  0.65485802940E+02  0.76092200309E+01  0.44489710500E+02  0.79533797575E+02  0.00000000000E+00 0. -1.
</event>
<event>
 7    1  0.7017065E-006  0.9874557E+02  0.7561462E-02  0.1282956E+00
          1   -1    0    0  501    0  0.00000000000E+00  0.00000000000E+00  0.71464779310E+03  0.71464779310E+03  0.00000000000E+00 0. -1.
         -1   -1    0    0    0  501 -0.00000000000E+00 -0.00000000000E+00 -0.18826309362E+02  0.18826309362E+02  0.00000000000E+00 0.  1.
         23    2    1    2    0    0  0.20243566620E+02  0.21534974446E+02  0.30749936090E+03  0.33327967355E+03  0.12508367893E+03 0.  0.
          5    1    3    3  502    0  0.43567969874E+02  0.48564156412E+02  0.81701983224E+02  0.10463905461E+03  0.41800000000E+01 0.  1.
         -5    1    3    3    0  502 -0.23324403254E+02 -0.27029181966E+02  0.22579737768E+03  0.22864061894E+03  0.41800000000E+01 0.  1.
        -11    1    1    2    0    0 -0.36456147486E+02  0.26761301998E+02  0.16080061664E+03  0.16703908610E+03  0.00000000000E+00 0.  1.
         11    1    1    2    0    0  0.16212580866E+02 -0.48296276444E+02  0.22752150620E+03  0.23315534281E+03  0.00000000000E+00 0. -1.
</event>
<event>
 7    1  0.7017065E-006  0.1238069E+03  0.7561462E-02  0.1236946E+00
         -2   -1    0    0    0  501 -0.00000000000E+00  0.00000000000E+00  0.13267237641E+04  0.13267237641E+04  0.00000000000E+00 0.  1.
          2   -1    0    0  501    0  0.00000000000E+00 -0.00000000000E+00 -0.39553569049E+02  0.39553569049E+02  0.00000000000E+00 0. -1.
         23    2    1    2    0    0  0.25536666935E+02 -0.45445564548E+02  0.12341172252E+04  0.12415354196E+04  0.12508977489E+03 0.  0.
          5    1    3    3  502    0  0.46647275225E+02 -0.81011982636E+02  0.89560155570E+03  0.90047683401E+03  0.41800000000E+01 0. -1.
         -5    1    3    3    0  502 -0.21110608290E+02  0.35566418088E+02  0.33851566953E+03  0.34105858558E+03  0.41800000000E+01 0. -1.
        -11    1    1    2    0    0 -0.28333158490E+02  0.76349728919E+02  0.33458503018E+02  0.88042719178E+02  0.00000000000E+00 0. -1.
         11    1    1    2    0    0  0.27964915551E+01 -0.30904164371E+02  0.19594466842E+02  0.36699194423E+02  0.00000000000E+00 0.  1.
</event>
<event>
 7    1  0.7017065E-006  0.1289559E+03  0.7561462E-02  0.1229013E+00
          2   -1    0    0  501    0  0.00000000000E+00  0.00000000000E+00  0.60640835477E+02  0.60640835477E+02  0.00000000000E+00 0. -1.
         -2   -1    0    0    0  501 -0.00000000000E+00 -0.00000000000E+00 -0.44446151166E+03  0.44446151166E+03  0.00000000000E+00 0.  1.
         23    2    1    2    0    0  0.10779770605E+03  0.42492469770E+02 -0.26141599324E+03  0.31210954691E+03  0.12509233523E+03 0.  0.
          5    1    3    3  502    0  0.16419530624E+02  0.44835423585E+02 -0.16552979689E+02  0.50707886276E+02  0.41800000000E+01 0. -1.
         -5    1    3    3    0  502  0.91378175426E+02 -0.23429538149E+01 -0.24486301355E+03  0.26140166063E+03  0.41800000000E+01 0. -1.
        -11    1    1    2    0    0 -0.51020983123E+02 -0.69456332713E+01 -0.11449535472E+03  0.12554110399E+03  0.00000000000E+00 0.  1.
         11    1    1    2    0    0 -0.56776722927E+02 -0.35546836499E+02 -0.79093282219E+01  0.67451696230E+02  0.00000000000E+00 0. -1.
</event>
<event>
 7    1  0.7017065E-006  0.8928619E+02  0.7561462E-02  0.1304590E+00
         -3   -1    0    0    0  501 -0.00000000000E+00  0.00000000000E+00  0.89628515996E+02  0.89628515996E+02  0.00000000000E+00 0.  1.
          3   -1    0    0  501    0  0.00000000000E+00 -0.00000000000E+00 -0.15619754323E+03  0.15619754323E+03  0.00000000000E+00 0. -1.
         23    2    1    2    0    0 -0.20411145694E+02 -0.20886850037E+02  0.39953614513E+01  0.12851390539E+03  0.12508791146E+03 0.  0.
          5    1    3    3  502    0  0.48866809572E+02 -0.23485002617E+02 -0.15190589558E+02  0.56460046376E+02  0.41800000000E+01 0.  1.
         -5    1    3    3    0  502 -0.69277955266E+02  0.25981525800E+01  0.19185951009E+02  0.72053859014E+02  0.41800000000E+01 0.  1.
        -11    1    1    2    0    0  0.22414714709E+01  0.32889324755E+02 -0.85011553894E+02  0.91179472320E+02  0.00000000000E+00 0. -1.
         11    1    1    2    0    0  0.18169674223E+02 -0.12002474718E+02  0.14447165207E+02  0.26132681517E+02  0.00000000000E+00 0.  1.
</event>
<event>
 7    1  0.7017065E-006  0.1757413E+03  0.7561462E-02  0.1171989E+00
          1   -1    0    0  501    0  0.00000000000E+00  0.00000000000E+00  0.52042160158E+03  0.52042160158E+03  0.00000000000E+00 0. -1.
         -1   -1    0    0    0  501 -0.00000000000E+00 -0.00000000000E+00 -0.70139622555E+02  0.70139622555E+02  0.00000000000E+00 0.  1.
         23    2    1    2    0    0 -0.50457143838E+02 -0.14751726525E+03  0.26455187054E+03  0.33157748382E+03  0.12509463880E+03 0.  0.
          5    1    3    3  502    0  0.43245823604E+01  0.18768884268E+02  0.55323567693E+02  0.58729401253E+02  0.41800000000E+01 0.  1.
         -5    1    3    3    0  502 -0.54781726198E+02 -0.16628614952E+03  0.20922830285E+03  0.27284808256E+03  0.41800000000E+01 0.  1.
        -11    1    1    2    0    0  0.50302452638E+02  0.13403913822E+03  0.10603789309E+03  0.17815965337E+03  0.00000000000E+00 0.  1.
         11    1    1    2    0    0  0.15469120009E+00  0.13478127027E+02  0.79692215396E+02  0.80824086955E+02  0.00000000000E+00 0. -1.
</event>
<event>
 7    1  0.7017065E-006  0.1412458E+03  0.7561462E-02  0.1211662E+00
          2   -1    0    0  501    0  0.00000000000E+00  0.00000000000E+00  0.34967270631E+03  0.34967270631E+03  0.00000000000E+00 0.  1.
         -2   -1    0    0    0  501 -0.00000000000E+00 -0.00000000000E+00 -0.78681657871E+02  0.78681657871E+02  0.00000000000E+00 0. -1.
         23    2    1    2    0    0  0.11126769636E+03 -0.32281700555E+02  0.83423873077E+02  0.18981677133E+03  0.12509298795E+03 0.  0.
          5    1    3    3  502    0  0.55839414179E+02 -0.60585701435E+02 -0.37966308939E+01  0.82586646622E+02  0.41800000000E+01 0. -1.
         -5    1    3    3    0  502  0.55428282181E+02  0.28304000879E+02  0.87220503971E+02  0.10723012470E+03  0.41800000000E+01 0. -1.
        -11    1    1    2    0    0 -0.21490560038E+01 -0.17532621388E+02  0.22773875344E+01  0.17810046278E+02  0.00000000000E+00 0. -1.
         11    1    1    2    0    0 -0.10911864036E+03  0.49814321943E+02  0.18528978783E+03  0.22072754657E+03  0.00000000000E+00 0.  1.
</event>
<event>
 7    1  0.7017065E-006  0.1105471E+03  0.7561462E-02  0.1259560E+00
          1   -1    0    0  501    0  0.00000000000E+00  0.00000000000E+00  0.53643722987E+03  0.53643722987E+03  0.00000000000E+00 0. -1.
         -1   -1    0    0    0  501 -0.00000000000E+00 -0.00000000000E+00 -0.30901559978E+02  0.30901559978E+02  0.00000000000E+00 0.  1.
         23    2    1    2    0    0  0.67099407736E+02  0.83554690549E+01  0.24690325910E+03  0.28492219886E+03  0.12508915088E+03 0.  0.
          5    1    3    3  502    0  0.89086020352E+02 -0.21600183116E+02  0.22139266215E+03  0.23965614991E+03  0.41800000000E+01 0.  1.
         -5    1    3    3    0  502 -0.21986612616E+02  0.29955652171E+02  0.25510596950E+02  0.45266048956E+02  0.41800000000E+01 0.  1.
        -11    1    1    2    0    0 -0.29506934297E+02 -0.35061861155E+02  0.46333761408E+02  0.65167558842E+02  0.00000000000E+00 0.  1.
         11    1    1    2    0    0 -0.37592473439E+02  0.26706392100E+02  0.21229864938E+03  0.21724903214E+03  0.00000000000E+00 0. -1.
</event>
<event>
 7    1  0.7017065E-006  0.4922378E+02  0.7561462E-02  0.1449574E+00
         -4   -1    0    0    0  501 -0.00000000000E+00  0.00000000000E+00  0.74663840736E+02  0.74663840736E+02  0.00000000000E+00 0. -1.
          4   -1    0    0  501    0  0.00000000000E+00 -0.00000000000E+00 -0.22573229644E+03  0.22573229644E+03  0.00000000000E+00 0.  1.
         23    2    1    2    0    0 -0.35276656418E+02 -0.88004487399E+01  0.10688311863E+02  0.12157612625E+03  0.11551893385E+03 0.  0.
          5    1    3    3  502    0 -0.43278696921E+02 -0.80892564723E+01  0.58262924152E+02  0.73147265213E+02  0.41800000000E+01 0. -1.
         -5    1    3    3    0  502  0.80020405027E+01 -0.71119226759E+00 -0.47574612289E+02  0.48428861035E+02  0.41800000000E+01 0.  1.
        -11    1    1    2    0    0  0.52479157431E+01  0.13762808882E+02 -0.52299689707E+00  0.14738692402E+02  0.00000000000E+00 0. -1.
         11    1    1    2    0    0  0.30028740675E+02 -0.49623601422E+01 -0.16123377067E+03  0.16408131852E+03  0.00000000000E+00 0.  1.
</event>
<event>
 6    1  0.7017065E-006  0.1111233E+03  0.7561462E-02  0.1258504E+00
          2   -1    0    0  501    0  0.00000000000E+00  0.00000000000E+00  0.17373988427E+03  0.17373988427E+03  0.00000000000E+00 0. -1.
         -2   -1    0    0    0  501 -0.00000000000E+00 -0.00000000000E+00 -0.11751844047E+03  0.11751844047E+03  0.00000000000E+00 0.  1.
          5    1    1    2  502    0 -0.74857787793E+02 -0.48052856764E+02  0.40702205459E+02  0.97912753845E+02  0.41800000000E+01 0. -1.
         -5    1    1    2    0  502  0.18128336618E+02  0.48096556710E+02 -0.52234880362E+02  0.73402114971E+02  0.41800000000E+01 0.  1.
        -11    1    1    2    0    0  0.12067139113E+02 -0.26919448217E+02  0.60508978201E+02  0.67317226485E+02  0.00000000000E+00 0. -1.
         11    1    1    2    0    0  0.44662312062E+02  0.26875748271E+02  0.72451404997E+01  0.52626229436E+02  0.00000000000E+00 0.  1.
</event>
<event>
 7    1  0.7017065E-006  0.9620617E+02  0.7561462E-02  0.1288482E+00
          3   -1    0    0  501    0  0.00000000000E+00  0.00000000000E+00  0.11654244611E+03  0.11654244611E+03  0.00000000000E+00 0. -1.
         -3   -1    0    0    0  501 -0.00000000000E+00 -0.00000000000E+00 -0.12496536012E+03  0.12496536012E+03  0.00000000000E+00 0.  1.
         23    2    1    2    0    0 -0.43444679624E+02 -0.29280870820E+02 -0.17004205425E+02  0.13668313713E+03  0.12509327476E+03 0.  0.
          5    1    3    3  502    0  0.25037672102E+02  0.27706253941E+02 -0.27939587273E+02  0.46825361384E+02  0.41800000000E+01 0. -1.
         -5    1    3    3    0  502 -0.68482351726E+02 -0.56987124761E+02  0.10935381848E+02  0.89857775750E+02  0.41800000000E+01 0. -1.
        -11    1    1    2    0    0  0.21816570525E+02 -0.74220728064E+01  0.43838185106E+02  0.49526118237E+02  0.00000000000E+00 0. -1.
         11    1    1    2    0    0  0.21628109099E+02  0.36702943626E+02 -0.35256893697E+02  0.55298550860E+02  0.00000000000E+00 0.  1.
</event>
<event>
 7    1  0.7017065E-006  0.1261985E+03  0.7561462E-02  0.1233208E+00
          2   -1    0    0  501    0  0.00000000000E+00  0.00000000000E+00  0.61993449062E+03  0.61993449062E+03  0.00000000000E+00 0.  1.
         -2   -1    0    0    0  501 -0.00000000000E+00 -0.00000000000E+00 -0.31500351965E+02  0.31500351965E+02  0.00000000000E+00 0. -1.
         23    2    1    2    0    0  0.30317008397E+02 -0.74140933722E+02  0.23756813936E+03  0.28018243952E+03  0.12509028549E+03 0.  0.
          5    1    3    3  502    0 -0.30775755373E+02  0.57934283430E+01  0.12596872649E+03  0.12987033297E+03  0.41800000000E+01 0. -1.
         -5    1    3    3    0  502  0.61092763770E+02 -0.79934362065E+02  0.11159941286E+03  0.15031210655E+03  0.41800000000E+01 0. -1.
        -11    1    1    2    0    0  0.29414212780E+02  0.44716672919E+02  0.18287240264E+03  0.19054420064E+03  0.00000000000E+00 0.  1.
         11    1    1    2    0    0 -0.59731221177E+02  0.29424260803E+02  0.16799359667E+03  0.18070820244E+03  0.00000000000E+00 0. -1.
</event>
<event>
 7    1  0.7017065E-006  0.2144611E+03  0.7561462E-02  0.1138081E+00
          2   -1    0    0  501    0  0.00000000000E+00  0.00000000000E+00  0.83243055735E+03  0.83243055735E+03  0.00000000000E+00 0. -1.
         -2   -1    0    0    0  501 -0.00000000000E+00 -0.00000000000E+00 -0.68228587793E+02  0.68228587793E+02  0.00000000000E+00 0.  1.
         23    2    1    2    0    0 -0.20997873305E+03 -0.21538160055E+02  0.38761910588E+03  0.45872335207E+03  0.12499432713E+03 0.  0.
          5    1    3    3  502    0 -0.11900559760E+03 -0.33648578138E+02  0.10747276701E+03  0.16389761170E+03  0.41800000000E+01 0.  1.
         -5    1    3    3    0  502 -0.90973135444E+02  0.12110418083E+02  0.28014633887E+03  0.29482574037E+03  0.41800000000E+01 0.  1.
        -11    1    1    2    0    0  0.18600773454E+03  0.89228449978E+01  0.36975359887E+03  0.41400026371E+03  0.00000000000E+00 0. -1.
         11    1    1    2    0    0  0.23970998510E+02  0.12615315058E+02  0.68292648029E+01  0.27935529373E+02  0.00000000000E+00 0.  1.
</event>
<event>
 7    1  0.7017065E-006  0.9693879E+02  0.7561462E-02  0.1286868E+00
         -1   -1    0    0    0  501 -0.00000000000E+00  0.00000000000E+00  0.15626256125E+03  0.15626256125E+03  0.00000000000E+00 0.  1.
          1   -1    0    0  501    0  0.00000000000E+00 -0.00000000000E+00 -0.84308101722E+02  0.84308101722E+02  0.00000000000E+00 0. -1.
         23    2    1    2    0    0 -0.86216155479E+01  0.38949475647E+02  0.59494623304E+02  0.14414836976E+03  0.12509096048E+03 0.  0.
          5    1    3    3  502    0 -0.45036605979E+02  0.69656981683E+02  0.32106763050E+02  0.89043290645E+02  0.41800000000E+01 0.  1.
         -5    1    3    3    0  502  0.36414990431E+02 -0.30707506035E+02  0.27387860254E+02  0.55105079116E+02  0.41800000000E+01 0.  1.
        -11    1    1    2    0    0  0.16869397013E+02 -0.47931084924E+02 -0.25285088495E+02  0.56756507625E+02  0.00000000000E+00 0. -1.
         11    1    1    2    0    0 -0.82477814648E+01  0.89816092768E+01  0.37744924719E+02  0.39665785588E+02  0.00000000000E+00 0.  1.
</event>
<event>
 7    1  0.7017065E-006  0.1025895E+03  0.7561462E-02  0.1274943E+00
         -2   -1    0    0    0  501 -0.00000000000E+00  0.00000000000E+00  0.10663895318E+03  0.10663895318E+03  0.00000000000E+00 0.  1.
          2   -1    0    0  501    0  0.00000000000E+00 -0.00000000000E+00 -0.21101190695E+03  0.21101190695E+03  0.00000000000E+00 0. -1.
         23    2    1    2    0    0 -0.21443662278E+02 -0.94179759904E+02 -0.94109900005E+02  0.18393972099E+03  0.12508992706E+03 0.  0.
          5    1    3    3  502    0 -0.38157432477E+01  0.32476882777E+01 -0.84083417949E+02  0.84336237465E+02  0.41800000000E+01 0. -1.
         -5    1    3    3    0  502 -0.17627919030E+02 -0.97427448181E+02 -0.10026482056E+02  0.99603483528E+02  0.41800000000E+01 0. -1.
        -11    1    1    2    0    0  0.97557359968E+01  0.80818334959E+01  0.33939030188E+02  0.36226346595E+02  0.00000000000E+00 0.  1.
         11    1    1    2    0    0  0.11687926281E+02  0.86097926408E+02 -0.44202083953E+02  0.97484792548E+02  0.00000000000E+00 0. -1.
</event>
<event>
 7    1  0.7017065E-006  0.9003549E+02  0.7561462E-02  0.1302766E+00
         -2   -1    0    0    0  501 -0.00000000000E+00  0.00000000000E+00  0.11513539112E+04  0.11513539112E+04  0.00000000000E+00 0. -1.
          2   -1    0    0  501    0  0.00000000000E+00 -0.00000000000E+00 -0.16090285271E+02  0.16090285271E+02  0.00000000000E+00 0.  1.
         23    2    1    2    0    0  0.19803780168E+02 -0.54932682029E+02  0.86681880863E+03  0.87774233822E+03  0.12508787332E+03 0.  0.
          5    1    3    3  502    0 -0.74993746533E+01 -0.53289439866E+02  0.82965479375E+03  0.83140877685E+03  0.41800000000E+01 0.  1.
         -5    1    3    3    0  502  0.27303154821E+02 -0.16432421630E+01  0.37164014875E+02  0.46333561374E+02  0.41800000000E+01 0.  1.
        -11    1    1    2    0    0  0.21282474335E+02 -0.84427495316E+01  0.21292228769E+02  0.31266319569E+02  0.00000000000E+00 0.  1.
         11    1    1    2    0    0 -0.41086254503E+02  0.63375431561E+02  0.24715258851E+03  0.25843553866E+03  0.00000000000E+00 0. -1.
</event>
<event>
 7    1  0.7017065E-006  0.9253732E+02  0.7561462E-02  0.1296821E+00
          1   -1    0    0  501    0  0.00000000000E+00  0.00000000000E+00  0.33842356088E+02  0.33842356088E+02  0.00000000000E+00 0. -1.
         -1   -1    0    0    0  501 -0.00000000000E+00 -0.00000000000E+00 -0.43004359765E+03  0.43004359765E+03  0.00000000000E+00 0.  1.
         23    2    1    2    0    0 -0.47757421215E+02 -0.14207515316E+01 -0.27991528069E+03  0.31029459252E+03  0.12508948783E+03 0.  0.
          5    1    3    3  502    0  0.18653238947E+02 -0.84623800874E+01 -0.21841008842E+03  0.21940828226E+03  0.41800000000E+01 0. -1.
         -5    1    3    3    0  502 -0.66410660162E+02  0.70416285558E+01 -0.61505192269E+02  0.90886310256E+02  0.41800000000E+01 0. -1.
        -11    1    1    2    0    0  0.22019944805E+02 -0.41631872675E+02 -0.37541153165E+02  0.60228141035E+02  0.00000000000E+00 0. -1.
         11    1    1    2    0    0  0.25737476410E+02  0.43052624206E+02 -0.78744807708E+02  0.93363220188E+02  0.00000000000E+00 0.  1.
</event>
<event>
 7    1  0.7017065E-006  0.3138252E+03  0.7561462E-02  0.1078527E+00
          2   -1    0    0  501    0  0.00000000000E+00  0.00000000000E+00  0.11650054612E+04  0.11650054612E+04  0.00000000000E+00 0. -1.
         -2   -1    0    0    0  501 -0.00000000000E+00 -0.00000000000E+00 -0.90167344200E+02  0.90167344200E+02  0.00000000000E+00 0.  1.
         23    2    1    2    0    0  0.30356782058E+03  0.32437360851E+02  0.55103786040E+03  0.64225704478E+03  0.12508310800E+03 0.  0.
          5    1    3    3  502    0  0.29663263473E+03  0.13904841979E+02  0.54579441980E+03  0.62136405247E+03  0.41800000000E+01 0.  1.
         -5    1    3    3    0  502  0.69351858547E+01  0.18532518872E+02  0.52434406032E+01  0.20892992317E+02  0.41800000000E+01 0.  1.
        -11    1    1    2    0    0 -0.14533064435E+03  0.12713251663E+02  0.31438829710E+03  0.34658710927E+03  0.00000000000E+00 0. -1.
         11    1    1    2    0    0 -0.15823717623E+03 -0.45150612514E+02  0.20941195954E+03  0.26632865139E+03  0.00000000000E+00 0.  1.
</event>
<event>
 7    1  0.7017065E-006  0.1216545E+03  0.7561462E-02  0.1240392E+00
          3   -1    0    0  501    0  0.00000000000E+00  0.00000000000E+00  0.13585904819E+03  0.13585904819E+03  0.00000000000E+00 0. -1.
         -3   -1    0    0    0  501 -0.00000000000E+00 -0.00000000000E+00 -0.11392674500E+03  0.11392674500E+03  0.00000000000E+00 0.  1.
         23    2    1    2    0    0  0.52025408603E+02 -0.32506553807E+02  0.14359768919E+02  0.14005515972E+03  0.12508367448E+03 0.  0.
          5    1    3    3  502    0  0.92205408689E+02 -0.35167230342E+02  0.12049204297E+02  0.99504910460E+02  0.41800000000E+01 0.  1.
         -5    1    3    3    0  502 -0.40180000086E+02  0.26606765355E+01  0.23105646218E+01  0.40550249265E+02  0.41800000000E+01 0.  1.
        -11    1    1    2    0    0 -0.46389093681E+02 -0.20521226235E+02  0.20741503131E+02  0.54802177793E+02  0.00000000000E+00 0. -1.
         11    1    1    2    0    0 -0.56363149214E+01  0.53027780042E+02 -0.13168968861E+02  0.54928455676E+02  0.00000000000E+00 0.  1.
</event>
<event>
 7    1  0.7017065E-006  0.1016043E+03  0.7561462E-02  0.1276958E+00
          2   -1    0    0  501    0  0.00000000000E+00  0.00000000000E+00  0.23821229888E+02  0.23821229888E+02  0.00000000000E+00 0.  1.
         -2   -1    0    0    0  501 -0.00000000000E+00 -0.00000000000E+00 -0.73831436212E+03  0.73831436212E+03  0.00000000000E+00 0. -1.
         23    2    1    2    0    0 -0.11935349348E+02 -0.30740257696E+02 -0.59754950334E+03  0.61139264577E+03  0.12509253515E+03 0.  0.
          5    1    3    3  502    0  0.24738333233E+00  0.48591135506E+02 -0.20846190062E+03  0.21409109290E+03  0.41800000000E+01 0.  1.
         -5    1    3    3    0  502 -0.12182732680E+02 -0.79331393202E+02 -0.38908760272E+03  0.39730155287E+03  0.41800000000E+01 0.  1.
        -11    1    1    2    0    0  0.18766486598E+02  0.50120335915E+02 -0.11861155981E+03  0.13012659687E+03  0.00000000000E+00 0. -1.
         11    1    1    2    0    0 -0.68311372500E+01 -0.19380078219E+02  0.16679309187E+01  0.20616349373E+02  0.00000000000E+00 0.  1.
</event>
<event>
 7    1  0.7017065E-006  0.1397199E+03  0.7561462E-02  0.1213706E+00
         -1   -1    0    0    0  501 -0.00000000000E+00  0.00000000000E+00  0.32388256449E+02  0.32388256449E+02  0.00000000000E+00 0.  1.
          1   -1    0    0  501    0  0.00000000000E+00 -0.00000000000E+00 -0.82607957248E+03  0.82607957248E+03  0.00000000000E+00 0. -1.
         23    2    1    2    0    0  0.11216616013E+03 -0.13777152390E+02 -0.30261149927E+03  0.34640069527E+03  0.12509462332E+03 0.  0.
          5    1    3    3  502    0  0.12727457524E+03 -0.11925737581E+02 -0.30472186570E+03  0.33047530703E+03  0.41800000000E+01 0. -1.
         -5    1    3    3    0  502 -0.15108415116E+02 -0.18514148083E+01  0.21103664272E+01  0.15925388239E+02  0.41800000000E+01 0. -1.
        -11    1    1    2    0    0 -0.52328119414E+02 -0.31176850999E+02 -0.31345631352E+03  0.31931972787E+03  0.00000000000E+00 0. -1.
         11    1    1    2    0    0 -0.59838040714E+02  0.44954003389E+02 -0.17762350324E+03  0.19274740579E+03  0.00000000000E+00 0.  1.
</event>
<event>
 7    1  0.7017065E-006  0.9855935E+02  0.7561462E-02  0.1283355E+00
          2   -1    0    0  501    0  0.00000000000E+00  0.00000000000E+00  0.31547492089E+03  0.31547492089E+03  0.00000000000E+00 0. -1.
         -2   -1    0    0    0  501 -0.00000000000E+00 -0.00000000000E+00 -0.60869621192E+02  0.60869621192E+02  0.00000000000E+00 0.  1.
         23    2    1    2    0    0 -0.42152609297E+02  0.63327204540E+02  0.85758271279E+02  0.16954551270E+03  0.12491606173E+03 0.  0.
          5    1    3    3  502    0 -0.43478308396E+01  0.20753617169E+01  0.96446552925E+02  0.96657233202E+02  0.41800000000E+01 0. -1.
         -5    1    3    3    0  502 -0.37804778457E+02  0.61251842823E+02 -0.10688281646E+02  0.72888279497E+02  0.41800000000E+01 0. -1.
        -11    1    1    2    0    0  0.29312781321E+02 -0.86947367779E+02  0.13978209810E+03  0.16720681464E+03  0.00000000000E+00 0.  1.
         11    1    1    2    0    0  0.12839827975E+02  0.23620163239E+02  0.29064930323E+02  0.39592214746E+02  0.00000000000E+00 0. -1.
</event>
<event>
 7    1  0.7017065E-006  0.8704672E+02  0.7561462E-02  0.1310165E+00
          1   -1    0    0  501    0  0.00000000000E+00  0.00000000000E+00  0.16970595366E+03  0.16970595366E+03  0.00000000000E+00 0.  1.
         -1   -1    0    0    0  501 -0.00000000000E+00 -0.00000000000E+00 -0.80541652322E+02  0.80541652322E+02  0.00000000000E+00 0. -1.
         23    2    1    2    0    0 -0.90457346535E+01  0.17362715124E+02  0.96291790972E+01  0.12697900840E+03  0.12509060034E+03 0.  0.
          5    1    3    3  502    0 -0.12825830722E+02  0.59319192420E+02 -0.31022992923E+02  0.68287385460E+02  0.41800000000E+01 0. -1.
         -5    1    3    3    0  502  0.37800960680E+01 -0.41956477296E+02  0.40652172020E+02  0.58691622940E+02  0.41800000000E+01 0. -1.
        -11    1    1    2    0    0  0.11344576838E+02  0.25548345074E+02  0.75020738209E+02  0.80059531107E+02  0.00000000000E+00 0.  1.
         11    1    1    2    0    0 -0.22988421840E+01 -0.42911060198E+02  0.45143840342E+01  0.43209066478E+02  0.00000000000E+00 0. -1.
</event>
<event>
 7    1  0.7017065E-006  0.1015025E+03  0.7561462E-02  0.1277168E+00
          1   -1    0    0  501    0  0.00000000000E+00  0.00000000000E+00  0.10106419133E+03  0.10106419133E+03  0.00000000000E+00 0. -1.
         -1   -1    0    0    0  501 -0.00000000000E+00 -0.00000000000E+00 -0.19527076698E+03  0.19527076698E+03  0.00000000000E+00 0.  1.
         23    2    1    2    0    0 -0.82231998325E+02 -0.16935168662E+02 -0.80536583412E+02  0.17082766603E+03  0.12508816382E+03 0.  0.
          5    1    3    3  502    0 -0.80228918654E+02 -0.70639808321E+00  0.79616847787E+01  0.80734374408E+02  0.41800000000E+01 0. -1.
         -5    1    3    3    0  502 -0.20030796714E+01 -0.16228770579E+02 -0.88498268191E+02  0.90093291623E+02  0.41800000000E+01 0. -1.
        -11    1    1    2    0    0  0.79844102472E+02  0.35276784378E+02 -0.37783908843E+02  0.95116538957E+02  0.00000000000E+00 0.  1.
         11    1    1    2    0    0  0.23878958530E+01 -0.18341615716E+02  0.24113916608E+02  0.30390753328E+02  0.00000000000E+00 0. -1.
</event>
<event>
 7    1  0.7017065E-006  0.1011888E+03  0.7561462E-02  0.1277816E+00
          3   -1    0    0  501    0  0.00000000000E+00  0.00000000000E+00  0.14712442831E+03  0.14712442831E+03  0.00000000000E+00 0. -1.
         -3   -1    0    0    0  501 -0.00000000000E+00 -0.00000000000E+00 -0.13842662409E+03  0.13842662409E+03  0.00000000000E+00 0.  1.
         23    2    1    2    0    0  0.30056134630E+02 -0.10430810376E+02 -0.82434241023E+02  0.15315248262E+03  0.12509238908E+03 0.  0.
          5    1    3    3  502    0  0.34832087279E+02  0.53962858063E+02 -0.40439804935E+02  0.76013910422E+02  0.41800000000E+01 0. -1.
         -5    1    3    3    0  502 -0.47759526488E+01 -0.64393668439E+02 -0.41994436087E+02  0.77138572199E+02  0.41800000000E+01 0. -1.
        -11    1    1    2    0    0 -0.14302209882E+02  0.38527186203E+02  0.61973779644E+01  0.41560856317E+02  0.00000000000E+00 0.  1.
         11    1    1    2    0    0 -0.15753924748E+02 -0.28096375827E+02  0.84934667285E+02  0.90837713459E+02  0.00000000000E+00 0. -1.
</event>
<event>
 7    1  0.7017065E-006  0.1866052E+03  0.7561462E-02  0.1161559E+00
         -1   -1    0    0    0  501 -0.00000000000E+00  0.00000000000E+00  0.64073392826E+02  0.64073392826E+02  0.00000000000E+00 0.  1.
          1   -1    0    0  501    0  0.00000000000E+00 -0.00000000000E+00 -0.67068784204E+03  0.67068784204E+03  0.00000000000E+00 0. -1.
         23    2    1    2    0    0  0.15976946302E+03  0.74259270867E+02 -0.30679089944E+03  0.37524479474E+03  0.12508908575E+03 0.  0.
          5    1    3    3  502    0  0.19080530515E+02 -0.19628766223E+02 -0.34444132630E+01  0.27905044184E+02  0.41800000000E+01 0. -1.
         -5    1    3    3    0  502  0.14068893251E+03  0.93888037090E+02 -0.30334648618E+03  0.34733975056E+03  0.41800000000E+01 0. -1.
        -11    1    1    2    0    0 -0.92011078438E+02 -0.46629151825E+02 -0.88607649660E+02  0.13598393998E+03  0.00000000000E+00 0.  1.
         11    1    1    2    0    0 -0.67758384586E+02 -0.27630119041E+02 -0.21121590012E+03  0.22353250015E+03  0.00000000000E+00 0. -1.
</event>
<event>
 7    1  0.7017065E-006  0.1462282E+03  0.7561462E-02  0.1205186E+00
          1   -1    0    0  501    0  0.00000000000E+00  0.00000000000E+00  0.55532871931E+03  0.55532871931E+03  0.00000000000E+00 0. -1.
         -1   -1    0    0    0  501 -0.00000000000E+00 -0.00000000000E+00 -0.47112726381E+02  0.47112726381E+02  0.00000000000E+00 0.  1.
         23    2    1    2    0    0  0.23964190575E+02 -0.10236558328E+03  0.15993658734E+03  0.22856977289E+03  0.12494572437E+03 0.  0.
          5    1    3    3  502    0 -0.48397232515E+02 -0.63693386933E+02  0.91818554528E+02  0.12184932913E+03  0.41800000000E+01 0. -1.
         -5    1    3    3    0  502  0.72361423091E+02 -0.38672196347E+02  0.68118032811E+02  0.10672044376E+03  0.41800000000E+01 0. -1.
        -11    1    1    2    0    0  0.27638251593E+02  0.46927259660E+02  0.20115520596E+03  0.20839735491E+03  0.00000000000E+00 0. -1.
         11    1    1    2    0    0 -0.51602442168E+02  0.55438323620E+02  0.14712419963E+03  0.16547431789E+03  0.00000000000E+00 0.  1.
</event>
<event>
 7    1  0.7017065E-006  0.1169558E+03  0.7561462E-02  0.1248205E+00
          1   -1    0    0  501    0  0.00000000000E+00  0.00000000000E+00  0.43277588154E+02  0.43277588154E+02  0.00000000000E+00 0. -1.
         -1   -1    0    0    0  501 -0.00000000000E+00 -0.00000000000E+00 -0.39347731923E+03  0.39347731923E+03  0.00000000000E+00 0.  1.
         23    2    1    2    0    0 -0.63250863940E+02 -0.16233255449E+02 -0.24685435792E+03  0.28433236491E+03  0.12507449517E+03 0.  0.
          5    1    3    3  502    0  0.32713630502E+02 -0.22805136264E+02 -0.42479236700E+02  0.58414157626E+02  0.41800000000E+01 0. -1.
         -5    1    3    3    0  502 -0.95964494441E+02  0.65718808151E+01 -0.20437512122E+03  0.22591820728E+03  0.41800000000E+01 0. -1.
        -11    1    1    2    0    0  0.65256980118E+02  0.38107552586E+02 -0.40264310504E+02  0.85626361120E+02  0.00000000000E+00 0. -1.
         11    1    1    2    0    0 -0.20061161785E+01 -0.21874297137E+02 -0.63081062656E+02  0.66796181352E+02  0.00000000000E+00 0.  1.
</event>
<event>
 7    1  0.7017065E-006  0.1085697E+03  0.7561462E-02  0.1263242E+00
         -1   -1    0    0    0  501 -0.00000000000E+00  0.00000000000E+00  0.50977858734E+02  0.50977858734E+02  0.00000000000E+00 0.  1.
          1   -1    0    0  501    0  0.00000000000E+00 -0.00000000000E+00 -0.29430147266E+03  0.29430147266E+03  0.00000000000E+00 0. -1.
         23    2    1    2    0    0  0.63505013766E+01 -0.34878185443E+02 -0.75707071129E+02  0.15045191469E+03  0.12508957322E+03 0.  0.
          5    1    3    3  502    0  0.44910957473E+02 -0.58804031668E+02 -0.16828658549E+02  0.75997265675E+02  0.41800000000E+01 0. -1.
         -5    1    3    3    0  502 -0.38560456096E+02  0.23925846225E+02 -0.58878412580E+02  0.74454649014E+02  0.41800000000E+01 0. -1.
        -11    1    1    2    0    0  0.19195677570E+02 -0.25487769404E+02 -0.38324551006E+02  0.49868543556E+02  0.00000000000E+00 0.  1.
         11    1    1    2    0    0 -0.25546178947E+02  0.60365954847E+02 -0.12929199180E+03  0.14495887315E+03  0.00000000000E+00 0. -1.
</event>
<event>
 7    1  0.7017065E-006  0.1208602E+03  0.7561462E-02  0.1241685E+00
         -2   -1    0    0    0  501 -0.00000000000E+00  0.00000000000E+00  0.54425306751E+02  0.54425306751E+02  0.00000000000E+00 0. -1.
          2   -1    0    0  501    0  0.00000000000E+00 -0.00000000000E+00 -0.36307802895E+03  0.36307802895E+03  0.00000000000E+00 0.  1.
         23    2    1    2    0    0  0.30749048950E+02 -0.87716033197E+02 -0.13149361995E+03  0.20390324783E+03  0.12508539442E+03 0.  0.
          5    1    3    3  502    0 -0.88507182506E+01 -0.81508216278E+02 -0.18798135885E+02  0.84218565929E+02  0.41800000000E+01 0.  1.
         -5    1    3    3    0  502  0.39599767201E+02 -0.62078169195E+01 -0.11269548407E+03  0.11968468191E+03  0.41800000000E+01 0.  1.
        -11    1    1    2    0    0 -0.54181868588E+02  0.44288200450E+02 -0.10476873583E+03  0.12599050596E+03  0.00000000000E+00 0. -1.
         11    1    1    2    0    0  0.23432819638E+02  0.43427832747E+02 -0.72390366411E+02  0.87609581910E+02  0.00000000000E+00 0.  1.
</event>
<event>
 7    1  0.7017065E-006  0.2090085E+03  0.7561462E-02  0.1142354E+00
          1   -1    0    0  501    0  0.00000000000E+00  0.00000000000E+00  0.34761714895E+03  0.34761714895E+03  0.00000000000E+00 0. -1.
         -1   -1    0    0    0  501 -0.00000000000E+00 -0.00000000000E+00 -0.14069832823E+03  0.14069832823E+03  0.00000000000E+00 0.  1.
         23    2    1    2    0    0 -0.13406965942E+03 -0.13624482925E+03  0.11943570254E+03  0.25777826454E+03  0.12508964608E+03 0.  0.
          5    1    3    3  502    0 -0.15805976517E+02  0.19910303463E+02 -0.41984159487E+01  0.26102646879E+02  0.41800000000E+01 0.  1.
         -5    1    3    3    0  502 -0.11826368290E+03 -0.15615513271E+03  0.12363411849E+03  0.23167561766E+03  0.41800000000E+01 0.  1.
        -11    1    1    2    0    0  0.10171222321E+03  0.72720781185E+02  0.97487830442E+02  0.15854830636E+03  0.00000000000E+00 0. -1.
         11    1    1    2    0    0  0.32357436206E+02  0.63524048061E+02 -0.10004712259E+02  0.71988906279E+02  0.00000000000E+00 0.  1.
</event>
<event>
 7    1  0.7017065E-006  0.1155193E+03  0.7561462E-02  0.1250677E+00
         -2   -1    0    0    0  501 -0.00000000000E+00  0.00000000000E+00  0.21488144996E+02  0.21488144996E+02  0.00000000000E+00 0.  1.
          2   -1    0    0  501    0  0.00000000000E+00 -0.00000000000E+00 -0.67912532922E+03  0.67912532922E+03  0.00000000000E+00 0. -1.
         23    2    1    2    0    0  0.35785885676E+02  0.19742816029E+02 -0.27168087113E+03  0.30187428457E+03  0.12508868674E+03 0.  0.
          5    1    3    3  502    0 -0.42251724527E+02  0.30142288332E+02 -0.12344866243E+03  0.13398063452E+03  0.41800000000E+01 0.  1.
         -5    1    3    3    0  502  0.78037610204E+02 -0.10399472304E+02 -0.14823220870E+03  0.16789365005E+03  0.41800000000E+01 0.  1.
        -11    1    1    2    0    0  0.11353943142E+02  0.29712487283E+02 -0.12657953274E+03  0.13051483454E+03  0.00000000000E+00 0.  1.
         11    1    1    2    0    0 -0.47139828819E+02 -0.49455303312E+02 -0.25937678035E+03  0.26822435511E+03  0.00000000000E+00 0. -1.
</event>
<event>
 6    1  0.7017065E-006  0.1887951E+03  0.7561462E-02  0.1159553E+00
         -2   -1    0    0    0  501 -0.00000000000E+00  0.00000000000E+00  0.20696052694E+03  0.20696052694E+03  0.00000000000E+00 0.  1.
          2   -1    0    0  501    0  0.00000000000E+00 -0.00000000000E+00 -0.43177747110E+03  0.43177747110E+03  0.00000000000E+00 0. -1.
          5    1    1    2  502    0  0.27641593122E+02  0.50429844604E+02 -0.75584316675E+01  0.58153496768E+02  0.41800000000E+01 0. -1.
         -5    1    1    2    0  502  0.63641885437E+02 -0.15030549150E+03  0.12238663077E+03  0.20405389031E+03  0.41800000000E+01 0.  1.
        -11    1    1    2    0    0 -0.63018919965E+01  0.64163308417E+02 -0.19136062297E+03  0.20192952239E+03  0.00000000000E+00 0. -1.
         11    1    1    2    0    0 -0.84981586562E+02  0.35712338482E+02 -0.14828452029E+03  0.17460108858E+03  0.00000000000E+00 0.  1.
</event>
<event>
 7    1  0.7017065E-006  0.1612008E+03  0.7561462E-02  0.1187348E+00
         -2   -1    0    0    0  501 -0.00000000000E+00  0.00000000000E+00  0.57136518145E+02  0.57136518145E+02  0.00000000000E+00 0.  1.
          2   -1    0    0  501    0  0.00000000000E+00 -0.00000000000E+00 -0.53981374811E+03  0.53981374811E+03  0.00000000000E+00 0. -1.
         23    2    1    2    0    0 -0.13066033405E+03 -0.21300338801E+02 -0.19171849149E+03  0.26444208469E+03  0.12509120213E+03 0.  0.
          5    1    3    3  502    0  0.33249547349E+01 -0.34686838451E+02 -0.86999169078E+02  0.93811299457E+02  0.41800000000E+01 0. -1.
         -5    1    3    3    0  502 -0.13398528878E+03  0.13386499650E+02 -0.10471932242E+03  0.17063078523E+03  0.41800000000E+01 0. -1.
        -11    1    1    2    0    0  0.48110331194E+02 -0.28754695136E+02 -0.59594915848E+02  0.81810698902E+02  0.00000000000E+00 0.  1.
         11    1    1    2    0    0  0.82550002852E+02  0.50055033937E+02 -0.23136382262E+03  0.25069748266E+03  0.00000000000E+00 0. -1.
</event>
<event>
 6    1  0.7017065E-006  0.1864277E+03  0.7561462E-02  0.1161723E+00
          2   -1    0    0  501    0  0.00000000000E+00  0.00000000000E+00  0.86756956364E+03  0.86756956364E+03  0.00000000000E+00 0. -1.
         -2   -1    0    0    0  501 -0.00000000000E+00 -0.00000000000E+00 -0.53991731680E+02  0.53991731680E+02  0.00000000000E+00 0.  1.
          5    1    1    2  502    0 -0.23259349028E+02 -0.55023085694E+02  0.89277420674E+02  0.10750101171E+03  0.41800000000E+01 0. -1.
         -5    1    1    2    0  502 -0.12849610275E+03  0.54008161965E+02  0.11767070110E+03  0.18246094453E+03  0.41800000000E+01 0.  1.
        -11    1    1    2    0    0  0.62605554218E+02  0.42016600421E+02  0.21402075990E+03  0.22691349849E+03  0.00000000000E+00 0.  1.
         11    1    1    2    0    0  0.89149897564E+02 -0.41001676692E+02  0.39260895029E+03  0.40468584059E+03  0.00000000000E+00 0. -1.
</event>
<event>
 6    1  0.7017065E-006  0.1666233E+03  0.7561462E-02  0.1181416E+00
          1   -1    0    0  501    0  0.00000000000E+00  0.00000000000E+00  0.18238507148E+03  0.18238507148E+03  0.00000000000E+00 0. -1.
         -1   -1    0    0    0  501 -0.00000000000E+00 -0.00000000000E+00 -0.15690288147E+03  0.15690288147E+03  0.00000000000E+00 0.  1.
          5    1    1    2  502    0  0.30909536814E+02  0.12188509028E+03 -0.14003787822E+02  0.12658970405E+03  0.41800000000E+01 0. -1.
         -5    1    1    2    0  502 -0.70122811273E+02 -0.68292138037E+02  0.96146000817E+01  0.98442560477E+02  0.41800000000E+01 0.  1.
        -11    1    1    2    0    0 -0.25640680366E+02 -0.49707461660E+00  0.12094190652E+01  0.25673999831E+02  0.00000000000E+00 0. -1.
         11    1    1    2    0    0  0.64853954826E+02 -0.53095877629E+02  0.28661958681E+02  0.88581688589E+02  0.00000000000E+00 0.  1.
</event>
<event>
 6    1  0.7017065E-006  0.1272116E+03  0.7561462E-02  0.1231653E+00
          1   -1    0    0  501    0  0.00000000000E+00  0.00000000000E+00  0.30651264360E+03  0.30651264360E+03  0.00000000000E+00 0. -1.
         -1   -1    0    0    0  501 -0.00000000000E+00 -0.00000000000E+00 -0.13844622458E+03  0.13844622458E+03  0.00000000000E+00 0.  1.
          5    1    1    2  502    0 -0.25169175413E+02  0.37340608965E+02  0.42562464919E+02  0.62103496591E+02  0.41800000000E+01 0. -1.
         -5    1    1    2    0  502  0.11312428406E+03 -0.30981224078E+02 -0.79474934716E+02  0.14174158718E+03  0.41800000000E+01 0.  1.
        -11    1    1    2    0    0 -0.65070952560E+02  0.68176143923E+01  0.46055276738E+02  0.80011232015E+02  0.00000000000E+00 0.  1.
         11    1    1    2    0    0 -0.22884156082E+02 -0.13176999279E+02  0.15892361209E+03  0.16110255239E+03  0.00000000000E+00 0. -1.
</event>
<event>
 7    1  0.7017065E-006  0.8983494E+02  0.7561462E-02  0.1303252E+00
         -1   -1    0    0    0  501 -0.00000000000E+00  0.00000000000E+00  0.11982825381E+03  0.11982825381E+03  0.00000000000E+00 0.  1.
          1   -1    0    0  501    0  0.00000000000E+00 -0.00000000000E+00 -0.15969422896E+03  0.15969422896E+03  0.00000000000E+00 0. -1.
         23    2    1    2    0    0  0.72059253397E+02  0.17283721480E+02  0.24002367733E+02  0.14736083367E+03  0.12509132110E+03 0.  0.
          5    1    3    3  502    0  0.71572501003E+02  0.22448511973E+02  0.68920521922E+02  0.10195130863E+03  0.41800000000E+01 0.  1.
         -5    1    3    3    0  502  0.48675239448E+00 -0.51647904932E+01 -0.44918154189E+02  0.45409525041E+02  0.41800000000E+01 0.  1.
        -11    1    1    2    0    0 -0.21681112795E+02 -0.37726768470E+02  0.56826223432E+01  0.43882478371E+02  0.00000000000E+00 0.  1.
         11    1    1    2    0    0 -0.50378140602E+02  0.20443046990E+02 -0.69550965229E+02  0.88279170731E+02  0.00000000000E+00 0. -1.
</event>
<event>
 7    1  0.7017065E-006  0.1293187E+03  0.7561462E-02  0.1228470E+00
          1   -1    0    0  501    0  0.00000000000E+00  0.00000000000E+00  0.49621310533E+03  0.49621310533E+03  0.00000000000E+00 0. -1.
         -1   -1    0    0    0  501 -0.00000000000E+00 -0.00000000000E+00 -0.44756258476E+02  0.44756258476E+02  0.00000000000E+00 0.  1.
         23    2    1    2    0    0  0.57080336564E+02 -0.60818546920E+02  0.13606568085E+03  0.20277550279E+03  0.12508786733E+03 0.  0.
          5    1    3    3  502    0 -0.30883790010E+02 -0.30802004376E+01  0.74453039760E+02  0.80771428424E+02  0.41800000000E+01 0. -1.
         -5    1    3    3    0  502  0.87964126574E+02 -0.57738346483E+02  0.61612641095E+02  0.12200407436E+03  0.41800000000E+01 0. -1.
        -11    1    1    2    0    0  0.18969728298E+02 -0.69004885026E+01  0.48234434700E+02  0.52287933829E+02  0.00000000000E+00 0.  1.
         11    1    1    2    0    0 -0.76050064862E+02  0.67719035423E+02  0.26715673129E+03  0.28590592719E+03  0.00000000000E+00 0. -1.
</event>
<event>
 7    1  0.7017065E-006  0.1776780E+03  0.7561462E-02  0.1170069E+00
          1   -1    0    0  501    0  0.00000000000E+00  0.00000000000E+00  0.91819693211E+03  0.91819693211E+03  0.00000000000E+00 0. -1.
         -1   -1    0    0    0  501 -0.00000000000E+00 -0.00000000000E+00 -0.44553735354E+02  0.44553735354E+02  0.00000000000E+00 0.  1.
         23    2    1    2    0    0 -0.60205080380E+02  0.15923487422E+03  0.45293955417E+03  0.49978037003E+03  0.12508309901E+03 0.  0.
          5    1    3    3  502    0 -0.26123262820E+02  0.66406419900E+02  0.34903711227E+03  0.35628165208E+03  0.41800000000E+01 0.  1.
         -5    1    3    3    0  502 -0.34081817559E+02  0.92828454321E+02  0.10390244190E+03  0.14349871795E+03  0.41800000000E+01 0.  1.
        -11    1    1    2    0    0 -0.48120957815E+01 -0.89224246143E+02  0.13658063366E+03  0.16321271966E+03  0.00000000000E+00 0.  1.
         11    1    1    2    0    0  0.65017176161E+02 -0.70010628078E+02  0.28412300892E+03  0.29975757778E+03  0.00000000000E+00 0. -1.
</event>
<event>
 7    1  0.7017065E-006  0.9178251E+02  0.7561462E-02  0.1298592E+00
         -1   -1    0    0    0  501 -0.00000000000E+00  0.00000000000E+00  0.53368232974E+02  0.53368232974E+02  0.00000000000E+00 0.  1.
          1   -1    0    0  501    0  0.00000000000E+00 -0.00000000000E+00 -0.26855305101E+03  0.26855305101E+03  0.00000000000E+00 0. -1.
         23    2    1    2    0    0 -0.31015116473E+02 -0.32030200920E+02 -0.94512953352E+02  0.16299461812E+03  0.12508667381E+03 0.  0.
          5    1    3    3  502    0 -0.62951207078E+02 -0.46413129360E+02 -0.20431813806E+02  0.80944205876E+02  0.41800000000E+01 0.  1.
         -5    1    3    3    0  502  0.31936090605E+02  0.14382928441E+02 -0.74081139546E+02  0.82050412248E+02  0.41800000000E+01 0.  1.
        -11    1    1    2    0    0  0.37574728241E+02  0.30939267401E+00 -0.39377731526E+01  0.37781767873E+02  0.00000000000E+00 0.  1.
         11    1    1    2    0    0 -0.65596117680E+01  0.31720808246E+02 -0.11673409153E+03  0.12114489798E+03  0.00000000000E+00 0. -1.
</event>
<event>
 6    1  0.7017065E-006  0.1314125E+03  0.7561462E-02  0.1225375E+00
         -2   -1    0    0    0  501 -0.00000000000E+00  0.00000000000E+00  0.31930021542E+02  0.31930021542E+02  0.00000000000E+00 0.  1.
          2   -1    0    0  501    0  0.00000000000E+00 -0.00000000000E+00 -0.62656807078E+03  0.62656807078E+03  0.00000000000E+00 0. -1.
          5    1    1    2  502    0 -0.64498137233E+02 -0.53829122940E+02 -0.16004566469E+03  0.18080285221E+03  0.41800000000E+01 0. -1.
         -5    1    1    2    0  502  0.76931383718E+02 -0.88160804821E+00 -0.99793457247E+02  0.12607704606E+03  0.41800000000E+01 0.  1.
        -11    1    1    2    0    0 -0.48752289077E+02  0.25290032283E+02 -0.12270994903E+03  0.13443996063E+03  0.00000000000E+00 0. -1.
         11    1    1    2    0    0  0.36319042591E+02  0.29420698705E+02 -0.21208897827E+03  0.21717823342E+03  0.00000000000E+00 0.  1.
</event>
<event>
 7    1  0.7017065E-006  0.1264397E+03  0.7561462E-02  0.1232836E+00
         -2   -1    0    0    0  501 -0.00000000000E+00  0.00000000000E+00  0.42030215073E+02  0.42030215073E+02  0.00000000000E+00 0.  1.
          2   -1    0    0  501    0  0.00000000000E+00 -0.00000000000E+00 -0.48625347208E+03  0.48625347208E+03  0.00000000000E+00 0. -1.
         23    2    1    2    0    0  0.26718166586E+02 -0.89189472282E+02 -0.23269746514E+03  0.28011511163E+03  0.12509093928E+03 0.  0.
          5    1    3    3  502    0  0.54686417856E+02 -0.44587569116E+02 -0.41955792053E+02  0.82197423952E+02  0.41800000000E+01 0.  1.
         -5    1    3    3    0  502 -0.27968251270E+02 -0.44601903167E+02 -0.19074167309E+03  0.19791768768E+03  0.41800000000E+01 0.  1.
        -11    1    1    2    0    0 -0.38335360721E+02 -0.11000161172E+01 -0.71876073763E+02  0.81467661662E+02  0.00000000000E+00 0.  1.
         11    1    1    2    0    0  0.11617194135E+02  0.90289488399E+02 -0.13964971811E+03  0.16670091386E+03  0.00000000000E+00 0. -1.
</event>
<event>
 7    1  0.7017065E-006  0.1236554E+03  0.7561462E-02  0.1237186E+00
         -2   -1    0    0    0  501 -0.00000000000E+00  0.00000000000E+00  0.12970410392E+03  0.12970410392E+03  0.00000000000E+00 0.  1.
          2   -1    0    0  501    0  0.00000000000E+00 -0.00000000000E+00 -0.18605711286E+03  0.18605711286E+03  0.00000000000E+00 0. -1.
         23    2    1    2    0    0  0.44926150959E+01 -0.61790896074E+02  0.62889169950E+02  0.15310267922E+03  0.12508830585E+03 0.  0.
          5    1    3    3  502    0  0.53851009967E+02  0.50714392846E+01  0.38043324523E+02  0.66260227223E+02  0.41800000000E+01 0.  1.
         -5    1    3    3    0  502 -0.49358394871E+02 -0.66862335359E+02  0.24845845426E+02  0.86842451997E+02  0.41800000000E+01 0.  1.
        -11    1    1    2    0    0  0.39815784825E+02  0.50153937880E+02 -0.59849181515E+02  0.87650663056E+02  0.00000000000E+00 0. -1.
         11    1    1    2    0    0 -0.44308399921E+02  0.11636958194E+02 -0.59392997375E+02  0.75007874499E+02  0.00000000000E+00 0.  1.
</event>
<event>
 6    1  0.7017065E-006  0.1457958E+03  0.7561462E-02  0.1205736E+00
          2   -1    0    0  501    0  0.00000000000E+00  0.00000000000E+00  0.62724346029E+03  0.62724346029E+03  0.00000000000E+00 0. -1.
         -2   -1    0    0    0  501 -0.00000000000E+00 -0.00000000000E+00 -0.50076866892E+02  0.50076866892E+02  0.00000000000E+00 0.  1.
          5    1    1    2  502    0  0.13155670245E+03  0.24263720535E+02  0.38693366072E+03  0.40942767895E+03  0.41800000000E+01 0. -1.
         -5    1    1    2    0  502 -0.27103241705E+02  0.28584328380E+01 -0.44234621070E+01  0.27924823477E+02  0.41800000000E+01 0.  1.
        -11    1    1    2    0    0  0.11229994072E+02  0.50682604547E+00  0.56771249776E+02  0.57873521067E+02  0.00000000000E+00 0. -1.
         11    1    1    2    0    0 -0.11568345481E+03 -0.27628979419E+02  0.13788514501E+03  0.18209430369E+03  0.00000000000E+00 0.  1.
</event>
<event>
 7    1  0.7017065E-006  0.1328437E+03  0.7561462E-02  0.1223296E+00
          3   -1    0    0  501    0  0.00000000000E+00  0.00000000000E+00  0.55609038814E+03  0.55609038814E+03  0.00000000000E+00 0. -1.
         -3   -1    0    0    0  501 -0.00000000000E+00 -0.00000000000E+00 -0.64639129095E+02  0.64639129095E+02  0.00000000000E+00 0.  1.
         23    2    1    2    0    0 -0.66268166688E+02 -0.60488087296E+02  0.49828515232E+02  0.16178262271E+03  0.12506181456E+03 0.  0.
          5    1    3    3  502    0  0.18342515331E+02 -0.59121848887E+02 -0.26891253087E+01  0.62101084366E+02  0.41800000000E+01 0.  1.
         -5    1    3    3    0  502 -0.84610682019E+02 -0.13662384084E+01  0.52517640541E+02  0.99681538346E+02  0.41800000000E+01 0.  1.
        -11    1    1    2    0    0  0.84208593323E+02  0.46685513041E+02  0.40145949801E+03  0.41284422348E+03  0.00000000000E+00 0. -1.
         11    1    1    2    0    0 -0.17940426635E+02  0.13802574254E+02  0.40163245795E+02  0.46102671036E+02  0.00000000000E+00 0.  1.
</event>
<event>
 7    1  0.7017065E-006  0.1594017E+03  0.7561462E-02  0.1189374E+00
         -1   -1    0    0    0  501 -0.00000000000E+00  0.00000000000E+00  0.45499011759E+03  0.45499011759E+03  0.00000000000E+00 0.  1.
          1   -1    0    0  501    0  0.00000000000E+00 -0.00000000000E+00 -0.86206769782E+02  0.86206769782E+02  0.00000000000E+00 0. -1.
         23    2    1    2    0    0  0.52999128397E+02  0.11480401628E+03  0.33871407394E+03  0.38257429939E+03  0.12508797268E+03 0.  0.
          5    1    3    3  502    0  0.41351022988E+02  0.14142181752E+03  0.26511133330E+03  0.30333402219E+03  0.41800000000E+01 0.  1.
         -5    1    3    3    0  502  0.11648105409E+02 -0.26617801237E+02  0.73602740638E+02  0.79240277207E+02  0.41800000000E+01 0.  1.
        -11    1    1    2    0    0 -0.63764522055E+02 -0.64855793051E+02  0.49986545813E+02  0.10378267161E+03  0.00000000000E+00 0.  1.
         11    1    1    2    0    0  0.10765393658E+02 -0.49948223233E+02 -0.19917271943E+02  0.54839916360E+02  0.00000000000E+00 0. -1.
</event>
<event>
 7    1  0.7017065E-006  0.1698353E+03  0.7561462E-02  0.1178020E+00
          3   -1    0    0  501    0  0.00000000000E+00  0.00000000000E+00  0.63270074747E+03  0.63270074747E+03  0.00000000000E+00 0. -1.
         -3   -1    0    0    0  501 -0.00000000000E+00 -0.00000000000E+00 -0.50665511569E+02  0.50665511569E+02  0.00000000000E+00 0.  1.
         23    2    1    2    0    0 -0.11430073496E+03 -0.84185244466E+02  0.30857894083E+03  0.36196647455E+03  0.12508777950E+03 0.  0.
          5    1    3    3  502    0 -0.95654139015E+02  0.62383978722E+00  0.11416706017E+03  0.14900232721E+03  0.41800000000E+01 0.  1.
         -5    1    3    3    0  502 -0.18646595948E+02 -0.84809084253E+02  0.19441188066E+03  0.21296414734E+03  0.41800000000E+01 0.  1.
        -11    1    1    2    0    0  0.98387082094E+02  0.33612177860E+02  0.23154617079E+03  0.25381770157E+03  0.00000000000E+00 0. -1.
         11    1    1    2    0    0  0.15913652869E+02  0.50573066606E+02  0.41910124287E+02  0.67582082916E+02  0.00000000000E+00 0.  1.
</event>
<event>
 7    1  0.7017065E-006  0.1339136E+03  0.7561462E-02  0.1221762E+00
         -3   -1    0    0    0  501 -0.00000000000E+00  0.00000000000E+00  0.12599601753E+04  0.12599601753E+04  0.00000000000E+00 0. -1.
          3   -1    0    0  501    0  0.00000000000E+00 -0.00000000000E+00 -0.36734377413E+02  0.36734377413E+02  0.00000000000E+00 0.  1.
         23    2    1    2    0    0  0.10373725368E+03 -0.77259544335E+01  0.10987657666E+04  0.11107452455E+04  0.12509069744E+03 0.  0.
          5    1    3    3  502    0  0.90246283069E+02  0.28495007741E+02  0.40663536803E+03  0.41752383406E+03  0.41800000000E+01 0. -1.
         -5    1    3    3    0  502  0.13490970616E+02 -0.36220962175E+02  0.69213039853E+03  0.69322141149E+03  0.41800000000E+01 0. -1.
        -11    1    1    2    0    0 -0.11490822410E+02 -0.31837037240E+02  0.13807677521E+02  0.36555271827E+02  0.00000000000E+00 0. -1.
         11    1    1    2    0    0 -0.92246431275E+02  0.39562991673E+02  0.11065235386E+03  0.14939403538E+03  0.00000000000E+00 0.  1.
</event>
<event>
 7    1  0.7017065E-006  0.8590702E+02  0.7561462E-02  0.1313077E+00
         -2   -1    0    0    0  501 -0.00000000000E+00  0.00000000000E+00  0.85720386943E+02  0.85720386943E+02  0.00000000000E+00 0.  1.
          2   -1    0    0  501    0  0.00000000000E+00 -0.00000000000E+00 -0.16975630189E+03  0.16975630189E+03  0.00000000000E+00 0. -1.
         23    2    1    2    0    0 -0.10713087616E+02 -0.64511293484E+01  0.63598365853E+01  0.12587445710E+03  0.12509014394E+03 0.  0.
          5    1    3    3  502    0  0.19384034988E+02 -0.41689513310E+02 -0.39341288121E+02  0.60654477852E+02  0.41800000000E+01 0.  1.
         -5    1    3    3    0  502 -0.30097122603E+02  0.35238383962E+02  0.45701124707E+02  0.65219979245E+02  0.41800000000E+01 0.  1.
        -11    1    1    2    0    0 -0.53485047837E+01  0.40826885708E+02 -0.12622537704E+02  0.43067035632E+02  0.00000000000E+00 0.  1.
         11    1    1    2    0    0  0.16061592399E+02 -0.34375756360E+02 -0.77773213831E+02  0.86535196107E+02  0.00000000000E+00 0. -1.
</event>
<event>
 7    1  0.7017065E-006  0.1507338E+03  0.7561462E-02  0.1199574E+00
          1   -1    0    0  501    0  0.00000000000E+00  0.00000000000E+00  0.73408874165E+03  0.73408874165E+03  0.00000000000E+00 0. -1.
         -1   -1    0    0    0  501 -0.00000000000E+00 -0.00000000000E+00 -0.47140963206E+02  0.47140963206E+02  0.00000000000E+00 0.  1.
         23    2    1    2    0    0 -0.66686608469E+02 -0.93210249736E+02  0.30368027542E+03  0.34785769860E+03  0.12509202368E+03 0.  0.
          5    1    3    3  502    0  0.54074650720E+01 -0.73787345700E+02  0.23469770224E+03  0.24611846112E+03  0.41800000000E+01 0.  1.
         -5    1    3    3    0  502 -0.72094073541E+02 -0.19422904036E+02  0.68982573176E+02  0.10173923748E+03  0.41800000000E+01 0.  1.
        -11    1    1    2    0    0  0.74940029834E+02  0.18198076979E+02  0.33506773309E+03  0.34382781132E+03  0.00000000000E+00 0. -1.
         11    1    1    2    0    0 -0.82534213646E+01  0.75012172757E+02  0.48199769931E+02  0.89544194939E+02  0.00000000000E+00 0.  1.
</event>
<event>
 7    1  0.7017065E-006  0.1121081E+03  0.7561462E-02  0.1256715E+00
         -1   -1    0    0    0  501 -0.00000000000E+00  0.00000000000E+00  0.30665566625E+03  0.30665566625E+03  0.00000000000E+00 0.  1.
          1   -1    0    0  501    0  0.00000000000E+00 -0.00000000000E+00 -0.55598271735E+02  0.55598271735E+02  0.00000000000E+00 0. -1.
         23    2    1    2    0    0 -0.59539829051E+02  0.69491379753E+01  0.19487265534E+03  0.23753889421E+03  0.12188557217E+03 0.  0.
          5    1    3    3  502    0 -0.86938124261E+02  0.18938637817E+02  0.18573370844E+03  0.20598881597E+03  0.41800000000E+01 0. -1.
         -5    1    3    3    0  502  0.27398295210E+02 -0.11989499842E+02  0.91389468926E+01  0.31550078243E+02  0.41800000000E+01 0.  1.
        -11    1    1    2    0    0  0.32651893667E+02  0.39515346348E+02  0.66862577371E+01  0.51694436834E+02  0.00000000000E+00 0. -1.
         11    1    1    2    0    0  0.26887935384E+02 -0.46464484324E+02  0.49498481445E+02  0.73020606941E+02  0.00000000000E+00 0.  1.
</event>
<event>
 7    1  0.7017065E-006  0.1089755E+03  0.7561462E-02  0.1262479E+00
          2   -1    0    0  501    0  0.00000000000E+00  0.00000000000E+00  0.24928763646E+03  0.24928763646E+03  0.00000000000E+00 0. -1.
         -2   -1    0    0    0  501 -0.00000000000E+00 -0.00000000000E+00 -0.54063697600E+02  0.54063697600E+02  0.00000000000E+00 0.  1.
         23    2    1    2    0    0  0.13336775674E+02  0.34633679311E+02  0.84496783083E+02  0.15544912948E+03  0.12508942472E+03 0.  0.
          5    1    3    3  502    0  0.40397732567E+02  0.66479220835E+02  0.82402580310E+02  0.11339806542E+03  0.41800000000E+01 0.  1.
         -5    1    3    3    0  502 -0.27060956894E+02 -0.31845541524E+02  0.20942027726E+01  0.42051064056E+02  0.41800000000E+01 0.  1.
        -11    1    1    2    0    0 -0.15636422812E+02 -0.65376276911E+02  0.76615278991E+02  0.10192377679E+03  0.00000000000E+00 0. -1.
         11    1    1    2    0    0  0.22996471384E+01  0.30742597600E+02  0.34111876786E+02  0.45978427789E+02  0.00000000000E+00 0.  1.
</event>
<event>
 7    1  0.7017065E-006  0.1278856E+03  0.7561462E-02  0.1230627E+00
         -3   -1    0    0    0  501 -0.00000000000E+00  0.00000000000E+00  0.88327614365E+03  0.88327614365E+03  0.00000000000E+00 0.  1.
          3   -1    0    0  501    0  0.00000000000E+00 -0.00000000000E+00 -0.21039288616E+02  0.21039288616E+02  0.00000000000E+00 0. -1.
         23    2    1    2    0    0  0.25505276100E+02  0.67329524170E+02  0.59484320672E+03  0.61210456619E+03  0.12509906249E+03 0.  0.
          5    1    3    3  502    0  0.69472967425E+02  0.75413091797E+01  0.28791181748E+03  0.29630061018E+03  0.41800000000E+01 0. -1.
         -5    1    3    3    0  502 -0.43967691325E+02  0.59788214991E+02  0.30693138924E+03  0.31580395602E+03  0.41800000000E+01 0. -1.
        -11    1    1    2    0    0 -0.57106327359E+02 -0.40992457496E+02  0.21104112020E+03  0.22244070808E+03  0.00000000000E+00 0.  1.
         11    1    1    2    0    0  0.31601051260E+02 -0.26337066675E+02  0.56352528109E+02  0.69770157990E+02  0.00000000000E+00 0. -1.
</event>
<event>
 7    1  0.7017065E-006  0.1414338E+03  0.7561462E-02  0.1211413E+00
          2   -1    0    0  501    0  0.00000000000E+00  0.00000000000E+00  0.11853110866E+03  0.11853110866E+03  0.00000000000E+00 0. -1.
         -2   -1    0    0    0  501 -0.00000000000E+00 -0.00000000000E+00 -0.25073716579E+03  0.25073716579E+03  0.00000000000E+00 0.  1.
         23    2    1    2    0    0 -0.73311630109E+02  0.10596786475E+03 -0.30052682489E+02  0.18211142825E+03  0.12513043237E+03 0.  0.
          5    1    3    3  502    0 -0.22054699205E+02  0.98767868227E+02  0.27141577829E+02  0.10486009345E+03  0.41800000000E+01 0.  1.
         -5    1    3    3    0  502 -0.51256930904E+02  0.71999965246E+01 -0.57194260318E+02  0.77251334804E+02  0.41800000000E+01 0.  1.
        -11    1    1    2    0    0  0.38373856002E+01 -0.13243989405E+02  0.16374128955E+02  0.21406561673E+02  0.00000000000E+00 0. -1.
         11    1    1    2    0    0  0.69474244509E+02 -0.92723875347E+02 -0.11852750359E+03  0.16575028452E+03  0.00000000000E+00 0.  1.
</event>
<event>
 7    1  0.7017065E-006  0.1386722E+03  0.7561462E-02  0.1215127E+00
          2   -1    0    0  501    0  0.00000000000E+00  0.00000000000E+00  0.14898343184E+03  0.14898343184E+03  0.00000000000E+00 0.  1.
         -2   -1    0    0    0  501 -0.00000000000E+00 -0.00000000000E+00 -0.13610492061E+03  0.13610492061E+03  0.00000000000E+00 0. -1.
         23    2    1    2    0    0 -0.70474554473E+02  0.56922848748E+02 -0.23502944496E+01  0.15436195738E+03  0.12496085973E+03 0.  0.
          5    1    3    3  502    0  0.44402528089E+01  0.73135335832E+02 -0.19011681668E+02  0.75811672137E+02  0.41800000000E+01 0.  1.
         -5    1    3    3    0  502 -0.74914807282E+02 -0.16212487084E+02  0.16661387218E+02  0.78550285242E+02  0.41800000000E+01 0.  1.
        -11    1    1    2    0    0  0.97836224681E+01 -0.65208542292E+02 -0.52317272866E+01  0.66145628932E+02  0.00000000000E+00 0. -1.
         11    1    1    2    0    0  0.60690932005E+02  0.82856935440E+01  0.20460532963E+02  0.64580766133E+02  0.00000000000E+00 0.  1.
</event>
<event>
 7    1  0.7017065E-006  0.1103307E+03  0.7561462E-02  0.1259959E+00
         -4   -1    0    0    0  501 -0.00000000000E+00  0.00000000000E+00  0.14968323088E+03  0.14968323088E+03  0.00000000000E+00 0. -1.
          4   -1    0    0  501    0  0.00000000000E+00 -0.00000000000E+00 -0.90346360852E+02  0.90346360852E+02  0.00000000000E+00 0.  1.
         23    2    1    2    0    0 -0.26527307921E+02 -0.38923189944E+02  0.61180016299E+02  0.14702092354E+03  0.12511372739E+03 0.  0.
          5    1    3    3  502    0 -0.68271973212E+02 -0.55916891749E+02  0.42774060900E+02  0.98157291095E+02  0.41800000000E+01 0. -1.
         -5    1    3    3    0  502  0.41744665291E+02  0.16993701805E+02  0.18405955400E+02  0.48863632443E+02  0.41800000000E+01 0. -1.
        -11    1    1    2    0    0  0.44624125657E+02  0.49050539710E+02 -0.15600757499E+02  0.68122328726E+02  0.00000000000E+00 0.  1.
         11    1    1    2    0    0 -0.18096817736E+02 -0.10127349766E+02  0.13757611228E+02  0.24886339469E+02  0.00000000000E+00 0. -1.
</event>
<event>
 7    1  0.7017065E-006  0.1499149E+03  0.7561462E-02  0.1200578E+00
         -1   -1    0    0    0  501 -0.00000000000E+00  0.00000000000E+00  0.74688343855E+02  0.74688343855E+02  0.00000000000E+00 0.  1.
          1   -1    0    0  501    0  0.00000000000E+00 -0.00000000000E+00 -0.48763999359E+03  0.48763999359E+03  0.00000000000E+00 0. -1.
         23    2    1    2    0    0 -0.12148404766E+03  0.18255727570E+02 -0.74174094842E+02  0.19037098295E+03  0.12509064464E+03 0.  0.
          5    1    3    3  502    0 -0.14264145307E+03 -0.16064959773E+01 -0.46612950253E+02  0.15013129086E+03  0.41800000000E+01 0. -1.
         -5    1    3    3    0  502  0.21157405413E+02  0.19862223548E+02 -0.27561144588E+02  0.40239692085E+02  0.41800000000E+01 0. -1.
        -11    1    1    2    0    0  0.36295767827E+02 -0.22151884938E+02 -0.31101581570E+02  0.52682038159E+02  0.00000000000E+00 0. -1.
         11    1    1    2    0    0  0.85188279834E+02  0.38961573673E+01 -0.30767597333E+03  0.31927531634E+03  0.00000000000E+00 0.  1.
</event>
<event>
 7    1  0.7017065E-006  0.1187014E+03  0.7561462E-02  0.1245255E+00
          2   -1    0    0  501    0  0.00000000000E+00  0.00000000000E+00  0.80202437566E+03  0.80202437566E+03  0.00000000000E+00 0.  1.
         -2   -1    0    0    0  501 -0.00000000000E+00 -0.00000000000E+00 -0.19005481556E+02  0.19005481556E+02  0.00000000000E+00 0. -1.
         23    2    1    2    0    0 -0.57346846782E+02  0.16151525360E+02  0.44564125195E+03  0.46668350987E+03  0.12509132799E+03 0.  0.
          5    1    3    3  502    0  0.25923998248E+02  0.35670957467E+02  0.83109398737E+02  0.94175981281E+02  0.41800000000E+01 0. -1.
         -5    1    3    3    0  502 -0.83270845030E+02 -0.19519432107E+02  0.36253185321E+03  0.37250752859E+03  0.41800000000E+01 0. -1.
        -11    1    1    2    0    0  0.60547798329E+02 -0.46885471260E+02  0.25946767793E+03  0.27053236256E+03  0.00000000000E+00 0.  1.
         11    1    1    2    0    0 -0.32009515474E+01  0.30733945900E+02  0.77909964219E+02  0.83813984788E+02  0.00000000000E+00 0. -1.
</event>
<event>
 7    1  0.7017065E-006  0.1089324E+03  0.7561462E-02  0.1262560E+00
         -2   -1    0    0    0  501 -0.00000000000E+00  0.00000000000E+00  0.25950898360E+03  0.25950898360E+03  0.00000000000E+00 0.  1.
          2   -1    0    0  501    0  0.00000000000E+00 -0.00000000000E+00 -0.55561667810E+02  0.55561667810E+02  0.00000000000E+00 0. -1.
         23    2    1    2    0    0  0.11007618241E+01 -0.51701396304E+02  0.11877916999E+03  0.18008107597E+03  0.12508579713E+03 0.  0.
          5    1    3    3  502    0  0.51035886040E+02 -0.42093728190E+02  0.20564513086E+02  0.69403999995E+02  0.41800000000E+01 0.  1.
         -5    1    3    3    0  502 -0.49935124216E+02 -0.96076681144E+01  0.98214656899E+02  0.11067707598E+03  0.41800000000E+01 0.  1.
        -11    1    1    2    0    0  0.38079793119E+02  0.32129860923E+01  0.14803929267E+02  0.40982316252E+02  0.00000000000E+00 0. -1.
         11    1    1    2    0    0 -0.39180554944E+02  0.48488410212E+02  0.70364216532E+02  0.94007259181E+02  0.00000000000E+00 0.  1.
</event>
<event>
 7    1  0.7017065E-006  0.1211705E+03  0.7561462E-02  0.1241178E+00
         -1   -1    0    0    0  501 -0.00000000000E+00  0.00000000000E+00  0.88809652718E+02  0.88809652718E+02  0.00000000000E+00 0.  1.
          1   -1    0    0  501    0  0.00000000000E+00 -0.00000000000E+00 -0.20504392593E+03  0.20504392593E+03  0.00000000000E+00 0. -1.
         23    2    1    2    0    0 -0.80403437676E+02  0.23577214479E+01 -0.85382407892E+02  0.17148638060E+03  0.12508857468E+03 0.  0.
          5    1    3    3  502    0 -0.52725979248E+02 -0.50987910171E+02 -0.83493349399E+02  0.11121334302E+03  0.41800000000E+01 0.  1.
         -5    1    3    3    0  502 -0.27677458428E+02  0.53345631619E+02 -0.18890584931E+01  0.60273037587E+02  0.41800000000E+01 0.  1.
        -11    1    1    2    0    0 -0.14087535141E+02 -0.11265694473E+01  0.12062475162E+02  0.18580395908E+02  0.00000000000E+00 0.  1.
         11    1    1    2    0    0  0.94490972817E+02 -0.12311520006E+01 -0.42914340486E+02  0.10378680214E+03  0.00000000000E+00 0. -1.
</event>
<event>
 7    1  0.7017065E-006  0.1223464E+03  0.7561462E-02  0.1239276E+00
          1   -1    0    0  501    0  0.00000000000E+00  0.00000000000E+00  0.16712041401E+03  0.16712041401E+03  0.00000000000E+00 0. -1.
         -1   -1    0    0    0  501 -0.00000000000E+00 -0.00000000000E+00 -0.13698882393E+03  0.13698882393E+03  0.00000000000E+00 0.  1.
         23    2    1    2    0    0  0.14962954383E+02  0.60760241783E+02 -0.70232193200E+02  0.15651307185E+03  0.12509230077E+03 0.  0.
          5    1    3    3  502    0  0.11438671826E+01 -0.37214539977E+02 -0.46960180971E+01  0.37759176418E+02  0.41800000000E+01 0. -1.
         -5    1    3    3    0  502  0.13819087200E+02  0.97974781760E+02 -0.65536175103E+02  0.11875389543E+03  0.41800000000E+01 0. -1.
        -11    1    1    2    0    0  0.35301906595E+02 -0.41204303981E+02  0.51977595874E+02  0.75137805056E+02  0.00000000000E+00 0.  1.
         11    1    1    2    0    0 -0.50264860978E+02 -0.19555937802E+02  0.48386187410E+02  0.72458361039E+02  0.00000000000E+00 0. -1.
</event>
<event>
 7    1  0.7017065E-006  0.9792106E+02  0.7561462E-02  0.1284729E+00
          1   -1    0    0  501    0  0.00000000000E+00  0.00000000000E+00  0.30685736455E+03  0.30685736455E+03  0.00000000000E+00 0. -1.
         -1   -1    0    0    0  501 -0.00000000000E+00 -0.00000000000E+00 -0.58032521357E+02  0.58032521357E+02  0.00000000000E+00 0.  1.
         23    2    1    2    0    0 -0.38075563971E+02 -0.50556650021E+02  0.92269518496E+02  0.17034142912E+03  0.12843992759E+03 0.  0.
          5    1    3    3  502    0 -0.35863047401E+01  0.94978714484E+01 -0.28788805769E+02  0.30811343387E+02  0.41800000000E+01 0.  1.
         -5    1    3    3    0  502 -0.34489259231E+02 -0.60054521469E+02  0.12105832426E+03  0.13953008573E+03  0.41800000000E+01 0. -1.
        -11    1    1    2    0    0  0.60325858027E+02  0.65215358033E+02  0.11916642094E+03  0.14863676514E+03  0.00000000000E+00 0.  1.
         11    1    1    2    0    0 -0.22250294055E+02 -0.14658708012E+02  0.37388903755E+02  0.45911691650E+02  0.00000000000E+00 0. -1.
</event>
<event>
 7    1  0.7017065E-006  0.9678079E+02  0.7561462E-02  0.1287215E+00
         -2   -1    0    0    0  501 -0.00000000000E+00  0.00000000000E+00  0.38153553483E+02  0.38153553483E+02  0.00000000000E+00 0. -1.
          2   -1    0    0  501    0  0.00000000000E+00 -0.00000000000E+00 -0.45946497283E+03  0.45946497283E+03  0.00000000000E+00 0.  1.
         23    2    1    2    0    0 -0.89396533061E+01 -0.49352962740E+02 -0.12543556684E+03  0.18410852828E+03  0.12508491686E+03 0.  0.
          5    1    3    3  502    0 -0.44592750627E+02 -0.14580419210E+02 -0.12558864906E+03  0.13413084360E+03  0.41800000000E+01 0.  1.
         -5    1    3    3    0  502  0.35653097321E+02 -0.34772543530E+02  0.15308221801E+00  0.49977684683E+02  0.41800000000E+01 0.  1.
        -11    1    1    2    0    0 -0.31497966982E+02  0.46208492712E+02 -0.22503646821E+03  0.23188091502E+03  0.00000000000E+00 0.  1.
         11    1    1    2    0    0  0.40437620288E+02  0.31444700283E+01 -0.70839384289E+02  0.81629083008E+02  0.00000000000E+00 0. -1.
</event>
<event>
 7    1  0.7017065E-006  0.1297266E+03  0.7561462E-02  0.1227862E+00
          1   -1    0    0  501    0  0.00000000000E+00  0.00000000000E+00  0.73242145929E+03  0.73242145929E+03  0.00000000000E+00 0. -1.
         -1   -1    0    0    0  501 -0.00000000000E+00 -0.00000000000E+00 -0.31124526798E+02  0.31124526798E+02  0.00000000000E+00 0.  1.
         23    2    1    2    0    0  0.10056343728E+03  0.20847356061E+02  0.29301780123E+03  0.33474457048E+03  0.12508748321E+03 0.  0.
          5    1    3    3  502    0  0.77380401948E+02 -0.25095603765E+02  0.75095162346E+02  0.11078931240E+03  0.41800000000E+01 0. -1.
         -5    1    3    3    0  502  0.23183035333E+02  0.45942959825E+02  0.21792263888E+03  0.22395525808E+03  0.41800000000E+01 0. -1.
        -11    1    1    2    0    0 -0.62672682898E+02 -0.48676269634E+02  0.19756423186E+03  0.21290577755E+03  0.00000000000E+00 0. -1.
         11    1    1    2    0    0 -0.37890754383E+02  0.27828913573E+02  0.21071489941E+03  0.21589563806E+03  0.00000000000E+00 0.  1.
</event>
<event>
 7    1  0.7017065E-006  0.8902410E+02  0.7561462E-02  0.1305232E+00
          1   -1    0    0  501    0  0.00000000000E+00  0.00000000000E+00  0.55308469223E+02  0.55308469223E+02  0.00000000000E+00 0. -1.
         -1   -1    0    0    0  501 -0.00000000000E+00 -0.00000000000E+00 -0.22892462141E+03  0.22892462141E+03  0.00000000000E+00 0.  1.
         23    2    1    2    0    0  0.29317049982E+02  0.24466838143E+02 -0.97210627658E+02  0.16295983028E+03  0.12509150477E+03 0.  0.
          5    1    3    3  502    0 -0.64372737540E+01 -0.48392666115E+02 -0.29592112863E+02  0.57240319451E+02  0.41800000000E+01 0.  1.
         -5    1    3    3    0  502  0.35754323736E+02  0.72859504258E+02 -0.67618514794E+02  0.10571951083E+03  0.41800000000E+01 0.  1.
        -11    1    1    2    0    0  0.20923875640E+01 -0.14761082180E+02 -0.85797483211E+02  0.87083154274E+02  0.00000000000E+00 0.  1.
         11    1    1    2    0    0 -0.31409437546E+02 -0.97057559635E+01  0.93919586844E+01  0.34190106079E+02  0.00000000000E+00 0. -1.
</event>
<event>
 6    1  0.7017065E-006  0.1099344E+03  0.7561462E-02  0.1260691E+00
          4   -1    0    0  501    0  0.00000000000E+00  0.00000000000E+00  0.39009152985E+03  0.39009152985E+03  0.00000000000E+00 0. -1.
         -4   -1    0    0    0  501 -0.00000000000E+00 -0.00000000000E+00 -0.48269973977E+02  0.48269973977E+02  0.00000000000E+00 0.  1.
          5    1    1    2  502    0  0.59546642001E+01 -0.64374323923E+02  0.41483978892E+02  0.76927917631E+02  0.41800000000E+01 0. -1.
         -5    1    1    2    0  502 -0.71598749112E+02  0.45654995188E+02  0.94455208898E+02  0.12708272246E+03  0.41800000000E+01 0.  1.
        -11    1    1    2    0    0  0.41198472675E+02  0.36760221275E+01  0.20102887590E+03  0.20523994795E+03  0.00000000000E+00 0. -1.
         11    1    1    2    0    0  0.24445612236E+02  0.15043306607E+02  0.48534921811E+01  0.29110915782E+02  0.00000000000E+00 0.  1.
</event>
<event>
 7    1  0.7017065E-006  0.6693584E+02  0.7561462E-02  0.1370834E+00
         -4   -1    0    0    0  501 -0.00000000000E+00  0.00000000000E+00  0.30248784832E+03  0.30248784832E+03  0.00000000000E+00 0.  1.
          4   -1    0    0  501    0  0.00000000000E+00 -0.00000000000E+00 -0.63067329079E+02  0.63067329079E+02  0.00000000000E+00 0. -1.
         23    2    1    2    0    0 -0.69352395206E+01 -0.65566665529E+02  0.20293207963E+03  0.24733968461E+03  0.12509358681E+03 0.  0.
          5    1    3    3  502    0 -0.57393188876E+01 -0.15040343848E+02 -0.15718890127E+02  0.22884659298E+02  0.41800000000E+01 0. -1.
         -5    1    3    3    0  502 -0.11959206330E+01 -0.50526321681E+02  0.21865096976E+03  0.22445502531E+03  0.41800000000E+01 0. -1.
        -11    1    1    2    0    0 -0.20851354167E+01  0.17207303171E+02  0.60885403713E+02  0.63304592704E+02  0.00000000000E+00 0.  1.
         11    1    1    2    0    0  0.90203749373E+01  0.48359362357E+02 -0.24396964101E+02  0.54910900093E+02  0.00000000000E+00 0. -1.
</event>
<event>
 7    1  0.7017065E-006  0.8665496E+02  0.7561462E-02  0.1311161E+00
         -1   -1    0    0    0  501 -0.00000000000E+00  0.00000000000E+00  0.13137402178E+03  0.13137402178E+03  0.00000000000E+00 0.  1.
          1   -1    0    0  501    0  0.00000000000E+00 -0.00000000000E+00 -0.19052811180E+03  0.19052811180E+03  0.00000000000E+00 0. -1.
         23    2    1    2    0    0  0.60608785842E+02 -0.14827794778E+02  0.64684368223E+02  0.15403002880E+03  0.12509154192E+03 0.  0.
          5    1    3    3  502    0 -0.22964269741E+02 -0.17887075759E+01 -0.22511259781E+02  0.32477474909E+02  0.41800000000E+01 0.  1.
         -5    1    3    3    0  502  0.83573055583E+02 -0.13039087203E+02  0.87195628004E+02  0.12155255389E+03  0.41800000000E+01 0.  1.
        -11    1    1    2    0    0 -0.43124704427E+02  0.19175876910E+02 -0.13742718020E+03  0.14530548595E+03  0.00000000000E+00 0. -1.
         11    1    1    2    0    0 -0.17484081414E+02 -0.43480821316E+01  0.13588721959E+02  0.22566618834E+02  0.00000000000E+00 0.  1.
</event>
<event>
 7    1  0.7017065E-006  0.1269970E+03  0.7561462E-02  0.1231981E+00
          2   -1    0    0  501    0  0.00000000000E+00  0.00000000000E+00  0.58850412162E+03  0.58850412162E+03  0.00000000000E+00 0. -1.
         -2   -1    0    0    0  501 -0.00000000000E+00 -0.00000000000E+00 -0.37403184404E+02  0.37403184404E+02  0.00000000000E+00 0.  1.
         23    2    1    2    0    0  0.58735607888E+02 -0.79676883167E+02  0.33166466958E+03  0.36802997280E+03  0.12508529285E+03 0.  0.
          5    1    3    3  502    0  0.26342240957E+02  0.28607820483E+02  0.14117443929E+03  0.14649237441E+03  0.41800000000E+01 0. -1.
         -5    1    3    3    0  502  0.32393366931E+02 -0.10828470365E+03  0.19049023029E+03  0.22153759839E+03  0.41800000000E+01 0. -1.
        -11    1    1    2    0    0 -0.41032455223E+02  0.35763827131E+02  0.19899686576E+03  0.20630672867E+03  0.00000000000E+00 0. -1.
         11    1    1    2    0    0 -0.17703152665E+02  0.43913056036E+02  0.20439401877E+02  0.51570604551E+02  0.00000000000E+00 0.  1.
</event>
<event>
 7    1  0.7017065E-006  0.1120642E+03  0.7561462E-02  0.1256794E+00
         -1   -1    0    0    0  501 -0.00000000000E+00  0.00000000000E+00  0.62146777716E+02  0.62146777716E+02  0.00000000000E+00 0.  1.
          1   -1    0    0  501    0  0.00000000000E+00 -0.00000000000E+00 -0.27887960761E+03  0.27887960761E+03  0.00000000000E+00 0. -1.
         23    2    1    2    0    0  0.73565405430E+02  0.31631795298E+02 -0.11485951045E+03  0.18775765720E+03  0.12509113217E+03 0.  0.
          5    1    3    3  502    0 -0.22155587424E+02  0.44198324253E+01 -0.78392701605E+02  0.81690226085E+02  0.41800000000E+01 0.  1.
         -5    1    3    3    0  502  0.95720992853E+02  0.27211962872E+02 -0.36466808844E+02  0.10606743112E+03  0.41800000000E+01 0.  1.
        -11    1    1    2    0    0 -0.50802732548E+02 -0.50762118847E+02 -0.10047386014E+03  0.12350184985E+03  0.00000000000E+00 0. -1.
         11    1    1    2    0    0 -0.22762672881E+02  0.19130323549E+02 -0.13994592985E+01  0.29766878273E+02  0.00000000000E+00 0.  1.
</event>
<event>
 7    1  0.7017065E-006  0.1059652E+03  0.7561462E-02  0.1268229E+00
          4   -1    0    0  501    0  0.00000000000E+00  0.00000000000E+00  0.37487529741E+02  0.37487529741E+02  0.00000000000E+00 0. -1.
         -4   -1    0    0    0  501 -0.00000000000E+00 -0.00000000000E+00 -0.34279922981E+03  0.34279922981E+03  0.00000000000E+00 0.  1.
         23    2    1    2    0    0  0.13738261880E+02 -0.19289362779E+02 -0.21698513949E+03  0.25157967446E+03  0.12509581322E+03 0.  0.
          5    1    3    3  502    0  0.36564352098E+02  0.40177180350E+02 -0.14741420046E+03  0.15716098931E+03  0.41800000000E+01 0.  1.
         -5    1    3    3    0  502 -0.22826090217E+02 -0.59466543130E+02 -0.69570939032E+02  0.94418685144E+02  0.41800000000E+01 0.  1.
        -11    1    1    2    0    0 -0.36903575596E+02 -0.24344127033E+02 -0.41085507314E+02  0.60353370445E+02  0.00000000000E+00 0.  1.
         11    1    1    2    0    0  0.23165313715E+02  0.43633489812E+02 -0.47241053261E+02  0.68353714646E+02  0.00000000000E+00 0. -1.
</event>
<event>
 6    1  0.7017065E-006  0.2825211E+03  0.7561462E-02  0.1094320E+00
          2   -1    0    0  501    0  0.00000000000E+00  0.00000000000E+00  0.71188181740E+03  0.71188181740E+03  0.00000000000E+00 0. -1.
         -2   -1    0    0    0  501 -0.00000000000E+00 -0.00000000000E+00 -0.11886133502E+03  0.11886133502E+03  0.00000000000E+00 0.  1.
          5    1    1    2  502    0 -0.25606737411E+03  0.33333036681E+02  0.19392996917E+03  0.32296733079E+03  0.41800000000E+01 0. -1.
         -5    1    1    2    0  502  0.84295601636E+02  0.50244591382E+02  0.85777660308E+02  0.13040531748E+03  0.41800000000E+01 0.  1.
        -11    1    1    2    0    0  0.17485835784E+03 -0.60130814858E+02  0.29148375986E+03  0.34518682255E+03  0.00000000000E+00 0.  1.
         11    1    1    2    0    0 -0.30865853703E+01 -0.23446813205E+02  0.21829093039E+02  0.32183681605E+02  0.00000000000E+00 0. -1.
</event>
<event>
 6    1  0.7017065E-006  0.2302816E+03  0.7561462E-02  0.1126442E+00
         -1   -1    0    0    0  501 -0.00000000000E+00  0.00000000000E+00  0.48434593063E+02  0.48434593063E+02  0.00000000000E+00 0.  1.
          1   -1    0    0  501    0  0.00000000000E+00 -0.00000000000E+00 -0.15241664981E+04  0.15241664981E+04  0.00000000000E+00 0. -1.
          5    1    1    2  502    0  0.18011304132E+02  0.31296659384E+02 -0.12383061207E+03  0.12905572769E+03  0.41800000000E+01 0. -1.
         -5    1    1    2    0  502  0.18967636624E+03 -0.84457875456E+02 -0.29151001482E+03  0.35791873069E+03  0.41800000000E+01 0.  1.
        -11    1    1    2    0    0 -0.19708707378E+03  0.42725372914E+02 -0.10447726870E+04  0.10640576768E+04  0.00000000000E+00 0. -1.
         11    1    1    2    0    0 -0.10600596594E+02  0.10435843157E+02 -0.15618591105E+02  0.21568955901E+02  0.00000000000E+00 0.  1.
</event>
<event>
 7    1  0.7017065E-006  0.1092577E+03  0.7561462E-02  0.1261951E+00
          1   -1    0    0  501    0  0.00000000000E+00  0.00000000000E+00  0.70310251822E+03  0.70310251822E+03  0.00000000000E+00 0. -1.
         -1   -1    0    0    0  501 -0.00000000000E+00 -0.00000000000E+00 -0.21548917255E+02  0.21548917255E+02  0.00000000000E+00 0.  1.
         23    2    1    2    0    0  0.99747132248E+01  0.39579577952E+02  0.26549048130E+03  0.29630660976E+03  0.12508546449E+03 0.  0.
          5    1    3    3  502    0 -0.37536894426E+02 -0.18814521283E+02  0.16712372726E+03  0.17236826061E+03  0.41800000000E+01 0. -1.
         -5    1    3    3    0  502  0.47511607651E+02  0.58394099235E+02  0.98366754047E+02  0.12393834914E+03  0.41800000000E+01 0. -1.
        -11    1    1    2    0    0  0.30974599469E+02  0.13579326567E+02  0.16771560256E+03  0.17109163412E+03  0.00000000000E+00 0. -1.
         11    1    1    2    0    0 -0.40949312693E+02 -0.53158904519E+02  0.24834751710E+03  0.25725319161E+03  0.00000000000E+00 0.  1.
</event>
<event>
 7    1  0.7017065E-006  0.3589259E+03  0.7561462E-02  0.1059010E+00
         -2   -1    0    0    0  501 -0.00000000000E+00  0.00000000000E+00  0.11453559563E+03  0.11453559563E+03  0.00000000000E+00 0.  1.
          2   -1    0    0  501    0  0.00000000000E+00 -0.00000000000E+00 -0.12312622323E+04  0.12312622323E+04  0.00000000000E+00 0. -1.
         23    2    1    2    0    0  0.13524109020E+03  0.32956653722E+03 -0.64619842308E+03  0.74841469213E+03  0.12509154440E+03 0.  0.
          5    1    3    3  502    0  0.12168803397E+03  0.22447872861E+03 -0.54485973484E+03  0.60173771716E+03  0.41800000000E+01 0. -1.
         -5    1    3    3    0  502  0.13553056226E+02  0.10508780861E+03 -0.10133868824E+03  0.14667697497E+03  0.41800000000E+01 0. -1.
        -11    1    1    2    0    0 -0.56726392199E+02 -0.15393063373E+03 -0.14346732542E+03  0.21793438700E+03  0.00000000000E+00 0.  1.
         11    1    1    2    0    0 -0.78514697999E+02 -0.17563590349E+03 -0.32706088814E+03  0.37944874878E+03  0.00000000000E+00 0. -1.
</event>
<event>
 7    1  0.7017065E-006  0.9590245E+02  0.7561462E-02  0.1289156E+00
          2   -1    0    0  501    0  0.00000000000E+00  0.00000000000E+00  0.46261550434E+02  0.46261550434E+02  0.00000000000E+00 0. -1.
         -2   -1    0    0    0  501 -0.00000000000E+00 -0.00000000000E+00 -0.28284783986E+03  0.28284783986E+03  0.00000000000E+00 0.  1.
         23    2    1    2    0    0  0.21640115424E+02  0.87810559444E+01 -0.17638542895E+03  0.21730467826E+03  0.12475617062E+03 0.  0.
          5    1    3    3  502    0 -0.31323772424E+02  0.40606904136E+02 -0.33030507863E+02  0.61143979525E+02  0.41800000000E+01 0. -1.
         -5    1    3    3    0  502  0.52963887849E+02 -0.31825848192E+02 -0.14335492108E+03  0.15616069873E+03  0.41800000000E+01 0.  1.
        -11    1    1    2    0    0  0.16050457699E+02  0.23726846440E+02  0.57125211897E+01  0.29209815691E+02  0.00000000000E+00 0.  1.
         11    1    1    2    0    0 -0.37690573123E+02 -0.32507902384E+02 -0.65913381670E+02  0.82594896350E+02  0.00000000000E+00 0. -1.
</event>
<event>
 6    1  0.7017065E-006  0.1137707E+03  0.7561462E-02  0.1253742E+00
          3   -1    0    0  501    0  0.00000000000E+00  0.00000000000E+00  0.26169880493E+03  0.26169880493E+03  0.00000000000E+00 0. -1.
         -3   -1    0    0    0  501 -0.00000000000E+00 -0.00000000000E+00 -0.59854330438E+02  0.59854330438E+02  0.00000000000E+00 0.  1.
          5    1    1    2  502    0  0.26774340536E+02  0.53707651776E+02  0.10143472887E+03  0.11793156402E+03  0.41800000000E+01 0. -1.
         -5    1    1    2    0  502 -0.32772784500E+02 -0.68629793359E+02  0.13990925442E+02  0.77442380743E+02  0.41800000000E+01 0.  1.
        -11    1    1    2    0    0 -0.37292148831E+02  0.27270108330E+02  0.51660196298E+02  0.69304682773E+02  0.00000000000E+00 0. -1.
         11    1    1    2    0    0  0.43290592795E+02 -0.12347966747E+02  0.34758623878E+02  0.56874507833E+02  0.00000000000E+00 0.  1.
</event>
<event>
 7    1  0.7017065E-006  0.1120459E+03  0.7561462E-02  0.1256827E+00
         -2   -1    0    0    0  501 -0.00000000000E+00  0.00000000000E+00  0.57417238531E+02  0.57417238531E+02  0.00000000000E+00 0.  1.
          2   -1    0    0  501    0  0.00000000000E+00 -0.00000000000E+00 -0.26535735686E+03  0.26535735686E+03  0.00000000000E+00 0. -1.
         23    2    1    2    0    0  0.31451332529E+02  0.18661889794E+02 -0.60438838097E+02  0.14365883302E+03  0.12509018629E+03 0.  0.
          5    1    3    3  502    0 -0.31353130408E+02 -0.32575886701E+02 -0.38638361345E+02  0.59620487654E+02  0.41800000000E+01 0.  1.
         -5    1    3    3    0  502  0.62804462937E+02  0.51237776495E+02 -0.21800476752E+02  0.84038345364E+02  0.41800000000E+01 0.  1.
        -11    1    1    2    0    0 -0.59925342067E+02  0.55046885489E+01 -0.11416756919E+03  0.12905650728E+03  0.00000000000E+00 0. -1.
         11    1    1    2    0    0  0.28474009538E+02 -0.24166578343E+02 -0.33333711045E+02  0.50059255088E+02  0.00000000000E+00 0.  1.
</event>
<event>
 7    1  0.7017065E-006  0.1188778E+03  0.7561462E-02  0.1244960E+00
         -2   -1    0    0    0  501 -0.00000000000E+00  0.00000000000E+00  0.24553843317E+02  0.24553843317E+02  0.00000000000E+00 0.  1.
          2   -1    0    0  501    0  0.00000000000E+00 -0.00000000000E+00 -0.66010139526E+03  0.66010139526E+03  0.00000000000E+00 0. -1.
         23    2    1    2    0    0 -0.28951263091E+02  0.39596300144E+02 -0.24526601377E+03  0.28088334543E+03  0.12780451325E+03 0.  0.
          5    1    3    3  502    0 -0.42515384030E+02  0.80717175115E+02 -0.14204337702E+03  0.16886862821E+03  0.41800000000E+01 0. -1.
         -5    1    3    3    0  502  0.13564120938E+02 -0.41120874971E+02 -0.10322263675E+03  0.11201471722E+03  0.41800000000E+01 0.  1.
        -11    1    1    2    0    0  0.28446729385E+02  0.25276512249E+02 -0.12441176617E+03  0.13010152207E+03  0.00000000000E+00 0. -1.
         11    1    1    2    0    0  0.50453370606E+00 -0.64872812393E+02 -0.26586977201E+03  0.27367037108E+03  0.00000000000E+00 0.  1.
</event>
<event>
 7    1  0.7017065E-006  0.9355859E+02  0.7561462E-02  0.1294456E+00
          4   -1    0    0  501    0  0.00000000000E+00  0.00000000000E+00  0.53108790044E+02  0.53108790044E+02  0.00000000000E+00 0. -1.
         -4   -1    0    0    0  501 -0.00000000000E+00 -0.00000000000E+00 -0.28504238103E+03  0.28504238103E+03  0.00000000000E+00 0.  1.
         23    2    1    2    0    0 -0.32497710354E+02 -0.45999014327E+01 -0.19458238583E+03  0.23363912892E+03  0.12509067677E+03 0.  0.
          5    1    3    3  502    0 -0.74038367407E+02  0.81284682659E+01 -0.72653774142E+02  0.10413354475E+03  0.41800000000E+01 0. -1.
         -5    1    3    3    0  502  0.41540657053E+02 -0.12728369699E+02 -0.12192861169E+03  0.12950558418E+03  0.41800000000E+01 0. -1.
        -11    1    1    2    0    0 -0.17407881736E+02 -0.48629449421E+01 -0.49147351936E+02  0.52365492286E+02  0.00000000000E+00 0.  1.
         11    1    1    2    0    0  0.49905592090E+02  0.94628463747E+01  0.11796146787E+02  0.52146549861E+02  0.00000000000E+00 0. -1.
</event>
<event>
 7    1  0.7017065E-006  0.8534965E+02  0.7561462E-02  0.1314521E+00
         -2   -1    0    0    0  501 -0.00000000000E+00  0.00000000000E+00  0.67508758990E+02  0.67508758990E+02  0.00000000000E+00 0. -1.
          2   -1    0    0  501    0  0.00000000000E+00 -0.00000000000E+00 -0.23232501315E+03  0.23232501315E+03  0.00000000000E+00 0.  1.
         23    2    1    2    0    0 -0.46663467062E+02  0.13982258863E+02 -0.43238323852E+02  0.14103262644E+03  0.12509063254E+03 0.  0.
          5    1    3    3  502    0 -0.53923955756E+02 -0.12957319333E+02 -0.78292444219E+02  0.96035745171E+02  0.41800000000E+01 0.  1.
         -5    1    3    3    0  502  0.72604886942E+01  0.26939578196E+02  0.35054120367E+02  0.44996881271E+02  0.41800000000E+01 0.  1.
        -11    1    1    2    0    0  0.83029423796E+01 -0.39783518672E+02 -0.99680849106E+02  0.10764728928E+03  0.00000000000E+00 0.  1.
         11    1    1    2    0    0  0.38360524682E+02  0.25801259809E+02 -0.21897081203E+02  0.51153856422E+02  0.00000000000E+00 0. -1.
</event>
<event>
 7    1  0.7017065E-006  0.1014236E+03  0.7561462E-02  0.1277330E+00
          1   -1    0    0  501    0  0.00000000000E+00  0.00000000000E+00  0.72781469218E+02  0.72781469218E+02  0.00000000000E+00 0. -1.
         -1   -1    0    0    0  501 -0.00000000000E+00 -0.00000000000E+00 -0.24780413773E+03  0.24780413773E+03  0.00000000000E+00 0.  1.
         23    2    1    2    0    0  0.67803451461E+02  0.43310073333E+02 -0.90388538770E+02  0.17404239256E+03  0.12509035129E+03 0.  0.
          5    1    3    3  502    0  0.86211870355E+02  0.45665001939E+02 -0.18124555443E+02  0.99316418090E+02  0.41800000000E+01 0.  1.
         -5    1    3    3    0  502 -0.18408418894E+02 -0.23549286059E+01 -0.72263983327E+02  0.74725974475E+02  0.41800000000E+01 0.  1.
        -11    1    1    2    0    0 -0.42512118829E+02 -0.88390311249E+01 -0.93309617583E+02  0.10291789666E+03  0.00000000000E+00 0.  1.
         11    1    1    2    0    0 -0.25291332632E+02 -0.34471042208E+02  0.86754878446E+01  0.43625317725E+02  0.00000000000E+00 0. -1.
</event>
<event>
 7    1  0.7017065E-006  0.1188759E+03  0.7561462E-02  0.1244963E+00
         -2   -1    0    0    0  501 -0.00000000000E+00  0.00000000000E+00  0.16737960058E+02  0.16737960058E+02  0.00000000000E+00 0.  1.
          2   -1    0    0  501    0  0.00000000000E+00 -0.00000000000E+00 -0.96628968890E+03  0.96628968890E+03  0.00000000000E+00 0. -1.
         23    2    1    2    0    0  0.25287275659E+02  0.31783493945E+02 -0.37777950820E+03  0.40001893414E+03  0.12509258195E+03 0.  0.
          5    1    3    3  502    0  0.13644618444E+02 -0.44553774846E+02 -0.83130835750E+02  0.95390894314E+02  0.41800000000E+01 0.  1.
         -5    1    3    3    0  502  0.11642657215E+02  0.76337268791E+02 -0.29464867245E+03  0.30462803983E+03  0.41800000000E+01 0.  1.
        -11    1    1    2    0    0 -0.77952163286E+01 -0.70616058451E+02 -0.33750767914E+03  0.34490408317E+03  0.00000000000E+00 0.  1.
         11    1    1    2    0    0 -0.17492059331E+02  0.38832564506E+02 -0.23426454151E+03  0.23810463165E+03  0.00000000000E+00 0. -1.
</event>
<event>
 6    1  0.7017065E-006  0.9672849E+02  0.7561462E-02  0.1287330E+00
          2   -1    0    0  501    0  0.00000000000E+00  0.00000000000E+00  0.27702874967E+03  0.27702874967E+03  0.00000000000E+00 0. -1.
         -2   -1    0    0    0  501 -0.00000000000E+00 -0.00000000000E+00 -0.10508607296E+03  0.10508607296E+03  0.00000000000E+00 0.  1.
          5    1    1    2  502    0 -0.65120411348E+02  0.65949236060E+01  0.17760714270E+03  0.18933021557E+03  0.41800000000E+01 0. -1.
         -5    1    1    2    0  502  0.43165193365E+02 -0.57402807050E+01 -0.67792214330E+02  0.80681109713E+02  0.41800000000E+01 0.  1.
        -11    1    1    2    0    0 -0.30561625986E+02  0.60539539404E+01  0.93489542302E+00  0.31169494232E+02  0.00000000000E+00 0. -1.
         11    1    1    2    0    0  0.52516843969E+02 -0.69085968414E+01  0.61192852917E+02  0.80934003107E+02  0.00000000000E+00 0.  1.
</event>
<event>
 7    1  0.7017065E-006  0.1438472E+03  0.7561462E-02  0.1208244E+00
          4   -1    0    0  501    0  0.00000000000E+00  0.00000000000E+00  0.17116627164E+03  0.17116627164E+03  0.00000000000E+00 0. -1.
         -4   -1    0    0    0  501 -0.00000000000E+00 -0.00000000000E+00 -0.21228870528E+03  0.21228870528E+03  0.00000000000E+00 0.  1.
         23    2    1    2    0    0 -0.85952403044E+02  0.75991366861E+02 -0.12656593048E+03  0.21172768163E+03  0.12508866049E+03 0.  0.
          5    1    3    3  502    0 -0.66613715451E+02  0.92536439323E+02 -0.14162117117E+03  0.18186370780E+03  0.41800000000E+01 0. -1.
         -5    1    3    3    0  502 -0.19338687592E+02 -0.16545072462E+02  0.15055240698E+02  0.29863973832E+02  0.41800000000E+01 0. -1.
        -11    1    1    2    0    0  0.13559375499E+02 -0.74161620404E+02  0.32899467698E+02  0.82256778321E+02  0.00000000000E+00 0.  1.
         11    1    1    2    0    0  0.72393027544E+02 -0.18297464564E+01  0.52544029133E+02  0.89470516969E+02  0.00000000000E+00 0. -1.
</event>
<event>
 7    1  0.7017065E-006  0.1345484E+03  0.7561462E-02  0.1220859E+00
          1   -1    0    0  501    0  0.00000000000E+00  0.00000000000E+00  0.45159093168E+03  0.45159093168E+03  0.00000000000E+00 0. -1.
         -1   -1    0    0    0  501 -0.00000000000E+00 -0.00000000000E+00 -0.69977721551E+02  0.69977721551E+02  0.00000000000E+00 0.  1.
         23    2    1    2    0    0  0.12441862801E+03 -0.39636065099E+02  0.10733818712E+03  0.21028328020E+03  0.12508620573E+03 0.  0.
          5    1    3    3  502    0  0.35012819474E+01 -0.92679539565E+01  0.82366972226E+02  0.83065904314E+02  0.41800000000E+01 0.  1.
         -5    1    3    3    0  502  0.12091734606E+03 -0.30368111143E+02  0.24971214894E+02  0.12721737588E+03  0.41800000000E+01 0.  1.
        -11    1    1    2    0    0 -0.30000680752E+02 -0.27087010624E+01  0.18448009228E+02  0.35322895571E+02  0.00000000000E+00 0.  1.
         11    1    1    2    0    0 -0.94417947260E+02  0.42344766162E+02  0.25582701378E+03  0.27596247746E+03  0.00000000000E+00 0. -1.
</event>
<event>
 7    1  0.7017065E-006  0.1676355E+03  0.7561462E-02  0.1180336E+00
         -1   -1    0    0    0  501 -0.00000000000E+00  0.00000000000E+00  0.13335419546E+03  0.13335419546E+03  0.00000000000E+00 0.  1.
          1   -1    0    0  501    0  0.00000000000E+00 -0.00000000000E+00 -0.27278510727E+03  0.27278510727E+03  0.00000000000E+00 0. -1.
         23    2    1    2    0    0 -0.68650642875E+02 -0.12983062600E+03 -0.17645731129E+02  0.19371792708E+03  0.12508541574E+03 0.  0.
          5    1    3    3  502    0  0.14538126543E+02 -0.97640495288E+02 -0.30714385475E+02  0.10346917086E+03  0.41800000000E+01 0.  1.
         -5    1    3    3    0  502 -0.83188769418E+02 -0.32190130714E+02  0.13068654347E+02  0.90248756220E+02  0.41800000000E+01 0.  1.
        -11    1    1    2    0    0  0.99544411976E+01  0.26829308338E+02  0.14257543472E+02  0.31971553471E+02  0.00000000000E+00 0.  1.
         11    1    1    2    0    0  0.58696201678E+02  0.10300131766E+03 -0.13604272415E+03  0.18044982218E+03  0.00000000000E+00 0. -1.
</event>
<event>
 7    1  0.7017065E-006  0.1077205E+03  0.7561462E-02  0.1264850E+00
          1   -1    0    0  501    0  0.00000000000E+00  0.00000000000E+00  0.73574707056E+03  0.73574707056E+03  0.00000000000E+00 0. -1.
         -1   -1    0    0    0  501 -0.00000000000E+00 -0.00000000000E+00 -0.16931084945E+02  0.16931084945E+02  0.00000000000E+00 0.  1.
         23    2    1    2    0    0 -0.17393181427E+02 -0.60029343492E+01  0.35642057209E+03  0.37723272504E+03  0.12218979766E+03 0.  0.
          5    1    3    3  502    0  0.46781915625E+02 -0.22578634044E+02  0.21139528823E+03  0.21772409750E+03  0.41800000000E+01 0. -1.
         -5    1    3    3    0  502 -0.64175097052E+02  0.16575699695E+02  0.14502528386E+03  0.15950862754E+03  0.41800000000E+01 0.  1.
        -11    1    1    2    0    0 -0.39667662824E+02  0.25282135587E+01  0.17837618042E+03  0.18275113428E+03  0.00000000000E+00 0.  1.
         11    1    1    2    0    0  0.57060844251E+02  0.34747207905E+01  0.18401923310E+03  0.19269429618E+03  0.00000000000E+00 0. -1.
</event>
<event>
 7    1  0.7017065E-006  0.1107316E+03  0.7561462E-02  0.1259221E+00
         -3   -1    0    0    0  501 -0.00000000000E+00  0.00000000000E+00  0.49586511849E+03  0.49586511849E+03  0.00000000000E+00 0.  1.
          3   -1    0    0  501    0  0.00000000000E+00 -0.00000000000E+00 -0.33800232031E+02  0.33800232031E+02  0.00000000000E+00 0. -1.
         23    2    1    2    0    0 -0.47725198519E+01  0.69716929966E+02  0.26651626212E+03  0.30259303282E+03  0.12509355806E+03 0.  0.
          5    1    3    3  502    0  0.28961537854E+02 -0.27530905139E+02  0.69928028343E+02  0.80648142946E+02  0.41800000000E+01 0. -1.
         -5    1    3    3    0  502 -0.33734057706E+02  0.97247835105E+02  0.19658823378E+03  0.22194488988E+03  0.41800000000E+01 0. -1.
        -11    1    1    2    0    0 -0.10748115186E+02 -0.52537358737E+01 -0.70592151170E+01  0.13890868898E+02  0.00000000000E+00 0. -1.
         11    1    1    2    0    0  0.15520635038E+02 -0.64463194092E+02  0.20260783946E+03  0.21318144880E+03  0.00000000000E+00 0.  1.
</event>
<event>
 7    1  0.7880761E-006  0.2062526E+03  0.7561462E-02  0.1144568E+00
         -2   -1    0    0    0  501 -0.00000000000E+00  0.00000000000E+00  0.26229216038E+03  0.26229216038E+03  0.00000000000E+00 0.  1.
          2   -1    0    0  501    0  0.00000000000E+00 -0.00000000000E+00 -0.18027018106E+03  0.18027018106E+03  0.00000000000E+00 0. -1.
         23    2    1    2    0    0 -0.63513699190E+02  0.17392218510E+03  0.74623422817E+02  0.23558192823E+03  0.12508906115E+03 0.  0.
          5    1    3    3  502    0 -0.81432875198E+02  0.88124189561E+02 -0.50949744725E+00  0.12006214198E+03  0.41800000000E+01 0. -1.
         -5    1    3    3    0  502  0.17919176007E+02  0.85797995538E+02  0.75132920265E+02  0.11551978625E+03  0.41800000000E+01 0. -1.
        -11    1    1    2    0    0  0.46953339014E+02 -0.21962553152E+02 -0.11083914352E+02  0.53007763043E+02  0.00000000000E+00 0.  1.
         11    1    1    2    0    0  0.16560360177E+02 -0.15195963195E+03  0.18482470855E+02  0.15397265017E+03  0.00000000000E+00 0. -1.
</event>
<event>
 7    1  0.7017065E-006  0.1136067E+03  0.7561462E-02  0.1254033E+00
         -1   -1    0    0    0  501 -0.00000000000E+00  0.00000000000E+00  0.60339963935E+02  0.60339963935E+02  0.00000000000E+00 0.  1.
          1   -1    0    0  501    0  0.00000000000E+00 -0.00000000000E+00 -0.31085107924E+03  0.31085107924E+03  0.00000000000E+00 0. -1.
         23    2    1    2    0    0  0.16535266741E+02  0.76445481990E+02 -0.97934739154E+02  0.17707546759E+03  0.12508869384E+03 0.  0.
          5    1    3    3  502    0  0.30575571105E+02 -0.11027553731E+02 -0.80188217599E+02  0.86626180404E+02  0.41800000000E+01 0.  1.
         -5    1    3    3    0  502 -0.14040304364E+02  0.87473035721E+02 -0.17746521555E+02  0.90449287184E+02  0.41800000000E+01 0.  1.
        -11    1    1    2    0    0  0.28266373593E+02 -0.29096093594E+02 -0.10740021414E+03  0.11480582100E+03  0.00000000000E+00 0. -1.
         11    1    1    2    0    0 -0.44801640334E+02 -0.47349388396E+02 -0.45176162008E+02  0.79309754582E+02  0.00000000000E+00 0.  1.
</event>
<event>
 7    1  0.7017065E-006  0.1260638E+03  0.7561462E-02  0.1233416E+00
          3   -1    0    0  501    0  0.00000000000E+00  0.00000000000E+00  0.11178821576E+03  0.11178821576E+03  0.00000000000E+00 0. -1.
         -3   -1    0    0    0  501 -0.00000000000E+00 -0.00000000000E+00 -0.20073525730E+03  0.20073525730E+03  0.00000000000E+00 0.  1.
         23    2    1    2    0    0  0.10016608354E+03  0.15045750812E+02 -0.62869106189E+02  0.17279878927E+03  0.12508908086E+03 0.  0.
          5    1    3    3  502    0  0.13569376493E+01  0.29895758193E+02  0.25350311984E+02  0.39442468931E+02  0.41800000000E+01 0.  1.
         -5    1    3    3    0  502  0.98809145895E+02 -0.14850007380E+02 -0.88219418173E+02  0.13335632034E+03  0.41800000000E+01 0.  1.
        -11    1    1    2    0    0  0.10269335990E+02 -0.35792769000E+01  0.17373002700E+02  0.20496138846E+02  0.00000000000E+00 0. -1.
         11    1    1    2    0    0 -0.11043541953E+03 -0.11466473912E+02 -0.43450938047E+02  0.11922854494E+03  0.00000000000E+00 0.  1.
</event>
<event>
 7    1  0.7017065E-006  0.1268159E+03  0.7561462E-02  0.1232258E+00
          1   -1    0    0  501    0  0.00000000000E+00  0.00000000000E+00  0.14812672964E+03  0.14812672964E+03  0.00000000000E+00 0. -1.
         -1   -1    0    0    0  501 -0.00000000000E+00 -0.00000000000E+00 -0.24574459262E+03  0.24574459262E+03  0.00000000000E+00 0.  1.
         23    2    1    2    0    0 -0.85514682520E+02  0.59487615906E+02 -0.17282991864E+03  0.23736647888E+03  0.12498450763E+03 0.  0.
          5    1    3    3  502    0 -0.86435348712E+02  0.85018411170E+02 -0.91313085205E+02  0.15183791251E+03  0.41800000000E+01 0. -1.
         -5    1    3    3    0  502  0.92066619278E+00 -0.25530795264E+02 -0.81516833437E+02  0.85528566378E+02  0.41800000000E+01 0. -1.
        -11    1    1    2    0    0  0.58960167296E+02 -0.28085525629E+02  0.91378214269E+02  0.11231685591E+03  0.00000000000E+00 0. -1.
         11    1    1    2    0    0  0.26554515224E+02 -0.31402090277E+02 -0.16166158610E+02  0.44187987471E+02  0.00000000000E+00 0.  1.
</event>
<event>
 7    1  0.7017065E-006  0.9983499E+02  0.7561462E-02  0.1280643E+00
         -2   -1    0    0    0  501 -0.00000000000E+00  0.00000000000E+00  0.68783577488E+02  0.68783577488E+02  0.00000000000E+00 0.  1.
          2   -1    0    0  501    0  0.00000000000E+00 -0.00000000000E+00 -0.21449324656E+03  0.21449324656E+03  0.00000000000E+00 0. -1.
         23    2    1    2    0    0  0.22946491914E+01  0.35662647710E+02 -0.29908913017E+02  0.13348806442E+03  0.12508968945E+03 0.  0.
          5    1    3    3  502    0  0.25589030728E+02 -0.27454092887E+02  0.26053137092E+02  0.45877707683E+02  0.41800000000E+01 0. -1.
         -5    1    3    3    0  502 -0.23294381537E+02  0.63116740597E+02 -0.55962050109E+02  0.87610356735E+02  0.41800000000E+01 0. -1.
        -11    1    1    2    0    0  0.42601239878E+02 -0.16489732276E+02 -0.63744707034E+02  0.78422985052E+02  0.00000000000E+00 0.  1.
         11    1    1    2    0    0 -0.44895889069E+02 -0.19172915435E+02 -0.52056049023E+02  0.71365774580E+02  0.00000000000E+00 0. -1.
</event>
<event>
 7    1  0.7017065E-006  0.1272787E+03  0.7561462E-02  0.1231550E+00
          1   -1    0    0  501    0  0.00000000000E+00  0.00000000000E+00  0.13056867290E+03  0.13056867290E+03  0.00000000000E+00 0. -1.
         -1   -1    0    0    0  501 -0.00000000000E+00 -0.00000000000E+00 -0.18209348067E+03  0.18209348067E+03  0.00000000000E+00 0.  1.
         23    2    1    2    0    0  0.72209652022E+02  0.74254759762E+02 -0.61668056404E+02  0.17371812155E+03  0.12508810247E+03 0.  0.
          5    1    3    3  502    0  0.19812116671E+02  0.78805397568E+02  0.12890555345E+02  0.82379909382E+02  0.41800000000E+01 0. -1.
         -5    1    3    3    0  502  0.52397535351E+02 -0.45506378058E+01 -0.74558611749E+02  0.91338212163E+02  0.41800000000E+01 0. -1.
        -11    1    1    2    0    0 -0.51623310893E+02 -0.83257261524E+02 -0.21344928392E+02  0.10026137737E+03  0.00000000000E+00 0.  1.
         11    1    1    2    0    0 -0.20586341129E+02  0.90025017623E+01  0.31488177018E+02  0.38682654653E+02  0.00000000000E+00 0. -1.
</event>
<event>
 7    1  0.7017065E-006  0.1026271E+03  0.7561462E-02  0.1274867E+00
          1   -1    0    0  501    0  0.00000000000E+00  0.00000000000E+00  0.42185723237E+03  0.42185723237E+03  0.00000000000E+00 0. -1.
         -1   -1    0    0    0  501 -0.00000000000E+00 -0.00000000000E+00 -0.43859586576E+02  0.43859586576E+02  0.00000000000E+00 0.  1.
         23    2    1    2    0    0 -0.65181248935E+02 -0.44780427499E+02  0.16871786860E+03  0.22442863949E+03  0.12509441690E+03 0.  0.
          5    1    3    3  502    0 -0.84760774596E+01 -0.22957710777E+02  0.16115694108E+03  0.16305806460E+03  0.41800000000E+01 0.  1.
         -5    1    3    3    0  502 -0.56705171475E+02 -0.21822716722E+02  0.75609275132E+01  0.61370574888E+02  0.41800000000E+01 0.  1.
        -11    1    1    2    0    0  0.84949708367E+02  0.19020047427E+02  0.14154230853E+03  0.16616991382E+03  0.00000000000E+00 0.  1.
         11    1    1    2    0    0 -0.19768459432E+02  0.25760380072E+02  0.67737468668E+02  0.75118265630E+02  0.00000000000E+00 0. -1.
</event>
<event>
 7    1  0.7017065E-006  0.1154943E+03  0.7561462E-02  0.1250721E+00
         -1   -1    0    0    0  501 -0.00000000000E+00  0.00000000000E+00  0.11791507257E+03  0.11791507257E+03  0.00000000000E+00 0.  1.
          1   -1    0    0  501    0  0.00000000000E+00 -0.00000000000E+00 -0.19029521655E+03  0.19029521655E+03  0.00000000000E+00 0. -1.
         23    2    1    2    0    0 -0.55983389298E+02  0.55987662337E+02  0.26774645296E+02  0.15046416961E+03  0.12511525285E+03 0.  0.
          5    1    3    3  502    0 -0.77055683913E+02  0.54178736201E+02 -0.22276235569E+02  0.96884554758E+02  0.41800000000E+01 0.  1.
         -5    1    3    3    0  502  0.21072294615E+02  0.18089261368E+01  0.49050880865E+02  0.53579614853E+02  0.41800000000E+01 0.  1.
        -11    1    1    2    0    0  0.66989240551E+02 -0.98510602158E+01 -0.30407177469E+02  0.74223973072E+02  0.00000000000E+00 0. -1.
         11    1    1    2    0    0 -0.11005851253E+02 -0.46136602122E+02 -0.68747611810E+02  0.83522146444E+02  0.00000000000E+00 0.  1.
</event>
<event>
 7    1  0.7017065E-006  0.8988510E+02  0.7561462E-02  0.1303130E+00
         -1   -1    0    0    0  501 -0.00000000000E+00  0.00000000000E+00  0.44322292042E+02  0.44322292042E+02  0.00000000000E+00 0.  1.
          1   -1    0    0  501    0  0.00000000000E+00 -0.00000000000E+00 -0.32809717675E+03  0.32809717675E+03  0.00000000000E+00 0. -1.
         23    2    1    2    0    0 -0.36106811519E+02  0.37283881221E+02 -0.17383930556E+03  0.22036715662E+03  0.12509112648E+03 0.  0.
          5    1    3    3  502    0 -0.32107392513E+02  0.51970376132E+02 -0.18888410966E+03  0.19856103327E+03  0.41800000000E+01 0. -1.
         -5    1    3    3    0  502 -0.39994190057E+01 -0.14686494911E+02  0.15044804105E+02  0.21806123353E+02  0.41800000000E+01 0. -1.
        -11    1    1    2    0    0 -0.29490175159E+02 -0.17255539009E+02 -0.52263272766E+02  0.62440962017E+02  0.00000000000E+00 0.  1.
         11    1    1    2    0    0  0.65596986678E+02 -0.20028342212E+02 -0.57672306388E+02  0.89611350158E+02  0.00000000000E+00 0. -1.
</event>
<event>
 7    1  0.7017065E-006  0.1858778E+03  0.7561462E-02  0.1162233E+00
          1   -1    0    0  501    0  0.00000000000E+00  0.00000000000E+00  0.10564503572E+04  0.10564503572E+04  0.00000000000E+00 0. -1.
         -1   -1    0    0    0  501 -0.00000000000E+00 -0.00000000000E+00 -0.38037506818E+02  0.38037506818E+02  0.00000000000E+00 0.  1.
         23    2    1    2    0    0  0.74370474572E+02  0.15098056307E+03  0.53553202179E+03  0.57512546514E+03  0.12509458972E+03 0.  0.
          5    1    3    3  502    0  0.54274830145E+02  0.16625800734E+03  0.50917921956E+03  0.53839430924E+03  0.41800000000E+01 0.  1.
         -5    1    3    3    0  502  0.20095644428E+02 -0.15277444271E+02  0.26352802236E+02  0.36731155905E+02  0.41800000000E+01 0.  1.
        -11    1    1    2    0    0 -0.33202824895E+02 -0.10186114046E+03  0.40273951925E+03  0.41674601364E+03  0.00000000000E+00 0. -1.
         11    1    1    2    0    0 -0.41167649678E+02 -0.49119422612E+02  0.80141309356E+02  0.10261638526E+03  0.00000000000E+00 0.  1.
</event>
<event>
 7    1  0.7017065E-006  0.9467307E+02  0.7561462E-02  0.1291914E+00
          1   -1    0    0  501    0  0.00000000000E+00  0.00000000000E+00  0.13785590905E+03  0.13785590905E+03  0.00000000000E+00 0. -1.
         -1   -1    0    0    0  501 -0.00000000000E+00 -0.00000000000E+00 -0.14206716658E+03  0.14206716658E+03  0.00000000000E+00 0.  1.
         23    2    1    2    0    0 -0.13255915946E+02 -0.37192224525E+02 -0.80370974478E+02  0.15387216247E+03  0.12513260156E+03 0.  0.
          5    1    3    3  502    0 -0.65919845903E+02 -0.10713524310E+02 -0.21070076021E+02  0.70154302723E+02  0.41800000000E+01 0. -1.
         -5    1    3    3    0  502  0.52663929956E+02 -0.26478700215E+02 -0.59300898457E+02  0.83717859751E+02  0.41800000000E+01 0. -1.
        -11    1    1    2    0    0  0.25608804680E+02  0.15964147383E+01 -0.13357612612E+02  0.28927240308E+02  0.00000000000E+00 0.  1.
         11    1    1    2    0    0 -0.12352888734E+02  0.35595809786E+02  0.89517329564E+02  0.97123672844E+02  0.00000000000E+00 0. -1.
</event>
<event>
 7    1  0.7017065E-006  0.9588897E+02  0.7561462E-02  0.1289186E+00
          2   -1    0    0  501    0  0.00000000000E+00  0.00000000000E+00  0.31527683621E+03  0.31527683621E+03  0.00000000000E+00 0. -1.
         -2   -1    0    0    0  501 -0.00000000000E+00 -0.00000000000E+00 -0.83224912439E+02  0.83224912439E+02  0.00000000000E+00 0.  1.
         23    2    1    2    0    0  0.57119497329E+02  0.29613123613E+02 -0.82924717804E+00  0.14066860684E+03  0.12508954887E+03 0.  0.
          5    1    3    3  502    0  0.77882186959E+01  0.31499494811E+02  0.56258777615E+02  0.65079927647E+02  0.41800000000E+01 0. -1.
         -5    1    3    3    0  502  0.49331278633E+02 -0.18863711987E+01 -0.57088024793E+02  0.75588679197E+02  0.41800000000E+01 0. -1.
        -11    1    1    2    0    0 -0.57746791020E+02  0.19082574628E+02  0.14737701348E+03  0.15943280914E+03  0.00000000000E+00 0. -1.
         11    1    1    2    0    0  0.62729369093E+00 -0.48695698241E+02  0.85504157472E+02  0.98400332670E+02  0.00000000000E+00 0.  1.
</event>
<event>
 7    1  0.7017065E-006  0.1002775E+03  0.7561462E-02  0.1279714E+00
          1   -1    0    0  501    0  0.00000000000E+00  0.00000000000E+00  0.93208537562E+02  0.93208537562E+02  0.00000000000E+00 0. -1.
         -1   -1    0    0    0  501 -0.00000000000E+00 -0.00000000000E+00 -0.17856671258E+03  0.17856671258E+03  0.00000000000E+00 0.  1.
         23    2    1    2    0    0 -0.20762336136E+02 -0.41673255210E+02 -0.10180812589E+03  0.16787364331E+03  0.12509568665E+03 0.  0.
          5    1    3    3  502    0 -0.58847941289E+02 -0.55935035320E+02 -0.32800644797E+02  0.87665061851E+02  0.41800000000E+01 0. -1.
         -5    1    3    3    0  502  0.38085605153E+02  0.14261780110E+02 -0.69007481096E+02  0.80208581455E+02  0.41800000000E+01 0. -1.
        -11    1    1    2    0    0  0.43155792850E+02  0.21411426998E+02 -0.23677761834E+02  0.53679680216E+02  0.00000000000E+00 0.  1.
         11    1    1    2    0    0 -0.22393456714E+02  0.20261828212E+02  0.40127712710E+02  0.50221926620E+02  0.00000000000E+00 0. -1.
</event>
<event>
 7    1  0.7017065E-006  0.8586587E+02  0.7561462E-02  0.1313184E+00
         -2   -1    0    0    0  501 -0.00000000000E+00  0.00000000000E+00  0.46215268354E+03  0.46215268354E+03  0.00000000000E+00 0.  1.
          2   -1    0    0  501    0  0.00000000000E+00 -0.00000000000E+00 -0.30449776152E+02  0.30449776152E+02  0.00000000000E+00 0. -1.
         23    2    1    2    0    0 -0.27426046155E+02  0.37232135590E+02  0.26729064836E+03  0.29871446333E+03  0.12509044716E+03 0.  0.
          5    1    3    3  502    0 -0.31047207792E+02 -0.61432065522E-01  0.25798700736E+03  0.25988209106E+03  0.41800000000E+01 0.  1.
         -5    1    3    3    0  502  0.36211616374E+01  0.37293567656E+02  0.93036410013E+01  0.38832372268E+02  0.41800000000E+01 0.  1.
        -11    1    1    2    0    0 -0.16171000887E+02  0.23142672598E+02  0.48311609793E+02  0.55956198990E+02  0.00000000000E+00 0.  1.
         11    1    1    2    0    0  0.43597047042E+02 -0.60374808188E+02  0.11610064923E+03  0.13793179737E+03  0.00000000000E+00 0. -1.
</event>
<event>
 7    1  0.7017065E-006  0.1544464E+03  0.7561462E-02  0.1195113E+00
         -1   -1    0    0    0  501 -0.00000000000E+00  0.00000000000E+00  0.20271041751E+03  0.20271041751E+03  0.00000000000E+00 0.  1.
          1   -1    0    0  501    0  0.00000000000E+00 -0.00000000000E+00 -0.18837397362E+03  0.18837397362E+03  0.00000000000E+00 0. -1.
         23    2    1    2    0    0 -0.54657212926E+02 -0.10813936385E+03  0.11225722655E+03  0.20719787788E+03  0.12509093791E+03 0.  0.
          5    1    3    3  502    0  0.60675752681E+01 -0.92139594198E+02  0.11073448383E+03  0.14424326188E+03  0.41800000000E+01 0.  1.
         -5    1    3    3    0  502 -0.60724788195E+02 -0.15999769653E+02  0.15227427202E+01  0.62954615999E+02  0.41800000000E+01 0.  1.
        -11    1    1    2    0    0  0.81814829946E+02  0.81448910494E+02 -0.86098209877E+02  0.14401560042E+03  0.00000000000E+00 0.  1.
         11    1    1    2    0    0 -0.27157617019E+02  0.26690453357E+02 -0.11822572785E+02  0.39870912829E+02  0.00000000000E+00 0. -1.
</event>
<event>
 7    1  0.7017065E-006  0.9973773E+02  0.7561462E-02  0.1280848E+00
          2   -1    0    0  501    0  0.00000000000E+00  0.00000000000E+00  0.69359573031E+02  0.69359573031E+02  0.00000000000E+00 0.  1.
         -2   -1    0    0    0  501 -0.00000000000E+00 -0.00000000000E+00 -0.20606382683E+03  0.20606382683E+03  0.00000000000E+00 0. -1.
         23    2    1    2    0    0  0.48969058022E+02 -0.66398050187E+01 -0.10226244179E+03  0.16896028853E+03  0.12509163220E+03 0.  0.
          5    1    3    3  502    0 -0.10104460423E+02  0.30035488814E+02  0.12819201860E+02  0.34438859520E+02  0.41800000000E+01 0.  1.
         -5    1    3    3    0  502  0.59073518445E+02 -0.36675293832E+02 -0.11508164365E+03  0.13452142901E+03  0.41800000000E+01 0.  1.
        -11    1    1    2    0    0  0.24328882833E+02  0.18517848152E+01 -0.20121823798E+02  0.31626119583E+02  0.00000000000E+00 0. -1.
         11    1    1    2    0    0 -0.73297940855E+02  0.47880202035E+01 -0.14319988214E+02  0.74836991746E+02  0.00000000000E+00 0.  1.
</event>
<event>
 6    1  0.7017065E-006  0.9597770E+02  0.7561462E-02  0.1288989E+00
          2   -1    0    0  501    0  0.00000000000E+00  0.00000000000E+00  0.14592568069E+04  0.14592568069E+04  0.00000000000E+00 0. -1.
         -2   -1    0    0    0  501 -0.00000000000E+00 -0.00000000000E+00 -0.12483190425E+02  0.12483190425E+02  0.00000000000E+00 0.  1.
          5    1    1    2  502    0 -0.79469127812E+01  0.29353602181E+02  0.88702377976E+03  0.88755475642E+03  0.41800000000E+01 0. -1.
         -5    1    1    2    0  502  0.24543715593E+01 -0.64714037967E+02  0.16437487970E+03  0.17672154403E+03  0.41800000000E+01 0.  1.
        -11    1    1    2    0    0  0.34642390234E+02  0.52237656919E+02  0.21413345498E+03  0.22311881262E+03  0.00000000000E+00 0. -1.
         11    1    1    2    0    0 -0.29149849012E+02 -0.16877221133E+02  0.18124150199E+03  0.18434488421E+03  0.00000000000E+00 0.  1.
</event>
<event>
 7    1  0.1378796E-005  0.4687376E+03  0.7561462E-02  0.1022277E+00
         -1   -1    0    0    0  501 -0.00000000000E+00  0.00000000000E+00  0.36009375128E+03  0.36009375128E+03  0.00000000000E+00 0.  1.
          1   -1    0    0  501    0  0.00000000000E+00 -0.00000000000E+00 -0.64758865209E+03  0.64758865209E+03  0.00000000000E+00 0. -1.
         23    2    1    2    0    0 -0.15927099276E+03  0.42781576436E+03 -0.26337900310E+02  0.47406214201E+03  0.12509057567E+03 0.  0.
          5    1    3    3  502    0 -0.17942056940E+03  0.39582064543E+03 -0.17245284194E+02  0.43494895827E+03  0.41800000000E+01 0.  1.
         -5    1    3    3    0  502  0.20149576641E+02  0.31995118929E+02 -0.90926161161E+01  0.39113183736E+02  0.41800000000E+01 0.  1.
        -11    1    1    2    0    0 -0.68107672516E+01 -0.70169783514E+02 -0.30755034857E+02  0.76915910175E+02  0.00000000000E+00 0. -1.
         11    1    1    2    0    0  0.16608176001E+03 -0.35764598085E+03 -0.23040196564E+03  0.45670435119E+03  0.00000000000E+00 0.  1.
</event>
<event>
 7    1  0.7017065E-006  0.1068487E+03  0.7561462E-02  0.1266519E+00
         -2   -1    0    0    0  501 -0.00000000000E+00  0.00000000000E+00  0.27546373351E+03  0.27546373351E+03  0.00000000000E+00 0.  1.
          2   -1    0    0  501    0  0.00000000000E+00 -0.00000000000E+00 -0.51189377378E+02  0.51189377378E+02  0.00000000000E+00 0. -1.
         23    2    1    2    0    0 -0.42653075814E+02  0.17838714174E+02  0.14130821823E+03  0.19430086230E+03  0.12508919998E+03 0.  0.
          5    1    3    3  502    0  0.43973310652E+02 -0.50756196049E+00  0.38963000517E+02  0.58902440341E+02  0.41800000000E+01 0.  1.
         -5    1    3    3    0  502 -0.86626386467E+02  0.18346276135E+02  0.10234521771E+03  0.13539842196E+03  0.41800000000E+01 0.  1.
        -11    1    1    2    0    0  0.39278685334E+02  0.19175078284E+02  0.84519252699E+02  0.95152524011E+02  0.00000000000E+00 0.  1.
         11    1    1    2    0    0  0.33743904800E+01 -0.37013792458E+02 -0.15531147935E+01  0.37199724580E+02  0.00000000000E+00 0. -1.
</event>
<event>
 7    1  0.7017065E-006  0.1648873E+03  0.7561462E-02  0.1183287E+00
         -2   -1    0    0    0  501 -0.00000000000E+00  0.00000000000E+00  0.52326941399E+02  0.52326941399E+02  0.00000000000E+00 0.  1.
          2   -1    0    0  501    0  0.00000000000E+00 -0.00000000000E+00 -0.62557311566E+03  0.62557311566E+03  0.00000000000E+00 0. -1.
         23    2    1    2    0    0 -0.11073853478E+03 -0.87866659261E+02 -0.24742377024E+03  0.31120649081E+03  0.12508950776E+03 0.  0.
          5    1    3    3  502    0 -0.13674343337E+02 -0.79177576461E+02 -0.16472943591E+03  0.18332849133E+03  0.41800000000E+01 0. -1.
         -5    1    3    3    0  502 -0.97064191448E+02 -0.86890827996E+01 -0.82694334330E+02  0.12787799948E+03  0.41800000000E+01 0. -1.
        -11    1    1    2    0    0  0.16734797709E+02  0.45848604431E+02 -0.40706333573E+02  0.63554335616E+02  0.00000000000E+00 0.  1.
         11    1    1    2    0    0  0.94003737076E+02  0.42018054830E+02 -0.28511607045E+03  0.30313923063E+03  0.00000000000E+00 0. -1.
</event>
<event>
 7    1  0.7017065E-006  0.1236796E+03  0.7561462E-02  0.1237147E+00
          1   -1    0    0  501    0  0.00000000000E+00  0.00000000000E+00  0.30656676030E+03  0.30656676030E+03  0.00000000000E+00 0. -1.
         -1   -1    0    0    0  501 -0.00000000000E+00 -0.00000000000E+00 -0.88794298373E+02  0.88794298373E+02  0.00000000000E+00 0.  1.
         23    2    1    2    0    0  0.26686939247E+02  0.85734111536E+02  0.13668386616E+02  0.15463388997E+03  0.12514904925E+03 0.  0.
          5    1    3    3  502    0  0.28028287112E+02  0.11072525744E+03  0.37030318851E+02  0.12014318303E+03  0.41800000000E+01 0.  1.
         -5    1    3    3    0  502 -0.13413478656E+01 -0.24991145903E+02 -0.23361932235E+02  0.34490706943E+02  0.41800000000E+01 0.  1.
        -11    1    1    2    0    0 -0.24163792329E+02 -0.23597764991E+01  0.49053226121E+01  0.24769327701E+02  0.00000000000E+00 0.  1.
         11    1    1    2    0    0 -0.25231469181E+01 -0.83374335037E+02  0.19919875270E+03  0.21595784100E+03  0.00000000000E+00 0. -1.
</event>
<event>
 7    1  0.7017065E-006  0.8821585E+02  0.7561462E-02  0.1307231E+00
          1   -1    0    0  501    0  0.00000000000E+00  0.00000000000E+00  0.98921146318E+02  0.98921146318E+02  0.00000000000E+00 0. -1.
         -1   -1    0    0    0  501 -0.00000000000E+00 -0.00000000000E+00 -0.13345396248E+03  0.13345396248E+03  0.00000000000E+00 0.  1.
         23    2    1    2    0    0  0.24163573310E+02 -0.18296564536E+02 -0.63325202487E+02  0.13114707959E+03  0.11077379052E+03 0.  0.
          5    1    3    3  502    0  0.54380145084E+02  0.23637801110E+02 -0.17553392155E+02  0.61980156476E+02  0.41800000000E+01 0. -1.
         -5    1    3    3    0  502 -0.30216571774E+02 -0.41934365646E+02 -0.45771810332E+02  0.69166923114E+02  0.41800000000E+01 0.  1.
        -11    1    1    2    0    0  0.16573275392E+02  0.17900565090E+02  0.49754081022E+02  0.55412744618E+02  0.00000000000E+00 0. -1.
         11    1    1    2    0    0 -0.40736848702E+02  0.39599944546E+00 -0.20961694698E+02  0.45815284593E+02  0.00000000000E+00 0.  1.
</event>
<event>
 7    1  0.7017065E-006  0.1181688E+03  0.7561462E-02  0.1246149E+00
         -2   -1    0    0    0  501 -0.00000000000E+00  0.00000000000E+00  0.17992774200E+03  0.17992774200E+03  0.00000000000E+00 0. -1.
          2   -1    0    0  501    0  0.00000000000E+00 -0.00000000000E+00 -0.10455107846E+03  0.10455107846E+03  0.00000000000E+00 0.  1.
         23    2    1    2    0    0  0.16120250563E+01 -0.68038432637E+02  0.90203760557E+02  0.16856956312E+03  0.12508857762E+03 0.  0.
          5    1    3    3  502    0 -0.14755623518E+02 -0.10255142735E+03  0.70484367757E+02  0.12537959234E+03  0.41800000000E+01 0. -1.
         -5    1    3    3    0  502  0.16367648574E+02  0.34512994712E+02  0.19719392800E+02  0.43189970783E+02  0.41800000000E+01 0. -1.
        -11    1    1    2    0    0 -0.32888979543E+02  0.26578638692E+02 -0.39989658826E+02  0.58200359304E+02  0.00000000000E+00 0.  1.
         11    1    1    2    0    0  0.31276954487E+02  0.41459793945E+02  0.25162561803E+02  0.57708898035E+02  0.00000000000E+00 0. -1.
</event>
<event>
 7    1  0.7017065E-006  0.8408669E+02  0.7561462E-02  0.1317838E+00
          2   -1    0    0  501    0  0.00000000000E+00  0.00000000000E+00  0.49882817070E+02  0.49882817070E+02  0.00000000000E+00 0. -1.
         -2   -1    0    0    0  501 -0.00000000000E+00 -0.00000000000E+00 -0.26528810596E+03  0.26528810596E+03  0.00000000000E+00 0.  1.
         23    2    1    2    0    0 -0.49996461308E+01 -0.39036174225E+02 -0.11277024561E+03  0.17295447180E+03  0.12508917483E+03 0.  0.
          5    1    3    3  502    0  0.29594529078E+02 -0.32809946263E+02  0.97351126218E+01  0.45437578533E+02  0.41800000000E+01 0. -1.
         -5    1    3    3    0  502 -0.34594175209E+02 -0.62262279619E+01 -0.12250535823E+03  0.12751689326E+03  0.41800000000E+01 0. -1.
        -11    1    1    2    0    0  0.28179956594E+02  0.53924335023E+02 -0.37441697126E+02  0.71441056438E+02  0.00000000000E+00 0. -1.
         11    1    1    2    0    0 -0.23180310463E+02 -0.14888160798E+02 -0.65193346160E+02  0.70775394796E+02  0.00000000000E+00 0.  1.
</event>
<event>
 7    1  0.7017065E-006  0.4555844E+03  0.7561462E-02  0.1026070E+00
         -1   -1    0    0    0  501 -0.00000000000E+00  0.00000000000E+00  0.15896810176E+03  0.15896810176E+03  0.00000000000E+00 0.  1.
          1   -1    0    0  501    0  0.00000000000E+00 -0.00000000000E+00 -0.13720510151E+04  0.13720510151E+04  0.00000000000E+00 0. -1.
         23    2    1    2    0    0  0.39828006822E+02  0.44690121985E+03 -0.51788067065E+03  0.69652929453E+03  0.12508276730E+03 0.  0.
          5    1    3    3  502    0  0.67987063436E+02  0.40427603253E+03 -0.48738835097E+03  0.63688792446E+03  0.41800000000E+01 0. -1.
         -5    1    3    3    0  502 -0.28159056614E+02  0.42625187325E+02 -0.30492319689E+02  0.59641370071E+02  0.41800000000E+01 0. -1.
        -11    1    1    2    0    0 -0.44331159329E+02 -0.43428004652E+03 -0.69542807065E+03  0.82108745694E+03  0.00000000000E+00 0. -1.
         11    1    1    2    0    0  0.45031525075E+01 -0.12621173328E+02  0.22582800124E+00  0.13402365350E+02  0.00000000000E+00 0.  1.
</event>
<event>
 7    1  0.7017065E-006  0.1855813E+03  0.7561462E-02  0.1162508E+00
         -2   -1    0    0    0  501 -0.00000000000E+00  0.00000000000E+00  0.75085219595E+02  0.75085219595E+02  0.00000000000E+00 0.  1.
          2   -1    0    0  501    0  0.00000000000E+00 -0.00000000000E+00 -0.63040396642E+03  0.63040396642E+03  0.00000000000E+00 0. -1.
         23    2    1    2    0    0 -0.14421090660E+03 -0.10868188887E+03 -0.20373058673E+03  0.29960218839E+03  0.12508709272E+03 0.  0.
          5    1    3    3  502    0  0.23632850877E+01  0.13076687593E+01 -0.76057239840E+02  0.76219887471E+02  0.41800000000E+01 0. -1.
         -5    1    3    3    0  502 -0.14657419169E+03 -0.10998955763E+03 -0.12767334689E+03  0.22338230092E+03  0.41800000000E+01 0. -1.
        -11    1    1    2    0    0  0.11235922694E+03  0.98567245881E+02 -0.19457065276E+03  0.24535247452E+03  0.00000000000E+00 0.  1.
         11    1    1    2    0    0  0.31851679660E+02  0.10114642987E+02 -0.15701750733E+03  0.16053452311E+03  0.00000000000E+00 0. -1.
</event>
<event>
 7    1  0.7017065E-006  0.2597243E+03  0.7561462E-02  0.1107309E+00
         -4   -1    0    0    0  501 -0.00000000000E+00  0.00000000000E+00  0.39877807880E+03  0.39877807880E+03  0.00000000000E+00 0. -1.
          4   -1    0    0  501    0  0.00000000000E+00 -0.00000000000E+00 -0.19381643429E+03  0.19381643429E+03  0.00000000000E+00 0.  1.
         23    2    1    2    0    0 -0.25002479864E+03 -0.52646287363E+02  0.11093122186E+03  0.30534810217E+03  0.12509075107E+03 0.  0.
          5    1    3    3  502    0 -0.43429840042E+02 -0.24181108201E+01 -0.27477222523E+02  0.51618489164E+02  0.41800000000E+01 0. -1.
         -5    1    3    3    0  502 -0.20659495860E+03 -0.50228176543E+02  0.13840844438E+03  0.25372961300E+03  0.41800000000E+01 0. -1.
        -11    1    1    2    0    0  0.13234287126E+03 -0.41889027853E+01  0.12010571824E+02  0.13295275971E+03  0.00000000000E+00 0. -1.
         11    1    1    2    0    0  0.11768192738E+03  0.56835190148E+02  0.82019850832E+02  0.15429365120E+03  0.00000000000E+00 0.  1.
</event>
<event>
 7    1  0.7017065E-006  0.1051193E+03  0.7561462E-02  0.1269885E+00
         -1   -1    0    0    0  501 -0.00000000000E+00  0.00000000000E+00  0.41010254578E+02  0.41010254578E+02  0.00000000000E+00 0.  1.
          1   -1    0    0  501    0  0.00000000000E+00 -0.00000000000E+00 -0.37192138031E+03  0.37192138031E+03  0.00000000000E+00 0. -1.
         23    2    1    2    0    0 -0.18737768503E+02  0.53683151928E+02 -0.15908557524E+03  0.21021168836E+03  0.12509096253E+03 0.  0.
          5    1    3    3  502    0 -0.44167004860E+02  0.83367002300E+02 -0.88528695968E+02  0.12944336136E+03  0.41800000000E+01 0. -1.
         -5    1    3    3    0  502  0.25429236357E+02 -0.29683850371E+02 -0.70556879270E+02  0.80768327003E+02  0.41800000000E+01 0. -1.
        -11    1    1    2    0    0  0.93828600734E+01 -0.62760167110E+02 -0.17750091437E+03  0.18850318629E+03  0.00000000000E+00 0. -1.
         11    1    1    2    0    0  0.93549084297E+01  0.90770151812E+01  0.56753638785E+01  0.14216760232E+02  0.00000000000E+00 0.  1.
</event>
<event>
 7    1  0.7017065E-006  0.9262581E+02  0.7561462E-02  0.1296615E+00
          2   -1    0    0  501    0  0.00000000000E+00  0.00000000000E+00  0.29843900235E+03  0.29843900235E+03  0.00000000000E+00 0. -1.
         -2   -1    0    0    0  501 -0.00000000000E+00 -0.00000000000E+00 -0.40188383088E+02  0.40188383088E+02  0.00000000000E+00 0.  1.
         23    2    1    2    0    0  0.20794472752E+02 -0.28050195295E+01  0.11886980162E+03  0.17383248640E+03  0.12508966928E+03 0.  0.
          5    1    3    3  502    0 -0.10735680486E+02  0.49603358900E+02  0.95491838551E+02  0.10822158602E+03  0.41800000000E+01 0. -1.
         -5    1    3    3    0  502  0.31530153238E+02 -0.52408378430E+02  0.23377963064E+02  0.65610900390E+02  0.41800000000E+01 0. -1.
        -11    1    1    2    0    0 -0.46706637240E+02 -0.16263044787E+01  0.12778427482E+03  0.13606239642E+03  0.00000000000E+00 0. -1.
         11    1    1    2    0    0  0.25912164487E+02  0.44313240082E+01  0.11596542825E+02  0.28732502613E+02  0.00000000000E+00 0.  1.
</event>
<event>
 7    1  0.7017065E-006  0.1050038E+03  0.7561462E-02  0.1270112E+00
          2   -1    0    0  501    0  0.00000000000E+00  0.00000000000E+00  0.15178454082E+03  0.15178454082E+03  0.00000000000E+00 0. -1.
         -2   -1    0    0    0  501 -0.00000000000E+00 -0.00000000000E+00 -0.11280022321E+03  0.11280022321E+03  0.00000000000E+00 0.  1.
         23    2    1    2    0    0 -0.63971992322E+02  0.25825876649E+02  0.53218525135E+01  0.14295257634E+03  0.12509086802E+03 0.  0.
          5    1    3    3  502    0  0.30444038422E+01  0.42293907545E+02 -0.41479375044E+02  0.59464728741E+02  0.41800000000E+01 0. -1.
         -5    1    3    3    0  502 -0.67016396164E+02 -0.16468030896E+02  0.46801227558E+02  0.83487847603E+02  0.41800000000E+01 0. -1.
        -11    1    1    2    0    0  0.77668324615E+02 -0.11626551674E+02 -0.45099247295E+01  0.78663109355E+02  0.00000000000E+00 0.  1.
         11    1    1    2    0    0 -0.13696332293E+02 -0.14199324974E+02  0.38172389825E+02  0.42969078335E+02  0.00000000000E+00 0. -1.
</event>
<event>
 7    1  0.7017065E-006  0.7858158E+02  0.7561462E-02  0.1333126E+00
         -3   -1    0    0    0  501 -0.00000000000E+00  0.00000000000E+00  0.49614654800E+03  0.49614654800E+03  0.00000000000E+00 0.  1.
          3   -1    0    0  501    0  0.00000000000E+00 -0.00000000000E+00 -0.33359453674E+02  0.33359453674E+02  0.00000000000E+00 0. -1.
         23    2    1    2    0    0 -0.58203768451E+02  0.22421657321E+02  0.26682042512E+03  0.30121497302E+03  0.12508761463E+03 0.  0.
          5    1    3    3  502    0 -0.25557522969E+02  0.38640898629E+02  0.18277846293E+02  0.49978576333E+02  0.41800000000E+01 0. -1.
         -5    1    3    3    0  502 -0.32646245482E+02 -0.16219241309E+02  0.24854257882E+03  0.25123639669E+03  0.41800000000E+01 0. -1.
        -11    1    1    2    0    0  0.34772559165E+02  0.78761850947E+01  0.18506570132E+03  0.18846877451E+03  0.00000000000E+00 0.  1.
         11    1    1    2    0    0  0.23431209285E+02 -0.30297842416E+02  0.10900967892E+02  0.39822254137E+02  0.00000000000E+00 0. -1.
</event>
<event>
 7    1  0.7017065E-006  0.9200148E+02  0.7561462E-02  0.1298076E+00
          1   -1    0    0  501    0  0.00000000000E+00  0.00000000000E+00  0.35359919548E+02  0.35359919548E+02  0.00000000000E+00 0. -1.
         -1   -1    0    0    0  501 -0.00000000000E+00 -0.00000000000E+00 -0.36798271069E+03  0.36798271069E+03  0.00000000000E+00 0.  1.
         23    2    1    2    0    0 -0.42480553569E+02 -0.23585010523E+02 -0.21598801716E+03  0.24737478615E+03  0.11037486631E+03 0.  0.
          5    1    3    3  502    0 -0.57704916375E+02 -0.82434555592E+01 -0.41920802801E+02  0.71921054226E+02  0.41800000000E+01 0. -1.
         -5    1    3    3    0  502  0.15224362807E+02 -0.15341554964E+02 -0.17406721436E+03  0.17545373192E+03  0.41800000000E+01 0.  1.
        -11    1    1    2    0    0  0.24735638169E+02 -0.34704664637E+02 -0.48043501104E+02  0.64221830724E+02  0.00000000000E+00 0.  1.
         11    1    1    2    0    0  0.17744915400E+02  0.58289675160E+02 -0.68591272875E+02  0.91746013360E+02  0.00000000000E+00 0. -1.
</event>
<event>
 7    1  0.7017065E-006  0.1182575E+03  0.7561462E-02  0.1246000E+00
         -2   -1    0    0    0  501 -0.00000000000E+00  0.00000000000E+00  0.22706670523E+02  0.22706670523E+02  0.00000000000E+00 0.  1.
          2   -1    0    0  501    0  0.00000000000E+00 -0.00000000000E+00 -0.78292562982E+03  0.78292562982E+03  0.00000000000E+00 0. -1.
         23    2    1    2    0    0 -0.25899892865E+02 -0.68490732590E+02 -0.39227126913E+03  0.41819476072E+03  0.12509326282E+03 0.  0.
          5    1    3    3  502    0  0.40240433789E+02 -0.13370447135E+02 -0.52268483379E+02  0.67435362554E+02  0.41800000000E+01 0.  1.
         -5    1    3    3    0  502 -0.66140326654E+02 -0.55120285455E+02 -0.34000278576E+03  0.35075939816E+03  0.41800000000E+01 0.  1.
        -11    1    1    2    0    0  0.81985220741E+01  0.83862744633E+02 -0.34301732836E+03  0.35321532138E+03  0.00000000000E+00 0. -1.
         11    1    1    2    0    0  0.17701370791E+02 -0.15372012042E+02 -0.24930361808E+02  0.34222218251E+02  0.00000000000E+00 0.  1.
</event>
<event>
 7    1  0.7017065E-006  0.1157415E+03  0.7561462E-02  0.1250292E+00
         -1   -1    0    0    0  501 -0.00000000000E+00  0.00000000000E+00  0.94778505186E+03  0.94778505186E+03  0.00000000000E+00 0.  1.
          1   -1    0    0  501    0  0.00000000000E+00 -0.00000000000E+00 -0.36175508510E+02  0.36175508510E+02  0.00000000000E+00 0. -1.
         23    2    1    2    0    0  0.23820231513E+02 -0.37118697624E+02  0.86013832365E+03  0.87030484413E+03  0.12508950701E+03 0.  0.
          5    1    3    3  502    0  0.49060508970E+02 -0.72711244750E+02  0.62166060239E+03  0.62783217154E+03  0.41800000000E+01 0.  1.
         -5    1    3    3    0  502 -0.25240277457E+02  0.35592547126E+02  0.23847772125E+03  0.24247267259E+03  0.41800000000E+01 0.  1.
        -11    1    1    2    0    0  0.21403607494E+02 -0.18402267949E+02  0.23677057695E+02  0.36842379681E+02  0.00000000000E+00 0.  1.
         11    1    1    2    0    0 -0.45223839007E+02  0.55520965572E+02  0.27794162013E+02  0.76813336567E+02  0.00000000000E+00 0. -1.
</event>
<event>
 7    1  0.7017065E-006  0.1695560E+03  0.7561462E-02  0.1178312E+00
         -2   -1    0    0    0  501 -0.00000000000E+00  0.00000000000E+00  0.25575289508E+03  0.25575289508E+03  0.00000000000E+00 0. -1.
          2   -1    0    0  501    0  0.00000000000E+00 -0.00000000000E+00 -0.13268646276E+03  0.13268646276E+03  0.00000000000E+00 0.  1.
         23    2    1    2    0    0 -0.52803383358E+02 -0.13883222792E+03  0.71508770981E+02  0.20694063968E+03  0.12509332205E+03 0.  0.
          5    1    3    3  502    0  0.14425631512E+02  0.15862613940E+02  0.22232326322E+02  0.31168415090E+02  0.41800000000E+01 0.  1.
         -5    1    3    3    0  502 -0.67229014870E+02 -0.15469484187E+03  0.49276444659E+02  0.17577222459E+03  0.41800000000E+01 0.  1.
        -11    1    1    2    0    0  0.24555109502E+02  0.62312965740E+02  0.71042759847E+02  0.97636739134E+02  0.00000000000E+00 0. -1.
         11    1    1    2    0    0  0.28248273855E+02  0.76519262185E+02 -0.19485098513E+02  0.83861979020E+02  0.00000000000E+00 0.  1.
</event>
<event>
 7    1  0.7017065E-006  0.1091979E+03  0.7561462E-02  0.1262063E+00
         -1   -1    0    0    0  501 -0.00000000000E+00  0.00000000000E+00  0.20934745991E+02  0.20934745991E+02  0.00000000000E+00 0.  1.
          1   -1    0    0  501    0  0.00000000000E+00 -0.00000000000E+00 -0.76118683675E+03  0.76118683675E+03  0.00000000000E+00 0. -1.
         23    2    1    2    0    0 -0.22326971182E+02 -0.54562118701E+02 -0.33656547624E+03  0.36386706975E+03  0.12508959273E+03 0.  0.
          5    1    3    3  502    0 -0.64089315393E+02 -0.36742052525E+02 -0.28756996504E+03  0.29693665311E+03  0.41800000000E+01 0.  1.
         -5    1    3    3    0  502  0.41762344211E+02 -0.17820066175E+02 -0.48995511205E+02  0.66930416633E+02  0.41800000000E+01 0.  1.
        -11    1    1    2    0    0  0.52339943751E+02  0.35765000485E+02 -0.33532782750E+03  0.34126728069E+03  0.00000000000E+00 0. -1.
         11    1    1    2    0    0 -0.30012972569E+02  0.18797118216E+02 -0.68358787016E+02  0.76987232304E+02  0.00000000000E+00 0.  1.
</event>
<event>
 7    1  0.7017065E-006  0.8770860E+02  0.7561462E-02  0.1308497E+00
          1   -1    0    0  501    0  0.00000000000E+00  0.00000000000E+00  0.36277188720E+03  0.36277188720E+03  0.00000000000E+00 0. -1.
         -1   -1    0    0    0  501 -0.00000000000E+00 -0.00000000000E+00 -0.59896520734E+02  0.59896520734E+02  0.00000000000E+00 0.  1.
         23    2    1    2    0    0 -0.62866822713E+02  0.18343658000E+02  0.56818445399E+02  0.15219670044E+03  0.12508706049E+03 0.  0.
          5    1    3    3  502    0  0.14853065253E+02  0.29314398156E+01  0.70022246519E+02  0.71762067239E+02  0.41800000000E+01 0.  1.
         -5    1    3    3    0  502 -0.77719887965E+02  0.15412218184E+02 -0.13203801120E+02  0.80434633204E+02  0.41800000000E+01 0.  1.
        -11    1    1    2    0    0  0.19045594229E+02 -0.29531936103E+02  0.21047074879E+02  0.40961558448E+02  0.00000000000E+00 0.  1.
         11    1    1    2    0    0  0.43821228483E+02  0.11188278103E+02  0.22500984619E+03  0.22951014905E+03  0.00000000000E+00 0. -1.
</event>
<event>
 7    1  0.7017065E-006  0.8619239E+02  0.7561462E-02  0.1312343E+00
          1   -1    0    0  501    0  0.00000000000E+00  0.00000000000E+00  0.56481591292E+02  0.56481591292E+02  0.00000000000E+00 0. -1.
         -1   -1    0    0    0  501 -0.00000000000E+00 -0.00000000000E+00 -0.35965845492E+03  0.35965845492E+03  0.00000000000E+00 0.  1.
         23    2    1    2    0    0  0.27554221593E+02 -0.26429895244E+02 -0.28921052984E+03  0.31369742599E+03  0.11534977248E+03 0.  0.
          5    1    3    3  502    0  0.14226875568E+02  0.45419073500E+02 -0.12882922214E+03  0.13740355564E+03  0.41800000000E+01 0. -1.
         -5    1    3    3    0  502  0.13327346025E+02 -0.71848968743E+02 -0.16038130770E+03  0.17629387035E+03  0.41800000000E+01 0.  1.
        -11    1    1    2    0    0 -0.72479111298E+01  0.29940159270E+02 -0.51277305531E+02  0.59818955318E+02  0.00000000000E+00 0.  1.
         11    1    1    2    0    0 -0.20306310463E+02 -0.35102640265E+01  0.37310971740E+02  0.42623664910E+02  0.00000000000E+00 0. -1.
</event>
<event>
 7    1  0.7017065E-006  0.1350618E+03  0.7561462E-02  0.1220133E+00
          2   -1    0    0  501    0  0.00000000000E+00  0.00000000000E+00  0.11561267613E+04  0.11561267613E+04  0.00000000000E+00 0.  1.
         -2   -1    0    0    0  501 -0.00000000000E+00 -0.00000000000E+00 -0.25995646391E+02  0.25995646391E+02  0.00000000000E+00 0. -1.
         23    2    1    2    0    0  0.66510129018E+02 -0.99220373366E+02  0.38725723261E+03  0.42412739905E+03  0.12509039396E+03 0.  0.
          5    1    3    3  502    0  0.52763140469E+02 -0.71433278369E+02  0.94664792384E+02  0.12986746154E+03  0.41800000000E+01 0.  1.
         -5    1    3    3    0  502  0.13746988550E+02 -0.27787094997E+02  0.29259244023E+03  0.29425993750E+03  0.41800000000E+01 0.  1.
        -11    1    1    2    0    0 -0.58281107314E+02  0.11679589218E+03  0.66897440265E+03  0.68158984682E+03  0.00000000000E+00 0.  1.
         11    1    1    2    0    0 -0.82290217042E+01 -0.17575518810E+02  0.73899479691E+02  0.76405161856E+02  0.00000000000E+00 0. -1.
</event>
<event>
 7    1  0.7017065E-006  0.1331534E+03  0.7561462E-02  0.1222850E+00
          2   -1    0    0  501    0  0.00000000000E+00  0.00000000000E+00  0.57691358863E+03  0.57691358863E+03  0.00000000000E+00 0. -1.
         -2   -1    0    0    0  501 -0.00000000000E+00 -0.00000000000E+00 -0.41136148152E+02  0.41136148152E+02  0.00000000000E+00 0.  1.
         23    2    1    2    0    0  0.77003565811E+02  0.28801098334E+02  0.14408984740E+03  0.20776899904E+03  0.12508805069E+03 0.  0.
          5    1    3    3  502    0 -0.72453307556E+01  0.59264883150E+02  0.62247206756E+02  0.86353971197E+02  0.41800000000E+01 0. -1.
         -5    1    3    3    0  502  0.84248896567E+02 -0.30463784816E+02  0.81842640648E+02  0.12141502784E+03  0.41800000000E+01 0. -1.
        -11    1    1    2    0    0 -0.60515870476E+01 -0.43828011352E+02  0.21084605226E+03  0.21543809793E+03  0.00000000000E+00 0. -1.
         11    1    1    2    0    0 -0.70951978764E+02  0.15026913018E+02  0.18084154081E+03  0.19484263981E+03  0.00000000000E+00 0.  1.
</event>
<event>
 7    1  0.7017065E-006  0.1000389E+03  0.7561462E-02  0.1280214E+00
          3   -1    0    0  501    0  0.00000000000E+00  0.00000000000E+00  0.47611294055E+03  0.47611294055E+03  0.00000000000E+00 0. -1.
         -3   -1    0    0    0  501 -0.00000000000E+00 -0.00000000000E+00 -0.40373189787E+02  0.40373189787E+02  0.00000000000E+00 0.  1.
         23    2    1    2    0    0  0.36660949135E+02  0.52080820157E+02  0.12238949540E+03  0.18623390773E+03  0.12508973892E+03 0.  0.
          5    1    3    3  502    0  0.11810629870E+02 -0.18289724840E+02  0.10782665298E+03  0.11008208076E+03  0.41800000000E+01 0. -1.
         -5    1    3    3    0  502  0.24850319266E+02  0.70370544997E+02  0.14562842428E+02  0.76151826967E+02  0.41800000000E+01 0. -1.
        -11    1    1    2    0    0  0.24627852275E+02 -0.28058027095E+02  0.90953178086E+02  0.98317163283E+02  0.00000000000E+00 0.  1.
         11    1    1    2    0    0 -0.61288801410E+02 -0.24022793061E+02  0.22239707727E+03  0.23193505932E+03  0.00000000000E+00 0. -1.
</event>
<event>
 7    1  0.7017065E-006  0.1308852E+03  0.7561462E-02  0.1226148E+00
         -2   -1    0    0    0  501 -0.00000000000E+00  0.00000000000E+00  0.30777888079E+03  0.30777888079E+03  0.00000000000E+00 0.  1.
          2   -1    0    0  501    0  0.00000000000E+00 -0.00000000000E+00 -0.10113289230E+03  0.10113289230E+03  0.00000000000E+00 0. -1.
         23    2    1    2    0    0  0.55481443781E+02  0.61110779353E+02  0.23738540182E+03  0.28073532844E+03  0.12509107755E+03 0.  0.
          5    1    3    3  502    0  0.93505404309E+02  0.59760909309E+02  0.18654054651E+03  0.21709323990E+03  0.41800000000E+01 0. -1.
         -5    1    3    3    0  502 -0.38023960529E+02  0.13498700445E+01  0.50844855307E+02  0.63642088547E+02  0.41800000000E+01 0. -1.
        -11    1    1    2    0    0 -0.35192063427E+02 -0.78304289406E+02  0.21551411415E+01  0.85876001892E+02  0.00000000000E+00 0.  1.
         11    1    1    2    0    0 -0.20289380354E+02  0.17193510053E+02 -0.32894554469E+02  0.42300442750E+02  0.00000000000E+00 0. -1.
</event>
<event>
 7    1  0.7017065E-006  0.8591874E+02  0.7561462E-02  0.1313047E+00
          2   -1    0    0  501    0  0.00000000000E+00  0.00000000000E+00  0.40027274752E+03  0.40027274752E+03  0.00000000000E+00 0. -1.
         -2   -1    0    0    0  501 -0.00000000000E+00 -0.00000000000E+00 -0.47904711447E+02  0.47904711447E+02  0.00000000000E+00 0.  1.
         23    2    1    2    0    0 -0.33489998010E+02  0.59179942467E+02  0.12751047463E+03  0.19112737757E+03  0.12508760034E+03 0.  0.
          5    1    3    3  502    0 -0.58931996403E+02  0.45915755029E+02  0.16805809103E+02  0.76688619623E+02  0.41800000000E+01 0.  1.
         -5    1    3    3    0  502  0.25441998394E+02  0.13264187438E+02  0.11070466553E+03  0.11443875794E+03  0.41800000000E+01 0.  1.
        -11    1    1    2    0    0  0.10078978114E+02 -0.19340226777E+02 -0.51813109099E+01  0.22415979888E+02  0.00000000000E+00 0.  1.
         11    1    1    2    0    0  0.23411019896E+02 -0.39839715691E+02  0.23003887235E+03  0.23463410151E+03  0.00000000000E+00 0. -1.
</event>
<event>
 7    1  0.7017065E-006  0.8497634E+02  0.7561462E-02  0.1315494E+00
         -2   -1    0    0    0  501 -0.00000000000E+00  0.00000000000E+00  0.66845343781E+02  0.66845343781E+02  0.00000000000E+00 0.  1.
          2   -1    0    0  501    0  0.00000000000E+00 -0.00000000000E+00 -0.21674459342E+03  0.21674459342E+03  0.00000000000E+00 0. -1.
         23    2    1    2    0    0 -0.84106996291E+01 -0.29740435715E+02 -0.33167254528E+02  0.13305001345E+03  0.12508799271E+03 0.  0.
          5    1    3    3  502    0 -0.36891741786E+02 -0.45699494470E+01 -0.70373064455E+02  0.79697714212E+02  0.41800000000E+01 0.  1.
         -5    1    3    3    0  502  0.28481042156E+02 -0.25170486268E+02  0.37205809927E+02  0.53352299235E+02  0.41800000000E+01 0.  1.
        -11    1    1    2    0    0  0.21760627530E+02 -0.27762158438E+02 -0.53039236793E+02  0.63697904135E+02  0.00000000000E+00 0. -1.
         11    1    1    2    0    0 -0.13349927901E+02  0.57502594153E+02 -0.63692758316E+02  0.86842019617E+02  0.00000000000E+00 0.  1.
</event>
<event>
 7    1  0.7017065E-006  0.8834687E+02  0.7561462E-02  0.1306905E+00
          2   -1    0    0  501    0  0.00000000000E+00  0.00000000000E+00  0.35617728857E+03  0.35617728857E+03  0.00000000000E+00 0. -1.
         -2   -1    0    0    0  501 -0.00000000000E+00 -0.00000000000E+00 -0.41258213831E+02  0.41258213831E+02  0.00000000000E+00 0.  1.
         23    2    1    2    0    0  0.37195854889E+02  0.17170063209E+02  0.11884112793E+03  0.17733793084E+03  0.12508870986E+03 0.  0.
          5    1    3    3  502    0  0.46035479716E+02 -0.14443510257E+02  0.13285131902E+03  0.14140306130E+03  0.41800000000E+01 0. -1.
         -5    1    3    3    0  502 -0.88396248272E+01  0.31613573465E+02 -0.14010191086E+02  0.35934869536E+02  0.41800000000E+01 0. -1.
        -11    1    1    2    0    0 -0.55550335657E+02  0.15524970668E+02  0.83856591539E+02  0.10177815311E+03  0.00000000000E+00 0.  1.
         11    1    1    2    0    0  0.18354480768E+02 -0.32695033877E+02  0.11222135527E+03  0.11831941846E+03  0.00000000000E+00 0. -1.
</event>
<event>
 6    1  0.7017065E-006  0.1434639E+03  0.7561462E-02  0.1208743E+00
          2   -1    0    0  501    0  0.00000000000E+00  0.00000000000E+00  0.53746932783E+03  0.53746932783E+03  0.00000000000E+00 0. -1.
         -2   -1    0    0    0  501 -0.00000000000E+00 -0.00000000000E+00 -0.63847758850E+02  0.63847758850E+02  0.00000000000E+00 0.  1.
          5    1    1    2  502    0 -0.64368429007E+02  0.65429926068E+02  0.22723651518E+03  0.24510870264E+03  0.41800000000E+01 0. -1.
         -5    1    1    2    0  502  0.90336586426E+02 -0.43368171481E+02  0.91172913684E+01  0.10070796665E+03  0.41800000000E+01 0.  1.
        -11    1    1    2    0    0 -0.57351920221E+02 -0.17657100460E+01  0.14693919659E+03  0.15774500936E+03  0.00000000000E+00 0. -1.
         11    1    1    2    0    0  0.31383762802E+02 -0.20296044541E+02  0.90328565839E+02  0.97755408025E+02  0.00000000000E+00 0.  1.
</event>
<event>
 7    1  0.7017065E-006  0.1292170E+03  0.7561462E-02  0.1228622E+00
          1   -1    0    0  501    0  0.00000000000E+00  0.00000000000E+00  0.30501528612E+03  0.30501528612E+03  0.00000000000E+00 0. -1.
         -1   -1    0    0    0  501 -0.00000000000E+00 -0.00000000000E+00 -0.97322258640E+02  0.97322258640E+02  0.00000000000E+00 0.  1.
         23    2    1    2    0    0  0.12504644035E+03  0.10507606811E+02  0.55770235522E+02  0.18575491388E+03  0.12509015476E+03 0.  0.
          5    1    3    3  502    0  0.10811208766E+03  0.20780775006E+02  0.92475517610E+02  0.14383760936E+03  0.41800000000E+01 0. -1.
         -5    1    3    3    0  502  0.16934352689E+02 -0.10273168195E+02 -0.36705282088E+02  0.41917304528E+02  0.41800000000E+01 0. -1.
        -11    1    1    2    0    0 -0.36204889360E+02 -0.14711021401E+02 -0.16497087293E+01  0.39114315833E+02  0.00000000000E+00 0.  1.
         11    1    1    2    0    0 -0.88841550989E+02  0.42034145901E+01  0.15357250068E+03  0.17746831504E+03  0.00000000000E+00 0. -1.
</event>
<event>
 7    1  0.7017065E-006  0.7467276E+02  0.7561462E-02  0.1344887E+00
          1   -1    0    0  501    0  0.00000000000E+00  0.00000000000E+00  0.25116999205E+03  0.25116999205E+03  0.00000000000E+00 0. -1.
         -1   -1    0    0    0  501 -0.00000000000E+00 -0.00000000000E+00 -0.72009998936E+02  0.72009998936E+02  0.00000000000E+00 0.  1.
         23    2    1    2    0    0  0.23957012650E+01  0.41995842936E+02  0.18952822680E+02  0.13338087492E+03  0.12514734555E+03 0.  0.
          5    1    3    3  502    0  0.34940666917E+02  0.15390831298E+02  0.62086975349E+02  0.73006799688E+02  0.41800000000E+01 0.  1.
         -5    1    3    3    0  502 -0.32544965652E+02  0.26605011637E+02 -0.43134152669E+02  0.60374075231E+02  0.41800000000E+01 0.  1.
        -11    1    1    2    0    0  0.93841624535E+01 -0.52244166277E+02  0.16511086633E+03  0.17343331166E+03  0.00000000000E+00 0. -1.
         11    1    1    2    0    0 -0.11779863718E+02  0.10248323342E+02 -0.49036958895E+01  0.16365804408E+02  0.00000000000E+00 0.  1.
</event>
<event>
 7    1  0.7017065E-006  0.9172700E+02  0.7561462E-02  0.1298723E+00
         -1   -1    0    0    0  501 -0.00000000000E+00  0.00000000000E+00  0.78520703138E+02  0.78520703138E+02  0.00000000000E+00 0.  1.
          1   -1    0    0  501    0  0.00000000000E+00 -0.00000000000E+00 -0.18806851241E+03  0.18806851241E+03  0.00000000000E+00 0. -1.
         23    2    1    2    0    0 -0.33350058852E+02  0.13774995178E+02 -0.29300351730E+02  0.13344508421E+03  0.12508838064E+03 0.  0.
          5    1    3    3  502    0 -0.65787028213E+02 -0.27950729935E+02  0.24618976136E+01  0.71642932134E+02  0.41800000000E+01 0. -1.
         -5    1    3    3    0  502  0.32436969361E+02  0.41725725112E+02 -0.31762249343E+02  0.61802152073E+02  0.41800000000E+01 0. -1.
        -11    1    1    2    0    0  0.14155022805E+01 -0.24960679387E+02 -0.93514870161E+02  0.96799122431E+02  0.00000000000E+00 0. -1.
         11    1    1    2    0    0  0.31934556571E+02  0.11185684209E+02  0.13267412623E+02  0.36345008906E+02  0.00000000000E+00 0.  1.
</event>
<event>
 7    1  0.7017065E-006  0.1285319E+03  0.7561462E-02  0.1229651E+00
         -2   -1    0    0    0  501 -0.00000000000E+00  0.00000000000E+00  0.21970860318E+03  0.21970860318E+03  0.00000000000E+00 0. -1.
          2   -1    0    0  501    0  0.00000000000E+00 -0.00000000000E+00 -0.11722059440E+03  0.11722059440E+03  0.00000000000E+00 0.  1.
         23    2    1    2    0    0 -0.11664745827E+03  0.14091240369E+02  0.66966839625E+02  0.18431082991E+03  0.12522272892E+03 0.  0.
          5    1    3    3  502    0 -0.40918845054E+02  0.22203111987E+02 -0.33979105783E+02  0.57787386965E+02  0.41800000000E+01 0. -1.
         -5    1    3    3    0  502 -0.75728613213E+02 -0.81118716173E+01  0.10094594541E+03  0.12652344294E+03  0.41800000000E+01 0. -1.
        -11    1    1    2    0    0  0.27844433181E+02 -0.33075897187E+02 -0.18420213826E+02  0.46996081871E+02  0.00000000000E+00 0. -1.
         11    1    1    2    0    0  0.88803025086E+02  0.18984656818E+02  0.53941382978E+02  0.10562228579E+03  0.00000000000E+00 0.  1.
</event>
<event>
 7    1  0.7017065E-006  0.1179130E+03  0.7561462E-02  0.1246580E+00
         -2   -1    0    0    0  501 -0.00000000000E+00  0.00000000000E+00  0.47954097893E+02  0.47954097893E+02  0.00000000000E+00 0.  1.
          2   -1    0    0  501    0  0.00000000000E+00 -0.00000000000E+00 -0.33057307578E+03  0.33057307578E+03  0.00000000000E+00 0. -1.
         23    2    1    2    0    0 -0.10968222467E+02 -0.52711957323E+02 -0.10118383512E+03  0.16965773371E+03  0.12508687289E+03 0.  0.
          5    1    3    3  502    0 -0.18936793330E+02 -0.92203670025E+02 -0.81707530368E+02  0.12471452131E+03  0.41800000000E+01 0.  1.
         -5    1    3    3    0  502  0.79685708627E+01  0.39491712702E+02 -0.19476304749E+02  0.44943212395E+02  0.41800000000E+01 0.  1.
        -11    1    1    2    0    0  0.17020812548E+02 -0.21061672815E+02 -0.70344183341E+02  0.75376430345E+02  0.00000000000E+00 0. -1.
         11    1    1    2    0    0 -0.60525900809E+01  0.73773630139E+02 -0.11109095943E+03  0.13349300962E+03  0.00000000000E+00 0.  1.
</event>
<event>
 7    1  0.7017065E-006  0.1639590E+03  0.7561462E-02  0.1184298E+00
          2   -1    0    0  501    0  0.00000000000E+00  0.00000000000E+00  0.66654295887E+02  0.66654295887E+02  0.00000000000E+00 0. -1.
         -2   -1    0    0    0  501 -0.00000000000E+00 -0.00000000000E+00 -0.40550948565E+03  0.40550948565E+03  0.00000000000E+00 0.  1.
         23    2    1    2    0    0 -0.12015805479E+03  0.21342108220E+02 -0.17468933701E+03  0.24827414262E+03  0.12739796589E+03 0.  0.
          5    1    3    3  502    0 -0.89238137618E+02 -0.46715560673E+02 -0.11134847642E+03  0.15020567372E+03  0.41800000000E+01 0. -1.
         -5    1    3    3    0  502 -0.30919917168E+02  0.68057668892E+02 -0.63340860590E+02  0.98068468904E+02  0.41800000000E+01 0.  1.
        -11    1    1    2    0    0  0.66144349350E+02 -0.57164217923E+02 -0.93862452756E+02  0.12826918102E+03  0.00000000000E+00 0. -1.
         11    1    1    2    0    0  0.54013705436E+02  0.35822109703E+02 -0.70303399995E+02  0.95620457902E+02  0.00000000000E+00 0.  1.
</event>
<event>
 7    1  0.7017065E-006  0.7968870E+02  0.7561462E-02  0.1329937E+00
         -1   -1    0    0    0  501 -0.00000000000E+00  0.00000000000E+00  0.29006286222E+03  0.29006286222E+03  0.00000000000E+00 0.  1.
          1   -1    0    0  501    0  0.00000000000E+00 -0.00000000000E+00 -0.41485056433E+02  0.41485056433E+02  0.00000000000E+00 0. -1.
         23    2    1    2    0    0  0.15074940634E+02  0.97553800031E+01  0.15478001336E+03  0.19981687519E+03  0.12509000681E+03 0.  0.
          5    1    3    3  502    0 -0.33650879754E+02  0.10648361179E+02 -0.19857797049E+01  0.35597542402E+02  0.41800000000E+01 0. -1.
         -5    1    3    3    0  502  0.48725820387E+02 -0.89298117558E+00  0.15676579306E+03  0.16421933279E+03  0.41800000000E+01 0. -1.
        -11    1    1    2    0    0  0.22722681588E+02  0.17199339535E+02  0.77426692593E+02  0.82504728743E+02  0.00000000000E+00 0.  1.
         11    1    1    2    0    0 -0.37797622221E+02 -0.26954719538E+02  0.16371099837E+02  0.49226314719E+02  0.00000000000E+00 0. -1.
</event>
<event>
 7    1  0.9300752E-006  0.1431140E+03  0.7561462E-02  0.1209199E+00
         -1   -1    0    0    0  501 -0.00000000000E+00  0.00000000000E+00  0.33677232355E+02  0.33677232355E+02  0.00000000000E+00 0.  1.
          1   -1    0    0  501    0  0.00000000000E+00 -0.00000000000E+00 -0.84434588254E+03  0.84434588254E+03  0.00000000000E+00 0. -1.
         23    2    1    2    0    0 -0.49680371518E+02  0.11879259881E+03 -0.44298855087E+03  0.47798106629E+03  0.12508885915E+03 0.  0.
          5    1    3    3  502    0 -0.13814815908E+02 -0.13772807086E+02 -0.18150554218E+03  0.18259866812E+03  0.41800000000E+01 0.  1.
         -5    1    3    3    0  502 -0.35865555610E+02  0.13256540590E+03 -0.26148300869E+03  0.29538239818E+03  0.41800000000E+01 0.  1.
        -11    1    1    2    0    0  0.40133604429E+02 -0.89841164676E+02 -0.35252092208E+03  0.36599609503E+03  0.00000000000E+00 0. -1.
         11    1    1    2    0    0  0.95467670892E+01 -0.28951434137E+02 -0.15159177239E+02  0.34045953578E+02  0.00000000000E+00 0.  1.
</event>
<event>
 7    1  0.7017065E-006  0.1023988E+03  0.7561462E-02  0.1275331E+00
         -2   -1    0    0    0  501 -0.00000000000E+00  0.00000000000E+00  0.26815701563E+02  0.26815701563E+02  0.00000000000E+00 0.  1.
          2   -1    0    0  501    0  0.00000000000E+00 -0.00000000000E+00 -0.56409071625E+03  0.56409071625E+03  0.00000000000E+00 0. -1.
         23    2    1    2    0    0  0.41559857765E+02  0.27084084155E+02 -0.27174182331E+03  0.30431162238E+03  0.12767605722E+03 0.  0.
          5    1    3    3  502    0  0.53046843708E+02 -0.13360662091E+02 -0.25158625715E+03  0.25749872253E+03  0.41800000000E+01 0. -1.
         -5    1    3    3    0  502 -0.11486985943E+02  0.40444746246E+02 -0.20155566164E+02  0.46812899850E+02  0.41800000000E+01 0.  1.
        -11    1    1    2    0    0 -0.35142436734E+02  0.32432664040E+02 -0.11036799922E+03  0.12028284918E+03  0.00000000000E+00 0.  1.
         11    1    1    2    0    0 -0.64174210311E+01 -0.59516748195E+02 -0.15516519216E+03  0.16631194625E+03  0.00000000000E+00 0. -1.
</event>
<event>
 7    1  0.7017065E-006  0.9346212E+02  0.7561462E-02  0.1294678E+00
          2   -1    0    0  501    0  0.00000000000E+00  0.00000000000E+00  0.16319599826E+03  0.16319599826E+03  0.00000000000E+00 0.  1.
         -2   -1    0    0    0  501 -0.00000000000E+00 -0.00000000000E+00 -0.88236072415E+02  0.88236072415E+02  0.00000000000E+00 0. -1.
         23    2    1    2    0    0 -0.39132275282E+02  0.66343379457E+01  0.14154437926E+02  0.13199941226E+03  0.12509255499E+03 0.  0.
          5    1    3    3  502    0  0.10771898580E+01 -0.39040735904E+02  0.48174488134E+02  0.62157808077E+02  0.41800000000E+01 0.  1.
         -5    1    3    3    0  502 -0.40209465140E+02  0.45675073850E+02 -0.34020050208E+02  0.69841604178E+02  0.41800000000E+01 0.  1.
        -11    1    1    2    0    0  0.57529663091E+02 -0.23067247138E+02  0.97686479236E+01  0.62747003978E+02  0.00000000000E+00 0. -1.
         11    1    1    2    0    0 -0.18397387809E+02  0.16432909192E+02  0.51036839991E+02  0.56685654437E+02  0.00000000000E+00 0.  1.
</event>
<event>
 7    1  0.7017065E-006  0.1281258E+03  0.7561462E-02  0.1230263E+00
         -2   -1    0    0    0  501 -0.00000000000E+00  0.00000000000E+00  0.64517287375E+02  0.64517287375E+02  0.00000000000E+00 0.  1.
          2   -1    0    0  501    0  0.00000000000E+00 -0.00000000000E+00 -0.37519124403E+03  0.37519124403E+03  0.00000000000E+00 0. -1.
         23    2    1    2    0    0 -0.10604393283E+03 -0.25332706812E+02 -0.13511497905E+03  0.21398856299E+03  0.12509190943E+03 0.  0.
          5    1    3    3  502    0 -0.10813178739E+03 -0.25479259857E+02 -0.39081009924E+02  0.11784088367E+03  0.41800000000E+01 0.  1.
         -5    1    3    3    0  502  0.20878545601E+01  0.14655304572E+00 -0.96033969122E+02  0.96147679326E+02  0.41800000000E+01 0.  1.
        -11    1    1    2    0    0  0.27146777164E+02  0.50716777406E+02 -0.56311689566E+02  0.80499350324E+02  0.00000000000E+00 0.  1.
         11    1    1    2    0    0  0.78897155664E+02 -0.25384070594E+02 -0.11924728804E+03  0.14522061808E+03  0.00000000000E+00 0. -1.
</event>
<event>
 6    1  0.7017065E-006  0.1378952E+03  0.7561462E-02  0.1216190E+00
          2   -1    0    0  501    0  0.00000000000E+00  0.00000000000E+00  0.33232178248E+03  0.33232178248E+03  0.00000000000E+00 0. -1.
         -2   -1    0    0    0  501 -0.00000000000E+00 -0.00000000000E+00 -0.74538476447E+02  0.74538476447E+02  0.00000000000E+00 0.  1.
          5    1    1    2  502    0 -0.84082001841E+02  0.57058934670E+02  0.13970438898E+03  0.17280131296E+03  0.41800000000E+01 0. -1.
         -5    1    1    2    0  502  0.15159323239E+02 -0.69454808331E+02  0.16192284423E+01  0.71231101228E+02  0.41800000000E+01 0.  1.
        -11    1    1    2    0    0 -0.14809418103E+01 -0.23709289170E+02  0.22131896274E+01  0.23858369389E+02  0.00000000000E+00 0.  1.
         11    1    1    2    0    0  0.70403620412E+02  0.36105162831E+02  0.11424649898E+03  0.13896947535E+03  0.00000000000E+00 0. -1.
</event>
<event>
 7    1  0.7017065E-006  0.1417820E+03  0.7561462E-02  0.1210951E+00
         -2   -1    0    0    0  501 -0.00000000000E+00  0.00000000000E+00  0.12191142558E+03  0.12191142558E+03  0.00000000000E+00 0. -1.
          2   -1    0    0  501    0  0.00000000000E+00 -0.00000000000E+00 -0.20040498713E+03  0.20040498713E+03  0.00000000000E+00 0.  1.
         23    2    1    2    0    0 -0.11194435445E+03 -0.91028447378E+01 -0.48837599561E+02  0.17506089162E+03  0.12508718707E+03 0.  0.
          5    1    3    3  502    0 -0.22338116604E+02 -0.41552715846E+02  0.25805778398E+02  0.53935426634E+02  0.41800000000E+01 0. -1.
         -5    1    3    3    0  502 -0.89606237845E+02  0.32449871108E+02 -0.74643377959E+02  0.12112546499E+03  0.41800000000E+01 0. -1.
        -11    1    1    2    0    0  0.57085030794E+02 -0.37939702259E+02 -0.30406314955E+02  0.74984436635E+02  0.00000000000E+00 0.  1.
         11    1    1    2    0    0  0.54859323654E+02  0.47042546996E+02  0.75035296626E+00  0.72271084462E+02  0.00000000000E+00 0. -1.
</event>
<event>
 7    1  0.7017065E-006  0.1308683E+03  0.7561462E-02  0.1226173E+00
          1   -1    0    0  501    0  0.00000000000E+00  0.00000000000E+00  0.45274819114E+03  0.45274819114E+03  0.00000000000E+00 0. -1.
         -1   -1    0    0    0  501 -0.00000000000E+00 -0.00000000000E+00 -0.43865685936E+02  0.43865685936E+02  0.00000000000E+00 0.  1.
         23    2    1    2    0    0  0.51047259403E+02 -0.73144961593E+02  0.24394505896E+03  0.28829270075E+03  0.12508989333E+03 0.  0.
          5    1    3    3  502    0 -0.37437279475E+01  0.30998544468E+02  0.83732725458E+02  0.89462656850E+02  0.41800000000E+01 0. -1.
         -5    1    3    3    0  502  0.54790987350E+02 -0.10414350606E+03  0.16021233350E+03  0.19883004390E+03  0.41800000000E+01 0. -1.
        -11    1    1    2    0    0  0.38887825027E+01  0.54248562229E+02  0.31658235759E+02  0.62930700177E+02  0.00000000000E+00 0.  1.
         11    1    1    2    0    0 -0.54936041906E+02  0.18896399363E+02  0.13327921049E+03  0.14539047616E+03  0.00000000000E+00 0. -1.
</event>
<event>
 7    1  0.7017065E-006  0.1179908E+03  0.7561462E-02  0.1246449E+00
          1   -1    0    0  501    0  0.00000000000E+00  0.00000000000E+00  0.15103041074E+03  0.15103041074E+03  0.00000000000E+00 0. -1.
         -1   -1    0    0    0  501 -0.00000000000E+00 -0.00000000000E+00 -0.21807133363E+03  0.21807133363E+03  0.00000000000E+00 0.  1.
         23    2    1    2    0    0  0.11285524588E+03 -0.51299428239E+01 -0.13095278808E+03  0.21344532402E+03  0.12509057041E+03 0.  0.
          5    1    3    3  502    0  0.37084992617E+02 -0.17215084063E+01 -0.13229764367E+03  0.13747144863E+03  0.41800000000E+01 0. -1.
         -5    1    3    3    0  502  0.75770253268E+02 -0.34084344176E+01  0.13448555915E+01  0.75973875391E+02  0.41800000000E+01 0. -1.
        -11    1    1    2    0    0 -0.59004038333E+02  0.26553763566E+02  0.72380017816E+02  0.97084735557E+02  0.00000000000E+00 0. -1.
         11    1    1    2    0    0 -0.53851207551E+02 -0.21423820742E+02 -0.84681526336E+01  0.58571684788E+02  0.00000000000E+00 0.  1.
</event>
<event>
 7    1  0.7017065E-006  0.1078775E+03  0.7561462E-02  0.1264552E+00
         -1   -1    0    0    0  501 -0.00000000000E+00  0.00000000000E+00  0.23002806921E+02  0.23002806921E+02  0.00000000000E+00 0.  1.
          1   -1    0    0  501    0  0.00000000000E+00 -0.00000000000E+00 -0.71586205679E+03  0.71586205679E+03  0.00000000000E+00 0. -1.
         23    2    1    2    0    0  0.68044264103E+02  0.13174460550E+01 -0.41560085783E+03  0.43931917498E+03  0.12508200082E+03 0.  0.
          5    1    3    3  502    0  0.85044966757E+02 -0.88754683011E+01 -0.14818020787E+03  0.17113230762E+03  0.41800000000E+01 0. -1.
         -5    1    3    3    0  502 -0.17000702655E+02  0.10192914356E+02 -0.26742064997E+03  0.26818686736E+03  0.41800000000E+01 0. -1.
        -11    1    1    2    0    0 -0.87446418081E+02 -0.11119129285E+02 -0.24723069761E+03  0.26247576823E+03  0.00000000000E+00 0. -1.
         11    1    1    2    0    0  0.19402153978E+02  0.98016832297E+01 -0.30027694434E+02  0.37069920503E+02  0.00000000000E+00 0.  1.
</event>
<event>
 7    1  0.7017065E-006  0.1060464E+03  0.7561462E-02  0.1268071E+00
          2   -1    0    0  501    0  0.00000000000E+00  0.00000000000E+00  0.16787569767E+03  0.16787569767E+03  0.00000000000E+00 0. -1.
         -2   -1    0    0    0  501 -0.00000000000E+00 -0.00000000000E+00 -0.90704887289E+02  0.90704887289E+02  0.00000000000E+00 0.  1.
         23    2    1    2    0    0  0.12515851871E+02 -0.53859355036E+02  0.63565848183E+02  0.15081598178E+03  0.12508943454E+03 0.  0.
          5    1    3    3  502    0  0.49277009982E+02 -0.76713921253E+02  0.54779156963E+02  0.10644941458E+03  0.41800000000E+01 0.  1.
         -5    1    3    3    0  502 -0.36761158111E+02  0.22854566217E+02  0.87866912203E+01  0.44366567202E+02  0.41800000000E+01 0.  1.
        -11    1    1    2    0    0  0.18839786331E+02  0.53735993633E+01 -0.29706373600E+02  0.35584852839E+02  0.00000000000E+00 0.  1.
         11    1    1    2    0    0 -0.31355638202E+02  0.48485755673E+02  0.43311335794E+02  0.72179750335E+02  0.00000000000E+00 0. -1.
</event>
<event>
 7    1  0.1098839E-005  0.2830490E+03  0.7561462E-02  0.1094035E+00
         -2   -1    0    0    0  501 -0.00000000000E+00  0.00000000000E+00  0.14202374668E+03  0.14202374668E+03  0.00000000000E+00 0.  1.
          2   -1    0    0  501    0  0.00000000000E+00 -0.00000000000E+00 -0.58506027585E+03  0.58506027585E+03  0.00000000000E+00 0. -1.
         23    2    1    2    0    0  0.24279557298E+03  0.10428759550E+03 -0.18004632836E+03  0.34335107684E+03  0.12509072219E+03 0.  0.
          5    1    3    3  502    0  0.75795205487E+02  0.94942856628E+02 -0.10220685614E+03  0.15881679080E+03  0.41800000000E+01 0. -1.
         -5    1    3    3    0  502  0.16700036749E+03  0.93447388674E+01 -0.77839472221E+02  0.18453428604E+03  0.41800000000E+01 0. -1.
        -11    1    1    2    0    0 -0.78146130894E+02 -0.78143148049E+02 -0.12887819117E+03  0.16977266423E+03  0.00000000000E+00 0.  1.
         11    1    1    2    0    0 -0.16464944208E+03 -0.26144447447E+02 -0.13411200964E+03  0.21396028145E+03  0.00000000000E+00 0. -1.
</event>
<event>
 7    1  0.7017065E-006  0.1315626E+03  0.7561462E-02  0.1225155E+00
         -2   -1    0    0    0  501 -0.00000000000E+00  0.00000000000E+00  0.18950341317E+02  0.18950341317E+02  0.00000000000E+00 0.  1.
          2   -1    0    0  501    0  0.00000000000E+00 -0.00000000000E+00 -0.11622594733E+04  0.11622594733E+04  0.00000000000E+00 0. -1.
         23    2    1    2    0    0 -0.23339044857E+02  0.97112248783E+02 -0.56450561586E+03  0.58676257726E+03  0.12509289289E+03 0.  0.
          5    1    3    3  502    0  0.22287876892E+02  0.89580821400E+02 -0.21269564958E+03  0.23190167047E+03  0.41800000000E+01 0. -1.
         -5    1    3    3    0  502 -0.45626921748E+02  0.75314273832E+01 -0.35180996629E+03  0.35486090679E+03  0.41800000000E+01 0. -1.
        -11    1    1    2    0    0  0.72446718078E+01 -0.10576518998E+03 -0.55147622799E+03  0.56157349539E+03  0.00000000000E+00 0. -1.
         11    1    1    2    0    0  0.16094373049E+02  0.86529411934E+01 -0.27327288155E+02  0.32873742000E+02  0.00000000000E+00 0.  1.
</event>
<event>
 7    1  0.7017065E-006  0.7727884E+02  0.7561462E-02  0.1336956E+00
         -2   -1    0    0    0  501 -0.00000000000E+00  0.00000000000E+00  0.28779490559E+02  0.28779490559E+02  0.00000000000E+00 0.  1.
          2   -1    0    0  501    0  0.00000000000E+00 -0.00000000000E+00 -0.46191916275E+03  0.46191916275E+03  0.00000000000E+00 0. -1.
         23    2    1    2    0    0 -0.26622172829E+02  0.31382555337E+02 -0.22567158622E+03  0.26128534611E+03  0.12509501349E+03 0.  0.
          5    1    3    3  502    0  0.11444265598E+02  0.18253159250E+01  0.12912266118E+02  0.17846624600E+02  0.41800000000E+01 0.  1.
         -5    1    3    3    0  502 -0.38066438428E+02  0.29557239412E+02 -0.23858385234E+03  0.24343872151E+03  0.41800000000E+01 0.  1.
        -11    1    1    2    0    0 -0.28670194826E+02  0.28814230779E+01 -0.36594945383E+02  0.46577598670E+02  0.00000000000E+00 0.  1.
         11    1    1    2    0    0  0.55292367655E+02 -0.34263978415E+02 -0.17087314059E+03  0.18283570852E+03  0.00000000000E+00 0. -1.
</event>
<event>
 7    1  0.7017065E-006  0.1785827E+03  0.7561462E-02  0.1169182E+00
         -2   -1    0    0    0  501 -0.00000000000E+00  0.00000000000E+00  0.45774484202E+02  0.45774484202E+02  0.00000000000E+00 0.  1.
          2   -1    0    0  501    0  0.00000000000E+00 -0.00000000000E+00 -0.80703054326E+03  0.80703054326E+03  0.00000000000E+00 0. -1.
         23    2    1    2    0    0 -0.20260446862E+00  0.16029434784E+03 -0.38715111125E+03  0.43729619882E+03  0.12509062142E+03 0.  0.
          5    1    3    3  502    0 -0.38314676022E+02  0.18992788611E+02 -0.33330479634E+02  0.54379533747E+02  0.41800000000E+01 0.  1.
         -5    1    3    3    0  502  0.38112071553E+02  0.14130155923E+03 -0.35382063161E+03  0.38291666508E+03  0.41800000000E+01 0.  1.
        -11    1    1    2    0    0  0.24289978016E+02 -0.98831586475E+02 -0.29727589805E+03  0.31421432984E+03  0.00000000000E+00 0. -1.
         11    1    1    2    0    0 -0.24087373548E+02 -0.61462761365E+02 -0.76829049763E+02  0.10129449880E+03  0.00000000000E+00 0.  1.
</event>
<event>
 7    1  0.7017065E-006  0.1379116E+03  0.7561462E-02  0.1216167E+00
         -1   -1    0    0    0  501 -0.00000000000E+00  0.00000000000E+00  0.11026723770E+03  0.11026723770E+03  0.00000000000E+00 0.  1.
          1   -1    0    0  501    0  0.00000000000E+00 -0.00000000000E+00 -0.22360974536E+03  0.22360974536E+03  0.00000000000E+00 0. -1.
         23    2    1    2    0    0 -0.86757125328E+02 -0.10734090536E+01 -0.68796649623E+01  0.15239088342E+03  0.12509076927E+03 0.  0.
          5    1    3    3  502    0  0.30336519659E+01 -0.46635110817E+02 -0.19533617903E+02  0.50823923830E+02  0.41800000000E+01 0. -1.
         -5    1    3    3    0  502 -0.89790777294E+02  0.45561701763E+02  0.12653952941E+02  0.10156695959E+03  0.41800000000E+01 0. -1.
        -11    1    1    2    0    0  0.66692537962E+02  0.44577849654E+02 -0.20058581750E+02  0.82688729591E+02  0.00000000000E+00 0.  1.
         11    1    1    2    0    0  0.20064587366E+02 -0.43504440600E+02 -0.86404260948E+02  0.98797370046E+02  0.00000000000E+00 0. -1.
</event>
<event>
 7    1  0.7017065E-006  0.7807493E+02  0.7561462E-02  0.1334605E+00
         -1   -1    0    0    0  501 -0.00000000000E+00  0.00000000000E+00  0.29601033421E+02  0.29601033421E+02  0.00000000000E+00 0.  1.
          1   -1    0    0  501    0  0.00000000000E+00 -0.00000000000E+00 -0.50609095635E+03  0.50609095635E+03  0.00000000000E+00 0. -1.
         23    2    1    2    0    0 -0.35556336138E+02 -0.30483375662E+02 -0.19665079825E+03  0.23772404049E+03  0.12509074203E+03 0.  0.
          5    1    3    3  502    0  0.59326082868E+01  0.39820694628E+01  0.16153446353E+02  0.18151004032E+02  0.41800000000E+01 0.  1.
         -5    1    3    3    0  502 -0.41488944425E+02 -0.34465445125E+02 -0.21280424460E+03  0.21957303646E+03  0.41800000000E+01 0.  1.
        -11    1    1    2    0    0 -0.12267724087E+02 -0.20487219747E+02 -0.28963553414E+02  0.37538122670E+02  0.00000000000E+00 0.  1.
         11    1    1    2    0    0  0.47824060225E+02  0.50970595410E+02 -0.25087557127E+03  0.26042982662E+03  0.00000000000E+00 0. -1.
</event>
<event>
 7    1  0.7017065E-006  0.1445351E+03  0.7561462E-02  0.1207354E+00
         -2   -1    0    0    0  501 -0.00000000000E+00  0.00000000000E+00  0.70254718599E+02  0.70254718599E+02  0.00000000000E+00 0.  1.
          2   -1    0    0  501    0  0.00000000000E+00 -0.00000000000E+00 -0.63729415695E+03  0.63729415695E+03  0.00000000000E+00 0. -1.
         23    2    1    2    0    0 -0.13075838642E+03 -0.29229425866E+02 -0.90461408767E+02  0.20440362723E+03  0.12508181880E+03 0.  0.
          5    1    3    3  502    0 -0.56749009449E+02 -0.16681305979E+02 -0.11154026916E+03  0.12632268239E+03  0.41800000000E+01 0.  1.
         -5    1    3    3    0  502 -0.74009376968E+02 -0.12548119887E+02  0.21078860391E+02  0.78080944841E+02  0.41800000000E+01 0.  1.
        -11    1    1    2    0    0  0.51878533592E+02 -0.26262405435E+02 -0.11417683152E+03  0.12813057810E+03  0.00000000000E+00 0. -1.
         11    1    1    2    0    0  0.78879852825E+02  0.55491831301E+02 -0.36240119806E+03  0.37501467022E+03  0.00000000000E+00 0.  1.
</event>
<event>
 7    1  0.7017065E-006  0.1117451E+03  0.7561462E-02  0.1257372E+00
         -1   -1    0    0    0  501 -0.00000000000E+00  0.00000000000E+00  0.17920074706E+03  0.17920074706E+03  0.00000000000E+00 0.  1.
          1   -1    0    0  501    0  0.00000000000E+00 -0.00000000000E+00 -0.82987223299E+02  0.82987223299E+02  0.00000000000E+00 0. -1.
         23    2    1    2    0    0  0.24282691617E+02 -0.25636853400E+02  0.98615724938E+02  0.16315400636E+03  0.12508905317E+03 0.  0.
          5    1    3    3  502    0 -0.46330029610E+02 -0.32412539008E+02  0.29028708980E+02  0.63696017722E+02  0.41800000000E+01 0.  1.
         -5    1    3    3    0  502  0.70612721226E+02  0.67756856081E+01  0.69587015958E+02  0.99457988640E+02  0.41800000000E+01 0.  1.
        -11    1    1    2    0    0 -0.31405010175E+02 -0.27728687734E+02 -0.13592835055E+02  0.44044522387E+02  0.00000000000E+00 0.  1.
         11    1    1    2    0    0  0.71223185583E+01  0.53365541133E+02  0.11190633879E+02  0.54989441611E+02  0.00000000000E+00 0. -1.
</event>
<event>
 7    1  0.7017065E-006  0.1666989E+03  0.7561462E-02  0.1181335E+00
         -2   -1    0    0    0  501 -0.00000000000E+00  0.00000000000E+00  0.18959674493E+02  0.18959674493E+02  0.00000000000E+00 0.  1.
          2   -1    0    0  501    0  0.00000000000E+00 -0.00000000000E+00 -0.18207055594E+04  0.18207055594E+04  0.00000000000E+00 0. -1.
         23    2    1    2    0    0 -0.13598144724E+03  0.47015669535E+02 -0.11716966353E+04  0.11871064989E+04  0.12508959761E+03 0.  0.
          5    1    3    3  502    0 -0.93416766990E+02 -0.32072485823E+02 -0.69621524862E+03  0.70319874966E+03  0.41800000000E+01 0. -1.
         -5    1    3    3    0  502 -0.42564680250E+02  0.79088155358E+02 -0.47548138670E+03  0.48390774929E+03  0.41800000000E+01 0. -1.
        -11    1    1    2    0    0  0.39829554957E+02 -0.68036665150E+01 -0.55600477197E+02  0.68732062319E+02  0.00000000000E+00 0.  1.
         11    1    1    2    0    0  0.96151892282E+02 -0.40212003020E+02 -0.57444877234E+03  0.58382667258E+03  0.00000000000E+00 0. -1.
</event>
<event>
 7    1  0.7017065E-006  0.1675551E+03  0.7561462E-02  0.1180422E+00
          2   -1    0    0  501    0  0.00000000000E+00  0.00000000000E+00  0.34405216864E+02  0.34405216864E+02  0.00000000000E+00 0.  1.
         -2   -1    0    0    0  501 -0.00000000000E+00 -0.00000000000E+00 -0.10163295943E+04  0.10163295943E+04  0.00000000000E+00 0. -1.
         23    2    1    2    0    0 -0.13192649885E+03 -0.60158635935E+02 -0.64806977227E+03  0.67577523896E+03  0.12511627103E+03 0.  0.
          5    1    3    3  502    0 -0.13645768792E+03 -0.76555917298E+02 -0.44076281945E+03  0.46772945650E+03  0.41800000000E+01 0. -1.
         -5    1    3    3    0  502  0.45311890669E+01  0.16397281363E+02 -0.20730695282E+03  0.20804578246E+03  0.41800000000E+01 0. -1.
        -11    1    1    2    0    0  0.12053973227E+03  0.23663414088E+02 -0.19111332404E+03  0.22718733866E+03  0.00000000000E+00 0.  1.
         11    1    1    2    0    0  0.11386766584E+02  0.36495221847E+02 -0.14274128108E+03  0.14777223350E+03  0.00000000000E+00 0. -1.
</event>
<event>
 7    1  0.7017065E-006  0.1164178E+03  0.7561462E-02  0.1249126E+00
         -1   -1    0    0    0  501 -0.00000000000E+00  0.00000000000E+00  0.86280262136E+02  0.86280262136E+02  0.00000000000E+00 0.  1.
          1   -1    0    0  501    0  0.00000000000E+00 -0.00000000000E+00 -0.25639020327E+03  0.25639020327E+03  0.00000000000E+00 0. -1.
         23    2    1    2    0    0  0.56829712390E+02  0.39415019930E+02 -0.65512915198E+01  0.14308780508E+03  0.12509212820E+03 0.  0.
          5    1    3    3  502    0  0.12643722401E+02 -0.45343762633E+02 -0.25886161773E+01  0.47329629827E+02  0.41800000000E+01 0. -1.
         -5    1    3    3    0  502  0.44185989989E+02  0.84758782563E+02 -0.39626753424E+01  0.95758175258E+02  0.41800000000E+01 0. -1.
        -11    1    1    2    0    0 -0.45457644756E+02  0.34158452353E+01 -0.14418194174E+03  0.15121672457E+03  0.00000000000E+00 0. -1.
         11    1    1    2    0    0 -0.11372067633E+02 -0.42830865166E+02 -0.19376707872E+02  0.48365935751E+02  0.00000000000E+00 0.  1.
</event>
<event>
 7    1  0.7017065E-006  0.1304918E+03  0.7561462E-02  0.1226728E+00
         -1   -1    0    0    0  501 -0.00000000000E+00  0.00000000000E+00  0.75529446911E+03  0.75529446911E+03  0.00000000000E+00 0.  1.
          1   -1    0    0  501    0  0.00000000000E+00 -0.00000000000E+00 -0.22712966471E+02  0.22712966471E+02  0.00000000000E+00 0. -1.
         23    2    1    2    0    0  0.42782636072E+02 -0.59845203072E+02  0.37432392871E+03  0.40146917530E+03  0.12508913953E+03 0.  0.
          5    1    3    3  502    0 -0.34600607214E+02 -0.57906680539E+02  0.17684865326E+03  0.18932327969E+03  0.41800000000E+01 0. -1.
         -5    1    3    3    0  502  0.77383243286E+02 -0.19385225333E+01  0.19747527545E+03  0.21214589561E+03  0.41800000000E+01 0. -1.
        -11    1    1    2    0    0  0.27127213476E+02  0.28229547242E+02  0.11761848251E+03  0.12396330294E+03  0.00000000000E+00 0. -1.
         11    1    1    2    0    0 -0.69909849548E+02  0.31615655831E+02  0.24063909142E+03  0.25257495734E+03  0.00000000000E+00 0.  1.
</event>
<event>
 7    1  0.7017065E-006  0.1199777E+03  0.7561462E-02  0.1243134E+00
         -2   -1    0    0    0  501 -0.00000000000E+00  0.00000000000E+00  0.16336905915E+02  0.16336905915E+02  0.00000000000E+00 0.  1.
          2   -1    0    0  501    0  0.00000000000E+00 -0.00000000000E+00 -0.12679961375E+04  0.12679961375E+04  0.00000000000E+00 0. -1.
         23    2    1    2    0    0  0.76810224393E+02 -0.49060303938E+02 -0.80648162342E+03  0.82119834187E+03  0.12508950311E+03 0.  0.
          5    1    3    3  502    0  0.86543872246E+02 -0.29084452381E+02 -0.28649053135E+03  0.30071588609E+03  0.41800000000E+01 0.  1.
         -5    1    3    3    0  502 -0.97336478532E+01 -0.19975851556E+02 -0.51999109207E+03  0.52048245578E+03  0.41800000000E+01 0.  1.
        -11    1    1    2    0    0  0.30430787456E+01  0.45933416789E+02 -0.12736904423E+03  0.13543268636E+03  0.00000000000E+00 0. -1.
         11    1    1    2    0    0 -0.79853303139E+02  0.31268871488E+01 -0.31780856397E+03  0.32770201522E+03  0.00000000000E+00 0.  1.
</event>
<event>
 7    1  0.7017065E-006  0.1140800E+03  0.7561462E-02  0.1253196E+00
          3   -1    0    0  501    0  0.00000000000E+00  0.00000000000E+00  0.53399320642E+03  0.53399320642E+03  0.00000000000E+00 0. -1.
         -3   -1    0    0    0  501 -0.00000000000E+00 -0.00000000000E+00 -0.32122516948E+02  0.32122516948E+02  0.00000000000E+00 0.  1.
         23    2    1    2    0    0 -0.30268090785E+02 -0.63252970563E+02  0.23644166642E+03  0.27653373706E+03  0.12509656473E+03 0.  0.
          5    1    3    3  502    0 -0.10874555722E+02 -0.10025262651E+03  0.17715181504E+03  0.20388497506E+03  0.41800000000E+01 0. -1.
         -5    1    3    3    0  502 -0.19393535063E+02  0.36999655950E+02  0.59289851383E+02  0.72648761996E+02  0.41800000000E+01 0. -1.
        -11    1    1    2    0    0 -0.13398722250E+02  0.16917193671E+02  0.59216492331E+01  0.22378184226E+02  0.00000000000E+00 0.  1.
         11    1    1    2    0    0  0.43666813035E+02  0.46335776892E+02  0.25950737382E+03  0.26720380208E+03  0.00000000000E+00 0. -1.
</event>
<event>
 7    1  0.7017065E-006  0.2039008E+03  0.7561462E-02  0.1146489E+00
          2   -1    0    0  501    0  0.00000000000E+00  0.00000000000E+00  0.74325538761E+03  0.74325538761E+03  0.00000000000E+00 0. -1.
         -2   -1    0    0    0  501 -0.00000000000E+00 -0.00000000000E+00 -0.65691978429E+02  0.65691978429E+02  0.00000000000E+00 0.  1.
         23    2    1    2    0    0 -0.69049089832E+02 -0.17876166262E+03  0.32975806011E+03  0.40138897423E+03  0.12509684885E+03 0.  0.
          5    1    3    3  502    0 -0.72075308555E+02 -0.77835147154E+02  0.25335747411E+03  0.27470100532E+03  0.41800000000E+01 0. -1.
         -5    1    3    3    0  502  0.30262187233E+01 -0.10092651547E+03  0.76400586002E+02  0.12668796891E+03  0.41800000000E+01 0. -1.
        -11    1    1    2    0    0  0.68779965988E+02  0.97504078585E+02  0.26939549175E+03  0.29463818496E+03  0.00000000000E+00 0.  1.
         11    1    1    2    0    0  0.26912384439E+00  0.81257584037E+02  0.78409857324E+02  0.11292020686E+03  0.00000000000E+00 0. -1.
</event>
<event>
 7    1  0.7017065E-006  0.9998508E+02  0.7561462E-02  0.1280327E+00
          1   -1    0    0  501    0  0.00000000000E+00  0.00000000000E+00  0.43841378126E+02  0.43841378126E+02  0.00000000000E+00 0. -1.
         -1   -1    0    0    0  501 -0.00000000000E+00 -0.00000000000E+00 -0.37582896723E+03  0.37582896723E+03  0.00000000000E+00 0.  1.
         23    2    1    2    0    0 -0.22575298852E+02  0.63521786118E+02 -0.19729122532E+03  0.24313393107E+03  0.12508245048E+03 0.  0.
          5    1    3    3  502    0 -0.51347022984E+02  0.35291065822E+02 -0.26905484690E+02  0.67995246912E+02  0.41800000000E+01 0. -1.
         -5    1    3    3    0  502  0.28771724131E+02  0.28230720296E+02 -0.17038574063E+03  0.17513868416E+03  0.41800000000E+01 0. -1.
        -11    1    1    2    0    0 -0.25357201386E+02 -0.22990372986E+02 -0.98044862238E+02  0.10384767654E+03  0.00000000000E+00 0.  1.
         11    1    1    2    0    0  0.47932500238E+02 -0.40531413132E+02 -0.36651501549E+02  0.72688737748E+02  0.00000000000E+00 0. -1.
</event>
<event>
 7    1  0.7017065E-006  0.9980116E+02  0.7561462E-02  0.1280715E+00
          1   -1    0    0  501    0  0.00000000000E+00  0.00000000000E+00  0.59804544829E+03  0.59804544829E+03  0.00000000000E+00 0. -1.
         -1   -1    0    0    0  501 -0.00000000000E+00 -0.00000000000E+00 -0.36506741087E+02  0.36506741087E+02  0.00000000000E+00 0.  1.
         23    2    1    2    0    0  0.47679332294E+02 -0.72161445303E+02  0.19725037077E+03  0.24907656520E+03  0.12510329192E+03 0.  0.
          5    1    3    3  502    0  0.25234318466E+02 -0.38282419497E+02  0.20269791987E+03  0.20786109206E+03  0.41800000000E+01 0.  1.
         -5    1    3    3    0  502  0.22445013828E+02 -0.33879025806E+02 -0.54475491049E+01  0.41215473145E+02  0.41800000000E+01 0.  1.
        -11    1    1    2    0    0  0.76474816908E+01  0.53907127410E+02  0.90986684162E+02  0.10603319790E+03  0.00000000000E+00 0.  1.
         11    1    1    2    0    0 -0.55326813985E+02  0.18254317893E+02  0.27330165228E+03  0.27944242628E+03  0.00000000000E+00 0. -1.
</event>
<event>
 7    1  0.7017065E-006  0.1909407E+03  0.7561462E-02  0.1157616E+00
         -1   -1    0    0    0  501 -0.00000000000E+00  0.00000000000E+00  0.17011513303E+03  0.17011513303E+03  0.00000000000E+00 0.  1.
          1   -1    0    0  501    0  0.00000000000E+00 -0.00000000000E+00 -0.48881856068E+03  0.48881856068E+03  0.00000000000E+00 0. -1.
         23    2    1    2    0    0 -0.13309253352E+02  0.18669122275E+03  0.52993124992E+02  0.23127929510E+03  0.12510432514E+03 0.  0.
          5    1    3    3  502    0  0.13776268643E+02  0.11568423882E+03 -0.28252453869E+02  0.11995124943E+03  0.41800000000E+01 0.  1.
         -5    1    3    3    0  502 -0.27085521995E+02  0.71006983925E+02  0.81245578861E+02  0.11132804567E+03  0.41800000000E+01 0.  1.
        -11    1    1    2    0    0  0.16489263464E+02 -0.53962689616E+02 -0.36708055546E+02  0.67315295603E+02  0.00000000000E+00 0.  1.
         11    1    1    2    0    0 -0.31800101120E+01 -0.13272853313E+03 -0.33498849710E+03  0.36033910301E+03  0.00000000000E+00 0. -1.
</event>
<event>
 7    1  0.7017065E-006  0.1258002E+03  0.7561462E-02  0.1233824E+00
         -2   -1    0    0    0  501 -0.00000000000E+00  0.00000000000E+00  0.44499297241E+02  0.44499297241E+02  0.00000000000E+00 0.  1.
          2   -1    0    0  501    0  0.00000000000E+00 -0.00000000000E+00 -0.51317378942E+03  0.51317378942E+03  0.00000000000E+00 0. -1.
         23    2    1    2    0    0  0.23010174458E+02  0.94379825702E+02 -0.19562514497E+03  0.25170185447E+03  0.12509039359E+03 0.  0.
          5    1    3    3  502    0 -0.22084875368E+02  0.32722181410E+02 -0.16431029869E+03  0.16903795294E+03  0.41800000000E+01 0.  1.
         -5    1    3    3    0  502  0.45095049826E+02  0.61657644292E+02 -0.31314846274E+02  0.82663901527E+02  0.41800000000E+01 0.  1.
        -11    1    1    2    0    0  0.16165411647E+02  0.13224302494E+02 -0.67726566554E+02  0.70873764732E+02  0.00000000000E+00 0. -1.
         11    1    1    2    0    0 -0.39175586105E+02 -0.10760412820E+03 -0.20532278066E+03  0.23509746746E+03  0.00000000000E+00 0.  1.
</event>
<event>
 6    1  0.7017065E-006  0.1504531E+03  0.7561462E-02  0.1199917E+00
          1   -1    0    0  501    0  0.00000000000E+00  0.00000000000E+00  0.30058837091E+03  0.30058837091E+03  0.00000000000E+00 0. -1.
         -1   -1    0    0    0  501 -0.00000000000E+00 -0.00000000000E+00 -0.10964486216E+03  0.10964486216E+03  0.00000000000E+00 0.  1.
          5    1    1    2  502    0  0.11058699009E+03 -0.43790968706E+02  0.50381170153E+01  0.11912172909E+03  0.41800000000E+01 0. -1.
         -5    1    1    2    0  502 -0.10648240520E+03  0.52294591207E+02  0.38998754696E+02  0.12494639713E+03  0.41800000000E+01 0.  1.
        -11    1    1    2    0    0 -0.50080791042E+01  0.27106491707E+02  0.19223999699E+02  0.33606620083E+02  0.00000000000E+00 0.  1.
         11    1    1    2    0    0  0.90349421667E+00 -0.35610114209E+02  0.12768263734E+03  0.13255848677E+03  0.00000000000E+00 0. -1.
</event>
<event>
 7    1  0.7017065E-006  0.1091126E+03  0.7561462E-02  0.1262222E+00
         -2   -1    0    0    0  501 -0.00000000000E+00  0.00000000000E+00  0.30545076920E+03  0.30545076920E+03  0.00000000000E+00 0. -1.
          2   -1    0    0  501    0  0.00000000000E+00 -0.00000000000E+00 -0.81117571219E+02  0.81117571219E+02  0.00000000000E+00 0.  1.
         23    2    1    2    0    0  0.16070947937E+02  0.27646247304E+02  0.25354560113E+03  0.28452667359E+03  0.12508983081E+03 0.  0.
          5    1    3    3  502    0 -0.50220944763E+02  0.21780534335E+02  0.68203555294E+02  0.87554167939E+02  0.41800000000E+01 0. -1.
         -5    1    3    3    0  502  0.66291892701E+02  0.58657129694E+01  0.18534204584E+03  0.19697250565E+03  0.41800000000E+01 0. -1.
        -11    1    1    2    0    0 -0.44936617424E+02  0.13009736600E+02 -0.64285386509E+01  0.47221594013E+02  0.00000000000E+00 0. -1.
         11    1    1    2    0    0  0.28865669487E+02 -0.40655983905E+02 -0.22783864500E+02  0.54820072817E+02  0.00000000000E+00 0.  1.
</event>
<event>
 7    1  0.7017065E-006  0.1170351E+03  0.7561462E-02  0.1248070E+00
          2   -1    0    0  501    0  0.00000000000E+00  0.00000000000E+00  0.10266255846E+04  0.10266255846E+04  0.00000000000E+00 0.  1.
         -2   -1    0    0    0  501 -0.00000000000E+00 -0.00000000000E+00 -0.23064415233E+02  0.23064415233E+02  0.00000000000E+00 0. -1.
         23    2    1    2    0    0 -0.77612100870E+02 -0.59939918880E+02  0.32395053170E+03  0.35646603137E+03  0.11183761646E+03 0.  0.
          5    1    3    3  502    0 -0.68246803063E+02 -0.57374882794E+02  0.10736087510E+03  0.13961852745E+03  0.41800000000E+01 0. -1.
         -5    1    3    3    0  502 -0.93652978071E+01 -0.25650360855E+01  0.21658965660E+03  0.21684750392E+03  0.41800000000E+01 0.  1.
        -11    1    1    2    0    0  0.86303646779E+01 -0.24051319225E+02  0.84856926725E+02  0.88620805481E+02  0.00000000000E+00 0. -1.
         11    1    1    2    0    0  0.68981736192E+02  0.83991238104E+02  0.59475371095E+03  0.60460316299E+03  0.00000000000E+00 0.  1.
</event>
<event>
 7    1  0.7017065E-006  0.1372193E+03  0.7561462E-02  0.1217120E+00
          2   -1    0    0  501    0  0.00000000000E+00  0.00000000000E+00  0.45481477077E+03  0.45481477077E+03  0.00000000000E+00 0. -1.
         -2   -1    0    0    0  501 -0.00000000000E+00 -0.00000000000E+00 -0.57272335992E+02  0.57272335992E+02  0.00000000000E+00 0.  1.
         23    2    1    2    0    0 -0.92986421560E+02  0.55414653412E+02  0.13224915496E+03  0.21178920876E+03  0.12509025363E+03 0.  0.
          5    1    3    3  502    0 -0.51527843938E+02  0.93411943600E+02  0.10262775103E+03  0.14809063978E+03  0.41800000000E+01 0.  1.
         -5    1    3    3    0  502 -0.41458577622E+02 -0.37997290189E+02  0.29621403926E+02  0.63698568984E+02  0.41800000000E+01 0.  1.
        -11    1    1    2    0    0  0.37235032501E+02 -0.37195325586E+02  0.36355239799E+02  0.63965954629E+02  0.00000000000E+00 0.  1.
         11    1    1    2    0    0  0.55751389059E+02 -0.18219327826E+02  0.22893804003E+03  0.23633194337E+03  0.00000000000E+00 0. -1.
</event>
<event>
 7    1  0.7017065E-006  0.2328969E+03  0.7561462E-02  0.1124617E+00
         -1   -1    0    0    0  501 -0.00000000000E+00  0.00000000000E+00  0.16115848614E+03  0.16115848614E+03  0.00000000000E+00 0.  1.
          1   -1    0    0  501    0  0.00000000000E+00 -0.00000000000E+00 -0.86363441441E+03  0.86363441441E+03  0.00000000000E+00 0. -1.
         23    2    1    2    0    0 -0.20570301895E+03  0.18911045352E+02  0.43374806085E+02  0.24535650632E+03  0.12508829582E+03 0.  0.
          5    1    3    3  502    0 -0.15495750730E+03 -0.42589081530E+02  0.19004520568E+02  0.16187743245E+03  0.41800000000E+01 0. -1.
         -5    1    3    3    0  502 -0.50745511650E+02  0.61500126882E+02  0.24370285517E+02  0.83479073877E+02  0.41800000000E+01 0. -1.
        -11    1    1    2    0    0  0.16207602199E+03  0.24183828007E+02 -0.50617433226E+03  0.53203942436E+03  0.00000000000E+00 0. -1.
         11    1    1    2    0    0  0.43626996955E+02 -0.43094873358E+02 -0.23967640210E+03  0.24739696986E+03  0.00000000000E+00 0.  1.
</event>
<event>
 7    1  0.7017065E-006  0.1318094E+03  0.7561462E-02  0.1224795E+00
          2   -1    0    0  501    0  0.00000000000E+00  0.00000000000E+00  0.14913381518E+03  0.14913381518E+03  0.00000000000E+00 0.  1.
         -2   -1    0    0    0  501 -0.00000000000E+00 -0.00000000000E+00 -0.18624331509E+03  0.18624331509E+03  0.00000000000E+00 0. -1.
         23    2    1    2    0    0 -0.20682931756E+02 -0.11861228985E+03 -0.70957476110E+02  0.18755506648E+03  0.12508109601E+03 0.  0.
          5    1    3    3  502    0  0.14862034827E+02 -0.88898378185E+02  0.13403533560E+02  0.91219125380E+02  0.41800000000E+01 0. -1.
         -5    1    3    3    0  502 -0.35544966584E+02 -0.29713911662E+02 -0.84361009670E+02  0.96335941103E+02  0.41800000000E+01 0. -1.
        -11    1    1    2    0    0  0.31248394601E+02  0.63682098177E+02 -0.16201910105E+02  0.72762446938E+02  0.00000000000E+00 0.  1.
         11    1    1    2    0    0 -0.10565462845E+02  0.54930191670E+02  0.50049886306E+02  0.75059616848E+02  0.00000000000E+00 0. -1.
</event>
<event>
 7    1  0.7017065E-006  0.1022499E+03  0.7561462E-02  0.1275635E+00
         -1   -1    0    0    0  501 -0.00000000000E+00  0.00000000000E+00  0.11946825418E+03  0.11946825418E+03  0.00000000000E+00 0.  1.
          1   -1    0    0  501    0  0.00000000000E+00 -0.00000000000E+00 -0.15834321136E+03  0.15834321136E+03  0.00000000000E+00 0. -1.
         23    2    1    2    0    0  0.35289276349E+02 -0.65671380570E+02  0.17468383358E+02  0.14666460419E+03  0.12508916202E+03 0.  0.
          5    1    3    3  502    0 -0.14819059113E+02 -0.61774417334E+02 -0.36021193305E+02  0.73148355532E+02  0.41800000000E+01 0. -1.
         -5    1    3    3    0  502  0.50108335463E+02 -0.38969632360E+01  0.53489576663E+02  0.73516248659E+02  0.41800000000E+01 0. -1.
        -11    1    1    2    0    0 -0.47651664472E+02  0.41231194929E+02  0.57560331545E+01  0.63275781148E+02  0.00000000000E+00 0. -1.
         11    1    1    2    0    0  0.12362388122E+02  0.24440185641E+02 -0.62099373693E+02  0.67871080199E+02  0.00000000000E+00 0.  1.
</event>
<event>
 7    1  0.7017065E-006  0.3088024E+03  0.7561462E-02  0.1080921E+00
         -2   -1    0    0    0  501 -0.00000000000E+00  0.00000000000E+00  0.13970531550E+04  0.13970531550E+04  0.00000000000E+00 0.  1.
          2   -1    0    0  501    0  0.00000000000E+00 -0.00000000000E+00 -0.75461403306E+02  0.75461403306E+02  0.00000000000E+00 0. -1.
         23    2    1    2    0    0 -0.29160285808E+03 -0.91999922625E+02  0.67614447717E+03  0.75253893991E+03  0.12508912610E+03 0.  0.
          5    1    3    3  502    0 -0.97640246504E+01  0.28216899657E+00  0.13523618284E+03  0.13565291499E+03  0.41800000000E+01 0.  1.
         -5    1    3    3    0  502 -0.28183883343E+03 -0.92282091621E+02  0.54090829433E+03  0.61688602492E+03  0.41800000000E+01 0.  1.
        -11    1    1    2    0    0  0.13033340674E+03  0.13507648278E+02  0.35728892338E+03  0.38055831123E+03  0.00000000000E+00 0. -1.
         11    1    1    2    0    0  0.16126945134E+03  0.78492274347E+02  0.28815835111E+03  0.33941730714E+03  0.00000000000E+00 0.  1.
</event>
<event>
 7    1  0.7017065E-006  0.6489699E+02  0.7561462E-02  0.1378359E+00
         -2   -1    0    0    0  501 -0.00000000000E+00  0.00000000000E+00  0.16405993529E+03  0.16405993529E+03  0.00000000000E+00 0.  1.
          2   -1    0    0  501    0  0.00000000000E+00 -0.00000000000E+00 -0.91428957221E+02  0.91428957221E+02  0.00000000000E+00 0. -1.
         23    2    1    2    0    0  0.27115317996E+02  0.12018294375E+02  0.91457862425E+02  0.15777238167E+03  0.12509158224E+03 0.  0.
          5    1    3    3  502    0  0.25098132764E+02 -0.26356987520E+02  0.10924316321E+03  0.11522216873E+03  0.41800000000E+01 0. -1.
         -5    1    3    3    0  502  0.20171852321E+01  0.38375281895E+02 -0.17785300784E+02  0.42550212935E+02  0.41800000000E+01 0. -1.
        -11    1    1    2    0    0  0.12895242276E+02 -0.52626259625E+01 -0.46539725484E+02  0.48579095849E+02  0.00000000000E+00 0. -1.
         11    1    1    2    0    0 -0.40010560271E+02 -0.67556684126E+01  0.27712841124E+02  0.49137414992E+02  0.00000000000E+00 0.  1.
</event>
<event>
 7    1  0.7017065E-006  0.1536610E+03  0.7561462E-02  0.1196045E+00
         -1   -1    0    0    0  501 -0.00000000000E+00  0.00000000000E+00  0.20540696637E+03  0.20540696637E+03  0.00000000000E+00 0.  1.
          1   -1    0    0  501    0  0.00000000000E+00 -0.00000000000E+00 -0.11878456724E+03  0.11878456724E+03  0.00000000000E+00 0. -1.
         23    2    1    2    0    0 -0.88104341075E+02 -0.65122971774E+02  0.25104107307E+02  0.16816956649E+03  0.12508960997E+03 0.  0.
          5    1    3    3  502    0 -0.89978759961E+02  0.85740406332E+01  0.97617408791E+00  0.90488213226E+02  0.41800000000E+01 0. -1.
         -5    1    3    3    0  502  0.18744188862E+01 -0.73697012407E+02  0.24127933219E+02  0.77681353266E+02  0.41800000000E+01 0. -1.
        -11    1    1    2    0    0  0.12664287264E+02 -0.23451683730E+02  0.71290932023E+01  0.27589664941E+02  0.00000000000E+00 0. -1.
         11    1    1    2    0    0  0.75440053811E+02  0.88574655504E+02  0.54389198612E+02  0.12843230218E+03  0.00000000000E+00 0.  1.
</event>
<event>
 7    1  0.7017065E-006  0.1113676E+03  0.7561462E-02  0.1258058E+00
          1   -1    0    0  501    0  0.00000000000E+00  0.00000000000E+00  0.30042255406E+02  0.30042255406E+02  0.00000000000E+00 0. -1.
         -1   -1    0    0    0  501 -0.00000000000E+00 -0.00000000000E+00 -0.80037345347E+03  0.80037345347E+03  0.00000000000E+00 0.  1.
         23    2    1    2    0    0  0.83123199644E+02 -0.24308038614E+02 -0.59212108180E+03  0.61135708850E+03  0.12509902908E+03 0.  0.
          5    1    3    3  502    0  0.12414251100E+02  0.16527477011E+02 -0.42283885748E+03  0.42336443275E+03  0.41800000000E+01 0.  1.
         -5    1    3    3    0  502  0.70708948544E+02 -0.40835515625E+02 -0.16928222433E+03  0.18799265574E+03  0.41800000000E+01 0.  1.
        -11    1    1    2    0    0 -0.58331740689E+02  0.55177183945E+02 -0.15099083428E+03  0.17101270607E+03  0.00000000000E+00 0.  1.
         11    1    1    2    0    0 -0.24791458955E+02 -0.30869145331E+02 -0.27219281974E+02  0.48045914309E+02  0.00000000000E+00 0. -1.
</event>
<event>
 7    1  0.7017065E-006  0.1417752E+03  0.7561462E-02  0.1210960E+00
         -2   -1    0    0    0  501 -0.00000000000E+00  0.00000000000E+00  0.32210378770E+03  0.32210378770E+03  0.00000000000E+00 0. -1.
          2   -1    0    0  501    0  0.00000000000E+00 -0.00000000000E+00 -0.89289899321E+02  0.89289899321E+02  0.00000000000E+00 0.  1.
         23    2    1    2    0    0 -0.12157411756E+03  0.63470154358E+01  0.18968675031E+03  0.25777767628E+03  0.12509083292E+03 0.  0.
          5    1    3    3  502    0 -0.12272517212E+03 -0.62875014394E+01  0.78693102297E+02  0.14598314045E+03  0.41800000000E+01 0.  1.
         -5    1    3    3    0  502  0.11510545577E+01  0.12634516875E+02  0.11099364801E+03  0.11179453583E+03  0.41800000000E+01 0.  1.
        -11    1    1    2    0    0  0.24828479026E+02  0.34262251172E+02  0.16060700191E+02  0.45258162985E+02  0.00000000000E+00 0. -1.
         11    1    1    2    0    0  0.96745638536E+02 -0.40609266608E+02  0.27066437878E+02  0.10835784775E+03  0.00000000000E+00 0.  1.
</event>
<event>
 7    1  0.7017065E-006  0.1099160E+03  0.7561462E-02  0.1260726E+00
         -3   -1    0    0    0  501 -0.00000000000E+00  0.00000000000E+00  0.13958942077E+03  0.13958942077E+03  0.00000000000E+00 0.  1.
          3   -1    0    0  501    0  0.00000000000E+00 -0.00000000000E+00 -0.18229407513E+03  0.18229407513E+03  0.00000000000E+00 0. -1.
         23    2    1    2    0    0 -0.23999961183E+02 -0.83421253480E+02  0.55056401855E+02  0.16190331821E+03  0.12508546435E+03 0.  0.
          5    1    3    3  502    0  0.94883179557E+01  0.14853636535E+02  0.55093689097E+02  0.57995221133E+02  0.41800000000E+01 0.  1.
         -5    1    3    3    0  502 -0.33488279138E+02 -0.98274890015E+02 -0.37287241660E-01  0.10390809707E+03  0.41800000000E+01 0.  1.
        -11    1    1    2    0    0 -0.11659042552E+02  0.39774451322E+02  0.60193460735E+01  0.41882845873E+02  0.00000000000E+00 0.  1.
         11    1    1    2    0    0  0.35659003735E+02  0.43646802158E+02 -0.10378040229E+03  0.11809733183E+03  0.00000000000E+00 0. -1.
</event>
<event>
 7    1  0.7017065E-006  0.6962777E+02  0.7561462E-02  0.1361363E+00
          1   -1    0    0  501    0  0.00000000000E+00  0.00000000000E+00  0.67062772726E+02  0.67062772726E+02  0.00000000000E+00 0. -1.
         -1   -1    0    0    0  501 -0.00000000000E+00 -0.00000000000E+00 -0.20048062136E+03  0.20048062136E+03  0.00000000000E+00 0.  1.
         23    2    1    2    0    0  0.25629495621E+02 -0.22525124943E+02 -0.10324119063E+03  0.16574365908E+03  0.12509182541E+03 0.  0.
          5    1    3    3  502    0  0.80577102904E+01  0.22665382876E+02 -0.11342505491E+03  0.11602310872E+03  0.41800000000E+01 0.  1.
         -5    1    3    3    0  502  0.17571785331E+02 -0.45190507819E+02  0.10183864282E+02  0.49720550363E+02  0.41800000000E+01 0.  1.
        -11    1    1    2    0    0 -0.43909134859E+02  0.16882204025E+02 -0.53757530049E+02  0.71434536282E+02  0.00000000000E+00 0.  1.
         11    1    1    2    0    0  0.18279639238E+02  0.56429209182E+01  0.23580872041E+02  0.30365198721E+02  0.00000000000E+00 0. -1.
</event>
<event>
 7    1  0.7017065E-006  0.1069626E+03  0.7561462E-02  0.1266300E+00
          1   -1    0    0  501    0  0.00000000000E+00  0.00000000000E+00  0.48499137423E+02  0.48499137423E+02  0.00000000000E+00 0. -1.
         -1   -1    0    0    0  501 -0.00000000000E+00 -0.00000000000E+00 -0.35513078258E+03  0.35513078258E+03  0.00000000000E+00 0.  1.
         23    2    1    2    0    0  0.73436929988E+02  0.11743417348E+01 -0.19254538212E+03  0.24107044288E+03  0.12508745937E+03 0.  0.
          5    1    3    3  502    0  0.57563042313E+02 -0.55235710302E+02 -0.74599458236E+02  0.10930251187E+03  0.41800000000E+01 0. -1.
         -5    1    3    3    0  502  0.15873887675E+02  0.56410052037E+02 -0.11794592389E+03  0.13176793101E+03  0.41800000000E+01 0. -1.
        -11    1    1    2    0    0 -0.63879161983E+02  0.47295600973E+01 -0.12891759884E+03  0.14395368479E+03  0.00000000000E+00 0.  1.
         11    1    1    2    0    0 -0.95577680052E+01 -0.59039018321E+01  0.14831335811E+02  0.18605792324E+02  0.00000000000E+00 0. -1.
</event>
<event>
 7    1  0.7017065E-006  0.1169197E+03  0.7561462E-02  0.1248267E+00
         -4   -1    0    0    0  501 -0.00000000000E+00  0.00000000000E+00  0.17445284343E+03  0.17445284343E+03  0.00000000000E+00 0.  1.
          4   -1    0    0  501    0  0.00000000000E+00 -0.00000000000E+00 -0.83416511338E+02  0.83416511338E+02  0.00000000000E+00 0. -1.
         23    2    1    2    0    0 -0.40971238296E+02  0.25852222372E+02  0.65916442164E+02  0.14946267741E+03  0.12508850795E+03 0.  0.
          5    1    3    3  502    0  0.41365167948E+02  0.18994611991E+02  0.44976104699E+02  0.64126397045E+02  0.41800000000E+01 0. -1.
         -5    1    3    3    0  502 -0.82336406245E+02  0.68576103807E+01  0.20940337465E+02  0.85336280365E+02  0.41800000000E+01 0. -1.
        -11    1    1    2    0    0  0.47968350681E+02  0.24985758341E+02  0.11166783856E+02  0.55226332927E+02  0.00000000000E+00 0.  1.
         11    1    1    2    0    0 -0.69971123845E+01 -0.50837980713E+02  0.13953106074E+02  0.53180344431E+02  0.00000000000E+00 0. -1.
</event>
<event>
 7    1  0.7017065E-006  0.1005519E+03  0.7561462E-02  0.1279140E+00
         -2   -1    0    0    0  501 -0.00000000000E+00  0.00000000000E+00  0.17134373662E+03  0.17134373662E+03  0.00000000000E+00 0.  1.
          2   -1    0    0  501    0  0.00000000000E+00 -0.00000000000E+00 -0.77706059906E+02  0.77706059906E+02  0.00000000000E+00 0. -1.
         23    2    1    2    0    0  0.15497002461E+02 -0.32699807572E+02  0.71677736108E+02  0.14864108729E+03  0.12508813083E+03 0.  0.
          5    1    3    3  502    0 -0.73033827730E+01 -0.77951502634E+02  0.52214041803E+02  0.94199547367E+02  0.41800000000E+01 0.  1.
         -5    1    3    3    0  502  0.22800385234E+02  0.45251695062E+02  0.19463694305E+02  0.54441539920E+02  0.41800000000E+01 0.  1.
        -11    1    1    2    0    0 -0.37220560683E+02  0.64369460352E+01 -0.22821839012E+02  0.44132082975E+02  0.00000000000E+00 0. -1.
         11    1    1    2    0    0  0.21723558222E+02  0.26262861537E+02  0.44781779618E+02  0.56276626264E+02  0.00000000000E+00 0.  1.
</event>
<event>
 7    1  0.7017065E-006  0.1184456E+03  0.7561462E-02  0.1245684E+00
          2   -1    0    0  501    0  0.00000000000E+00  0.00000000000E+00  0.21504874315E+03  0.21504874315E+03  0.00000000000E+00 0. -1.
         -2   -1    0    0    0  501 -0.00000000000E+00 -0.00000000000E+00 -0.97924438220E+02  0.97924438220E+02  0.00000000000E+00 0.  1.
         23    2    1    2    0    0 -0.78933681193E+02  0.14963758679E+02  0.37635877996E+01  0.14871230273E+03  0.12508694692E+03 0.  0.
          5    1    3    3  502    0 -0.97775060889E+02 -0.27302020398E+02  0.87731470158E+01  0.10197942615E+03  0.41800000000E+01 0. -1.
         -5    1    3    3    0  502  0.18841379696E+02  0.42265779077E+02 -0.50095592162E+01  0.46732876580E+02  0.41800000000E+01 0. -1.
        -11    1    1    2    0    0  0.69697313243E+02  0.17620805196E+01  0.12409969017E+03  0.14234308378E+03  0.00000000000E+00 0. -1.
         11    1    1    2    0    0  0.92363679499E+01 -0.16725839199E+02 -0.10738973031E+02  0.21917794861E+02  0.00000000000E+00 0.  1.
</event>
<event>
 7    1  0.7017065E-006  0.1738781E+03  0.7561462E-02  0.1173863E+00
         -2   -1    0    0    0  501 -0.00000000000E+00  0.00000000000E+00  0.11527667243E+03  0.11527667243E+03  0.00000000000E+00 0.  1.
          2   -1    0    0  501    0  0.00000000000E+00 -0.00000000000E+00 -0.29753106720E+03  0.29753106720E+03  0.00000000000E+00 0. -1.
         23    2    1    2    0    0  0.47887716804E+02  0.14172322087E+03 -0.70548952664E+02  0.20737600382E+03  0.12509575325E+03 0.  0.
          5    1    3    3  502    0 -0.38468469888E+02  0.14846631968E+02 -0.16438422745E+02  0.44586318514E+02  0.41800000000E+01 0.  1.
         -5    1    3    3    0  502  0.86356186693E+02  0.12687658891E+03 -0.54110529919E+02  0.16278968530E+03  0.41800000000E+01 0.  1.
        -11    1    1    2    0    0 -0.46196241037E+02 -0.91263924632E+02 -0.11612372074E+03  0.15475113939E+03  0.00000000000E+00 0. -1.
         11    1    1    2    0    0 -0.16914757672E+01 -0.50459296241E+02  0.44182786286E+01  0.50680596420E+02  0.00000000000E+00 0.  1.
</event>
<event>
 7    1  0.7017065E-006  0.5685908E+02  0.7561462E-02  0.1411506E+00
          2   -1    0    0  501    0  0.00000000000E+00  0.00000000000E+00  0.89270639789E+02  0.89270639789E+02  0.00000000000E+00 0.  1.
         -2   -1    0    0    0  501 -0.00000000000E+00 -0.00000000000E+00 -0.12433999711E+03  0.12433999711E+03  0.00000000000E+00 0. -1.
         23    2    1    2    0    0  0.13624817650E+02 -0.10322978030E+01 -0.24452894443E+02  0.12818740552E+03  0.12508943038E+03 0.  0.
          5    1    3    3  502    0  0.21568360451E+02 -0.29072577319E+02 -0.67104840029E+02  0.76360597692E+02  0.41800000000E+01 0. -1.
         -5    1    3    3    0  502 -0.79435428013E+01  0.28040279516E+02  0.42651945587E+02  0.51826807831E+02  0.41800000000E+01 0. -1.
        -11    1    1    2    0    0 -0.30692831254E+02 -0.52365785531E+00  0.29018061650E+02  0.42241827729E+02  0.00000000000E+00 0.  1.
         11    1    1    2    0    0  0.17068013604E+02  0.15559556583E+01 -0.39634524533E+02  0.43181403652E+02  0.00000000000E+00 0. -1.
</event>
<event>
 7    1  0.7465543E-006  0.2608141E+03  0.7561462E-02  0.1106655E+00
         -2   -1    0    0    0  501 -0.00000000000E+00  0.00000000000E+00  0.11799524771E+03  0.11799524771E+03  0.00000000000E+00 0.  1.
          2   -1    0    0  501    0  0.00000000000E+00 -0.00000000000E+00 -0.67480393384E+03  0.67480393384E+03  0.00000000000E+00 0. -1.
         23    2    1    2    0    0 -0.10682204378E+03 -0.22660080235E+03 -0.19634502239E+03  0.34199117153E+03  0.12509085067E+03 0.  0.
          5    1    3    3  502    0 -0.86795855796E+02 -0.16413373836E+03 -0.67966628781E+02  0.19776334261E+03  0.41800000000E+01 0.  1.
         -5    1    3    3    0  502 -0.20026187981E+02 -0.62467063987E+02 -0.12837839361E+03  0.14422782891E+03  0.41800000000E+01 0.  1.
        -11    1    1    2    0    0  0.37374510181E+01  0.12628485544E+03 -0.18292224167E+03  0.22231144764E+03  0.00000000000E+00 0.  1.
         11    1    1    2    0    0  0.10308459276E+03  0.10031594691E+03 -0.17754142207E+03  0.22849656238E+03  0.00000000000E+00 0. -1.
</event>
<event>
 7    1  0.7017065E-006  0.1399751E+03  0.7561462E-02  0.1213362E+00
          1   -1    0    0  501    0  0.00000000000E+00  0.00000000000E+00  0.96284647484E+03  0.96284647484E+03  0.00000000000E+00 0. -1.
         -1   -1    0    0    0  501 -0.00000000000E+00 -0.00000000000E+00 -0.27236659247E+02  0.27236659247E+02  0.00000000000E+00 0.  1.
         23    2    1    2    0    0 -0.68199927893E+02  0.88162867697E+02  0.36724062803E+03  0.40365475763E+03  0.12509021973E+03 0.  0.
          5    1    3    3  502    0 -0.55448312358E+02  0.10217552088E+03  0.36619222364E+03  0.38422463412E+03  0.41800000000E+01 0.  1.
         -5    1    3    3    0  502 -0.12751615535E+02 -0.14012653179E+02  0.10484043966E+01  0.19430123511E+02  0.41800000000E+01 0.  1.
        -11    1    1    2    0    0  0.25173447870E+02  0.17149054747E+02  0.10820323476E+03  0.11240877443E+03  0.00000000000E+00 0.  1.
         11    1    1    2    0    0  0.43026480022E+02 -0.10531192244E+03  0.46016595280E+03  0.47401960203E+03  0.00000000000E+00 0. -1.
</event>
<event>
 7    1  0.7017065E-006  0.1093681E+03  0.7561462E-02  0.1261745E+00
         -2   -1    0    0    0  501 -0.00000000000E+00  0.00000000000E+00  0.31168752707E+02  0.31168752707E+02  0.00000000000E+00 0.  1.
          2   -1    0    0  501    0  0.00000000000E+00 -0.00000000000E+00 -0.43347051506E+03  0.43347051506E+03  0.00000000000E+00 0. -1.
         23    2    1    2    0    0 -0.43267789997E+02  0.52683986383E+01 -0.23173744694E+03  0.26692724776E+03  0.12509218043E+03 0.  0.
          5    1    3    3  502    0  0.40524500441E+02 -0.18656210154E+02 -0.88923098096E+02  0.99574490149E+02  0.41800000000E+01 0. -1.
         -5    1    3    3    0  502 -0.83792290437E+02  0.23924608793E+02 -0.14281434885E+03  0.16735275761E+03  0.41800000000E+01 0. -1.
        -11    1    1    2    0    0 -0.19493485275E+02 -0.13030485148E+02 -0.10660578171E+02  0.25757279326E+02  0.00000000000E+00 0.  1.
         11    1    1    2    0    0  0.62761275271E+02  0.77620865096E+01 -0.15990373724E+03  0.17195474068E+03  0.00000000000E+00 0. -1.
</event>
<event>
 7    1  0.7017065E-006  0.1150359E+03  0.7561462E-02  0.1251519E+00
         -1   -1    0    0    0  501 -0.00000000000E+00  0.00000000000E+00  0.18580960234E+02  0.18580960234E+02  0.00000000000E+00 0.  1.
          1   -1    0    0  501    0  0.00000000000E+00 -0.00000000000E+00 -0.10992416405E+04  0.10992416405E+04  0.00000000000E+00 0. -1.
         23    2    1    2    0    0 -0.52135944706E+02 -0.75974368343E+02 -0.53849681917E+03  0.56046272065E+03  0.12509746446E+03 0.  0.
          5    1    3    3  502    0 -0.45737086921E+01  0.55727514478E+01 -0.34523479812E+03  0.34533536251E+03  0.41800000000E+01 0. -1.
         -5    1    3    3    0  502 -0.47562236014E+02 -0.81547119790E+02 -0.19326202105E+03  0.21512735814E+03  0.41800000000E+01 0. -1.
        -11    1    1    2    0    0 -0.24585111512E+02  0.25410166830E+02 -0.11026119988E+03  0.11579134892E+03  0.00000000000E+00 0. -1.
         11    1    1    2    0    0  0.76721056218E+02  0.50564201512E+02 -0.43190266124E+03  0.44156853118E+03  0.00000000000E+00 0.  1.
</event>
<event>
 7    1  0.7017065E-006  0.8596634E+02  0.7561462E-02  0.1312925E+00
          1   -1    0    0  501    0  0.00000000000E+00  0.00000000000E+00  0.29708868491E+03  0.29708868491E+03  0.00000000000E+00 0. -1.
         -1   -1    0    0    0  501 -0.00000000000E+00 -0.00000000000E+00 -0.42339980207E+02  0.42339980207E+02  0.00000000000E+00 0.  1.
         23    2    1    2    0    0  0.95049609869E+01 -0.21225983987E+02  0.12016802415E+03  0.17500197128E+03  0.12507777278E+03 0.  0.
          5    1    3    3  502    0  0.39942247037E+01 -0.61625846158E+02  0.17299688502E+02  0.64268579943E+02  0.41800000000E+01 0. -1.
         -5    1    3    3    0  502  0.55107362831E+01  0.40399862171E+02  0.10286833564E+03  0.11073339133E+03  0.41800000000E+01 0. -1.
        -11    1    1    2    0    0  0.26703594511E+02 -0.71106642623E+00  0.11449160261E+03  0.11756663916E+03  0.00000000000E+00 0. -1.
         11    1    1    2    0    0 -0.36208555497E+02  0.21937050413E+02  0.20089077949E+02  0.46860054683E+02  0.00000000000E+00 0.  1.
</event>
<event>
 7    1  0.7017065E-006  0.3140316E+03  0.7561462E-02  0.1078429E+00
          2   -1    0    0  501    0  0.00000000000E+00  0.00000000000E+00  0.99316109405E+03  0.99316109405E+03  0.00000000000E+00 0. -1.
         -2   -1    0    0    0  501 -0.00000000000E+00 -0.00000000000E+00 -0.11808778566E+03  0.11808778566E+03  0.00000000000E+00 0.  1.
         23    2    1    2    0    0  0.10545896787E+01  0.29716403347E+03  0.23277932948E+03  0.39767397047E+03  0.12510313989E+03 0.  0.
          5    1    3    3  502    0  0.53739551654E+02  0.22421607522E+03  0.14827151654E+03  0.27415817116E+03  0.41800000000E+01 0.  1.
         -5    1    3    3    0  502 -0.52684961975E+02  0.72947958256E+02  0.84507812932E+02  0.12351579931E+03  0.41800000000E+01 0.  1.
        -11    1    1    2    0    0  0.35519768416E+02 -0.85616956829E+02  0.14741435931E+03  0.17413474833E+03  0.00000000000E+00 0. -1.
         11    1    1    2    0    0 -0.36574358094E+02 -0.21154707664E+03  0.49487961960E+03  0.53944016091E+03  0.00000000000E+00 0.  1.
</event>
<event>
 7    1  0.7017065E-006  0.1251259E+03  0.7561462E-02  0.1234873E+00
         -1   -1    0    0    0  501 -0.00000000000E+00  0.00000000000E+00  0.43204843588E+03  0.43204843588E+03  0.00000000000E+00 0.  1.
          1   -1    0    0  501    0  0.00000000000E+00 -0.00000000000E+00 -0.47324074134E+02  0.47324074134E+02  0.00000000000E+00 0. -1.
         23    2    1    2    0    0  0.85579106733E+02  0.35868459837E+02  0.21722220266E+03  0.26728878332E+03  0.12508988144E+03 0.  0.
          5    1    3    3  502    0  0.10524786329E+03 -0.78651184340E+01  0.12839547216E+03  0.16625836065E+03  0.41800000000E+01 0. -1.
         -5    1    3    3    0  502 -0.19668756556E+02  0.43733578271E+02  0.88826730495E+02  0.10103042266E+03  0.41800000000E+01 0. -1.
        -11    1    1    2    0    0 -0.45047620014E+02 -0.33035364792E+02  0.16165474149E+03  0.17103472993E+03  0.00000000000E+00 0.  1.
         11    1    1    2    0    0 -0.40531486719E+02 -0.28330950453E+01  0.58474175973E+01  0.41048996769E+02  0.00000000000E+00 0. -1.
</event>
<event>
 7    1  0.7017065E-006  0.2404060E+03  0.7561462E-02  0.1119523E+00
          3   -1    0    0  501    0  0.00000000000E+00  0.00000000000E+00  0.32662668047E+03  0.32662668047E+03  0.00000000000E+00 0. -1.
         -3   -1    0    0    0  501 -0.00000000000E+00 -0.00000000000E+00 -0.24181912099E+03  0.24181912099E+03  0.00000000000E+00 0.  1.
         23    2    1    2    0    0  0.15668140717E+03  0.16569388869E+03 -0.80579792793E+02  0.27230125959E+03  0.12510533508E+03 0.  0.
          5    1    3    3  502    0  0.12252201497E+03  0.16392040987E+03 -0.10501320459E+03  0.23005823277E+03  0.41800000000E+01 0.  1.
         -5    1    3    3    0  502  0.34159392205E+02  0.17734788148E+01  0.24433411799E+02  0.42243026821E+02  0.41800000000E+01 0.  1.
        -11    1    1    2    0    0 -0.16628031236E+03 -0.15767748164E+03  0.16697961875E+03  0.28353751704E+03  0.00000000000E+00 0. -1.
         11    1    1    2    0    0  0.95989051817E+01 -0.80164070496E+01 -0.15922664660E+01  0.12607024834E+02  0.00000000000E+00 0.  1.
</event>
<event>
 7    1  0.7017065E-006  0.8180163E+02  0.7561462E-02  0.1324015E+00
         -2   -1    0    0    0  501 -0.00000000000E+00  0.00000000000E+00  0.19426497972E+03  0.19426497972E+03  0.00000000000E+00 0.  1.
          2   -1    0    0  501    0  0.00000000000E+00 -0.00000000000E+00 -0.77960310459E+02  0.77960310459E+02  0.00000000000E+00 0. -1.
         23    2    1    2    0    0  0.26868362156E+02  0.52340799975E+02  0.64105998879E+02  0.15235831188E+03  0.12506801301E+03 0.  0.
          5    1    3    3  502    0 -0.75089069423E+01  0.48229005187E+02  0.94276665837E+02  0.10624491868E+03  0.41800000000E+01 0.  1.
         -5    1    3    3    0  502  0.34377269099E+02  0.41117947880E+01 -0.30170666958E+02  0.46113393193E+02  0.41800000000E+01 0.  1.
        -11    1    1    2    0    0 -0.42106834227E+02 -0.26531063737E+02  0.69330298865E+02  0.85343852575E+02  0.00000000000E+00 0.  1.
         11    1    1    2    0    0  0.15238472071E+02 -0.25809736238E+02 -0.17131628480E+02  0.34523125729E+02  0.00000000000E+00 0. -1.
</event>
<event>
 7    1  0.7017065E-006  0.1429216E+03  0.7561462E-02  0.1209451E+00
          2   -1    0    0  501    0  0.00000000000E+00  0.00000000000E+00  0.19851987702E+03  0.19851987702E+03  0.00000000000E+00 0. -1.
         -2   -1    0    0    0  501 -0.00000000000E+00 -0.00000000000E+00 -0.18224730614E+03  0.18224730614E+03  0.00000000000E+00 0.  1.
         23    2    1    2    0    0 -0.51277855516E+02 -0.12402442595E+03 -0.71577282255E+02  0.19692848347E+03  0.12508414594E+03 0.  0.
          5    1    3    3  502    0 -0.57980888308E+02 -0.50170624152E+02  0.19675697917E+02  0.79268407485E+02  0.41800000000E+01 0. -1.
         -5    1    3    3    0  502  0.67030327917E+01 -0.73853801803E+02 -0.91252980172E+02  0.11766007598E+03  0.41800000000E+01 0. -1.
        -11    1    1    2    0    0  0.45477558446E+02  0.96878526667E+02  0.10603358144E+03  0.15065449759E+03  0.00000000000E+00 0. -1.
         11    1    1    2    0    0  0.58002970700E+01  0.27145899287E+02 -0.18183728310E+02  0.33184202107E+02  0.00000000000E+00 0.  1.
</event>
<event>
 7    1  0.7017065E-006  0.1613146E+03  0.7561462E-02  0.1187220E+00
         -1   -1    0    0    0  501 -0.00000000000E+00  0.00000000000E+00  0.82749313864E+03  0.82749313864E+03  0.00000000000E+00 0.  1.
          1   -1    0    0  501    0  0.00000000000E+00 -0.00000000000E+00 -0.43784885483E+02  0.43784885483E+02  0.00000000000E+00 0. -1.
         23    2    1    2    0    0 -0.66153577865E+02  0.12810173978E+03  0.45227657633E+03  0.49091271343E+03  0.12511929952E+03 0.  0.
          5    1    3    3  502    0 -0.11850351055E+02  0.81480785946E+02  0.91844656622E+02  0.12341986327E+03  0.41800000000E+01 0.  1.
         -5    1    3    3    0  502 -0.54303226810E+02  0.46620953836E+02  0.36043191971E+03  0.36749285016E+03  0.41800000000E+01 0.  1.
        -11    1    1    2    0    0 -0.16499161344E+02 -0.57405298738E+02  0.20531861664E+03  0.21383013115E+03  0.00000000000E+00 0.  1.
         11    1    1    2    0    0  0.82652739209E+02 -0.70696441044E+02  0.12611306019E+03  0.16653517954E+03  0.00000000000E+00 0. -1.
</event>
<event>
 7    1  0.7017065E-006  0.1066162E+03  0.7561462E-02  0.1266968E+00
          1   -1    0    0  501    0  0.00000000000E+00  0.00000000000E+00  0.11817118431E+03  0.11817118431E+03  0.00000000000E+00 0. -1.
         -1   -1    0    0    0  501 -0.00000000000E+00 -0.00000000000E+00 -0.12258035242E+03  0.12258035242E+03  0.00000000000E+00 0.  1.
         23    2    1    2    0    0 -0.46555707069E+02  0.21547199639E+02 -0.10721316731E+02  0.13562489578E+03  0.12508976796E+03 0.  0.
          5    1    3    3  502    0  0.14238266485E+02  0.41583407881E+02 -0.44873982420E+02  0.62952797727E+02  0.41800000000E+01 0.  1.
         -5    1    3    3    0  502 -0.60793973554E+02 -0.20036208242E+02  0.34152665688E+02  0.72672098049E+02  0.41800000000E+01 0.  1.
        -11    1    1    2    0    0  0.36654146836E+02 -0.57197251733E+02  0.36918223410E+01  0.68034415102E+02  0.00000000000E+00 0. -1.
         11    1    1    2    0    0  0.99015602334E+01  0.35650052094E+02  0.26203262779E+01  0.37092225859E+02  0.00000000000E+00 0.  1.
</event>
<event>
 7    1  0.7017065E-006  0.1037174E+03  0.7561462E-02  0.1272667E+00
          2   -1    0    0  501    0  0.00000000000E+00  0.00000000000E+00  0.43599452222E+03  0.43599452222E+03  0.00000000000E+00 0.  1.
         -2   -1    0    0    0  501 -0.00000000000E+00 -0.00000000000E+00 -0.23961051901E+03  0.23961051901E+03  0.00000000000E+00 0. -1.
         23    2    1    2    0    0  0.46627765577E+02  0.23301395613E+02 -0.21311642112E+03  0.25255363110E+03  0.12509046354E+03 0.  0.
          5    1    3    3  502    0  0.14137580146E+02 -0.34105335714E+02 -0.16912145972E+03  0.17315480252E+03  0.41800000000E+01 0. -1.
         -5    1    3    3    0  502  0.32490185431E+02  0.57406731326E+02 -0.43994961400E+02  0.79398828578E+02  0.41800000000E+01 0. -1.
        -11    1    1    2    0    0 -0.49412538234E+02  0.25293017952E+02  0.17657947376E+03  0.18509901741E+03  0.00000000000E+00 0.  1.
         11    1    1    2    0    0  0.27847726565E+01 -0.48594413565E+02  0.23292095058E+03  0.23795239273E+03  0.00000000000E+00 0. -1.
</event>
<event>
 7    1  0.7017065E-006  0.7469589E+02  0.7561462E-02  0.1344815E+00
         -2   -1    0    0    0  501 -0.00000000000E+00  0.00000000000E+00  0.40616641736E+02  0.40616641736E+02  0.00000000000E+00 0.  1.
          2   -1    0    0  501    0  0.00000000000E+00 -0.00000000000E+00 -0.34071681326E+03  0.34071681326E+03  0.00000000000E+00 0. -1.
         23    2    1    2    0    0 -0.43038699315E+02  0.19937304269E+02 -0.16454900620E+03  0.21207020344E+03  0.12509024744E+03 0.  0.
          5    1    3    3  502    0 -0.44539404656E+02  0.20013493252E+02 -0.15724068346E+01  0.49033084163E+02  0.41800000000E+01 0. -1.
         -5    1    3    3    0  502  0.15007053410E+01 -0.76188983047E-01 -0.16297659936E+03  0.16303711927E+03  0.41800000000E+01 0. -1.
        -11    1    1    2    0    0 -0.11277246476E+02  0.23714377443E+02 -0.15608308809E+02  0.30547786981E+02  0.00000000000E+00 0.  1.
         11    1    1    2    0    0  0.54315945791E+02 -0.43651681711E+02 -0.11994285652E+03  0.13871546458E+03  0.00000000000E+00 0. -1.
</event>
<event>
 6    1  0.7017065E-006  0.1511073E+03  0.7561462E-02  0.1199119E+00
         -1   -1    0    0    0  501 -0.00000000000E+00  0.00000000000E+00  0.36890103553E+02  0.36890103553E+02  0.00000000000E+00 0.  1.
          1   -1    0    0  501    0  0.00000000000E+00 -0.00000000000E+00 -0.87003560506E+03  0.87003560506E+03  0.00000000000E+00 0. -1.
          5    1    1    2  502    0 -0.37314776964E+02  0.10288362534E+03 -0.34224132992E+03  0.35933832700E+03  0.41800000000E+01 0. -1.
         -5    1    1    2    0  502 -0.33465984167E+02 -0.70617717314E+02 -0.53062768323E+02  0.94551382205E+02  0.41800000000E+01 0.  1.
        -11    1    1    2    0    0  0.49688953786E+01 -0.46779146120E+02 -0.14099961827E+03  0.14864007126E+03  0.00000000000E+00 0.  1.
         11    1    1    2    0    0  0.65811865752E+02  0.14513238089E+02 -0.29684178500E+03  0.30439592815E+03  0.00000000000E+00 0. -1.
</event>
<event>
 7    1  0.7017065E-006  0.8727442E+02  0.7561462E-02  0.1309590E+00
         -1   -1    0    0    0  501 -0.00000000000E+00  0.00000000000E+00  0.10080347466E+03  0.10080347466E+03  0.00000000000E+00 0.  1.
          1   -1    0    0  501    0  0.00000000000E+00 -0.00000000000E+00 -0.13015926771E+03  0.13015926771E+03  0.00000000000E+00 0. -1.
         23    2    1    2    0    0  0.32096470908E+02 -0.25813455361E+02 -0.45439641007E+01  0.13177191236E+03  0.12508665538E+03 0.  0.
          5    1    3    3  502    0 -0.10749510187E+02 -0.35427478506E+02  0.49536498268E+02  0.61983830660E+02  0.41800000000E+01 0. -1.
         -5    1    3    3    0  502  0.42845981096E+02  0.96140231458E+01 -0.54080462369E+02  0.69788081698E+02  0.41800000000E+01 0. -1.
        -11    1    1    2    0    0 -0.49709678435E+02  0.45059368628E+02 -0.28401145656E+02  0.72856186462E+02  0.00000000000E+00 0. -1.
         11    1    1    2    0    0  0.17613207526E+02 -0.19245913267E+02  0.35893167072E+01  0.26334643557E+02  0.00000000000E+00 0.  1.
</event>
<event>
 7    1  0.7017065E-006  0.5287274E+02  0.7561462E-02  0.1430435E+00
          2   -1    0    0  501    0  0.00000000000E+00  0.00000000000E+00  0.23636078627E+03  0.23636078627E+03  0.00000000000E+00 0. -1.
         -2   -1    0    0    0  501 -0.00000000000E+00 -0.00000000000E+00 -0.53946266750E+02  0.53946266750E+02  0.00000000000E+00 0.  1.
         23    2    1    2    0    0  0.19043731678E+01  0.11642363374E+02  0.60531392605E+02  0.13946489346E+03  0.12508891140E+03 0.  0.
          5    1    3    3  502    0 -0.91615739322E+01 -0.20965653316E+02  0.90613170087E+02  0.93550585509E+02  0.41800000000E+01 0.  1.
         -5    1    3    3    0  502  0.11065947100E+02  0.32608016691E+02 -0.30081777483E+02  0.45914307947E+02  0.41800000000E+01 0.  1.
        -11    1    1    2    0    0  0.16686513672E+02  0.98542226781E+01 -0.56458935469E+01  0.20184686202E+02  0.00000000000E+00 0.  1.
         11    1    1    2    0    0 -0.18590886840E+02 -0.21496586053E+02  0.12752902046E+03  0.13065747336E+03  0.00000000000E+00 0. -1.
</event>
<event>
 7    1  0.7017065E-006  0.9768561E+02  0.7561462E-02  0.1285239E+00
          1   -1    0    0  501    0  0.00000000000E+00  0.00000000000E+00  0.41203388725E+02  0.41203388725E+02  0.00000000000E+00 0. -1.
         -1   -1    0    0    0  501 -0.00000000000E+00 -0.00000000000E+00 -0.31287922421E+03  0.31287922421E+03  0.00000000000E+00 0.  1.
         23    2    1    2    0    0 -0.28724511401E+02 -0.53197731661E+01 -0.17237628336E+03  0.21530675708E+03  0.12565834249E+03 0.  0.
          5    1    3    3  502    0  0.95980768202E+01  0.40496272435E+02 -0.11101828405E+02  0.43275791774E+02  0.41800000000E+01 0.  1.
         -5    1    3    3    0  502 -0.38322588221E+02 -0.45816045601E+02 -0.16127445495E+03  0.17203096530E+03  0.41800000000E+01 0.  1.
        -11    1    1    2    0    0 -0.22197607805E+02  0.29806076122E+02 -0.22548599694E+02  0.43469245614E+02  0.00000000000E+00 0. -1.
         11    1    1    2    0    0  0.50922119206E+02 -0.24486302956E+02 -0.76750952430E+02  0.95306610242E+02  0.00000000000E+00 0.  1.
</event>
<event>
 7    1  0.4108306E-005  0.2371247E+03  0.7561462E-02  0.1121723E+00
         -1   -1    0    0    0  501 -0.00000000000E+00  0.00000000000E+00  0.38087012238E+02  0.38087012238E+02  0.00000000000E+00 0.  1.
          1   -1    0    0  501    0  0.00000000000E+00 -0.00000000000E+00 -0.17685646661E+04  0.17685646661E+04  0.00000000000E+00 0. -1.
         23    2    1    2    0    0  0.19782327356E+03  0.12740318286E+03 -0.91723236110E+03  0.95515878879E+03  0.12508992362E+03 0.  0.
          5    1    3    3  502    0  0.14131930125E+03  0.77513895963E+02 -0.79733656708E+03  0.81347564350E+03  0.41800000000E+01 0.  1.
         -5    1    3    3    0  502  0.56503972316E+02  0.49889286901E+02 -0.11989579402E+03  0.14168314529E+03  0.41800000000E+01 0.  1.
        -11    1    1    2    0    0 -0.65619747994E+02 -0.24708852126E+02 -0.39166563665E+03  0.39789251015E+03  0.00000000000E+00 0. -1.
         11    1    1    2    0    0 -0.13220352557E+03 -0.10269433074E+03 -0.42157965609E+03  0.45360037937E+03  0.00000000000E+00 0.  1.
</event>
<event>
 7    1  0.7017065E-006  0.1211853E+03  0.7561462E-02  0.1241154E+00
          2   -1    0    0  501    0  0.00000000000E+00  0.00000000000E+00  0.14701367270E+03  0.14701367270E+03  0.00000000000E+00 0. -1.
         -2   -1    0    0    0  501 -0.00000000000E+00 -0.00000000000E+00 -0.19543442323E+03  0.19543442323E+03  0.00000000000E+00 0.  1.
         23    2    1    2    0    0  0.86262620712E+02  0.79525993094E+02 -0.81485269029E+02  0.18987615814E+03  0.12508989988E+03 0.  0.
          5    1    3    3  502    0  0.33839302140E+02  0.59466487848E+02 -0.10779570066E+03  0.12774485127E+03  0.41800000000E+01 0.  1.
         -5    1    3    3    0  502  0.52423318572E+02  0.20059505246E+02  0.26310431628E+02  0.62131306868E+02  0.41800000000E+01 0.  1.
        -11    1    1    2    0    0 -0.92741298422E+01 -0.57858336822E+01 -0.27759985298E+02  0.29834579593E+02  0.00000000000E+00 0.  1.
         11    1    1    2    0    0 -0.76988490870E+02 -0.73740159412E+02  0.60824503797E+02  0.12273735820E+03  0.00000000000E+00 0. -1.
</event>
<event>
 7    1  0.7017065E-006  0.1219453E+03  0.7561462E-02  0.1239922E+00
         -1   -1    0    0    0  501 -0.00000000000E+00  0.00000000000E+00  0.11404738979E+03  0.11404738979E+03  0.00000000000E+00 0.  1.
          1   -1    0    0  501    0  0.00000000000E+00 -0.00000000000E+00 -0.22350229803E+03  0.22350229803E+03  0.00000000000E+00 0. -1.
         23    2    1    2    0    0  0.87143087791E+02  0.71863547178E+02 -0.27567624340E+02  0.17077913055E+03  0.12508896976E+03 0.  0.
          5    1    3    3  502    0  0.93869216815E+02  0.47479075202E+02 -0.66238562201E+02  0.12438131680E+03  0.41800000000E+01 0. -1.
         -5    1    3    3    0  502 -0.67261290241E+01  0.24384471976E+02  0.38670937861E+02  0.46397813745E+02  0.41800000000E+01 0. -1.
        -11    1    1    2    0    0 -0.54009965601E+02 -0.45976260983E+02  0.41065287691E+01  0.71047565312E+02  0.00000000000E+00 0.  1.
         11    1    1    2    0    0 -0.33133122190E+02 -0.25887286195E+02 -0.85993812667E+02  0.95722991959E+02  0.00000000000E+00 0. -1.
</event>
<event>
 7    1  0.7017065E-006  0.6511100E+02  0.7561462E-02  0.1377554E+00
          2   -1    0    0  501    0  0.00000000000E+00  0.00000000000E+00  0.32918269883E+02  0.32918269883E+02  0.00000000000E+00 0. -1.
         -2   -1    0    0    0  501 -0.00000000000E+00 -0.00000000000E+00 -0.35341772816E+03  0.35341772816E+03  0.00000000000E+00 0.  1.
         23    2    1    2    0    0 -0.44467004543E+01  0.27512712422E+01 -0.21189839181E+03  0.24612348461E+03  0.12509395904E+03 0.  0.
          5    1    3    3  502    0  0.17311519763E+02 -0.20710793624E+02 -0.21210112801E+03  0.21385272173E+03  0.41800000000E+01 0. -1.
         -5    1    3    3    0  502 -0.21758220217E+02  0.23462064867E+02  0.20273620560E+00  0.32270762879E+02  0.41800000000E+01 0. -1.
        -11    1    1    2    0    0  0.14147966775E+02  0.31770390874E+02 -0.96161396292E+02  0.10225720922E+03  0.00000000000E+00 0.  1.
         11    1    1    2    0    0 -0.97012663204E+01 -0.34521662117E+02 -0.12439670174E+02  0.37955304208E+02  0.00000000000E+00 0. -1.
</event>
<event>
 7    1  0.7017065E-006  0.1452849E+03  0.7561462E-02  0.1206390E+00
         -2   -1    0    0    0  501 -0.00000000000E+00  0.00000000000E+00  0.76610595925E+03  0.76610595925E+03  0.00000000000E+00 0.  1.
          2   -1    0    0  501    0  0.00000000000E+00 -0.00000000000E+00 -0.29075414443E+02  0.29075414443E+02  0.00000000000E+00 0. -1.
         23    2    1    2    0    0  0.38151986223E+02 -0.93793528740E+02  0.44364825492E+03  0.47194427160E+03  0.12511922838E+03 0.  0.
          5    1    3    3  502    0  0.57798476209E+02  0.60109906376E+01  0.18603371883E+03  0.19494310145E+03  0.41800000000E+01 0.  1.
         -5    1    3    3    0  502 -0.19646489986E+02 -0.99804519377E+02  0.25761453609E+03  0.27700117015E+03  0.41800000000E+01 0.  1.
        -11    1    1    2    0    0 -0.59673033307E+02  0.38105156669E+02  0.11416680307E+03  0.13433887298E+03  0.00000000000E+00 0. -1.
         11    1    1    2    0    0  0.21521047084E+02  0.55688372070E+02  0.17921548681E+03  0.18889822912E+03  0.00000000000E+00 0.  1.
</event>
<event>
 7    1  0.7017065E-006  0.9067989E+02  0.7561462E-02  0.1301214E+00
          2   -1    0    0  501    0  0.00000000000E+00  0.00000000000E+00  0.23920852704E+03  0.23920852704E+03  0.00000000000E+00 0. -1.
         -2   -1    0    0    0  501 -0.00000000000E+00 -0.00000000000E+00 -0.69664950110E+02  0.69664950110E+02  0.00000000000E+00 0.  1.
         23    2    1    2    0    0 -0.22791704522E+02 -0.18142646529E+02  0.37173841963E+02  0.13369119804E+03  0.12507127763E+03 0.  0.
          5    1    3    3  502    0 -0.50030385236E+02 -0.44486410483E+02  0.59368328707E+02  0.89577625655E+02  0.41800000000E+01 0.  1.
         -5    1    3    3    0  502  0.27238680714E+02  0.26343763954E+02 -0.22194486744E+02  0.44113572380E+02  0.41800000000E+01 0.  1.
        -11    1    1    2    0    0 -0.18721750223E+02  0.27818139386E+02  0.12801580635E+03  0.13233442291E+03  0.00000000000E+00 0. -1.
         11    1    1    2    0    0  0.41513454745E+02 -0.96754928565E+01  0.43539286119E+01  0.42847856204E+02  0.00000000000E+00 0.  1.
</event>
<event>
 7    1  0.7253066E-006  0.2544296E+03  0.7561462E-02  0.1110537E+00
         -2   -1    0    0    0  501 -0.00000000000E+00  0.00000000000E+00  0.10771121659E+03  0.10771121659E+03  0.00000000000E+00 0.  1.
          2   -1    0    0  501    0  0.00000000000E+00 -0.00000000000E+00 -0.64804905417E+03  0.64804905417E+03  0.00000000000E+00 0. -1.
         23    2    1    2    0    0 -0.13285689077E+03  0.19878445840E+03 -0.24408922704E+03  0.36385878418E+03  0.12508976673E+03 0.  0.
          5    1    3    3  502    0 -0.11112535888E+03  0.54635391624E+02 -0.11710327163E+03  0.17048319574E+03  0.41800000000E+01 0.  1.
         -5    1    3    3    0  502 -0.21731531886E+02  0.14414906678E+03 -0.12698595541E+03  0.19337558843E+03  0.41800000000E+01 0.  1.
        -11    1    1    2    0    0  0.56476724905E+02 -0.81368524626E+02 -0.19614737088E+03  0.21973677061E+03  0.00000000000E+00 0. -1.
         11    1    1    2    0    0  0.76380165861E+02 -0.11741593378E+03 -0.10010123967E+03  0.17216471597E+03  0.00000000000E+00 0.  1.
</event>
<event>
 7    1  0.7017065E-006  0.1637409E+03  0.7561462E-02  0.1184537E+00
          1   -1    0    0  501    0  0.00000000000E+00  0.00000000000E+00  0.20396022085E+03  0.20396022085E+03  0.00000000000E+00 0.  1.
         -1   -1    0    0    0  501 -0.00000000000E+00 -0.00000000000E+00 -0.15303324978E+03  0.15303324978E+03  0.00000000000E+00 0. -1.
         23    2    1    2    0    0 -0.34477988366E+02 -0.12726379338E+03 -0.15905061877E+02  0.18244127056E+03  0.12508813462E+03 0.  0.
          5    1    3    3  502    0  0.28021226186E+02 -0.10888260424E+03  0.83101451609E+01  0.11281463352E+03  0.41800000000E+01 0.  1.
         -5    1    3    3    0  502 -0.62499214552E+02 -0.18381189143E+02 -0.24215207038E+02  0.69626637042E+02  0.41800000000E+01 0.  1.
        -11    1    1    2    0    0  0.46836400575E+02  0.40098626136E+02  0.60350439828E+02  0.86277017938E+02  0.00000000000E+00 0. -1.
         11    1    1    2    0    0 -0.12358412209E+02  0.87165167244E+02  0.64815931193E+01  0.88275182143E+02  0.00000000000E+00 0.  1.
</event>
<event>
 7    1  0.7017065E-006  0.1813799E+03  0.7561462E-02  0.1166474E+00
          1   -1    0    0  501    0  0.00000000000E+00  0.00000000000E+00  0.12580685847E+03  0.12580685847E+03  0.00000000000E+00 0. -1.
         -1   -1    0    0    0  501 -0.00000000000E+00 -0.00000000000E+00 -0.51287048837E+03  0.51287048837E+03  0.00000000000E+00 0.  1.
         23    2    1    2    0    0  0.12004375496E+03  0.10809624828E+03 -0.40387193985E+03  0.45261427006E+03  0.12510728062E+03 0.  0.
          5    1    3    3  502    0  0.13664173547E+03  0.99433385567E+02 -0.39822267739E+03  0.43261615230E+03  0.41800000000E+01 0. -1.
         -5    1    3    3    0  502 -0.16597980516E+02  0.86628627111E+01 -0.56492624582E+01  0.19998117759E+02  0.41800000000E+01 0. -1.
        -11    1    1    2    0    0 -0.21176752418E+01 -0.36528074684E+02  0.30237688221E+02  0.47466857674E+02  0.00000000000E+00 0. -1.
         11    1    1    2    0    0 -0.11792607971E+03 -0.71568173594E+02 -0.13429378270E+02  0.13859621910E+03  0.00000000000E+00 0.  1.
</event>
<event>
 7    1  0.7017065E-006  0.1144126E+03  0.7561462E-02  0.1252610E+00
         -2   -1    0    0    0  501 -0.00000000000E+00  0.00000000000E+00  0.41828658188E+02  0.41828658188E+02  0.00000000000E+00 0.  1.
          2   -1    0    0  501    0  0.00000000000E+00 -0.00000000000E+00 -0.42160701872E+03  0.42160701872E+03  0.00000000000E+00 0. -1.
         23    2    1    2    0    0 -0.77670224715E+02 -0.65290963453E+01 -0.18856076233E+03  0.23932954081E+03  0.12509266608E+03 0.  0.
          5    1    3    3  502    0 -0.11064792052E+03 -0.15021979176E+02 -0.12967140161E+03  0.17117466802E+03  0.41800000000E+01 0.  1.
         -5    1    3    3    0  502  0.32977695807E+02  0.84928828309E+01 -0.58889360718E+02  0.68154872792E+02  0.41800000000E+01 0.  1.
        -11    1    1    2    0    0  0.29975680203E+02  0.16253752283E+02 -0.86747364282E+01  0.35184896177E+02  0.00000000000E+00 0.  1.
         11    1    1    2    0    0  0.47694544513E+02 -0.97246559375E+01 -0.18254286178E+03  0.18892123992E+03  0.00000000000E+00 0. -1.
</event>
<event>
 7    1  0.7017065E-006  0.9607267E+02  0.7561462E-02  0.1288778E+00
          2   -1    0    0  501    0  0.00000000000E+00  0.00000000000E+00  0.77400521725E+02  0.77400521725E+02  0.00000000000E+00 0. -1.
         -2   -1    0    0    0  501 -0.00000000000E+00 -0.00000000000E+00 -0.16758829689E+03  0.16758829689E+03  0.00000000000E+00 0.  1.
         23    2    1    2    0    0 -0.50448744648E+00  0.36028359397E+02 -0.52225643059E+02  0.14026117444E+03  0.12508949626E+03 0.  0.
          5    1    3    3  502    0 -0.60821216424E+02  0.24473869121E+01 -0.24257021305E+02  0.65658857381E+02  0.41800000000E+01 0. -1.
         -5    1    3    3    0  502  0.60316728977E+02  0.33580972485E+02 -0.27968621754E+02  0.74602317058E+02  0.41800000000E+01 0. -1.
        -11    1    1    2    0    0  0.24479832688E+02 -0.96199085823E+01 -0.58093527862E+02  0.63770391476E+02  0.00000000000E+00 0.  1.
         11    1    1    2    0    0 -0.23975345241E+02 -0.26408450815E+02  0.20131395754E+02  0.40957252702E+02  0.00000000000E+00 0. -1.
</event>
<event>
 7    1  0.7017065E-006  0.1295333E+03  0.7561462E-02  0.1228150E+00
         -2   -1    0    0    0  501 -0.00000000000E+00  0.00000000000E+00  0.28888998194E+02  0.28888998194E+02  0.00000000000E+00 0. -1.
          2   -1    0    0  501    0  0.00000000000E+00 -0.00000000000E+00 -0.69635304341E+03  0.69635304341E+03  0.00000000000E+00 0.  1.
         23    2    1    2    0    0  0.64391540063E+02  0.60958835506E+02 -0.31276204990E+03  0.34832584499E+03  0.12509414203E+03 0.  0.
          5    1    3    3  502    0  0.85206996726E+02  0.72692107395E+02 -0.30135048342E+03  0.32151821259E+03  0.41800000000E+01 0.  1.
         -5    1    3    3    0  502 -0.20815456663E+02 -0.11733271889E+02 -0.11411566483E+02  0.26807632400E+02  0.41800000000E+01 0.  1.
        -11    1    1    2    0    0 -0.73390448083E+02 -0.13746060478E+02 -0.26284931543E+03  0.27324874139E+03  0.00000000000E+00 0. -1.
         11    1    1    2    0    0  0.89989080197E+01 -0.47212775028E+02 -0.91852679880E+02  0.10366745522E+03  0.00000000000E+00 0.  1.
</event>
<event>
 7    1  0.7017065E-006  0.1246481E+03  0.7561462E-02  0.1235620E+00
          2   -1    0    0  501    0  0.00000000000E+00  0.00000000000E+00  0.21400668499E+02  0.21400668499E+02  0.00000000000E+00 0. -1.
         -2   -1    0    0    0  501 -0.00000000000E+00 -0.00000000000E+00 -0.83973136453E+03  0.83973136453E+03  0.00000000000E+00 0.  1.
         23    2    1    2    0    0  0.71975349155E+01  0.72352824574E+02 -0.55231034201E+03  0.57094733024E+03  0.12508958505E+03 0.  0.
          5    1    3    3  502    0  0.35490682421E+02  0.93193992494E+02 -0.48208965587E+03  0.49231353574E+03  0.41800000000E+01 0.  1.
         -5    1    3    3    0  502 -0.28293147506E+02 -0.20841167921E+02 -0.70220686141E+02  0.78633794505E+02  0.41800000000E+01 0.  1.
        -11    1    1    2    0    0  0.32273791797E+02 -0.68766711798E+00 -0.53829169574E+02  0.62766631421E+02  0.00000000000E+00 0.  1.
         11    1    1    2    0    0 -0.39471326712E+02 -0.71665157456E+02 -0.21219118445E+03  0.22741807137E+03  0.00000000000E+00 0. -1.
</event>
<event>
 7    1  0.7017065E-006  0.1166613E+03  0.7561462E-02  0.1248709E+00
         -2   -1    0    0    0  501 -0.00000000000E+00  0.00000000000E+00  0.12542513971E+03  0.12542513971E+03  0.00000000000E+00 0.  1.
          2   -1    0    0  501    0  0.00000000000E+00 -0.00000000000E+00 -0.13059354466E+03  0.13059354466E+03  0.00000000000E+00 0. -1.
         23    2    1    2    0    0 -0.60170229500E+02  0.27409468616E+02  0.13862556932E+02  0.14217057442E+03  0.12509422952E+03 0.  0.
          5    1    3    3  502    0  0.22849501735E+02 -0.15689975089E+02  0.36322052986E+02  0.45880703797E+02  0.41800000000E+01 0.  1.
         -5    1    3    3    0  502 -0.83019731235E+02  0.43099443705E+02 -0.22459496054E+02  0.96289870625E+02  0.41800000000E+01 0.  1.
        -11    1    1    2    0    0  0.42968685131E+02 -0.60592052662E+02 -0.71284131776E+01  0.74622510157E+02  0.00000000000E+00 0.  1.
         11    1    1    2    0    0  0.17201544369E+02  0.33182584047E+02 -0.11902548705E+02  0.39225599784E+02  0.00000000000E+00 0. -1.
</event>
<event>
 7    1  0.7017065E-006  0.1815360E+03  0.7561462E-02  0.1166325E+00
         -1   -1    0    0    0  501 -0.00000000000E+00  0.00000000000E+00  0.86578306918E+02  0.86578306918E+02  0.00000000000E+00 0.  1.
          1   -1    0    0  501    0  0.00000000000E+00 -0.00000000000E+00 -0.54765818598E+03  0.54765818598E+03  0.00000000000E+00 0. -1.
         23    2    1    2    0    0  0.15986281806E+03 -0.20718761534E+02 -0.98080887055E+02  0.22639513022E+03  0.12509798921E+03 0.  0.
          5    1    3    3  502    0  0.83241976247E+02  0.48960948120E+02 -0.25854297392E+02  0.10006157176E+03  0.41800000000E+01 0. -1.
         -5    1    3    3    0  502  0.76620841818E+02 -0.69679709654E+02 -0.72226589664E+02  0.12633355846E+03  0.41800000000E+01 0. -1.
        -11    1    1    2    0    0 -0.44733902483E+02  0.16076541746E+02 -0.21545840037E+03  0.22063975054E+03  0.00000000000E+00 0. -1.
         11    1    1    2    0    0 -0.11512891558E+03  0.46422197881E+01 -0.14754059163E+03  0.18720161214E+03  0.00000000000E+00 0.  1.
</event>
<event>
 7    1  0.7017065E-006  0.9287800E+02  0.7561462E-02  0.1296028E+00
          2   -1    0    0  501    0  0.00000000000E+00  0.00000000000E+00  0.57105317643E+02  0.57105317643E+02  0.00000000000E+00 0. -1.
         -2   -1    0    0    0  501 -0.00000000000E+00 -0.00000000000E+00 -0.22589120865E+03  0.22589120865E+03  0.00000000000E+00 0.  1.
         23    2    1    2    0    0 -0.57988327475E+00  0.24786657990E+02 -0.12057811049E+03  0.17550574109E+03  0.12509384377E+03 0.  0.
          5    1    3    3  502    0 -0.15111379449E+02  0.70803317379E+02 -0.98392504820E+02  0.12222937841E+03  0.41800000000E+01 0.  1.
         -5    1    3    3    0  502  0.14531496174E+02 -0.46016659389E+02 -0.22185605666E+02  0.53276362687E+02  0.41800000000E+01 0.  1.
        -11    1    1    2    0    0 -0.12082556809E+02  0.17158313869E+02 -0.58784180624E+02  0.62417752326E+02  0.00000000000E+00 0.  1.
         11    1    1    2    0    0  0.12662440084E+02 -0.41944971859E+02  0.10576400105E+02  0.45073032872E+02  0.00000000000E+00 0. -1.
</event>
<event>
 6    1  0.7017065E-006  0.1917664E+03  0.7561462E-02  0.1156878E+00
          2   -1    0    0  501    0  0.00000000000E+00  0.00000000000E+00  0.58960900157E+03  0.58960900157E+03  0.00000000000E+00 0. -1.
         -2   -1    0    0    0  501 -0.00000000000E+00 -0.00000000000E+00 -0.96276748583E+02  0.96276748583E+02  0.00000000000E+00 0.  1.
          5    1    1    2  502    0 -0.18463228286E+03 -0.47422084642E+02  0.19212318803E+03  0.27067826984E+03  0.41800000000E+01 0. -1.
         -5    1    1    2    0  502  0.14220948170E+02  0.54952678788E+01 -0.29950651996E+02  0.33866610266E+02  0.41800000000E+01 0.  1.
        -11    1    1    2    0    0  0.11416293761E+03  0.16590013207E+02  0.27376857782E+03  0.29708187266E+03  0.00000000000E+00 0. -1.
         11    1    1    2    0    0  0.56248397083E+02  0.25336803556E+02  0.57391139136E+02  0.84258997384E+02  0.00000000000E+00 0.  1.
</event>
<event>
 7    1  0.7017065E-006  0.8448403E+02  0.7561462E-02  0.1316787E+00
          1   -1    0    0  501    0  0.00000000000E+00  0.00000000000E+00  0.11630540310E+03  0.11630540310E+03  0.00000000000E+00 0. -1.
         -1   -1    0    0    0  501 -0.00000000000E+00 -0.00000000000E+00 -0.15814040033E+03  0.15814040033E+03  0.00000000000E+00 0.  1.
         23    2    1    2    0    0 -0.57660402317E+02  0.56624191535E+02 -0.36600646841E+02  0.15336041939E+03  0.12509512310E+03 0.  0.
          5    1    3    3  502    0 -0.29583672720E+02  0.13511041848E+02  0.45678710878E+02  0.56229520458E+02  0.41800000000E+01 0. -1.
         -5    1    3    3    0  502 -0.28076729597E+02  0.43113149687E+02 -0.82279357719E+02  0.97130898933E+02  0.41800000000E+01 0. -1.
        -11    1    1    2    0    0  0.18657728622E+02 -0.35739071743E+02  0.40715238043E+02  0.57298540080E+02  0.00000000000E+00 0. -1.
         11    1    1    2    0    0  0.39002673695E+02 -0.20885119792E+02 -0.45949588433E+02  0.63786843951E+02  0.00000000000E+00 0.  1.
</event>
<event>
 7    1  0.7017065E-006  0.1167195E+03  0.7561462E-02  0.1248609E+00
         -3   -1    0    0    0  501 -0.00000000000E+00  0.00000000000E+00  0.25329060234E+03  0.25329060234E+03  0.00000000000E+00 0.  1.
          3   -1    0    0  501    0  0.00000000000E+00 -0.00000000000E+00 -0.66109824982E+02  0.66109824982E+02  0.00000000000E+00 0. -1.
         23    2    1    2    0    0  0.54216873804E+02 -0.16279667555E+02  0.16296224904E+03  0.21309279920E+03  0.12508936596E+03 0.  0.
          5    1    3    3  502    0  0.85289571945E+02  0.14130144868E+02  0.73550944954E+02  0.11358338778E+03  0.41800000000E+01 0. -1.
         -5    1    3    3    0  502 -0.31072698141E+02 -0.30409812423E+02  0.89411304091E+02  0.99509411417E+02  0.41800000000E+01 0. -1.
        -11    1    1    2    0    0 -0.14417741793E+02 -0.35258046244E+02  0.12887258312E+02  0.40212964702E+02  0.00000000000E+00 0. -1.
         11    1    1    2    0    0 -0.39799132011E+02  0.51537713799E+02  0.11331270000E+02  0.66094663418E+02  0.00000000000E+00 0.  1.
</event>
<event>
 7    1  0.7017065E-006  0.9018081E+02  0.7561462E-02  0.1302414E+00
          2   -1    0    0  501    0  0.00000000000E+00  0.00000000000E+00  0.46994705459E+02  0.46994705459E+02  0.00000000000E+00 0.  1.
         -2   -1    0    0    0  501 -0.00000000000E+00 -0.00000000000E+00 -0.56041490545E+03  0.56041490545E+03  0.00000000000E+00 0. -1.
         23    2    1    2    0    0 -0.64946328059E+02  0.96892535094E+00 -0.46478030224E+03  0.48568597296E+03  0.12510463877E+03 0.  0.
          5    1    3    3  502    0 -0.75207598982E+02 -0.31056547798E+02 -0.42795234286E+03  0.43563903896E+03  0.41800000000E+01 0. -1.
         -5    1    3    3    0  502  0.10261270923E+02  0.32025473149E+02 -0.36827959377E+02  0.50046934004E+02  0.41800000000E+01 0. -1.
        -11    1    1    2    0    0  0.37237154880E+02  0.64231066510E+00 -0.74815053880E+02  0.83572187680E+02  0.00000000000E+00 0. -1.
         11    1    1    2    0    0  0.27709173179E+02 -0.16112360160E+01  0.26175156122E+02  0.38151450271E+02  0.00000000000E+00 0.  1.
</event>
<event>
 6    1  0.7017065E-006  0.1729773E+03  0.7561462E-02  0.1174778E+00
          1   -1    0    0  501    0  0.00000000000E+00  0.00000000000E+00  0.57164820063E+02  0.57164820063E+02  0.00000000000E+00 0. -1.
         -1   -1    0    0    0  501 -0.00000000000E+00 -0.00000000000E+00 -0.87240858961E+03  0.87240858961E+03  0.00000000000E+00 0.  1.
          5    1    1    2  502    0 -0.82135777698E+02  0.29154923208E+02 -0.17659009782E+03  0.19697164916E+03  0.41800000000E+01 0. -1.
         -5    1    1    2    0  502  0.12548526376E+03 -0.80422121684E+02 -0.59056724604E+03  0.60909885369E+03  0.41800000000E+01 0.  1.
        -11    1    1    2    0    0 -0.47203791328E+02 -0.99624461556E+01 -0.37815815830E+02  0.61298321152E+02  0.00000000000E+00 0.  1.
         11    1    1    2    0    0  0.38543052645E+01  0.61229644632E+02 -0.10270609857E+02  0.62204585664E+02  0.00000000000E+00 0. -1.
</event>
<event>
 7    1  0.7017065E-006  0.1107603E+03  0.7561462E-02  0.1259168E+00
          2   -1    0    0  501    0  0.00000000000E+00  0.00000000000E+00  0.28114308827E+03  0.28114308827E+03  0.00000000000E+00 0. -1.
         -2   -1    0    0    0  501 -0.00000000000E+00 -0.00000000000E+00 -0.45812412865E+02  0.45812412865E+02  0.00000000000E+00 0.  1.
         23    2    1    2    0    0 -0.24025415742E+02 -0.24658820765E+02  0.13759517501E+03  0.18911518273E+03  0.12508733792E+03 0.  0.
          5    1    3    3  502    0  0.50336746047E+02 -0.57172322689E+01  0.71644877927E+02  0.87846090867E+02  0.41800000000E+01 0. -1.
         -5    1    3    3    0  502 -0.74362161789E+02 -0.18941588496E+02  0.65950297082E+02  0.10126909186E+03  0.41800000000E+01 0. -1.
        -11    1    1    2    0    0 -0.25740564924E+02  0.34563794877E+02  0.27243233314E+02  0.50984569826E+02  0.00000000000E+00 0. -1.
         11    1    1    2    0    0  0.49765980666E+02 -0.99049741117E+01  0.70492267080E+02  0.86855748583E+02  0.00000000000E+00 0.  1.
</event>
<event>
 7    1  0.7017065E-006  0.8322772E+02  0.7561462E-02  0.1320133E+00
          2   -1    0    0  501    0  0.00000000000E+00  0.00000000000E+00  0.64143387708E+02  0.64143387708E+02  0.00000000000E+00 0. -1.
         -2   -1    0    0    0  501 -0.00000000000E+00 -0.00000000000E+00 -0.18806917794E+03  0.18806917794E+03  0.00000000000E+00 0.  1.
         23    2    1    2    0    0  0.11948706313E+02 -0.85617205402E+01 -0.90677421730E+02  0.15519629628E+03  0.12508965156E+03 0.  0.
          5    1    3    3  502    0  0.37850267455E+02  0.48144054298E+02 -0.59011784149E+02  0.85149021011E+02  0.41800000000E+01 0.  1.
         -5    1    3    3    0  502 -0.25901561141E+02 -0.56705774838E+02 -0.31665637581E+02  0.70047275271E+02  0.41800000000E+01 0.  1.
        -11    1    1    2    0    0 -0.23718515142E+02 -0.54041853845E+01  0.25650040432E+02  0.35351064402E+02  0.00000000000E+00 0. -1.
         11    1    1    2    0    0  0.11769808828E+02  0.13965905925E+02 -0.58898408932E+02  0.61665204961E+02  0.00000000000E+00 0.  1.
</event>
<event>
 7    1  0.7017065E-006  0.1041711E+03  0.7561462E-02  0.1271761E+00
         -1   -1    0    0    0  501 -0.00000000000E+00  0.00000000000E+00  0.37923902415E+02  0.37923902415E+02  0.00000000000E+00 0.  1.
          1   -1    0    0  501    0  0.00000000000E+00 -0.00000000000E+00 -0.41536296319E+03  0.41536296319E+03  0.00000000000E+00 0. -1.
         23    2    1    2    0    0  0.57271438503E+02  0.10827255772E+02 -0.16790059521E+03  0.21733691817E+03  0.12508988366E+03 0.  0.
          5    1    3    3  502    0  0.59405152495E+02  0.50438848596E+02 -0.49545117326E+02  0.92440470799E+02  0.41800000000E+01 0.  1.
         -5    1    3    3    0  502 -0.21337139925E+01 -0.39611592824E+02 -0.11835547788E+03  0.12489644737E+03  0.41800000000E+01 0.  1.
        -11    1    1    2    0    0 -0.11611460662E+02  0.28103715928E+02 -0.14365149191E+03  0.14683458719E+03  0.00000000000E+00 0. -1.
         11    1    1    2    0    0 -0.45659977840E+02 -0.38930971700E+02 -0.65886973667E+02  0.89115360252E+02  0.00000000000E+00 0.  1.
</event>
<event>
 7    1  0.7017065E-006  0.9777440E+02  0.7561462E-02  0.1285047E+00
          2   -1    0    0  501    0  0.00000000000E+00  0.00000000000E+00  0.78483222373E+03  0.78483222373E+03  0.00000000000E+00 0. -1.
         -2   -1    0    0    0  501 -0.00000000000E+00 -0.00000000000E+00 -0.13676760679E+02  0.13676760679E+02  0.00000000000E+00 0.  1.
         23    2    1    2    0    0  0.14505748948E+02 -0.25761492780E+02  0.41779292952E+03  0.43313742380E+03  0.11037673977E+03 0.  0.
          5    1    3    3  502    0  0.42843983951E+02 -0.56663477586E+02  0.28875303200E+03  0.29739223686E+03  0.41800000000E+01 0. -1.
         -5    1    3    3    0  502 -0.28338235003E+02  0.30901984807E+02  0.12903989751E+03  0.13574518694E+03  0.41800000000E+01 0.  1.
        -11    1    1    2    0    0  0.31729485446E+02  0.12987312634E+02  0.69629993169E+02  0.77612927305E+02  0.00000000000E+00 0. -1.
         11    1    1    2    0    0 -0.46235234394E+02  0.12774180146E+02  0.28373254037E+03  0.28775863330E+03  0.00000000000E+00 0.  1.
</event>
<event>
 7    1  0.7017065E-006  0.1207163E+03  0.7561462E-02  0.1241920E+00
          2   -1    0    0  501    0  0.00000000000E+00  0.00000000000E+00  0.52393911929E+02  0.52393911929E+02  0.00000000000E+00 0. -1.
         -2   -1    0    0    0  501 -0.00000000000E+00 -0.00000000000E+00 -0.31781618366E+03  0.31781618366E+03  0.00000000000E+00 0.  1.
         23    2    1    2    0    0  0.23447354167E+02  0.57066644323E+02 -0.10109106068E+03  0.17225726823E+03  0.12508710404E+03 0.  0.
          5    1    3    3  502    0  0.64150988013E+02 -0.31202999262E+00 -0.26200935359E+02  0.69421956465E+02  0.41800000000E+01 0.  1.
         -5    1    3    3    0  502 -0.40703633847E+02  0.57378674315E+02 -0.74890125320E+02  0.10283531176E+03  0.41800000000E+01 0.  1.
        -11    1    1    2    0    0  0.12795547202E+02 -0.67701409742E+02 -0.80200635892E+02  0.10573244018E+03  0.00000000000E+00 0. -1.
         11    1    1    2    0    0 -0.36242901369E+02  0.10634765420E+02 -0.84130575161E+02  0.92220387183E+02  0.00000000000E+00 0.  1.
</event>
<event>
 7    1  0.7017065E-006  0.1473124E+03  0.7561462E-02  0.1203815E+00
          3   -1    0    0  501    0  0.00000000000E+00  0.00000000000E+00  0.94154462495E+03  0.94154462495E+03  0.00000000000E+00 0. -1.
         -3   -1    0    0    0  501 -0.00000000000E+00 -0.00000000000E+00 -0.27479327339E+02  0.27479327339E+02  0.00000000000E+00 0.  1.
         23    2    1    2    0    0  0.71447820198E+02  0.92268465475E+02  0.41959743066E+03  0.45313059586E+03  0.12508825825E+03 0.  0.
          5    1    3    3  502    0  0.78131816949E+02  0.12916104634E+01  0.16407681593E+03  0.18178262569E+03  0.41800000000E+01 0. -1.
         -5    1    3    3    0  502 -0.66839967507E+01  0.90976855011E+02  0.25552061473E+03  0.27134797017E+03  0.41800000000E+01 0. -1.
        -11    1    1    2    0    0 -0.37734581054E+02 -0.14739793749E+02  0.54671774784E+02  0.68045301712E+02  0.00000000000E+00 0. -1.
         11    1    1    2    0    0 -0.33713239145E+02 -0.77528671726E+02  0.43979609217E+03  0.44784805472E+03  0.00000000000E+00 0.  1.
</event>
<event>
 7    1  0.7017065E-006  0.6974927E+02  0.7561462E-02  0.1360948E+00
         -3   -1    0    0    0  501 -0.00000000000E+00  0.00000000000E+00  0.10923015883E+03  0.10923015883E+03  0.00000000000E+00 0.  1.
          3   -1    0    0  501    0  0.00000000000E+00 -0.00000000000E+00 -0.14589058708E+03  0.14589058708E+03  0.00000000000E+00 0. -1.
         23    2    1    2    0    0  0.13608481010E+01 -0.40433132074E+02  0.30616513785E+02  0.13371273058E+03  0.12371351311E+03 0.  0.
          5    1    3    3  502    0  0.94949167456E+01 -0.64009625181E+01 -0.46955243374E+02  0.48511782543E+02  0.41800000000E+01 0. -1.
         -5    1    3    3    0  502 -0.81340686446E+01 -0.34032169556E+02  0.77571757159E+02  0.85200948036E+02  0.41800000000E+01 0.  1.
        -11    1    1    2    0    0 -0.41922419853E+02  0.23989397790E+02 -0.10004229325E+02  0.49326109689E+02  0.00000000000E+00 0.  1.
         11    1    1    2    0    0  0.40561571752E+02  0.16443734285E+02 -0.57272712704E+02  0.72081905640E+02  0.00000000000E+00 0. -1.
</event>
<event>
 7    1  0.7017065E-006  0.3080147E+03  0.7561462E-02  0.1081301E+00
          2   -1    0    0  501    0  0.00000000000E+00  0.00000000000E+00  0.30607746311E+03  0.30607746311E+03  0.00000000000E+00 0. -1.
         -2   -1    0    0    0  501 -0.00000000000E+00 -0.00000000000E+00 -0.34291442054E+03  0.34291442054E+03  0.00000000000E+00 0.  1.
         23    2    1    2    0    0  0.44345342687E+02  0.28520195025E+03 -0.11694737204E+03  0.33559907351E+03  0.12507353224E+03 0.  0.
          5    1    3    3  502    0 -0.39851549653E+02  0.14194045275E+03 -0.42686321708E+02  0.15354098019E+03  0.41800000000E+01 0.  1.
         -5    1    3    3    0  502  0.84196892340E+02  0.14326149750E+03 -0.74261050335E+02  0.18205809332E+03  0.41800000000E+01 0.  1.
        -11    1    1    2    0    0 -0.36721647458E+02 -0.31158046402E+02  0.20480686649E+02  0.52333180424E+02  0.00000000000E+00 0.  1.
         11    1    1    2    0    0 -0.76236952291E+01 -0.25404390385E+03  0.59629727972E+02  0.26105962972E+03  0.00000000000E+00 0. -1.
</event>
<event>
 7    1  0.9050953E-006  0.1937325E+03  0.7561462E-02  0.1155137E+00
          1   -1    0    0  501    0  0.00000000000E+00  0.00000000000E+00  0.47364842789E+03  0.47364842789E+03  0.00000000000E+00 0. -1.
         -1   -1    0    0    0  501 -0.00000000000E+00 -0.00000000000E+00 -0.15565919130E+03  0.15565919130E+03  0.00000000000E+00 0.  1.
         23    2    1    2    0    0 -0.72856662315E+02 -0.17306504296E+03 -0.25521037293E+02  0.22706535567E+03  0.12509096715E+03 0.  0.
          5    1    3    3  502    0 -0.39053224338E+02 -0.78179433584E+02 -0.74565240541E+02  0.11495488534E+03  0.41800000000E+01 0. -1.
         -5    1    3    3    0  502 -0.33803437977E+02 -0.94885609373E+02  0.49044203248E+02  0.11211047033E+03  0.41800000000E+01 0. -1.
        -11    1    1    2    0    0  0.70423529397E+02  0.82113263143E+02  0.24676640095E+03  0.26943592580E+03  0.00000000000E+00 0.  1.
         11    1    1    2    0    0  0.24331329182E+01  0.90951779815E+02  0.96743872937E+02  0.13280633772E+03  0.00000000000E+00 0. -1.
</event>
<event>
 7    1  0.7017065E-006  0.1668075E+03  0.7561462E-02  0.1181219E+00
         -2   -1    0    0    0  501 -0.00000000000E+00  0.00000000000E+00  0.38897689215E+02  0.38897689215E+02  0.00000000000E+00 0.  1.
          2   -1    0    0  501    0  0.00000000000E+00 -0.00000000000E+00 -0.80735283232E+03  0.80735283232E+03  0.00000000000E+00 0. -1.
         23    2    1    2    0    0  0.84392822900E+02  0.11048194439E+03 -0.43342050302E+03  0.47204709489E+03  0.12508684489E+03 0.  0.
          5    1    3    3  502    0  0.63255084699E+02  0.13124095203E+03 -0.27922267468E+03  0.31497328090E+03  0.41800000000E+01 0. -1.
         -5    1    3    3    0  502  0.21137738201E+02 -0.20759007640E+02 -0.15419782835E+03  0.15707381399E+03  0.41800000000E+01 0. -1.
        -11    1    1    2    0    0  0.10653118733E+02 -0.34963533529E+02 -0.13813904249E+03  0.14289273136E+03  0.00000000000E+00 0. -1.
         11    1    1    2    0    0 -0.95045941633E+02 -0.75518410861E+02 -0.19689559758E+03  0.23131069527E+03  0.00000000000E+00 0.  1.
</event>
<event>
 7    1  0.7017065E-006  0.7741051E+02  0.7561462E-02  0.1336565E+00
          2   -1    0    0  501    0  0.00000000000E+00  0.00000000000E+00  0.21666131972E+03  0.21666131972E+03  0.00000000000E+00 0. -1.
         -2   -1    0    0    0  501 -0.00000000000E+00 -0.00000000000E+00 -0.59852900257E+02  0.59852900257E+02  0.00000000000E+00 0.  1.
         23    2    1    2    0    0  0.11462267572E+02 -0.29885086145E+02  0.79134994814E+02  0.15143743808E+03  0.12508576377E+03 0.  0.
          5    1    3    3  502    0 -0.23417387029E+02 -0.12508879599E+02  0.10239479194E+03  0.10586317537E+03  0.41800000000E+01 0. -1.
         -5    1    3    3    0  502  0.34879654602E+02 -0.17376206546E+02 -0.23259797125E+02  0.45574262708E+02  0.41800000000E+01 0. -1.
        -11    1    1    2    0    0 -0.47223191387E+02  0.22175619026E+02  0.18202418991E+02  0.55255008289E+02  0.00000000000E+00 0.  1.
         11    1    1    2    0    0  0.35760923814E+02  0.77094671192E+01  0.59471005660E+02  0.69821773607E+02  0.00000000000E+00 0. -1.
</event>
<event>
 6    1  0.7017065E-006  0.1463181E+03  0.7561462E-02  0.1205072E+00
          1   -1    0    0  501    0  0.00000000000E+00  0.00000000000E+00  0.22386583061E+03  0.22386583061E+03  0.00000000000E+00 0. -1.
         -1   -1    0    0    0  501 -0.00000000000E+00 -0.00000000000E+00 -0.13533015902E+03  0.13533015902E+03  0.00000000000E+00 0.  1.
          5    1    1    2  502    0 -0.11762127170E+03 -0.44859592237E+02  0.57999173121E+02  0.13866695012E+03  0.41800000000E+01 0. -1.
         -5    1    1    2    0  502 -0.29138905218E+01  0.42608860347E+02 -0.50453137830E+02  0.66234411411E+02  0.41800000000E+01 0.  1.
        -11    1    1    2    0    0  0.67099216183E+02  0.15171564402E+02  0.18854488345E+02  0.71330028106E+02  0.00000000000E+00 0. -1.
         11    1    1    2    0    0  0.53435946037E+02 -0.12920832512E+02  0.62135147957E+02  0.82964600001E+02  0.00000000000E+00 0.  1.
</event>
<event>
 7    1  0.7017065E-006  0.1091459E+03  0.7561462E-02  0.1262160E+00
         -1   -1    0    0    0  501 -0.00000000000E+00  0.00000000000E+00  0.45645648287E+02  0.45645648287E+02  0.00000000000E+00 0. -1.
          1   -1    0    0  501    0  0.00000000000E+00 -0.00000000000E+00 -0.26625875480E+03  0.26625875480E+03  0.00000000000E+00 0.  1.
         23    2    1    2    0    0 -0.24417873651E+02 -0.38452395028E+01 -0.12132142833E+03  0.17600659864E+03  0.12509362642E+03 0.  0.
          5    1    3    3  502    0 -0.73561760483E+02  0.10251610377E+02 -0.56895517199E+02  0.93653619247E+02  0.41800000000E+01 0.  1.
         -5    1    3    3    0  502  0.49143886831E+02 -0.14096849879E+02 -0.64425911130E+02  0.82352979390E+02  0.41800000000E+01 0.  1.
        -11    1    1    2    0    0  0.27394576487E+02  0.44275696039E+02 -0.51585569702E+02  0.73293049344E+02  0.00000000000E+00 0.  1.
         11    1    1    2    0    0 -0.29767028360E+01 -0.40430456536E+02 -0.47706108481E+02  0.62604755106E+02  0.00000000000E+00 0. -1.
</event>
<event>
 7    1  0.7017065E-006  0.7244314E+02  0.7561462E-02  0.1351977E+00
          2   -1    0    0  501    0  0.00000000000E+00  0.00000000000E+00  0.15450936045E+03  0.15450936045E+03  0.00000000000E+00 0. -1.
         -2   -1    0    0    0  501 -0.00000000000E+00 -0.00000000000E+00 -0.11021732099E+03  0.11021732099E+03  0.00000000000E+00 0.  1.
         23    2    1    2    0    0  0.12636728847E+02  0.64364179197E+02 -0.79498373574E+01  0.14147056077E+03  0.12509310601E+03 0.  0.
          5    1    3    3  502    0  0.25932709461E+02  0.37816857983E+02 -0.63445618462E+02  0.78392850884E+02  0.41800000000E+01 0.  1.
         -5    1    3    3    0  502 -0.13295980614E+02  0.26547321214E+02  0.55495781105E+02  0.63077709887E+02  0.41800000000E+01 0.  1.
        -11    1    1    2    0    0  0.54546505741E+01 -0.24207106315E+02  0.71129051356E+02  0.75333121240E+02  0.00000000000E+00 0. -1.
         11    1    1    2    0    0 -0.18091379421E+02 -0.40157072882E+02 -0.18887174546E+02  0.47922999428E+02  0.00000000000E+00 0.  1.
</event>
<event>
 7    1  0.7017065E-006  0.1199804E+03  0.7561462E-02  0.1243129E+00
          2   -1    0    0  501    0  0.00000000000E+00  0.00000000000E+00  0.45121384627E+03  0.45121384627E+03  0.00000000000E+00 0. -1.
         -2   -1    0    0    0  501 -0.00000000000E+00 -0.00000000000E+00 -0.42551923859E+02  0.42551923859E+02  0.00000000000E+00 0.  1.
         23    2    1    2    0    0 -0.90968249997E+01  0.72059886709E+02  0.14196922444E+03  0.20267671975E+03  0.12508881862E+03 0.  0.
          5    1    3    3  502    0 -0.63218004155E+02  0.60403341515E+02  0.71908154696E+02  0.11328430971E+03  0.41800000000E+01 0. -1.
         -5    1    3    3    0  502  0.54121179155E+02  0.11656545194E+02  0.70061069743E+02  0.89392410039E+02  0.41800000000E+01 0. -1.
        -11    1    1    2    0    0  0.28880343961E+02 -0.71501205750E+02  0.25834658574E+03  0.26960982003E+03  0.00000000000E+00 0. -1.
         11    1    1    2    0    0 -0.19783518961E+02 -0.55868095882E+00  0.83461122250E+01  0.21479230344E+02  0.00000000000E+00 0.  1.
</event>
<event>
 7    1  0.7017065E-006  0.7146826E+02  0.7561462E-02  0.1355170E+00
          2   -1    0    0  501    0  0.00000000000E+00  0.00000000000E+00  0.40690674947E+03  0.40690674947E+03  0.00000000000E+00 0. -1.
         -2   -1    0    0    0  501 -0.00000000000E+00 -0.00000000000E+00 -0.36997748141E+02  0.36997748141E+02  0.00000000000E+00 0.  1.
         23    2    1    2    0    0 -0.28040575617E+02  0.46390793532E+02  0.15321582675E+03  0.20508742937E+03  0.12508950599E+03 0.  0.
          5    1    3    3  502    0 -0.12961197942E+02 -0.61969852710E+01 -0.19091277679E+02  0.24255815014E+02  0.41800000000E+01 0.  1.
         -5    1    3    3    0  502 -0.15079377675E+02  0.52587778803E+02  0.17230710443E+03  0.18083161435E+03  0.41800000000E+01 0.  1.
        -11    1    1    2    0    0 -0.31843763341E+01 -0.41357330605E+02  0.19752630142E+03  0.20183460754E+03  0.00000000000E+00 0. -1.
         11    1    1    2    0    0  0.31224951951E+02 -0.50334629265E+01  0.19166873154E+02  0.36982460706E+02  0.00000000000E+00 0.  1.
</event>
<event>
 7    1  0.7017065E-006  0.1218758E+03  0.7561462E-02  0.1240034E+00
          2   -1    0    0  501    0  0.00000000000E+00  0.00000000000E+00  0.83227817461E+02  0.83227817461E+02  0.00000000000E+00 0. -1.
         -2   -1    0    0    0  501 -0.00000000000E+00 -0.00000000000E+00 -0.35070210632E+03  0.35070210632E+03  0.00000000000E+00 0.  1.
         23    2    1    2    0    0 -0.90628072505E+02  0.54465017431E+02 -0.24150351738E+03  0.29180686929E+03  0.12508962550E+03 0.  0.
          5    1    3    3  502    0 -0.89007410543E+01  0.24138174006E+02  0.81740537515E+01  0.27315969512E+02  0.41800000000E+01 0. -1.
         -5    1    3    3    0  502 -0.81727331450E+02  0.30326843425E+02 -0.24967757113E+03  0.26449089978E+03  0.41800000000E+01 0. -1.
        -11    1    1    2    0    0  0.36696847050E+02  0.17359781709E+02  0.15160883841E+02  0.43334432074E+02  0.00000000000E+00 0. -1.
         11    1    1    2    0    0  0.53931225455E+02 -0.71824799139E+02 -0.41131655326E+02  0.98788622423E+02  0.00000000000E+00 0.  1.
</event>
<event>
 7    1  0.7017065E-006  0.2304818E+03  0.7561462E-02  0.1126301E+00
          2   -1    0    0  501    0  0.00000000000E+00  0.00000000000E+00  0.36066035864E+03  0.36066035864E+03  0.00000000000E+00 0. -1.
         -2   -1    0    0    0  501 -0.00000000000E+00 -0.00000000000E+00 -0.29828034003E+03  0.29828034003E+03  0.00000000000E+00 0.  1.
         23    2    1    2    0    0 -0.82753456981E+02 -0.21295314586E+03 -0.17758750554E+03  0.31524977722E+03  0.12509165815E+03 0.  0.
          5    1    3    3  502    0 -0.74045743056E+02 -0.18114919522E+03 -0.19620779826E+03  0.27715117804E+03  0.41800000000E+01 0. -1.
         -5    1    3    3    0  502 -0.87077139254E+01 -0.31803950643E+02  0.18620292719E+02  0.38098599177E+02  0.41800000000E+01 0. -1.
        -11    1    1    2    0    0  0.73267473518E+01  0.69711752734E+02  0.24647692256E+02  0.74302883050E+02  0.00000000000E+00 0. -1.
         11    1    1    2    0    0  0.75426709629E+02  0.14324139313E+03  0.21531983189E+03  0.26938803840E+03  0.00000000000E+00 0.  1.
</event>
<event>
 7    1  0.7017065E-006  0.5730336E+02  0.7561462E-02  0.1409510E+00
          3   -1    0    0  501    0  0.00000000000E+00  0.00000000000E+00  0.15426297767E+02  0.15426297767E+02  0.00000000000E+00 0. -1.
         -3   -1    0    0    0  501 -0.00000000000E+00 -0.00000000000E+00 -0.97876337352E+03  0.97876337352E+03  0.00000000000E+00 0.  1.
         23    2    1    2    0    0 -0.21556766376E+02 -0.32736668429E+00 -0.77643879980E+03  0.78674069278E+03  0.12505561357E+03 0.  0.
          5    1    3    3  502    0 -0.12052225728E+02  0.53160995540E+01 -0.77466779166E+03  0.77479105371E+03  0.41800000000E+01 0.  1.
         -5    1    3    3    0  502 -0.95045406479E+01 -0.56434662383E+01 -0.17710081395E+01  0.11949639072E+02  0.41800000000E+01 0.  1.
        -11    1    1    2    0    0  0.16951567717E+02  0.42910630159E+02 -0.81028000590E+02  0.93242772955E+02  0.00000000000E+00 0. -1.
         11    1    1    2    0    0  0.46051986584E+01 -0.42583263475E+02 -0.10587027536E+03  0.11420620556E+03  0.00000000000E+00 0.  1.
</event>
<event>
 7    1  0.7017065E-006  0.1151353E+03  0.7561462E-02  0.1251345E+00
         -2   -1    0    0    0  501 -0.00000000000E+00  0.00000000000E+00  0.99003114276E+02  0.99003114276E+02  0.00000000000E+00 0.  1.
          2   -1    0    0  501    0  0.00000000000E+00 -0.00000000000E+00 -0.21079754217E+03  0.21079754217E+03  0.00000000000E+00 0. -1.
         23    2    1    2    0    0 -0.54140107202E+02 -0.77817085118E+02 -0.45645221862E+02  0.16345347327E+03  0.12508757613E+03 0.  0.
          5    1    3    3  502    0 -0.49869610834E+02 -0.21181732848E+02 -0.80172782915E+02  0.96854485758E+02  0.41800000000E+01 0.  1.
         -5    1    3    3    0  502 -0.42704963681E+01 -0.56635352269E+02  0.34527561053E+02  0.66598987516E+02  0.41800000000E+01 0.  1.
        -11    1    1    2    0    0  0.26119143236E+02  0.85925644142E+02 -0.73743004164E+02  0.11620437439E+03  0.00000000000E+00 0. -1.
         11    1    1    2    0    0  0.28020963966E+02 -0.81085590244E+01  0.75937981321E+01  0.30142808780E+02  0.00000000000E+00 0.  1.
</event>
<event>
 7    1  0.7017065E-006  0.1083678E+03  0.7561462E-02  0.1263623E+00
         -1   -1    0    0    0  501 -0.00000000000E+00  0.00000000000E+00  0.35597823554E+02  0.35597823554E+02  0.00000000000E+00 0.  1.
          1   -1    0    0  501    0  0.00000000000E+00 -0.00000000000E+00 -0.53692582072E+03  0.53692582072E+03  0.00000000000E+00 0. -1.
         23    2    1    2    0    0 -0.47007182281E+02 -0.63226104613E+02 -0.23032376482E+03  0.27368501700E+03  0.12508891398E+03 0.  0.
          5    1    3    3  502    0 -0.50865403524E+02  0.17843734231E+02 -0.41637208609E+02  0.68240879740E+02  0.41800000000E+01 0.  1.
         -5    1    3    3    0  502  0.38582212423E+01 -0.81069838843E+02 -0.18868655621E+03  0.20544413726E+03  0.41800000000E+01 0.  1.
        -11    1    1    2    0    0  0.11297192263E+02  0.32096031834E+02 -0.12847073369E+02  0.36370717709E+02  0.00000000000E+00 0.  1.
         11    1    1    2    0    0  0.35709990019E+02  0.31130072779E+02 -0.25815715898E+03  0.26246790957E+03  0.00000000000E+00 0. -1.
</event>
<event>
 6    1  0.7017065E-006  0.1124900E+03  0.7561462E-02  0.1256027E+00
          1   -1    0    0  501    0  0.00000000000E+00  0.00000000000E+00  0.45785013400E+03  0.45785013400E+03  0.00000000000E+00 0. -1.
         -1   -1    0    0    0  501 -0.00000000000E+00 -0.00000000000E+00 -0.49765783916E+02  0.49765783916E+02  0.00000000000E+00 0.  1.
          5    1    1    2  502    0 -0.22320882928E+02 -0.23943698368E+02  0.93221726755E+02  0.98890268709E+02  0.41800000000E+01 0. -1.
         -5    1    1    2    0  502 -0.17661456191E+02  0.78775486783E+02  0.75318627116E+01  0.81189320164E+02  0.41800000000E+01 0.  1.
        -11    1    1    2    0    0  0.26794196512E+02  0.21079716976E+02  0.12565137485E+03  0.13019428343E+03  0.00000000000E+00 0.  1.
         11    1    1    2    0    0  0.13188142608E+02 -0.75911505392E+02  0.18167938577E+03  0.19734204562E+03  0.00000000000E+00 0. -1.
</event>
<event>
 7    1  0.7017065E-006  0.7814631E+02  0.7561462E-02  0.1334396E+00
          1   -1    0    0  501    0  0.00000000000E+00  0.00000000000E+00  0.11775937526E+03  0.11775937526E+03  0.00000000000E+00 0. -1.
         -1   -1    0    0    0  501 -0.00000000000E+00 -0.00000000000E+00 -0.13924772251E+03  0.13924772251E+03  0.00000000000E+00 0.  1.
         23    2    1    2    0    0  0.16252263453E+02 -0.47504507776E+02 -0.56563316624E+02  0.14617796817E+03  0.12509106788E+03 0.  0.
          5    1    3    3  502    0 -0.22681451080E+02  0.41182101941E+01  0.29991780086E+02  0.38057681892E+02  0.41800000000E+01 0.  1.
         -5    1    3    3    0  502  0.38933714533E+02 -0.51622717970E+02 -0.86555096710E+02  0.10812028628E+03  0.41800000000E+01 0.  1.
        -11    1    1    2    0    0 -0.32175151582E+02  0.36809923259E+02  0.61255674350E+02  0.78373901713E+02  0.00000000000E+00 0. -1.
         11    1    1    2    0    0  0.15922888129E+02  0.10694584516E+02 -0.26180704977E+02  0.32455227891E+02  0.00000000000E+00 0.  1.
</event>
<event>
 7    1  0.7017065E-006  0.1004709E+03  0.7561462E-02  0.1279309E+00
         -2   -1    0    0    0  501 -0.00000000000E+00  0.00000000000E+00  0.74711731640E+02  0.74711731640E+02  0.00000000000E+00 0. -1.
          2   -1    0    0  501    0  0.00000000000E+00 -0.00000000000E+00 -0.34994103572E+03  0.34994103572E+03  0.00000000000E+00 0.  1.
         23    2    1    2    0    0 -0.59338669153E+02  0.27087361222E+02 -0.15649285167E+02  0.14196912000E+03  0.12512205286E+03 0.  0.
          5    1    3    3  502    0 -0.63717461904E+02  0.42308157563E+02  0.38262674913E+02  0.85623593941E+02  0.41800000000E+01 0. -1.
         -5    1    3    3    0  502  0.43787927514E+01 -0.15220796341E+02 -0.53911960080E+02  0.56345526059E+02  0.41800000000E+01 0. -1.
        -11    1    1    2    0    0 -0.22192384808E+02 -0.11350600374E+02 -0.32920014406E+02  0.41292437816E+02  0.00000000000E+00 0. -1.
         11    1    1    2    0    0  0.81531053961E+02 -0.15736760849E+02 -0.22666000451E+03  0.24139120955E+03  0.00000000000E+00 0.  1.
</event>
<event>
 7    1  0.7017065E-006  0.2865071E+03  0.7561462E-02  0.1092187E+00
          1   -1    0    0  501    0  0.00000000000E+00  0.00000000000E+00  0.25695214305E+03  0.25695214305E+03  0.00000000000E+00 0. -1.
         -1   -1    0    0    0  501 -0.00000000000E+00 -0.00000000000E+00 -0.32824105725E+03  0.32824105725E+03  0.00000000000E+00 0.  1.
         23    2    1    2    0    0  0.52511784311E+02 -0.26215098656E+03 -0.68810765489E+02  0.30308620974E+03  0.12508277996E+03 0.  0.
          5    1    3    3  502    0  0.88126269268E+02 -0.15882645593E+03 -0.67168388421E+02  0.19370376156E+03  0.41800000000E+01 0. -1.
         -5    1    3    3    0  502 -0.35614484957E+02 -0.10332453063E+03 -0.16423770672E+01  0.10938244819E+03  0.41800000000E+01 0. -1.
        -11    1    1    2    0    0  0.22537214348E+02  0.11024436125E+03 -0.53007186903E+01  0.11264920256E+03  0.00000000000E+00 0.  1.
         11    1    1    2    0    0 -0.75048998659E+02  0.15190662531E+03  0.28225699803E+01  0.16945778800E+03  0.00000000000E+00 0. -1.
</event>
<event>
 6    1  0.7017065E-006  0.9202278E+02  0.7561462E-02  0.1298026E+00
          2   -1    0    0  501    0  0.00000000000E+00  0.00000000000E+00  0.49517675387E+02  0.49517675387E+02  0.00000000000E+00 0. -1.
         -2   -1    0    0    0  501 -0.00000000000E+00 -0.00000000000E+00 -0.37012413203E+03  0.37012413203E+03  0.00000000000E+00 0.  1.
          5    1    1    2  502    0  0.60264075474E+02  0.17526392623E+02 -0.48744603950E+02  0.79576642586E+02  0.41800000000E+01 0. -1.
         -5    1    1    2    0  502 -0.37349365091E+02 -0.17992228533E+02 -0.23201428091E+03  0.23572610018E+03  0.41800000000E+01 0.  1.
        -11    1    1    2    0    0 -0.31244474683E+02  0.33265249329E+02 -0.51254074828E+02  0.68627794643E+02  0.00000000000E+00 0.  1.
         11    1    1    2    0    0  0.83297643001E+01 -0.32799413419E+02  0.11406503043E+02  0.35711270008E+02  0.00000000000E+00 0. -1.
</event>
<event>
 7    1  0.7017065E-006  0.1670694E+03  0.7561462E-02  0.1180939E+00
         -2   -1    0    0    0  501 -0.00000000000E+00  0.00000000000E+00  0.10571397575E+03  0.10571397575E+03  0.00000000000E+00 0.  1.
          2   -1    0    0  501    0  0.00000000000E+00 -0.00000000000E+00 -0.35118002131E+03  0.35118002131E+03  0.00000000000E+00 0. -1.
         23    2    1    2    0    0  0.70377956948E+02  0.11927361607E+03 -0.37909794423E+02  0.19042404101E+03  0.12507961691E+03 0.  0.
          5    1    3    3  502    0  0.56205064511E+02  0.13655012363E+03 -0.17774188678E+01  0.14773482040E+03  0.41800000000E+01 0. -1.
         -5    1    3    3    0  502  0.14172892436E+02 -0.17276507557E+02 -0.36132375555E+02  0.42689220614E+02  0.41800000000E+01 0. -1.
        -11    1    1    2    0    0 -0.52060229943E+02 -0.10162333798E+02 -0.43529267059E+02  0.68617327700E+02  0.00000000000E+00 0.  1.
         11    1    1    2    0    0 -0.18317727004E+02 -0.10911128227E+03 -0.16402698408E+03  0.19785262835E+03  0.00000000000E+00 0. -1.
</event>
<event>
 7    1  0.7017065E-006  0.1295032E+03  0.7561462E-02  0.1228195E+00
          1   -1    0    0  501    0  0.00000000000E+00  0.00000000000E+00  0.96333040460E+03  0.96333040460E+03  0.00000000000E+00 0. -1.
         -1   -1    0    0    0  501 -0.00000000000E+00 -0.00000000000E+00 -0.20233531707E+02  0.20233531707E+02  0.00000000000E+00 0.  1.
         23    2    1    2    0    0 -0.69340232663E+02  0.33610812469E+02  0.36693728461E+03  0.39525668099E+03  0.12508844254E+03 0.  0.
          5    1    3    3  502    0 -0.99522718659E+02  0.65854480438E+01  0.20141072844E+03  0.22479300164E+03  0.41800000000E+01 0.  1.
         -5    1    3    3    0  502  0.30182485996E+02  0.27025364426E+02  0.16552655617E+03  0.17046367936E+03  0.41800000000E+01 0.  1.
        -11    1    1    2    0    0  0.48698304663E+02 -0.64793529390E+02  0.36870033384E+03  0.37750451985E+03  0.00000000000E+00 0.  1.
         11    1    1    2    0    0  0.20641927999E+02  0.31182716920E+02  0.20745925444E+03  0.21080273546E+03  0.00000000000E+00 0. -1.
</event>
<event>
 6    1  0.7017065E-006  0.1046585E+03  0.7561462E-02  0.1270794E+00
         -1   -1    0    0    0  501 -0.00000000000E+00  0.00000000000E+00  0.11192562811E+03  0.11192562811E+03  0.00000000000E+00 0.  1.
          1   -1    0    0  501    0  0.00000000000E+00 -0.00000000000E+00 -0.13385207066E+03  0.13385207066E+03  0.00000000000E+00 0. -1.
          5    1    1    2  502    0  0.33378197048E+02 -0.85510076549E+02 -0.26121372238E+02  0.95529449476E+02  0.41800000000E+01 0. -1.
         -5    1    1    2    0  502 -0.27001954332E+02  0.38731285803E+02  0.67575222353E+01  0.47878539499E+02  0.41800000000E+01 0.  1.
        -11    1    1    2    0    0  0.18931710202E+02  0.25926185601E+01 -0.36483901506E+02  0.41185026299E+02  0.00000000000E+00 0. -1.
         11    1    1    2    0    0 -0.25307952917E+02  0.44186172186E+02  0.33921308962E+02  0.61184683500E+02  0.00000000000E+00 0.  1.
</event>
<event>
 7    1  0.1020446E-005  0.1920008E+03  0.7561462E-02  0.1156669E+00
         -2   -1    0    0    0  501 -0.00000000000E+00  0.00000000000E+00  0.51227812090E+02  0.51227812090E+02  0.00000000000E+00 0.  1.
          2   -1    0    0  501    0  0.00000000000E+00 -0.00000000000E+00 -0.89110605662E+03  0.89110605662E+03  0.00000000000E+00 0. -1.
         23    2    1    2    0    0 -0.13209522367E+03 -0.10602796680E+03 -0.27996144177E+03  0.35030923765E+03  0.12508826980E+03 0.  0.
          5    1    3    3  502    0 -0.88292045156E+02 -0.11772976868E+03 -0.14011559182E+03  0.20323787821E+03  0.41800000000E+01 0.  1.
         -5    1    3    3    0  502 -0.43803178517E+02  0.11701801881E+02 -0.13984584996E+03  0.14707135943E+03  0.41800000000E+01 0.  1.
        -11    1    1    2    0    0  0.27714682475E+02  0.78577620832E+02 -0.27521323524E+03  0.28754977129E+03  0.00000000000E+00 0. -1.
         11    1    1    2    0    0  0.10438054120E+03  0.27450345965E+02 -0.28470356752E+03  0.30447485977E+03  0.00000000000E+00 0.  1.
</event>
<event>
 7    1  0.7017065E-006  0.2550094E+03  0.7561462E-02  0.1110179E+00
          2   -1    0    0  501    0  0.00000000000E+00  0.00000000000E+00  0.42132399993E+03  0.42132399993E+03  0.00000000000E+00 0. -1.
         -2   -1    0    0    0  501 -0.00000000000E+00 -0.00000000000E+00 -0.18093594062E+03  0.18093594062E+03  0.00000000000E+00 0.  1.
         23    2    1    2    0    0  0.18817014914E+03 -0.16729289032E+03  0.88420453115E+02  0.29471577775E+03  0.12507716397E+03 0.  0.
          5    1    3    3  502    0  0.99237817951E+02 -0.71545873375E+02  0.10709370524E+03  0.16264529078E+03  0.41800000000E+01 0.  1.
         -5    1    3    3    0  502  0.88932331185E+02 -0.95747016942E+02 -0.18673252130E+02  0.13207048697E+03  0.41800000000E+01 0.  1.
        -11    1    1    2    0    0 -0.65576568868E+02  0.92055817372E+02  0.10997747279E+03  0.15770099688E+03  0.00000000000E+00 0.  1.
         11    1    1    2    0    0 -0.12259358027E+03  0.75237072945E+02  0.41990133409E+02  0.14984316592E+03  0.00000000000E+00 0. -1.
</event>
<event>
 7    1  0.7017065E-006  0.1076462E+03  0.7561462E-02  0.1264992E+00
          4   -1    0    0  501    0  0.00000000000E+00  0.00000000000E+00  0.77138905844E+02  0.77138905844E+02  0.00000000000E+00 0. -1.
         -4   -1    0    0    0  501 -0.00000000000E+00 -0.00000000000E+00 -0.19041539553E+03  0.19041539553E+03  0.00000000000E+00 0.  1.
         23    2    1    2    0    0  0.52514666697E+02 -0.17582698445E+02 -0.73371077577E+02  0.15523418222E+03  0.12508954714E+03 0.  0.
          5    1    3    3  502    0  0.34078673278E+01  0.39790794656E+02 -0.68550835013E+02  0.79445643556E+02  0.41800000000E+01 0. -1.
         -5    1    3    3    0  502  0.49106799370E+02 -0.57373493101E+02 -0.48202425642E+01  0.75788538667E+02  0.41800000000E+01 0. -1.
        -11    1    1    2    0    0  0.19798375075E+02  0.18625170022E+02  0.43576806102E+01  0.27529293385E+02  0.00000000000E+00 0. -1.
         11    1    1    2    0    0 -0.72313041773E+02 -0.10424715774E+01 -0.44263092722E+02  0.84790825770E+02  0.00000000000E+00 0.  1.
</event>
<event>
 7    1  0.7017065E-006  0.1362567E+03  0.7561462E-02  0.1218456E+00
          2   -1    0    0  501    0  0.00000000000E+00  0.00000000000E+00  0.44020766550E+03  0.44020766550E+03  0.00000000000E+00 0. -1.
         -2   -1    0    0    0  501 -0.00000000000E+00 -0.00000000000E+00 -0.63134093397E+02  0.63134093397E+02  0.00000000000E+00 0.  1.
         23    2    1    2    0    0  0.64152664308E+02  0.95905564815E+02  0.85277031149E+02  0.18173342533E+03  0.11154113205E+03 0.  0.
          5    1    3    3  502    0 -0.27441745062E+02  0.21422923765E+02 -0.15947337599E+01  0.35099951715E+02  0.41800000000E+01 0.  1.
         -5    1    3    3    0  502  0.91594409370E+02  0.74482641051E+02  0.86871764909E+02  0.14663347361E+03  0.41800000000E+01 0.  1.
        -11    1    1    2    0    0 -0.18417252307E+02 -0.54852444468E+02  0.21811900626E+03  0.22566321530E+03  0.00000000000E+00 0. -1.
         11    1    1    2    0    0 -0.45735412001E+02 -0.41053120347E+02  0.73677534690E+02  0.95945118266E+02  0.00000000000E+00 0.  1.
</event>
<event>
 7    1  0.7017065E-006  0.1886930E+03  0.7561462E-02  0.1159645E+00
          1   -1    0    0  501    0  0.00000000000E+00  0.00000000000E+00  0.87520522140E+02  0.87520522140E+02  0.00000000000E+00 0. -1.
         -1   -1    0    0    0  501 -0.00000000000E+00 -0.00000000000E+00 -0.49728868732E+03  0.49728868732E+03  0.00000000000E+00 0.  1.
         23    2    1    2    0    0  0.55298243734E+01 -0.17799323478E+03 -0.20991528193E+03  0.30236450354E+03  0.12509075436E+03 0.  0.
          5    1    3    3  502    0 -0.17191316671E+02 -0.62139069371E+02 -0.37081331220E+01  0.64714974793E+02  0.41800000000E+01 0. -1.
         -5    1    3    3    0  502  0.22721141045E+02 -0.11585416541E+03 -0.20620714881E+03  0.23764952874E+03  0.41800000000E+01 0. -1.
        -11    1    1    2    0    0 -0.39356648738E+02  0.58906225916E+02 -0.43957700471E+02  0.83373668998E+02  0.00000000000E+00 0.  1.
         11    1    1    2    0    0  0.33826824365E+02  0.11908700887E+03 -0.15589518278E+03  0.19907103693E+03  0.00000000000E+00 0. -1.
</event>
<event>
 7    1  0.7017065E-006  0.9038115E+02  0.7561462E-02  0.1301931E+00
         -2   -1    0    0    0  501 -0.00000000000E+00  0.00000000000E+00  0.15694785809E+03  0.15694785809E+03  0.00000000000E+00 0.  1.
          2   -1    0    0  501    0  0.00000000000E+00 -0.00000000000E+00 -0.14158714728E+03  0.14158714728E+03  0.00000000000E+00 0. -1.
         23    2    1    2    0    0 -0.19478702453E+02  0.23034474000E+02  0.11368784861E+03  0.16215879603E+03  0.11162679502E+03 0.  0.
          5    1    3    3  502    0  0.39566621424E+01 -0.31164943020E+02 -0.24684629820E+01  0.31787962474E+02  0.41800000000E+01 0. -1.
         -5    1    3    3    0  502 -0.23435364596E+02  0.54199417020E+02  0.11615631159E+03  0.13037083355E+03  0.41800000000E+01 0.  1.
        -11    1    1    2    0    0  0.20796996800E+02  0.30175059217E+02 -0.20213624945E+02  0.41852597387E+02  0.00000000000E+00 0. -1.
         11    1    1    2    0    0 -0.13182943462E+01 -0.53209533217E+02 -0.78113512859E+02  0.94523611951E+02  0.00000000000E+00 0.  1.
</event>
<event>
 7    1  0.7017065E-006  0.1557186E+03  0.7561462E-02  0.1193617E+00
          1   -1    0    0  501    0  0.00000000000E+00  0.00000000000E+00  0.24054299510E+03  0.24054299510E+03  0.00000000000E+00 0. -1.
         -1   -1    0    0    0  501 -0.00000000000E+00 -0.00000000000E+00 -0.11510797584E+03  0.11510797584E+03  0.00000000000E+00 0.  1.
         23    2    1    2    0    0  0.90996550435E+02 -0.87223076474E+02  0.61206961693E+02  0.18784376300E+03  0.12510295711E+03 0.  0.
          5    1    3    3  502    0  0.31645482065E+01  0.22037964682E+02  0.40042903157E+02  0.46006442439E+02  0.41800000000E+01 0.  1.
         -5    1    3    3    0  502  0.87832002229E+02 -0.10926104116E+03  0.21164058536E+02  0.14183732056E+03  0.41800000000E+01 0.  1.
        -11    1    1    2    0    0 -0.97018610449E+02  0.46891846294E+02  0.67079036950E+02  0.12692932372E+03  0.00000000000E+00 0. -1.
         11    1    1    2    0    0  0.60220600138E+01  0.40331230180E+02 -0.28509793775E+01  0.40877884217E+02  0.00000000000E+00 0.  1.
</event>
<event>
 7    1  0.7017065E-006  0.9468460E+02  0.7561462E-02  0.1291888E+00
         -1   -1    0    0    0  501 -0.00000000000E+00  0.00000000000E+00  0.79626515419E+02  0.79626515419E+02  0.00000000000E+00 0.  1.
          1   -1    0    0  501    0  0.00000000000E+00 -0.00000000000E+00 -0.18473889465E+03  0.18473889465E+03  0.00000000000E+00 0. -1.
         23    2    1    2    0    0  0.24367614985E+02  0.64715332904E+01 -0.51476993837E+01  0.12771079267E+03  0.12509151191E+03 0.  0.
          5    1    3    3  502    0  0.14896118073E+02  0.64432104242E+02  0.97507699164E+01  0.66977162561E+02  0.41800000000E+01 0.  1.
         -5    1    3    3    0  502  0.94714969118E+01 -0.57960570952E+02 -0.14898469300E+02  0.60733630110E+02  0.41800000000E+01 0.  1.
        -11    1    1    2    0    0 -0.36596882203E+02  0.14972833281E+02 -0.66086467455E+01  0.40089795900E+02  0.00000000000E+00 0.  1.
         11    1    1    2    0    0  0.12229267219E+02 -0.21444366571E+02 -0.93356033100E+02  0.96564821496E+02  0.00000000000E+00 0. -1.
</event>
<event>
 7    1  0.7017065E-006  0.3010996E+03  0.7561462E-02  0.1084692E+00
         -2   -1    0    0    0  501 -0.00000000000E+00  0.00000000000E+00  0.29874554298E+03  0.29874554298E+03  0.00000000000E+00 0.  1.
          2   -1    0    0  501    0  0.00000000000E+00 -0.00000000000E+00 -0.35884123029E+03  0.35884123029E+03  0.00000000000E+00 0. -1.
         23    2    1    2    0    0  0.24171186416E+03 -0.55249600281E+02  0.27021417362E+01  0.27773004187E+03  0.12509808544E+03 0.  0.
          5    1    3    3  502    0  0.21802200310E+03 -0.59080081102E+02  0.43633656406E+02  0.23009871402E+03  0.41800000000E+01 0. -1.
         -5    1    3    3    0  502  0.23689861059E+02  0.38304808215E+01 -0.40931514670E+02  0.47631327858E+02  0.41800000000E+01 0. -1.
        -11    1    1    2    0    0 -0.14567119775E+03 -0.94771884607E+02 -0.96179382910E+02  0.19862598436E+03  0.00000000000E+00 0. -1.
         11    1    1    2    0    0 -0.96040666413E+02  0.15002148489E+03  0.33381553857E+02  0.18123074704E+03  0.00000000000E+00 0.  1.
</event>
<event>
 7    1  0.7017065E-006  0.8412567E+02  0.7561462E-02  0.1317735E+00
         -1   -1    0    0    0  501 -0.00000000000E+00  0.00000000000E+00  0.39652031865E+03  0.39652031865E+03  0.00000000000E+00 0.  1.
          1   -1    0    0  501    0  0.00000000000E+00 -0.00000000000E+00 -0.31381168852E+02  0.31381168852E+02  0.00000000000E+00 0. -1.
         23    2    1    2    0    0  0.64549759278E+01 -0.24927860351E+02  0.23647079189E+03  0.26875377098E+03  0.12508832505E+03 0.  0.
          5    1    3    3  502    0  0.39814911107E+02 -0.32006559944E+02  0.29887412628E+02  0.59332763795E+02  0.41800000000E+01 0. -1.
         -5    1    3    3    0  502 -0.33359935179E+02  0.70786995931E+01  0.20658337926E+03  0.20942100718E+03  0.41800000000E+01 0. -1.
        -11    1    1    2    0    0 -0.35868508051E+02 -0.97459762687E+01  0.96610174844E+02  0.10351357306E+03  0.00000000000E+00 0.  1.
         11    1    1    2    0    0  0.29413532123E+02  0.34673836620E+02  0.32058183063E+02  0.55634143466E+02  0.00000000000E+00 0. -1.
</event>
<event>
 6    1  0.7017065E-006  0.2789753E+03  0.7561462E-02  0.1096250E+00
         -1   -1    0    0    0  501 -0.00000000000E+00  0.00000000000E+00  0.97805146877E+02  0.97805146877E+02  0.00000000000E+00 0.  1.
          1   -1    0    0  501    0  0.00000000000E+00 -0.00000000000E+00 -0.92644674420E+03  0.92644674420E+03  0.00000000000E+00 0. -1.
          5    1    1    2  502    0 -0.10301097449E+03  0.23251754597E+03 -0.20927089049E+03  0.32937432817E+03  0.41800000000E+01 0. -1.
         -5    1    1    2    0  502  0.96349633936E+02 -0.18171560054E+03 -0.45090087060E+03  0.49561363878E+03  0.41800000000E+01 0.  1.
        -11    1    1    2    0    0  0.44819389678E+02 -0.21166254018E+02 -0.46055950309E+02  0.67660465259E+02  0.00000000000E+00 0.  1.
         11    1    1    2    0    0 -0.38158049126E+02 -0.29635691411E+02 -0.12241388592E+03  0.13160345886E+03  0.00000000000E+00 0. -1.
</event>
<event>
 7    1  0.7017065E-006  0.1237829E+03  0.7561462E-02  0.1236984E+00
          2   -1    0    0  501    0  0.00000000000E+00  0.00000000000E+00  0.32101693607E+03  0.32101693607E+03  0.00000000000E+00 0.  1.
         -2   -1    0    0    0  501 -0.00000000000E+00 -0.00000000000E+00 -0.49171834852E+02  0.49171834852E+02  0.00000000000E+00 0. -1.
         23    2    1    2    0    0  0.20773689581E+02  0.57892718712E+02  0.12841670541E+03  0.18953179324E+03  0.12509331462E+03 0.  0.
          5    1    3    3  502    0  0.12123476331E+02 -0.39112744725E+02  0.47419690674E+02  0.62792395574E+02  0.41800000000E+01 0.  1.
         -5    1    3    3    0  502  0.86502132507E+01  0.97005463436E+02  0.80997014732E+02  0.12673939767E+03  0.41800000000E+01 0.  1.
        -11    1    1    2    0    0 -0.14610358430E+02 -0.82383952516E+02  0.11940062964E+03  0.14579810891E+03  0.00000000000E+00 0.  1.
         11    1    1    2    0    0 -0.61633311510E+01  0.24491233804E+02  0.24027766171E+02  0.34858868761E+02  0.00000000000E+00 0. -1.
</event>
<event>
 7    1  0.7017065E-006  0.2539504E+03  0.7561462E-02  0.1110833E+00
          2   -1    0    0  501    0  0.00000000000E+00  0.00000000000E+00  0.59728792707E+03  0.59728792707E+03  0.00000000000E+00 0. -1.
         -2   -1    0    0    0  501 -0.00000000000E+00 -0.00000000000E+00 -0.13178010783E+03  0.13178010783E+03  0.00000000000E+00 0.  1.
         23    2    1    2    0    0  0.24648960947E+03 -0.37301467411E+02  0.32558605125E+03  0.42872283095E+03  0.12509381264E+03 0.  0.
          5    1    3    3  502    0  0.19837136564E+03 -0.18056725549E+02  0.16110999024E+03  0.25622479466E+03  0.41800000000E+01 0.  1.
         -5    1    3    3    0  502  0.48118243835E+02 -0.19244741863E+02  0.16447606102E+03  0.17249803630E+03  0.41800000000E+01 0.  1.
        -11    1    1    2    0    0 -0.13293237825E+03  0.50817058244E+02  0.38348040937E+02  0.14739051136E+03  0.00000000000E+00 0.  1.
         11    1    1    2    0    0 -0.11355723122E+03 -0.13515590833E+02  0.10157372705E+03  0.15295469259E+03  0.00000000000E+00 0. -1.
</event>
<event>
 7    1  0.7017065E-006  0.1310897E+03  0.7561462E-02  0.1225848E+00
         -1   -1    0    0    0  501 -0.00000000000E+00  0.00000000000E+00  0.33174687247E+02  0.33174687247E+02  0.00000000000E+00 0.  1.
          1   -1    0    0  501    0  0.00000000000E+00 -0.00000000000E+00 -0.78183196972E+03  0.78183196972E+03  0.00000000000E+00 0. -1.
         23    2    1    2    0    0  0.34504793174E+02 -0.79997913544E+02 -0.20211665777E+03  0.25316955515E+03  0.12511368184E+03 0.  0.
          5    1    3    3  502    0 -0.16050393833E+02  0.16441854270E+02  0.22131036024E+00  0.23355322569E+02  0.41800000000E+01 0. -1.
         -5    1    3    3    0  502  0.50555187007E+02 -0.96439767815E+02 -0.20233796813E+03  0.22981423258E+03  0.41800000000E+01 0. -1.
        -11    1    1    2    0    0 -0.17244270265E+02  0.10112012253E+03 -0.41406757635E+03  0.42658481199E+03  0.00000000000E+00 0.  1.
         11    1    1    2    0    0 -0.17260522909E+02 -0.21122208982E+02 -0.13247304835E+03  0.13525228983E+03  0.00000000000E+00 0. -1.
</event>
<event>
 7    1  0.7017065E-006  0.1700223E+03  0.7561462E-02  0.1177825E+00
         -1   -1    0    0    0  501 -0.00000000000E+00  0.00000000000E+00  0.47262513116E+02  0.47262513116E+02  0.00000000000E+00 0.  1.
          1   -1    0    0  501    0  0.00000000000E+00 -0.00000000000E+00 -0.74198954822E+03  0.74198954822E+03  0.00000000000E+00 0. -1.
         23    2    1    2    0    0 -0.14128277419E+03  0.40257832292E+02 -0.28188193958E+03  0.34159971822E+03  0.12510565247E+03 0.  0.
          5    1    3    3  502    0 -0.29074989166E+01 -0.33676982126E+02 -0.70786676880E+02  0.78554558740E+02  0.41800000000E+01 0.  1.
         -5    1    3    3    0  502 -0.13837527528E+03  0.73934814418E+02 -0.21109526270E+03  0.26304515948E+03  0.41800000000E+01 0.  1.
        -11    1    1    2    0    0  0.10741566339E+03 -0.41492284000E+02 -0.39034065888E+03  0.40697120826E+03  0.00000000000E+00 0. -1.
         11    1    1    2    0    0  0.33867110800E+02  0.12344517077E+01 -0.22504436642E+02  0.40681134861E+02  0.00000000000E+00 0.  1.
</event>
<event>
 7    1  0.7017065E-006  0.9547483E+02  0.7561462E-02  0.1290110E+00
         -3   -1    0    0    0  501 -0.00000000000E+00  0.00000000000E+00  0.53087666912E+03  0.53087666912E+03  0.00000000000E+00 0.  1.
          3   -1    0    0  501    0  0.00000000000E+00 -0.00000000000E+00 -0.32301297111E+02  0.32301297111E+02  0.00000000000E+00 0. -1.
         23    2    1    2    0    0 -0.19257916334E+02  0.31915392793E+02  0.42124936418E+03  0.43831316487E+03  0.11522996155E+03 0.  0.
          5    1    3    3  502    0 -0.32168644398E+02 -0.37524248400E+02  0.15003119686E+03  0.15801811077E+03  0.41800000000E+01 0. -1.
         -5    1    3    3    0  502  0.12910728063E+02  0.69439641193E+02  0.27121816732E+03  0.28029505410E+03  0.41800000000E+01 0.  1.
        -11    1    1    2    0    0  0.27028837042E+02  0.93525161039E+01  0.77777090590E+02  0.82869194578E+02  0.00000000000E+00 0.  1.
         11    1    1    2    0    0 -0.77709207080E+01 -0.41267908897E+02 -0.45108276094E+00  0.41995606783E+02  0.00000000000E+00 0. -1.
</event>
<event>
 7    1  0.7017065E-006  0.1238654E+03  0.7561462E-02  0.1236853E+00
          2   -1    0    0  501    0  0.00000000000E+00  0.00000000000E+00  0.14590976174E+03  0.14590976174E+03  0.00000000000E+00 0. -1.
         -2   -1    0    0    0  501 -0.00000000000E+00 -0.00000000000E+00 -0.12665338084E+03  0.12665338084E+03  0.00000000000E+00 0.  1.
         23    2    1    2    0    0  0.79801771441E+02  0.16762995571E+02  0.11105899747E+02  0.14973664036E+03  0.12509356383E+03 0.  0.
          5    1    3    3  502    0 -0.25852870256E+02  0.20306230384E+02 -0.20931187163E+02  0.39195674365E+02  0.41800000000E+01 0. -1.
         -5    1    3    3    0  502  0.10565464170E+03 -0.35432348131E+01  0.32037086910E+02  0.11054096599E+03  0.41800000000E+01 0. -1.
        -11    1    1    2    0    0  0.35846802741E+01 -0.24767376102E+02  0.27155209845E+02  0.36928014749E+02  0.00000000000E+00 0. -1.
         11    1    1    2    0    0 -0.83386451715E+02  0.80043805304E+01 -0.19004728692E+02  0.85898487472E+02  0.00000000000E+00 0.  1.
</event>
<event>
 7    1  0.7017065E-006  0.1353108E+03  0.7561462E-02  0.1219782E+00
         -2   -1    0    0    0  501 -0.00000000000E+00  0.00000000000E+00  0.29330229780E+02  0.29330229780E+02  0.00000000000E+00 0. -1.
          2   -1    0    0  501    0  0.00000000000E+00 -0.00000000000E+00 -0.76651104594E+03  0.76651104594E+03  0.00000000000E+00 0.  1.
         23    2    1    2    0    0  0.87355043285E+02 -0.38337049527E+02 -0.29238971571E+03  0.33202420584E+03  0.12509074488E+03 0.  0.
          5    1    3    3  502    0  0.42422354699E+02  0.37485294453E+02 -0.56149162363E+02  0.79843624119E+02  0.41800000000E+01 0. -1.
         -5    1    3    3    0  502  0.44932688586E+02 -0.75822343980E+02 -0.23624055334E+03  0.25218058172E+03  0.41800000000E+01 0. -1.
        -11    1    1    2    0    0 -0.62556183091E+02 -0.17133249535E+02 -0.29744495550E+03  0.30443443602E+03  0.00000000000E+00 0.  1.
         11    1    1    2    0    0 -0.24798860194E+02  0.55470299062E+02 -0.14734614495E+03  0.15938263386E+03  0.00000000000E+00 0. -1.
</event>
<event>
 7    1  0.7017065E-006  0.1290287E+03  0.7561462E-02  0.1228904E+00
          2   -1    0    0  501    0  0.00000000000E+00  0.00000000000E+00  0.42500141006E+03  0.42500141006E+03  0.00000000000E+00 0.  1.
         -2   -1    0    0    0  501 -0.00000000000E+00 -0.00000000000E+00 -0.61289191726E+02  0.61289191726E+02  0.00000000000E+00 0. -1.
         23    2    1    2    0    0 -0.46692718527E+02  0.57631204173E+02  0.53256605863E+02  0.15487629862E+03  0.12509530826E+03 0.  0.
          5    1    3    3  502    0 -0.72826201831E+02  0.81294454798E+02  0.46629486094E+02  0.11876121180E+03  0.41800000000E+01 0.  1.
         -5    1    3    3    0  502  0.26133483304E+02 -0.23663250625E+02  0.66271197687E+01  0.36115086822E+02  0.41800000000E+01 0.  1.
        -11    1    1    2    0    0 -0.14959299379E+02 -0.48810838294E+02  0.17562824933E+03  0.18289767778E+03  0.00000000000E+00 0.  1.
         11    1    1    2    0    0  0.61652017906E+02 -0.88203658794E+01  0.13482736314E+03  0.14851662539E+03  0.00000000000E+00 0. -1.
</event>
<event>
 7    1  0.7017065E-006  0.8601130E+02  0.7561462E-02  0.1312809E+00
         -1   -1    0    0    0  501 -0.00000000000E+00  0.00000000000E+00  0.11119377608E+03  0.11119377608E+03  0.00000000000E+00 0.  1.
          1   -1    0    0  501    0  0.00000000000E+00 -0.00000000000E+00 -0.12457188417E+03  0.12457188417E+03  0.00000000000E+00 0. -1.
         23    2    1    2    0    0 -0.41781910028E+02  0.13400769313E+02  0.14710114360E+02  0.13337577838E+03  0.12508957658E+03 0.  0.
          5    1    3    3  502    0 -0.30444455683E+02  0.66138803647E+02  0.27220448452E+02  0.77843634573E+02  0.41800000000E+01 0. -1.
         -5    1    3    3    0  502 -0.11337454344E+02 -0.52738034333E+02 -0.12510334093E+02  0.55532143804E+02  0.41800000000E+01 0. -1.
        -11    1    1    2    0    0  0.30512286558E+02 -0.14272579655E+02  0.28843469661E+02  0.44346949197E+02  0.00000000000E+00 0.  1.
         11    1    1    2    0    0  0.11269623469E+02  0.87181034172E+00 -0.56931692111E+02  0.58042932670E+02  0.00000000000E+00 0. -1.
</event>
<event>
 7    1  0.7017065E-006  0.1262335E+03  0.7561462E-02  0.1233154E+00
          1   -1    0    0  501    0  0.00000000000E+00  0.00000000000E+00  0.38223335805E+03  0.38223335805E+03  0.00000000000E+00 0. -1.
         -1   -1    0    0    0  501 -0.00000000000E+00 -0.00000000000E+00 -0.53608637421E+02  0.53608637421E+02  0.00000000000E+00 0.  1.
         23    2    1    2    0    0  0.78191664875E+02 -0.53392242147E+01  0.10297937679E+03  0.17999085895E+03  0.12509801554E+03 0.  0.
          5    1    3    3  502    0  0.18284145561E+02 -0.58763024201E+02  0.20945219933E+02  0.65142748101E+02  0.41800000000E+01 0. -1.
         -5    1    3    3    0  502  0.59907519314E+02  0.53423799986E+02  0.82034156857E+02  0.11484811085E+03  0.41800000000E+01 0. -1.
        -11    1    1    2    0    0 -0.86005552518E+00 -0.26690100200E+02  0.18646689489E+02  0.32569927434E+02  0.00000000000E+00 0.  1.
         11    1    1    2    0    0 -0.77331609350E+02  0.32029324414E+02  0.20699865435E+03  0.22328120908E+03  0.00000000000E+00 0. -1.
</event>
<event>
 7    1  0.7017065E-006  0.9842467E+02  0.7561462E-02  0.1283644E+00
          1   -1    0    0  501    0  0.00000000000E+00  0.00000000000E+00  0.21613479028E+03  0.21613479028E+03  0.00000000000E+00 0. -1.
         -1   -1    0    0    0  501 -0.00000000000E+00 -0.00000000000E+00 -0.60042504036E+02  0.60042504036E+02  0.00000000000E+00 0.  1.
         23    2    1    2    0    0 -0.23283267426E+02  0.22988640771E+02  0.94204949561E+02  0.15997383586E+03  0.12508584049E+03 0.  0.
          5    1    3    3  502    0 -0.20882097610E+02  0.60260775379E+02  0.61189843873E+01  0.64205431389E+02  0.41800000000E+01 0. -1.
         -5    1    3    3    0  502 -0.24011698156E+01 -0.37272134608E+02  0.88085965173E+02  0.95768404473E+02  0.41800000000E+01 0. -1.
        -11    1    1    2    0    0  0.18275108522E+02 -0.57575365998E+02  0.52462126485E+02  0.80007356391E+02  0.00000000000E+00 0.  1.
         11    1    1    2    0    0  0.50081589040E+01  0.34586725227E+02  0.94252102032E+01  0.36196102068E+02  0.00000000000E+00 0. -1.
</event>
<event>
 7    1  0.7017065E-006  0.1084153E+03  0.7561462E-02  0.1263533E+00
          2   -1    0    0  501    0  0.00000000000E+00  0.00000000000E+00  0.32011496247E+02  0.32011496247E+02  0.00000000000E+00 0. -1.
         -2   -1    0    0    0  501 -0.00000000000E+00 -0.00000000000E+00 -0.56055856653E+03  0.56055856653E+03  0.00000000000E+00 0.  1.
         23    2    1    2    0    0  0.64031190858E+01 -0.77230375944E+02 -0.31898823615E+03  0.35129228160E+03  0.12508893399E+03 0.  0.
          5    1    3    3  502    0 -0.32597956101E+02 -0.91757432110E+02 -0.26899785056E+03  0.28611076368E+03  0.41800000000E+01 0. -1.
         -5    1    3    3    0  502  0.39001075186E+02  0.14527056166E+02 -0.49990385597E+02  0.65181517923E+02  0.41800000000E+01 0. -1.
        -11    1    1    2    0    0 -0.44211565780E+01  0.37961204574E+02 -0.19599267558E+03  0.19968407188E+03  0.00000000000E+00 0.  1.
         11    1    1    2    0    0 -0.19819625077E+01  0.39269171369E+02 -0.13566158541E+02  0.41593709296E+02  0.00000000000E+00 0. -1.
</event>
<event>
 7    1  0.7017065E-006  0.3653237E+03  0.7561462E-02  0.1056496E+00
          2   -1    0    0  501    0  0.00000000000E+00  0.00000000000E+00  0.60185396686E+03  0.60185396686E+03  0.00000000000E+00 0.  1.
         -2   -1    0    0    0  501 -0.00000000000E+00 -0.00000000000E+00 -0.28121366643E+03  0.28121366643E+03  0.00000000000E+00 0. -1.
         23    2    1    2    0    0  0.34309921927E+03 -0.93985022562E+02 -0.25860142294E+02  0.37797634686E+03  0.12508842111E+03 0.  0.
          5    1    3    3  502    0  0.97572689075E+02  0.10081563603E+02 -0.50006080331E+02  0.11018234000E+03  0.41800000000E+01 0.  1.
         -5    1    3    3    0  502  0.24552653020E+03 -0.10406658617E+03  0.24145938037E+02  0.26779400686E+03  0.41800000000E+01 0.  1.
        -11    1    1    2    0    0 -0.20474382369E+03  0.12343241060E+02  0.21844494556E+03  0.29965076869E+03  0.00000000000E+00 0.  1.
         11    1    1    2    0    0 -0.13835539559E+03  0.81641781502E+02  0.12805549716E+03  0.20544051774E+03  0.00000000000E+00 0. -1.
</event>
<event>
 7    1  0.7017065E-006  0.8939259E+02  0.7561462E-02  0.1304329E+00
          2   -1    0    0  501    0  0.00000000000E+00  0.00000000000E+00  0.22944773739E+02  0.22944773739E+02  0.00000000000E+00 0. -1.
         -2   -1    0    0    0  501 -0.00000000000E+00 -0.00000000000E+00 -0.70142564037E+03  0.70142564037E+03  0.00000000000E+00 0.  1.
         23    2    1    2    0    0 -0.36291531805E+02 -0.43567385330E+02 -0.47656468142E+03  0.49596126721E+03  0.12509392733E+03 0.  0.
          5    1    3    3  502    0  0.20869692135E+02 -0.14071974602E+02 -0.14350302962E+02  0.29274017731E+02  0.41800000000E+01 0.  1.
         -5    1    3    3    0  502 -0.57161223940E+02 -0.29495410728E+02 -0.46221437845E+03  0.46668724948E+03  0.41800000000E+01 0.  1.
        -11    1    1    2    0    0 -0.81490968745E+01  0.43616167326E+02 -0.16429967466E+03  0.17018566604E+03  0.00000000000E+00 0.  1.
         11    1    1    2    0    0  0.44440628679E+02 -0.48781996332E-01 -0.37616510554E+02  0.58223480859E+02  0.00000000000E+00 0. -1.
</event>
<event>
 7    1  0.7017065E-006  0.1042886E+03  0.7561462E-02  0.1271528E+00
         -2   -1    0    0    0  501 -0.00000000000E+00  0.00000000000E+00  0.20529427686E+02  0.20529427686E+02  0.00000000000E+00 0.  1.
          2   -1    0    0  501    0  0.00000000000E+00 -0.00000000000E+00 -0.63647563347E+03  0.63647563347E+03  0.00000000000E+00 0. -1.
         23    2    1    2    0    0  0.67424254145E+01 -0.34614002046E+02 -0.31791553685E+03  0.34345468742E+03  0.12508894557E+03 0.  0.
          5    1    3    3  502    0 -0.30427122601E+02  0.34773551295E+02 -0.76223202746E+02  0.89232610050E+02  0.41800000000E+01 0. -1.
         -5    1    3    3    0  502  0.37169548016E+02 -0.69387553341E+02 -0.24169233410E+03  0.25422207737E+03  0.41800000000E+01 0. -1.
        -11    1    1    2    0    0 -0.38537477610E+02  0.32178068930E+01 -0.60146415922E+02  0.71505823609E+02  0.00000000000E+00 0.  1.
         11    1    1    2    0    0  0.31795052195E+02  0.31396195153E+02 -0.23788425302E+03  0.24204455013E+03  0.00000000000E+00 0. -1.
</event>
<event>
 7    1  0.7017065E-006  0.1313433E+03  0.7561462E-02  0.1225476E+00
         -2   -1    0    0    0  501 -0.00000000000E+00  0.00000000000E+00  0.29526410118E+03  0.29526410118E+03  0.00000000000E+00 0. -1.
          2   -1    0    0  501    0  0.00000000000E+00 -0.00000000000E+00 -0.11671807746E+03  0.11671807746E+03  0.00000000000E+00 0.  1.
         23    2    1    2    0    0 -0.10299643790E+03  0.23180567962E+02  0.21247712080E+03  0.26821962575E+03  0.12509850448E+03 0.  0.
          5    1    3    3  502    0 -0.97679398436E+02 -0.18786706481E+02  0.75927849157E+02  0.12520669270E+03  0.41800000000E+01 0. -1.
         -5    1    3    3    0  502 -0.53170394603E+01  0.41967274443E+02  0.13654927165E+03  0.14301293305E+03  0.41800000000E+01 0. -1.
        -11    1    1    2    0    0  0.24976468956E+02 -0.33644339424E+02 -0.48086437466E+02  0.63781431820E+02  0.00000000000E+00 0.  1.
         11    1    1    2    0    0  0.78019968940E+02  0.10463771463E+02  0.14155340386E+02  0.79981121073E+02  0.00000000000E+00 0. -1.
</event>
<event>
 7    1  0.7017065E-006  0.8634976E+02  0.7561462E-02  0.1311940E+00
         -1   -1    0    0    0  501 -0.00000000000E+00  0.00000000000E+00  0.77286954777E+02  0.77286954777E+02  0.00000000000E+00 0.  1.
          1   -1    0    0  501    0  0.00000000000E+00 -0.00000000000E+00 -0.19483886260E+03  0.19483886260E+03  0.00000000000E+00 0. -1.
         23    2    1    2    0    0  0.65446618466E+01  0.11307940685E+02  0.64904353477E+00  0.12576841484E+03  0.12508625341E+03 0.  0.
          5    1    3    3  502    0  0.38934290915E+02  0.40703914522E+02 -0.37319334743E+02  0.67697066496E+02  0.41800000000E+01 0.  1.
         -5    1    3    3    0  502 -0.32389629069E+02 -0.29395973837E+02  0.37968378278E+02  0.58071348341E+02  0.41800000000E+01 0.  1.
        -11    1    1    2    0    0  0.25703000234E+02 -0.26249039382E+02 -0.19797566294E+02  0.41732480404E+02  0.00000000000E+00 0.  1.
         11    1    1    2    0    0 -0.32247662080E+02  0.14941098697E+02 -0.98403385069E+02  0.10462492214E+03  0.00000000000E+00 0. -1.
</event>
<event>
 7    1  0.7017065E-006  0.1494670E+03  0.7561462E-02  0.1201129E+00
         -1   -1    0    0    0  501 -0.00000000000E+00  0.00000000000E+00  0.14719349334E+03  0.14719349334E+03  0.00000000000E+00 0.  1.
          1   -1    0    0  501    0  0.00000000000E+00 -0.00000000000E+00 -0.35571398386E+03  0.35571398386E+03  0.00000000000E+00 0. -1.
         23    2    1    2    0    0  0.92482169030E+02 -0.11024683066E+03  0.47246804788E+02  0.19643505348E+03  0.12508858627E+03 0.  0.
          5    1    3    3  502    0  0.39222069757E+02 -0.89710870850E+01  0.68905591080E+02  0.79901840039E+02  0.41800000000E+01 0. -1.
         -5    1    3    3    0  502  0.53260099273E+02 -0.10127574357E+03 -0.21658786292E+02  0.11653321344E+03  0.41800000000E+01 0. -1.
        -11    1    1    2    0    0 -0.36797109668E+02  0.40258296704E+02 -0.27031316440E+02  0.60872405915E+02  0.00000000000E+00 0.  1.
         11    1    1    2    0    0 -0.55685059362E+02  0.69988533956E+02 -0.22873597887E+03  0.24560001781E+03  0.00000000000E+00 0. -1.
</event>
<event>
 7    1  0.7017065E-006  0.1210655E+03  0.7561462E-02  0.1241350E+00
         -1   -1    0    0    0  501 -0.00000000000E+00  0.00000000000E+00  0.45505106591E+02  0.45505106591E+02  0.00000000000E+00 0.  1.
          1   -1    0    0  501    0  0.00000000000E+00 -0.00000000000E+00 -0.32542897173E+03  0.32542897173E+03  0.00000000000E+00 0. -1.
         23    2    1    2    0    0  0.29910864728E+02 -0.42772504754E+02 -0.16100834490E+03  0.21046200022E+03  0.12508564832E+03 0.  0.
          5    1    3    3  502    0  0.67237217953E+02  0.12299279619E+02 -0.73535102242E+02  0.10048382665E+03  0.41800000000E+01 0. -1.
         -5    1    3    3    0  502 -0.37326353225E+02 -0.55071784373E+02 -0.87473242656E+02  0.10997817356E+03  0.41800000000E+01 0. -1.
        -11    1    1    2    0    0 -0.50420335299E+02  0.61285540860E+02 -0.96155259308E+02  0.12467542510E+03  0.00000000000E+00 0. -1.
         11    1    1    2    0    0  0.20509470571E+02 -0.18513036106E+02 -0.22760260934E+02  0.35796653010E+02  0.00000000000E+00 0.  1.
</event>
<event>
 7    1  0.7017065E-006  0.1389766E+03  0.7561462E-02  0.1214713E+00
         -3   -1    0    0    0  501 -0.00000000000E+00  0.00000000000E+00  0.36666324329E+03  0.36666324329E+03  0.00000000000E+00 0.  1.
          3   -1    0    0  501    0  0.00000000000E+00 -0.00000000000E+00 -0.79320678845E+02  0.79320678845E+02  0.00000000000E+00 0. -1.
         23    2    1    2    0    0  0.45632068846E+02  0.90587525561E+02  0.26182011947E+03  0.30738428165E+03  0.12508771384E+03 0.  0.
          5    1    3    3  502    0  0.46028785374E+02 -0.11828016269E+02  0.37250497527E+02  0.60527869762E+02  0.41800000000E+01 0.  1.
         -5    1    3    3    0  502 -0.39671652793E+00  0.10241554183E+03  0.22456962194E+03  0.24685641189E+03  0.41800000000E+01 0.  1.
        -11    1    1    2    0    0 -0.30075862281E+02  0.53546506329E+01  0.27904935297E+02  0.41375296848E+02  0.00000000000E+00 0.  1.
         11    1    1    2    0    0 -0.15556206565E+02 -0.95942176194E+02 -0.23824903178E+01  0.97224343637E+02  0.00000000000E+00 0. -1.
</event>
<event>
 7    1  0.7017065E-006  0.2431520E+03  0.7561462E-02  0.1117711E+00
          1   -1    0    0  501    0  0.00000000000E+00  0.00000000000E+00  0.71201575427E+02  0.71201575427E+02  0.00000000000E+00 0. -1.
         -1   -1    0    0    0  501 -0.00000000000E+00 -0.00000000000E+00 -0.87393461005E+03  0.87393461005E+03  0.00000000000E+00 0.  1.
         23    2    1    2    0    0  0.85540640883E+02  0.20704400633E+03 -0.40553082074E+03  0.47987039410E+03  0.12504369942E+03 0.  0.
          5    1    3    3  502    0 -0.32166215928E+02  0.59355097869E+02 -0.10491365204E+03  0.12482804122E+03  0.41800000000E+01 0. -1.
         -5    1    3    3    0  502  0.11770685681E+03  0.14768890846E+03 -0.30061716870E+03  0.35504235288E+03  0.41800000000E+01 0. -1.
        -11    1    1    2    0    0 -0.90880483396E+00 -0.60704243465E+02 -0.48349695759E+02  0.77611366312E+02  0.00000000000E+00 0. -1.
         11    1    1    2    0    0 -0.84631836049E+02 -0.14633976287E+03 -0.34885251813E+03  0.38765442506E+03  0.00000000000E+00 0.  1.
</event>
<event>
 7    1  0.7017065E-006  0.1140849E+03  0.7561462E-02  0.1253187E+00
          2   -1    0    0  501    0  0.00000000000E+00  0.00000000000E+00  0.32391143167E+03  0.32391143167E+03  0.00000000000E+00 0. -1.
         -2   -1    0    0    0  501 -0.00000000000E+00 -0.00000000000E+00 -0.58971651418E+02  0.58971651418E+02  0.00000000000E+00 0.  1.
         23    2    1    2    0    0 -0.19295828261E+02 -0.51207288796E+02  0.56152019575E+02  0.14763177032E+03  0.12509026698E+03 0.  0.
          5    1    3    3  502    0  0.45943142466E+02 -0.51190880114E+02  0.15444362774E+02  0.70620671818E+02  0.41800000000E+01 0.  1.
         -5    1    3    3    0  502 -0.65238970727E+02 -0.16408682388E-01  0.40707656802E+02  0.77011098506E+02  0.41800000000E+01 0.  1.
        -11    1    1    2    0    0 -0.61948313492E+01 -0.18581752857E+02  0.10952066233E+03  0.11125840621E+03  0.00000000000E+00 0. -1.
         11    1    1    2    0    0  0.25490659610E+02  0.69789041653E+02  0.99267098349E+02  0.12399290656E+03  0.00000000000E+00 0.  1.
</event>
<event>
 7    1  0.7017065E-006  0.8842144E+02  0.7561462E-02  0.1306720E+00
          2   -1    0    0  501    0  0.00000000000E+00  0.00000000000E+00  0.68727792112E+03  0.68727792112E+03  0.00000000000E+00 0. -1.
         -2   -1    0    0    0  501 -0.00000000000E+00 -0.00000000000E+00 -0.22325900985E+02  0.22325900985E+02  0.00000000000E+00 0.  1.
         23    2    1    2    0    0 -0.19820969750E+02 -0.45709926279E+02  0.28510928654E+03  0.31558961704E+03  0.12580633096E+03 0.  0.
          5    1    3    3  502    0 -0.10667673815E+02 -0.60175735875E+02  0.29071452157E+03  0.29709817217E+03  0.41800000000E+01 0. -1.
         -5    1    3    3    0  502 -0.91532959345E+01  0.14465809596E+02 -0.56052350299E+01  0.18491444872E+02  0.41800000000E+01 0.  1.
        -11    1    1    2    0    0  0.52105925939E+02  0.17136881962E+02  0.27901904128E+03  0.28435950070E+03  0.00000000000E+00 0. -1.
         11    1    1    2    0    0 -0.32284956189E+02  0.28573044316E+02  0.10082369231E+03  0.10965470436E+03  0.00000000000E+00 0.  1.
</event>
<event>
 7    1  0.7017065E-006  0.1317378E+03  0.7561462E-02  0.1224900E+00
         -3   -1    0    0    0  501 -0.00000000000E+00  0.00000000000E+00  0.22400136563E+03  0.22400136563E+03  0.00000000000E+00 0.  1.
          3   -1    0    0  501    0  0.00000000000E+00 -0.00000000000E+00 -0.11902771858E+03  0.11902771858E+03  0.00000000000E+00 0. -1.
         23    2    1    2    0    0  0.88157483610E+02  0.84632318305E+02  0.10010174454E+03  0.20149965436E+03  0.12508948889E+03 0.  0.
          5    1    3    3  502    0  0.85216550894E+02  0.69895507445E+02  0.12835132165E+03  0.16922995206E+03  0.41800000000E+01 0.  1.
         -5    1    3    3    0  502  0.29409327163E+01  0.14736810860E+02 -0.28249577109E+02  0.32269702298E+02  0.41800000000E+01 0.  1.
        -11    1    1    2    0    0 -0.40387623653E+01 -0.43965754474E+02  0.17003869803E+02  0.47312057196E+02  0.00000000000E+00 0.  1.
         11    1    1    2    0    0 -0.84118721245E+02 -0.40666563831E+02 -0.12131967291E+02  0.94217372645E+02  0.00000000000E+00 0. -1.
</event>
<event>
 7    1  0.7017065E-006  0.1350357E+03  0.7561462E-02  0.1220169E+00
          1   -1    0    0  501    0  0.00000000000E+00  0.00000000000E+00  0.17105508788E+03  0.17105508788E+03  0.00000000000E+00 0. -1.
         -1   -1    0    0    0  501 -0.00000000000E+00 -0.00000000000E+00 -0.15434133537E+03  0.15434133537E+03  0.00000000000E+00 0.  1.
         23    2    1    2    0    0 -0.56150905772E+02 -0.90228493654E+02 -0.48181429347E+02  0.17106277778E+03  0.12508764336E+03 0.  0.
          5    1    3    3  502    0 -0.24117961078E+02 -0.11824580743E+03 -0.28943674248E+02  0.12417308767E+03  0.41800000000E+01 0.  1.
         -5    1    3    3    0  502 -0.32032944694E+02  0.28017313781E+02 -0.19237755099E+02  0.46889690109E+02  0.41800000000E+01 0.  1.
        -11    1    1    2    0    0  0.26495383145E+02  0.49911697622E+02  0.83597493899E+02  0.10090452851E+03  0.00000000000E+00 0. -1.
         11    1    1    2    0    0  0.29655522627E+02  0.40316796032E+02 -0.18702312041E+02  0.53429116971E+02  0.00000000000E+00 0.  1.
</event>
<event>
 7    1  0.7017065E-006  0.8407013E+02  0.7561462E-02  0.1317882E+00
          1   -1    0    0  501    0  0.00000000000E+00  0.00000000000E+00  0.18031372055E+02  0.18031372055E+02  0.00000000000E+00 0. -1.
         -1   -1    0    0    0  501 -0.00000000000E+00 -0.00000000000E+00 -0.73476728205E+03  0.73476728205E+03  0.00000000000E+00 0.  1.
         23    2    1    2    0    0 -0.14880221069E+02  0.12394803679E+02 -0.51251126386E+03  0.52791249962E+03  0.12509500201E+03 0.  0.
          5    1    3    3  502    0  0.15973305717E+02  0.34810785425E+02 -0.46778811914E+02  0.60602532303E+02  0.41800000000E+01 0. -1.
         -5    1    3    3    0  502 -0.30853526786E+02 -0.22415981746E+02 -0.46573245195E+03  0.46730996732E+03  0.41800000000E+01 0. -1.
        -11    1    1    2    0    0  0.20095818689E+02 -0.49684317892E+02 -0.14621684656E+03  0.15572970042E+03  0.00000000000E+00 0.  1.
         11    1    1    2    0    0 -0.52155976197E+01  0.37289514213E+02 -0.58007799565E+02  0.69156454068E+02  0.00000000000E+00 0. -1.
</event>
<event>
 7    1  0.7017065E-006  0.9420398E+02  0.7561462E-02  0.1292979E+00
          1   -1    0    0  501    0  0.00000000000E+00  0.00000000000E+00  0.49392245601E+03  0.49392245601E+03  0.00000000000E+00 0. -1.
         -1   -1    0    0    0  501 -0.00000000000E+00 -0.00000000000E+00 -0.26174342490E+02  0.26174342490E+02  0.00000000000E+00 0.  1.
         23    2    1    2    0    0 -0.16104205966E+02  0.40113125120E+02  0.25723612671E+03  0.28648687392E+03  0.11847318595E+03 0.  0.
          5    1    3    3  502    0 -0.28040089030E+02 -0.28055037180E+02  0.32967686805E+02  0.51746231527E+02  0.41800000000E+01 0. -1.
         -5    1    3    3    0  502  0.11935883065E+02  0.68168162300E+02  0.22426843990E+03  0.23474064239E+03  0.41800000000E+01 0.  1.
        -11    1    1    2    0    0  0.13977478784E+02  0.17017278190E+02  0.84025486143E+01  0.23570330786E+02  0.00000000000E+00 0.  1.
         11    1    1    2    0    0  0.21267271814E+01 -0.57130403310E+02  0.20210943820E+03  0.21003959379E+03  0.00000000000E+00 0. -1.
</event>
<event>
 7    1  0.7017065E-006  0.8927993E+02  0.7561462E-02  0.1304605E+00
          1   -1    0    0  501    0  0.00000000000E+00  0.00000000000E+00  0.32980210843E+03  0.32980210843E+03  0.00000000000E+00 0. -1.
         -1   -1    0    0    0  501 -0.00000000000E+00 -0.00000000000E+00 -0.50335399084E+02  0.50335399084E+02  0.00000000000E+00 0.  1.
         23    2    1    2    0    0 -0.45596363919E+02  0.38134893704E+02  0.11423886528E+03  0.17953065841E+03  0.12508972958E+03 0.  0.
          5    1    3    3  502    0 -0.30532291702E+02  0.67053471578E+02  0.12481392492E+03  0.14499785220E+03  0.41800000000E+01 0. -1.
         -5    1    3    3    0  502 -0.15064072217E+02 -0.28918577874E+02 -0.10575059647E+02  0.34532806207E+02  0.41800000000E+01 0. -1.
        -11    1    1    2    0    0 -0.65571270619E+01 -0.11717765904E+02 -0.94406089939E+01  0.16414233192E+02  0.00000000000E+00 0.  1.
         11    1    1    2    0    0  0.52153490981E+02 -0.26417127800E+02  0.17466845306E+03  0.18419261591E+03  0.00000000000E+00 0. -1.
</event>
<event>
 7    1  0.7017065E-006  0.1403936E+03  0.7561462E-02  0.1212800E+00
         -2   -1    0    0    0  501 -0.00000000000E+00  0.00000000000E+00  0.59226451089E+02  0.59226451089E+02  0.00000000000E+00 0.  1.
          2   -1    0    0  501    0  0.00000000000E+00 -0.00000000000E+00 -0.37923389788E+03  0.37923389788E+03  0.00000000000E+00 0. -1.
         23    2    1    2    0    0 -0.21950102867E+02  0.97617322485E+02 -0.12635852881E+03  0.20402283362E+03  0.12509152717E+03 0.  0.
          5    1    3    3  502    0 -0.32722094724E+02  0.12137771056E+03 -0.12535940683E+03  0.17758304363E+03  0.41800000000E+01 0.  1.
         -5    1    3    3    0  502  0.10771991857E+02 -0.23760388074E+02 -0.99912197641E+00  0.26439789990E+02  0.41800000000E+01 0.  1.
        -11    1    1    2    0    0  0.43323687969E+02 -0.19342994591E+02 -0.98911886329E+02  0.10970257352E+03  0.00000000000E+00 0.  1.
         11    1    1    2    0    0 -0.21373585102E+02 -0.78274327894E+02 -0.94737031655E+02  0.12473494183E+03  0.00000000000E+00 0. -1.
</event>
<event>
 7    1  0.7017065E-006  0.8489795E+02  0.7561462E-02  0.1315700E+00
         -2   -1    0    0    0  501 -0.00000000000E+00  0.00000000000E+00  0.55099658108E+02  0.55099658108E+02  0.00000000000E+00 0.  1.
          2   -1    0    0  501    0  0.00000000000E+00 -0.00000000000E+00 -0.26699337320E+03  0.26699337320E+03  0.00000000000E+00 0. -1.
         23    2    1    2    0    0  0.15524725390E+02 -0.57515739394E+01 -0.73101213654E+02  0.14582672405E+03  0.12509016072E+03 0.  0.
          5    1    3    3  502    0  0.29022372957E+02 -0.24302327519E+02  0.24628466421E+02  0.45353445438E+02  0.41800000000E+01 0.  1.
         -5    1    3    3    0  502 -0.13497647566E+02  0.18550753580E+02 -0.97729680075E+02  0.10047327862E+03  0.41800000000E+01 0.  1.
        -11    1    1    2    0    0 -0.61834559835E+02  0.10324786211E+01 -0.73053534654E+02  0.95715190683E+02  0.00000000000E+00 0.  1.
         11    1    1    2    0    0  0.46309834445E+02  0.47190953183E+01 -0.65738966781E+02  0.80551116568E+02  0.00000000000E+00 0. -1.
</event>
<event>
 7    1  0.7017065E-006  0.9919734E+02  0.7561462E-02  0.1281993E+00
          2   -1    0    0  501    0  0.00000000000E+00  0.00000000000E+00  0.32177963219E+03  0.32177963219E+03  0.00000000000E+00 0. -1.
         -2   -1    0    0    0  501 -0.00000000000E+00 -0.00000000000E+00 -0.41394116879E+02  0.41394116879E+02  0.00000000000E+00 0.  1.
         23    2    1    2    0    0  0.27002206807E+02  0.32706657682E+02  0.16545523419E+03  0.21171673155E+03  0.12509874207E+03 0.  0.
          5    1    3    3  502    0  0.55145785285E+02  0.44223517484E+02  0.16657518322E+03  0.18100149502E+03  0.41800000000E+01 0. -1.
         -5    1    3    3    0  502 -0.28143578479E+02 -0.11516859802E+02 -0.11199490338E+01  0.30715236531E+02  0.41800000000E+01 0. -1.
        -11    1    1    2    0    0  0.30689473927E+02 -0.24354358126E+00  0.50410161119E+02  0.59017687750E+02  0.00000000000E+00 0. -1.
         11    1    1    2    0    0 -0.57691680734E+02 -0.32463114100E+02  0.64520120005E+02  0.92439329770E+02  0.00000000000E+00 0.  1.
</event>
<event>
 7    1  0.7017065E-006  0.1189407E+03  0.7561462E-02  0.1244855E+00
          2   -1    0    0  501    0  0.00000000000E+00  0.00000000000E+00  0.25164061625E+03  0.25164061625E+03  0.00000000000E+00 0. -1.
         -2   -1    0    0    0  501 -0.00000000000E+00 -0.00000000000E+00 -0.71399082265E+02  0.71399082265E+02  0.00000000000E+00 0.  1.
         23    2    1    2    0    0 -0.68165939986E+02 -0.23050840364E+02  0.66116001319E+02  0.15872984636E+03  0.12508357957E+03 0.  0.
          5    1    3    3  502    0 -0.45436963836E+02  0.35689486020E+02  0.75233746674E+02  0.94951809533E+02  0.41800000000E+01 0. -1.
         -5    1    3    3    0  502 -0.22728976151E+02 -0.58740326385E+02 -0.91177453550E+01  0.63778036823E+02  0.41800000000E+01 0. -1.
        -11    1    1    2    0    0 -0.16620693243E+02 -0.16368547649E+02  0.33647493073E+02  0.40943016329E+02  0.00000000000E+00 0. -1.
         11    1    1    2    0    0  0.84786633229E+02  0.39419388014E+02  0.80478039588E+02  0.12336683583E+03  0.00000000000E+00 0.  1.
</event>
<event>
 7    1  0.7017065E-006  0.6816548E+02  0.7561462E-02  0.1366445E+00
          2   -1    0    0  501    0  0.00000000000E+00  0.00000000000E+00  0.38392599356E+03  0.38392599356E+03  0.00000000000E+00 0.  1.
         -2   -1    0    0    0  501 -0.00000000000E+00 -0.00000000000E+00 -0.32878518916E+02  0.32878518916E+02  0.00000000000E+00 0. -1.
         23    2    1    2    0    0 -0.28984162074E+02  0.64018634143E+01  0.19718446925E+03  0.23539706202E+03  0.12509594873E+03 0.  0.
          5    1    3    3  502    0 -0.35974635885E+02 -0.55399284666E+01 -0.10337258798E+01  0.36652506376E+02  0.41800000000E+01 0.  1.
         -5    1    3    3    0  502  0.69904738106E+01  0.11941791881E+02  0.19821819513E+03  0.19874455564E+03  0.41800000000E+01 0.  1.
        -11    1    1    2    0    0  0.42083244504E+02 -0.34382582201E+02  0.13420129193E+03  0.14478656078E+03  0.00000000000E+00 0.  1.
         11    1    1    2    0    0 -0.13099082429E+02  0.27980718786E+02  0.19661713461E+02  0.36620889674E+02  0.00000000000E+00 0. -1.
</event>
<event>
 7    1  0.7017065E-006  0.1182719E+03  0.7561462E-02  0.1245975E+00
          2   -1    0    0  501    0  0.00000000000E+00  0.00000000000E+00  0.72907247253E+03  0.72907247253E+03  0.00000000000E+00 0. -1.
         -2   -1    0    0    0  501 -0.00000000000E+00 -0.00000000000E+00 -0.21343999463E+02  0.21343999463E+02  0.00000000000E+00 0.  1.
         23    2    1    2    0    0  0.62374065037E+02 -0.82555868552E+00  0.43717223077E+03  0.45897625304E+03  0.12509370871E+03 0.  0.
          5    1    3    3  502    0 -0.38408559473E+02  0.30594681821E+01  0.11427855438E+03  0.12067161297E+03  0.41800000000E+01 0.  1.
         -5    1    3    3    0  502  0.10078262451E+03 -0.38850268676E+01  0.32289367639E+03  0.33830464007E+03  0.41800000000E+01 0.  1.
        -11    1    1    2    0    0 -0.11507472861E+01  0.29299826771E+02  0.15376213547E+03  0.15653305841E+03  0.00000000000E+00 0.  1.
         11    1    1    2    0    0 -0.61223317750E+02 -0.28474268086E+02  0.11679410683E+03  0.13490716055E+03  0.00000000000E+00 0. -1.
</event>
<event>
 7    1  0.7017065E-006  0.2483592E+03  0.7561462E-02  0.1114346E+00
         -2   -1    0    0    0  501 -0.00000000000E+00  0.00000000000E+00  0.93792660323E+02  0.93792660323E+02  0.00000000000E+00 0.  1.
          2   -1    0    0  501    0  0.00000000000E+00 -0.00000000000E+00 -0.97653223180E+03  0.97653223180E+03  0.00000000000E+00 0. -1.
         23    2    1    2    0    0 -0.16784407136E+03 -0.17637159353E+03 -0.19951052343E+03  0.33871938956E+03  0.12509118516E+03 0.  0.
          5    1    3    3  502    0 -0.94998475898E+02 -0.62854726240E+02 -0.22580630326E+02  0.11620148149E+03  0.41800000000E+01 0. -1.
         -5    1    3    3    0  502 -0.72845595466E+02 -0.11351686729E+03 -0.17692989310E+03  0.22251790807E+03  0.41800000000E+01 0. -1.
        -11    1    1    2    0    0  0.11533747515E+03  0.88320877849E+02 -0.51027793813E+03  0.53055337599E+03  0.00000000000E+00 0. -1.
         11    1    1    2    0    0  0.52506596214E+02  0.88050715680E+02 -0.17295110992E+03  0.20105212657E+03  0.00000000000E+00 0.  1.
</event>
<event>
 7    1  0.7017065E-006  0.2131434E+03  0.7561462E-02  0.1139101E+00
         -1   -1    0    0    0  501 -0.00000000000E+00  0.00000000000E+00  0.34862358030E+03  0.34862358030E+03  0.00000000000E+00 0.  1.
          1   -1    0    0  501    0  0.00000000000E+00 -0.00000000000E+00 -0.15945796518E+03  0.15945796518E+03  0.00000000000E+00 0. -1.
         23    2    1    2    0    0 -0.11419753177E+03 -0.17483416090E+03  0.10069041853E+03  0.26342816686E+03  0.12509108134E+03 0.  0.
          5    1    3    3  502    0 -0.14448485139E+02 -0.49276399251E+02 -0.27213179451E+02  0.58266214754E+02  0.41800000000E+01 0. -1.
         -5    1    3    3    0  502 -0.99749046631E+02 -0.12555776165E+03  0.12790359798E+03  0.20516195211E+03  0.41800000000E+01 0. -1.
        -11    1    1    2    0    0  0.63618869249E+02  0.54312848188E+02  0.76578957212E+02  0.11340891804E+03  0.00000000000E+00 0.  1.
         11    1    1    2    0    0  0.50578662521E+02  0.12052131271E+03  0.11896239375E+02  0.13124446058E+03  0.00000000000E+00 0. -1.
</event>
<event>
 7    1  0.7017065E-006  0.1135977E+03  0.7561462E-02  0.1254049E+00
          1   -1    0    0  501    0  0.00000000000E+00  0.00000000000E+00  0.21893508648E+02  0.21893508648E+02  0.00000000000E+00 0. -1.
         -1   -1    0    0    0  501 -0.00000000000E+00 -0.00000000000E+00 -0.69870871698E+03  0.69870871698E+03  0.00000000000E+00 0.  1.
         23    2    1    2    0    0 -0.49021513648E+02  0.23399659129E+02 -0.44220817122E+03  0.46276227368E+03  0.12510076900E+03 0.  0.
          5    1    3    3  502    0 -0.51793316065E+02 -0.44378010146E+02 -0.21335787802E+03  0.22403350617E+03  0.41800000000E+01 0.  1.
         -5    1    3    3    0  502  0.27718024171E+01  0.67777669275E+02 -0.22885029320E+03  0.23872876751E+03  0.41800000000E+01 0.  1.
        -11    1    1    2    0    0  0.61862380796E+01 -0.43248504327E+02 -0.18193384866E+03  0.18710592710E+03  0.00000000000E+00 0.  1.
         11    1    1    2    0    0  0.42835275569E+02  0.19848845198E+02 -0.52673188454E+02  0.70734024844E+02  0.00000000000E+00 0. -1.
</event>
<event>
 7    1  0.7017065E-006  0.1611555E+03  0.7561462E-02  0.1187398E+00
         -2   -1    0    0    0  501 -0.00000000000E+00  0.00000000000E+00  0.29699632142E+03  0.29699632142E+03  0.00000000000E+00 0.  1.
          2   -1    0    0  501    0  0.00000000000E+00 -0.00000000000E+00 -0.92503956916E+02  0.92503956916E+02  0.00000000000E+00 0. -1.
         23    2    1    2    0    0 -0.36416911332E+02 -0.11683890726E+03  0.14010350017E+03  0.22417310199E+03  0.12508823772E+03 0.  0.
          5    1    3    3  502    0  0.41612291122E+02 -0.18721259240E+02  0.18322520631E+02  0.49348307795E+02  0.41800000000E+01 0. -1.
         -5    1    3    3    0  502 -0.78029202454E+02 -0.98117648020E+02  0.12178097954E+03  0.17482479420E+03  0.41800000000E+01 0. -1.
        -11    1    1    2    0    0 -0.43597234218E+01  0.10954858428E+03  0.37184541452E+02  0.11576955398E+03  0.00000000000E+00 0. -1.
         11    1    1    2    0    0  0.40776634754E+02  0.72903229846E+01  0.27204322880E+02  0.49557622365E+02  0.00000000000E+00 0.  1.
</event>
<event>
 7    1  0.7017065E-006  0.8620516E+02  0.7561462E-02  0.1312311E+00
         -1   -1    0    0    0  501 -0.00000000000E+00  0.00000000000E+00  0.14230060788E+03  0.14230060788E+03  0.00000000000E+00 0.  1.
          1   -1    0    0  501    0  0.00000000000E+00 -0.00000000000E+00 -0.22575653601E+03  0.22575653601E+03  0.00000000000E+00 0. -1.
         23    2    1    2    0    0  0.19064584917E+02 -0.10012041763E+02  0.99764790200E+02  0.15914780166E+03  0.12211187507E+03 0.  0.
          5    1    3    3  502    0 -0.28845989678E+02  0.21343743952E+02 -0.80385913540E+01  0.37009969972E+02  0.41800000000E+01 0. -1.
         -5    1    3    3    0  502  0.47910574595E+02 -0.31355785715E+02  0.10780338155E+03  0.12213783169E+03  0.41800000000E+01 0.  1.
        -11    1    1    2    0    0 -0.44522902023E+02  0.23195811990E+02 -0.43963908401E+02  0.66731999373E+02  0.00000000000E+00 0.  1.
         11    1    1    2    0    0  0.25458317106E+02 -0.13183770227E+02 -0.13925680993E+03  0.14217734285E+03  0.00000000000E+00 0. -1.
</event>
<event>
 7    1  0.7017065E-006  0.2111662E+03  0.7561462E-02  0.1140646E+00
         -2   -1    0    0    0  501 -0.00000000000E+00  0.00000000000E+00  0.41981557266E+03  0.41981557266E+03  0.00000000000E+00 0.  1.
          2   -1    0    0  501    0  0.00000000000E+00 -0.00000000000E+00 -0.13951030772E+03  0.13951030772E+03  0.00000000000E+00 0. -1.
         23    2    1    2    0    0 -0.10404773929E+03  0.16741898098E+03  0.24686857610E+03  0.33977331297E+03  0.12508702211E+03 0.  0.
          5    1    3    3  502    0 -0.75170762179E+01 -0.87065854849E+01  0.73222798571E+02  0.74238545893E+02  0.41800000000E+01 0. -1.
         -5    1    3    3    0  502 -0.96530663067E+02  0.17612556646E+03  0.17364577753E+03  0.26553476708E+03  0.41800000000E+01 0. -1.
        -11    1    1    2    0    0  0.26242896370E+01 -0.65045638102E+02 -0.16291505750E+02  0.67106147944E+02  0.00000000000E+00 0.  1.
         11    1    1    2    0    0  0.10142344965E+03 -0.10237334288E+03  0.49728194581E+02  0.15244641946E+03  0.00000000000E+00 0. -1.
</event>
<event>
 7    1  0.7017065E-006  0.7698135E+02  0.7561462E-02  0.1337843E+00
          1   -1    0    0  501    0  0.00000000000E+00  0.00000000000E+00  0.45879110108E+03  0.45879110108E+03  0.00000000000E+00 0. -1.
         -1   -1    0    0    0  501 -0.00000000000E+00 -0.00000000000E+00 -0.26459876226E+02  0.26459876226E+02  0.00000000000E+00 0.  1.
         23    2    1    2    0    0 -0.16001741724E+01 -0.20865497663E+02  0.25521141385E+03  0.28498974918E+03  0.12509341240E+03 0.  0.
          5    1    3    3  502    0  0.28512976974E+02 -0.20863812050E+02  0.25190911317E+03  0.25440904506E+03  0.41800000000E+01 0. -1.
         -5    1    3    3    0  502 -0.30113151146E+02 -0.16856129369E-02  0.33023006850E+01  0.30580704122E+02  0.41800000000E+01 0. -1.
        -11    1    1    2    0    0  0.42843568963E+02  0.27351218285E+01  0.52927148544E+02  0.68149360569E+02  0.00000000000E+00 0.  1.
         11    1    1    2    0    0 -0.41243394791E+02  0.18130375835E+02  0.12419266245E+03  0.13211186756E+03  0.00000000000E+00 0. -1.
</event>
<event>
 7    1  0.7017065E-006  0.2815727E+03  0.7561462E-02  0.1094833E+00
          1   -1    0    0  501    0  0.00000000000E+00  0.00000000000E+00  0.67913755430E+03  0.67913755430E+03  0.00000000000E+00 0. -1.
         -1   -1    0    0    0  501 -0.00000000000E+00 -0.00000000000E+00 -0.13917290296E+03  0.13917290296E+03  0.00000000000E+00 0.  1.
         23    2    1    2    0    0 -0.27276820152E+03 -0.25357138158E+02  0.38925367360E+03  0.49215003196E+03  0.12509098821E+03 0.  0.
          5    1    3    3  502    0 -0.23586684762E+03 -0.33073858662E+02  0.38663800856E+03  0.45412935602E+03  0.41800000000E+01 0. -1.
         -5    1    3    3    0  502 -0.36901353901E+02  0.77167205040E+01  0.26156650316E+01  0.38020675936E+02  0.41800000000E+01 0. -1.
        -11    1    1    2    0    0  0.22455070324E+03  0.53957074563E+02  0.10439627452E+03  0.25344223475E+03  0.00000000000E+00 0.  1.
         11    1    1    2    0    0  0.48217498286E+02 -0.28599936405E+02  0.46314703217E+02  0.72718190554E+02  0.00000000000E+00 0. -1.
</event>
<event>
 7    1  0.7017065E-006  0.8911104E+02  0.7561462E-02  0.1305019E+00
         -2   -1    0    0    0  501 -0.00000000000E+00  0.00000000000E+00  0.11759162969E+03  0.11759162969E+03  0.00000000000E+00 0.  1.
          2   -1    0    0  501    0  0.00000000000E+00 -0.00000000000E+00 -0.10634101300E+03  0.10634101300E+03  0.00000000000E+00 0. -1.
         23    2    1    2    0    0 -0.12821279094E+02  0.22291746046E+02  0.25564122382E+02  0.13022172562E+03  0.12507144491E+03 0.  0.
          5    1    3    3  502    0  0.51787898962E+02 -0.91094522654E+01  0.24733442768E+02  0.58259627450E+02  0.41800000000E+01 0.  1.
         -5    1    3    3    0  502 -0.64609178056E+02  0.31401198311E+02  0.83067961380E+00  0.71962098170E+02  0.41800000000E+01 0.  1.
        -11    1    1    2    0    0  0.30267576397E+02 -0.89816072261E+01  0.30446663110E+02  0.43861084617E+02  0.00000000000E+00 0.  1.
         11    1    1    2    0    0 -0.17446297302E+02 -0.13310138819E+02 -0.44760168804E+02  0.49849832460E+02  0.00000000000E+00 0. -1.
</event>
<event>
 7    1  0.7017065E-006  0.1107113E+03  0.7561462E-02  0.1259258E+00
         -1   -1    0    0    0  501 -0.00000000000E+00  0.00000000000E+00  0.11480319744E+04  0.11480319744E+04  0.00000000000E+00 0.  1.
          1   -1    0    0  501    0  0.00000000000E+00 -0.00000000000E+00 -0.13504467338E+02  0.13504467338E+02  0.00000000000E+00 0. -1.
         23    2    1    2    0    0  0.52967747377E+02 -0.86637144675E+01  0.76345630654E+03  0.77549691024E+03  0.12509709659E+03 0.  0.
          5    1    3    3  502    0 -0.37277448419E+02 -0.18300981014E+02  0.16571350390E+03  0.17088877038E+03  0.41800000000E+01 0. -1.
         -5    1    3    3    0  502  0.90245195796E+02  0.96372665467E+01  0.59774280264E+03  0.60460813985E+03  0.41800000000E+01 0. -1.
        -11    1    1    2    0    0 -0.37145005136E+02  0.39469114928E+02  0.31855316353E+03  0.32313105768E+03  0.00000000000E+00 0.  1.
         11    1    1    2    0    0 -0.15822742241E+02 -0.30805400460E+02  0.52518036967E+02  0.62908473804E+02  0.00000000000E+00 0. -1.
</event>
<event>
 7    1  0.7017065E-006  0.9709786E+02  0.7561462E-02  0.1286520E+00
         -3   -1    0    0    0  501 -0.00000000000E+00  0.00000000000E+00  0.10156792464E+03  0.10156792464E+03  0.00000000000E+00 0.  1.
          3   -1    0    0  501    0  0.00000000000E+00 -0.00000000000E+00 -0.13786062496E+03  0.13786062496E+03  0.00000000000E+00 0. -1.
         23    2    1    2    0    0  0.13692484591E+02  0.99739020163E+01  0.24299338598E+02  0.12854949828E+03  0.12509017865E+03 0.  0.
          5    1    3    3  502    0  0.34385283048E+02 -0.38027001626E+02  0.48589484284E+02  0.70758822248E+02  0.41800000000E+01 0. -1.
         -5    1    3    3    0  502 -0.20692798458E+02  0.48000903643E+02 -0.24290145686E+02  0.57790676030E+02  0.41800000000E+01 0. -1.
        -11    1    1    2    0    0 -0.31235933017E+02 -0.42867201837E+02 -0.47986951999E+02  0.71526415169E+02  0.00000000000E+00 0. -1.
         11    1    1    2    0    0  0.17543448427E+02  0.32893299820E+02 -0.12605086920E+02  0.39352636151E+02  0.00000000000E+00 0.  1.
</event>
<event>
 7    1  0.7017065E-006  0.8440450E+02  0.7561462E-02  0.1316997E+00
         -2   -1    0    0    0  501 -0.00000000000E+00  0.00000000000E+00  0.44263749254E+03  0.44263749254E+03  0.00000000000E+00 0.  1.
          2   -1    0    0  501    0  0.00000000000E+00 -0.00000000000E+00 -0.34171217211E+02  0.34171217211E+02  0.00000000000E+00 0. -1.
         23    2    1    2    0    0  0.21077389884E+02  0.33819133779E+02  0.30857928378E+03  0.33534550366E+03  0.12508973688E+03 0.  0.
          5    1    3    3  502    0 -0.13138316809E+02  0.37297092725E+02  0.19663749022E+02  0.44360161405E+02  0.41800000000E+01 0.  1.
         -5    1    3    3    0  502  0.34215706693E+02 -0.34779589460E+01  0.28891553475E+03  0.29098534225E+03  0.41800000000E+01 0.  1.
        -11    1    1    2    0    0  0.28174156257E+02 -0.35252314215E+02  0.71638691465E+02  0.84667649389E+02  0.00000000000E+00 0.  1.
         11    1    1    2    0    0 -0.49251546141E+02  0.14331804363E+01  0.28248300084E+02  0.56795556702E+02  0.00000000000E+00 0. -1.
</event>
<event>
 7    1  0.7017065E-006  0.1171125E+03  0.7561462E-02  0.1247938E+00
          1   -1    0    0  501    0  0.00000000000E+00  0.00000000000E+00  0.17588539797E+03  0.17588539797E+03  0.00000000000E+00 0. -1.
         -1   -1    0    0    0  501 -0.00000000000E+00 -0.00000000000E+00 -0.12016899655E+03  0.12016899655E+03  0.00000000000E+00 0.  1.
         23    2    1    2    0    0  0.14597354527E+02  0.64688798987E+02 -0.42992173287E+02  0.14796481916E+03  0.12509011661E+03 0.  0.
          5    1    3    3  502    0  0.38247910315E+02  0.84493837709E+02 -0.61860720697E+02  0.11156313199E+03  0.41800000000E+01 0.  1.
         -5    1    3    3    0  502 -0.23650555788E+02 -0.19805038721E+02  0.18868547410E+02  0.36401687175E+02  0.41800000000E+01 0.  1.
        -11    1    1    2    0    0 -0.39006463543E+02 -0.74382735988E+02  0.71929413685E+02  0.11058090325E+03  0.00000000000E+00 0.  1.
         11    1    1    2    0    0  0.24409109016E+02  0.96939370008E+01  0.26779161030E+02  0.37508672104E+02  0.00000000000E+00 0. -1.
</event>
<event>
 7    1  0.7017065E-006  0.9158273E+02  0.7561462E-02  0.1299064E+00
          2   -1    0    0  501    0  0.00000000000E+00  0.00000000000E+00  0.10084819259E+04  0.10084819259E+04  0.00000000000E+00 0. -1.
         -2   -1    0    0    0  501 -0.00000000000E+00 -0.00000000000E+00 -0.12719499597E+02  0.12719499597E+02  0.00000000000E+00 0.  1.
         23    2    1    2    0    0  0.26221548008E+02  0.32932360091E+02  0.58520355114E+03  0.59990417644E+03  0.12509881983E+03 0.  0.
          5    1    3    3  502    0  0.19084396810E+02 -0.24241241501E+02  0.46997930118E+03  0.47100941385E+03  0.41800000000E+01 0.  1.
         -5    1    3    3    0  502  0.71371511974E+01  0.57173601591E+02  0.11522424996E+03  0.12889476259E+03  0.41800000000E+01 0.  1.
        -11    1    1    2    0    0 -0.22240285295E+02  0.26557354381E+02  0.13637425989E+03  0.14070487598E+03  0.00000000000E+00 0. -1.
         11    1    1    2    0    0 -0.39812627124E+01 -0.59489714472E+02  0.27418461523E+03  0.28059237304E+03  0.00000000000E+00 0.  1.
</event>
<event>
 7    1  0.7017065E-006  0.1463511E+03  0.7561462E-02  0.1205030E+00
         -2   -1    0    0    0  501 -0.00000000000E+00  0.00000000000E+00  0.40252108626E+02  0.40252108626E+02  0.00000000000E+00 0.  1.
          2   -1    0    0  501    0  0.00000000000E+00 -0.00000000000E+00 -0.69211756155E+03  0.69211756155E+03  0.00000000000E+00 0. -1.
         23    2    1    2    0    0 -0.65668922355E+02 -0.99121134951E+02 -0.25154833524E+03  0.30505961443E+03  0.12508955448E+03 0.  0.
          5    1    3    3  502    0 -0.10075422719E+03 -0.55799103358E+02 -0.18706143230E+03  0.21971437387E+03  0.41800000000E+01 0.  1.
         -5    1    3    3    0  502  0.35085304830E+02 -0.43322031592E+02 -0.64486902942E+02  0.85345240566E+02  0.41800000000E+01 0.  1.
        -11    1    1    2    0    0  0.56184609048E+02  0.63968516824E+02 -0.37077073158E+03  0.38042031601E+03  0.00000000000E+00 0. -1.
         11    1    1    2    0    0  0.94843133073E+01  0.35152618127E+02 -0.29546386105E+02  0.46889739730E+02  0.00000000000E+00 0.  1.
</event>
<event>
 7    1  0.7017065E-006  0.2027516E+03  0.7561462E-02  0.1147438E+00
         -2   -1    0    0    0  501 -0.00000000000E+00  0.00000000000E+00  0.23383455197E+03  0.23383455197E+03  0.00000000000E+00 0.  1.
          2   -1    0    0  501    0  0.00000000000E+00 -0.00000000000E+00 -0.33310894553E+03  0.33310894553E+03  0.00000000000E+00 0. -1.
         23    2    1    2    0    0 -0.16571701537E+03  0.83894998464E+02  0.12829348826E+03  0.25808184857E+03  0.12508605631E+03 0.  0.
          5    1    3    3  502    0 -0.17325655531E+03  0.64820481670E+02  0.72917594845E+02  0.19888181627E+03  0.41800000000E+01 0. -1.
         -5    1    3    3    0  502  0.75395399465E+01  0.19074516794E+02  0.55375893416E+02  0.59200032306E+02  0.41800000000E+01 0. -1.
        -11    1    1    2    0    0  0.10380458629E+03 -0.89917815958E+02 -0.11040548634E+03  0.17621003710E+03  0.00000000000E+00 0.  1.
         11    1    1    2    0    0  0.61912429075E+02  0.60228174939E+01 -0.11716239548E+03  0.13265161182E+03  0.00000000000E+00 0. -1.
</event>
<event>
 7    1  0.7017065E-006  0.1185921E+03  0.7561462E-02  0.1245438E+00
         -2   -1    0    0    0  501 -0.00000000000E+00  0.00000000000E+00  0.34649783414E+02  0.34649783414E+02  0.00000000000E+00 0. -1.
          2   -1    0    0  501    0  0.00000000000E+00 -0.00000000000E+00 -0.47614031902E+03  0.47614031902E+03  0.00000000000E+00 0.  1.
         23    2    1    2    0    0  0.39641211571E+02 -0.50527598557E+02 -0.26121440914E+03  0.29665685393E+03  0.12509139687E+03 0.  0.
          5    1    3    3  502    0 -0.98329020875E+01  0.27301031380E+02 -0.14652282627E+03  0.14942705008E+03  0.41800000000E+01 0. -1.
         -5    1    3    3    0  502  0.49474113659E+02 -0.77828629937E+02 -0.11469158286E+03  0.14722980384E+03  0.41800000000E+01 0. -1.
        -11    1    1    2    0    0 -0.71718358451E+02  0.37470328059E+02 -0.12738112865E+03  0.15090891412E+03  0.00000000000E+00 0.  1.
         11    1    1    2    0    0  0.32077146880E+02  0.13057270498E+02 -0.52894997825E+02  0.63224334395E+02  0.00000000000E+00 0. -1.
</event>
<event>
 7    1  0.7017065E-006  0.1446888E+03  0.7561462E-02  0.1207156E+00
         -1   -1    0    0    0  501 -0.00000000000E+00  0.00000000000E+00  0.30221574073E+02  0.30221574073E+02  0.00000000000E+00 0.  1.
          1   -1    0    0  501    0  0.00000000000E+00 -0.00000000000E+00 -0.86952277520E+03  0.86952277520E+03  0.00000000000E+00 0. -1.
         23    2    1    2    0    0  0.22248886196E+01 -0.11525333983E+03 -0.35500755670E+03  0.39365976954E+03  0.12509742752E+03 0.  0.
          5    1    3    3  502    0 -0.39545403446E+02 -0.10964855029E+03 -0.18697242070E+03  0.22036969396E+03  0.41800000000E+01 0. -1.
         -5    1    3    3    0  502  0.41770292066E+02 -0.56047895441E+01 -0.16803513600E+03  0.17329007558E+03  0.41800000000E+01 0. -1.
        -11    1    1    2    0    0  0.29106048836E+02  0.64185771076E+02 -0.14133543597E+03  0.15793251960E+03  0.00000000000E+00 0.  1.
         11    1    1    2    0    0 -0.31330937455E+02  0.51067568758E+02 -0.34295820846E+03  0.34815206013E+03  0.00000000000E+00 0. -1.
</event>
<event>
 7    1  0.7017065E-006  0.1127367E+03  0.7561462E-02  0.1255584E+00
          3   -1    0    0  501    0  0.00000000000E+00  0.00000000000E+00  0.20053818105E+03  0.20053818105E+03  0.00000000000E+00 0. -1.
         -3   -1    0    0    0  501 -0.00000000000E+00 -0.00000000000E+00 -0.12861036031E+03  0.12861036031E+03  0.00000000000E+00 0.  1.
         23    2    1    2    0    0 -0.59975955738E+02 -0.69645087379E+02 -0.38496176830E+02  0.15992757562E+03  0.12508924953E+03 0.  0.
          5    1    3    3  502    0 -0.41658391931E+02  0.76196925308E+01  0.32328924917E+02  0.53442615194E+02  0.41800000000E+01 0.  1.
         -5    1    3    3    0  502 -0.18317563807E+02 -0.77264779910E+02 -0.70825101747E+02  0.10648496042E+03  0.41800000000E+01 0.  1.
        -11    1    1    2    0    0  0.10980973888E+02  0.49032915931E+02  0.41786200302E+01  0.50420923212E+02  0.00000000000E+00 0.  1.
         11    1    1    2    0    0  0.48994981850E+02  0.20612171448E+02  0.10624537754E+03  0.11880004254E+03  0.00000000000E+00 0. -1.
</event>
<event>
 7    1  0.7017065E-006  0.1023064E+03  0.7561462E-02  0.1275519E+00
         -2   -1    0    0    0  501 -0.00000000000E+00  0.00000000000E+00  0.11637718368E+03  0.11637718368E+03  0.00000000000E+00 0.  1.
          2   -1    0    0  501    0  0.00000000000E+00 -0.00000000000E+00 -0.11911166575E+03  0.11911166575E+03  0.00000000000E+00 0. -1.
         23    2    1    2    0    0  0.34525064012E+02  0.16922816597E+02  0.22904741141E+02  0.13287628876E+03  0.12511242617E+03 0.  0.
          5    1    3    3  502    0  0.78546190310E+02  0.13829917260E+02 -0.57876501676E+01  0.80073340870E+02  0.41800000000E+01 0.  1.
         -5    1    3    3    0  502 -0.44021126298E+02  0.30928993376E+01  0.28692391309E+02  0.52802947890E+02  0.41800000000E+01 0.  1.
        -11    1    1    2    0    0 -0.14950356680E+02 -0.44306662164E+02  0.15678126511E+02  0.49319338275E+02  0.00000000000E+00 0.  1.
         11    1    1    2    0    0 -0.19574707332E+02  0.27383845566E+02 -0.41317349725E+02  0.53293222397E+02  0.00000000000E+00 0. -1.
</event>
<event>
 7    1  0.7017065E-006  0.1357498E+03  0.7561462E-02  0.1219165E+00
         -1   -1    0    0    0  501 -0.00000000000E+00  0.00000000000E+00  0.29619103678E+02  0.29619103678E+02  0.00000000000E+00 0.  1.
          1   -1    0    0  501    0  0.00000000000E+00 -0.00000000000E+00 -0.77700165028E+03  0.77700165028E+03  0.00000000000E+00 0. -1.
         23    2    1    2    0    0 -0.87575230949E+02 -0.43912411277E+02 -0.30163874211E+03  0.34092969955E+03  0.12509759531E+03 0.  0.
          5    1    3    3  502    0 -0.57599810527E+02 -0.74495104778E+02 -0.27407615914E+03  0.28983179988E+03  0.41800000000E+01 0.  1.
         -5    1    3    3    0  502 -0.29975420422E+02  0.30582693500E+02 -0.27562582971E+02  0.51097899676E+02  0.41800000000E+01 0.  1.
        -11    1    1    2    0    0  0.60514039483E+02 -0.20865893232E+02 -0.23499052919E+03  0.24355262939E+03  0.00000000000E+00 0. -1.
         11    1    1    2    0    0  0.27061191467E+02  0.64778304510E+02 -0.21075327530E+03  0.22213842502E+03  0.00000000000E+00 0.  1.
</event>
<event>
 7    1  0.7017065E-006  0.1852682E+03  0.7561462E-02  0.1162800E+00
         -1   -1    0    0    0  501 -0.00000000000E+00  0.00000000000E+00  0.16756568002E+03  0.16756568002E+03  0.00000000000E+00 0.  1.
          1   -1    0    0  501    0  0.00000000000E+00 -0.00000000000E+00 -0.21274278880E+03  0.21274278880E+03  0.00000000000E+00 0. -1.
         23    2    1    2    0    0  0.12588576596E+03  0.87567894713E+02 -0.49022615493E+01  0.19795623099E+03  0.12508906813E+03 0.  0.
          5    1    3    3  502    0  0.89788127707E+02 -0.11427288663E+02 -0.15670009575E+02  0.91953860187E+02  0.41800000000E+01 0.  1.
         -5    1    3    3    0  502  0.36097638255E+02  0.98995183376E+02  0.10767748025E+02  0.10600237081E+03  0.41800000000E+01 0.  1.
        -11    1    1    2    0    0 -0.11035177934E+03 -0.10415905978E+03 -0.46637240975E+02  0.15875029822E+03  0.00000000000E+00 0. -1.
         11    1    1    2    0    0 -0.15533986617E+02  0.16591165069E+02  0.63623937442E+01  0.23601939597E+02  0.00000000000E+00 0.  1.
</event>
<event>
 7    1  0.7017065E-006  0.1056951E+03  0.7561462E-02  0.1268756E+00
          1   -1    0    0  501    0  0.00000000000E+00  0.00000000000E+00  0.51511518829E+03  0.51511518829E+03  0.00000000000E+00 0. -1.
         -1   -1    0    0    0  501 -0.00000000000E+00 -0.00000000000E+00 -0.23450469174E+02  0.23450469174E+02  0.00000000000E+00 0.  1.
         23    2    1    2    0    0 -0.39450870732E+01  0.12625670313E+02  0.24940077639E+03  0.27932776395E+03  0.12509309008E+03 0.  0.
          5    1    3    3  502    0  0.54766046310E+02 -0.13175466017E+02  0.15635929869E+03  0.16624865540E+03  0.41800000000E+01 0.  1.
         -5    1    3    3    0  502 -0.58711133383E+02  0.25801136331E+02  0.93041477700E+02  0.11307910856E+03  0.41800000000E+01 0.  1.
        -11    1    1    2    0    0 -0.40181427927E+02 -0.21587128953E+02  0.14608995828E+03  0.15304518025E+03  0.00000000000E+00 0. -1.
         11    1    1    2    0    0  0.44126515000E+02  0.89614586400E+01  0.96173984438E+02  0.10619271326E+03  0.00000000000E+00 0.  1.
</event>
<event>
 7    1  0.7017065E-006  0.9746326E+02  0.7561462E-02  0.1285723E+00
         -1   -1    0    0    0  501 -0.00000000000E+00  0.00000000000E+00  0.37624982772E+02  0.37624982772E+02  0.00000000000E+00 0.  1.
          1   -1    0    0  501    0  0.00000000000E+00 -0.00000000000E+00 -0.28459579280E+03  0.28459579280E+03  0.00000000000E+00 0. -1.
         23    2    1    2    0    0  0.10404895903E+02 -0.11729419011E+02 -0.10930239937E+03  0.15824220244E+03  0.11334786719E+03 0.  0.
          5    1    3    3  502    0 -0.12364724339E+02 -0.59718832577E+02 -0.59767352039E+02  0.85491719729E+02  0.41800000000E+01 0. -1.
         -5    1    3    3    0  502  0.22769620242E+02  0.47989413567E+02 -0.49535047326E+02  0.72750482707E+02  0.41800000000E+01 0.  1.
        -11    1    1    2    0    0  0.15240702624E+02  0.39726114635E+02 -0.36993308020E+02  0.56382160642E+02  0.00000000000E+00 0.  1.
         11    1    1    2    0    0 -0.25645598526E+02 -0.27996695624E+02 -0.10067510264E+03  0.10759641249E+03  0.00000000000E+00 0. -1.
</event>
<event>
 7    1  0.7017065E-006  0.1222366E+03  0.7561462E-02  0.1239452E+00
          1   -1    0    0  501    0  0.00000000000E+00  0.00000000000E+00  0.49133185030E+03  0.49133185030E+03  0.00000000000E+00 0. -1.
         -1   -1    0    0    0  501 -0.00000000000E+00 -0.00000000000E+00 -0.39817202757E+02  0.39817202757E+02  0.00000000000E+00 0.  1.
         23    2    1    2    0    0  0.64607331195E+00  0.85866126889E+02  0.20305975403E+03  0.25348493538E+03  0.12509172475E+03 0.  0.
          5    1    3    3  502    0  0.54958258978E+02  0.53686729889E+02  0.15822659813E+03  0.17594261551E+03  0.41800000000E+01 0. -1.
         -5    1    3    3    0  502 -0.54312185666E+02  0.32179397000E+02  0.44833155902E+02  0.77542319872E+02  0.41800000000E+01 0. -1.
        -11    1    1    2    0    0 -0.26491644502E+02 -0.67624790386E+02  0.87904655065E+02  0.11402696122E+03  0.00000000000E+00 0.  1.
         11    1    1    2    0    0  0.25845571190E+02 -0.18241336503E+02  0.16055023845E+03  0.16363715646E+03  0.00000000000E+00 0. -1.
</event>
<event>
 7    1  0.7017065E-006  0.8415056E+02  0.7561462E-02  0.1317669E+00
         -2   -1    0    0    0  501 -0.00000000000E+00  0.00000000000E+00  0.28347789396E+03  0.28347789396E+03  0.00000000000E+00 0.  1.
          2   -1    0    0  501    0  0.00000000000E+00 -0.00000000000E+00 -0.10864579344E+03  0.10864579344E+03  0.00000000000E+00 0. -1.
         23    2    1    2    0    0 -0.42605134735E+02  0.32155246900E+02  0.23972158357E+03  0.27561381808E+03  0.12508949467E+03 0.  0.
          5    1    3    3  502    0 -0.17096489881E+02 -0.35329854075E+02  0.17235806410E+03  0.17681986092E+03  0.41800000000E+01 0. -1.
         -5    1    3    3    0  502 -0.25508644854E+02  0.67485100975E+02  0.67363519477E+02  0.98793957165E+02  0.41800000000E+01 0. -1.
        -11    1    1    2    0    0  0.24482700727E+02 -0.68209952262E+01 -0.78504169837E+02  0.82515654833E+02  0.00000000000E+00 0. -1.
         11    1    1    2    0    0  0.18122434009E+02 -0.25334251673E+02  0.13614686777E+02  0.33994214483E+02  0.00000000000E+00 0.  1.
</event>
<event>
 7    1  0.7017065E-006  0.1016507E+03  0.7561462E-02  0.1276863E+00
         -2   -1    0    0    0  501 -0.00000000000E+00  0.00000000000E+00  0.16439897668E+03  0.16439897668E+03  0.00000000000E+00 0.  1.
          2   -1    0    0  501    0  0.00000000000E+00 -0.00000000000E+00 -0.11102214405E+03  0.11102214405E+03  0.00000000000E+00 0. -1.
         23    2    1    2    0    0  0.30907543961E+02  0.60942157467E+02  0.76600510100E+02  0.15956377714E+03  0.12216275208E+03 0.  0.
          5    1    3    3  502    0 -0.73886331164E+01 -0.11276825802E+02 -0.25233067100E+02  0.28912605811E+02  0.41800000000E+01 0. -1.
         -5    1    3    3    0  502  0.38296177078E+02  0.72218983269E+02  0.10183357720E+03  0.13065117132E+03  0.41800000000E+01 0.  1.
        -11    1    1    2    0    0 -0.32672927366E+02  0.11675241914E+02  0.98150734052E+01  0.36057830250E+02  0.00000000000E+00 0.  1.
         11    1    1    2    0    0  0.17653834044E+01 -0.72617399382E+02 -0.33038750875E+02  0.79799513350E+02  0.00000000000E+00 0. -1.
</event>
<event>
 7    1  0.7017065E-006  0.1418881E+03  0.7561462E-02  0.1210811E+00
         -4   -1    0    0    0  501 -0.00000000000E+00  0.00000000000E+00  0.74390587162E+03  0.74390587162E+03  0.00000000000E+00 0.  1.
          4   -1    0    0  501    0  0.00000000000E+00 -0.00000000000E+00 -0.32932507439E+02  0.32932507439E+02  0.00000000000E+00 0. -1.
         23    2    1    2    0    0 -0.57946712788E+02 -0.90146994538E+02  0.42702479749E+03  0.45769554749E+03  0.12510289514E+03 0.  0.
          5    1    3    3  502    0 -0.39890551581E+02 -0.11168701522E+03  0.40416191684E+03  0.42122389877E+03  0.41800000000E+01 0. -1.
         -5    1    3    3    0  502 -0.18056161207E+02  0.21540020678E+02  0.22862880646E+02  0.36471648712E+02  0.41800000000E+01 0. -1.
        -11    1    1    2    0    0 -0.17246948989E+02  0.46844641383E+02  0.16169968554E+03  0.16922962501E+03  0.00000000000E+00 0. -1.
         11    1    1    2    0    0  0.75193661776E+02  0.43302353155E+02  0.12224888115E+03  0.14991320657E+03  0.00000000000E+00 0.  1.
</event>
<event>
 6    1  0.7017065E-006  0.6638531E+03  0.7561462E-02  0.9781127E-01
         -2   -1    0    0    0  501 -0.00000000000E+00  0.00000000000E+00  0.17492065069E+04  0.17492065069E+04  0.00000000000E+00 0.  1.
          2   -1    0    0  501    0  0.00000000000E+00 -0.00000000000E+00 -0.14656003564E+04  0.14656003564E+04  0.00000000000E+00 0. -1.
          5    1    1    2  502    0  0.30532523484E+03  0.72371415882E+02  0.72180608359E+03  0.78707217939E+03  0.41800000000E+01 0. -1.
         -5    1    1    2    0  502  0.22355351957E+03  0.29026407567E+03  0.88319126575E+03  0.95617660190E+03  0.41800000000E+01 0.  1.
        -11    1    1    2    0    0 -0.97182987236E-01 -0.14280947260E+02 -0.25185950392E+02  0.28953186289E+02  0.00000000000E+00 0.  1.
         11    1    1    2    0    0 -0.52878157142E+03 -0.34835454429E+03 -0.12962052485E+04  0.14426048957E+04  0.00000000000E+00 0. -1.
</event>
<event>
 7    1  0.7017065E-006  0.1038041E+03  0.7561462E-02  0.1272494E+00
         -2   -1    0    0    0  501 -0.00000000000E+00  0.00000000000E+00  0.28593299268E+02  0.28593299268E+02  0.00000000000E+00 0.  1.
          2   -1    0    0  501    0  0.00000000000E+00 -0.00000000000E+00 -0.61656423496E+03  0.61656423496E+03  0.00000000000E+00 0. -1.
         23    2    1    2    0    0  0.60119221858E+02 -0.14041566271E+02 -0.21343307349E+03  0.25498289585E+03  0.12510441198E+03 0.  0.
          5    1    3    3  502    0  0.76146035532E+02  0.30728417504E+01 -0.21778542425E+03  0.23077180179E+03  0.41800000000E+01 0.  1.
         -5    1    3    3    0  502 -0.16026813675E+02 -0.17114408022E+02  0.43523507636E+01  0.24211094062E+02  0.41800000000E+01 0.  1.
        -11    1    1    2    0    0  0.71969093252E+01 -0.27460145924E+02 -0.13388029982E+03  0.13685682225E+03  0.00000000000E+00 0. -1.
         11    1    1    2    0    0 -0.67316131183E+02  0.41501712196E+02 -0.24065756239E+03  0.25331781613E+03  0.00000000000E+00 0.  1.
</event>
<event>
 7    1  0.7017065E-006  0.1177836E+03  0.7561462E-02  0.1246799E+00
          2   -1    0    0  501    0  0.00000000000E+00  0.00000000000E+00  0.48619515190E+03  0.48619515190E+03  0.00000000000E+00 0. -1.
         -2   -1    0    0    0  501 -0.00000000000E+00 -0.00000000000E+00 -0.33472598890E+02  0.33472598890E+02  0.00000000000E+00 0.  1.
         23    2    1    2    0    0 -0.24349871051E+02  0.41878761925E+02  0.15783799450E+03  0.20713876729E+03  0.12508752730E+03 0.  0.
          5    1    3    3  502    0 -0.55297241895E+02  0.70557142890E+02  0.89686362194E+02  0.12687478606E+03  0.41800000000E+01 0. -1.
         -5    1    3    3    0  502  0.30947370844E+02 -0.28678380965E+02  0.68151632308E+02  0.80263981232E+02  0.41800000000E+01 0. -1.
        -11    1    1    2    0    0  0.23808091150E+02 -0.70699698775E+02  0.20646404444E+03  0.21952829945E+03  0.00000000000E+00 0. -1.
         11    1    1    2    0    0  0.54177990029E+00  0.28820936850E+02  0.88420514066E+02  0.93000684051E+02  0.00000000000E+00 0.  1.
</event>
<event>
 7    1  0.7017065E-006  0.9439484E+02  0.7561462E-02  0.1292545E+00
          4   -1    0    0  501    0  0.00000000000E+00  0.00000000000E+00  0.50032875142E+02  0.50032875142E+02  0.00000000000E+00 0. -1.
         -4   -1    0    0    0  501 -0.00000000000E+00 -0.00000000000E+00 -0.33263366044E+03  0.33263366044E+03  0.00000000000E+00 0.  1.
         23    2    1    2    0    0  0.22352753929E+00  0.38467523709E+01 -0.26128678287E+03  0.28970653368E+03  0.12507695747E+03 0.  0.
          5    1    3    3  502    0  0.24072898367E+02 -0.41463411281E+02 -0.40134456455E+02  0.62665508103E+02  0.41800000000E+01 0.  1.
         -5    1    3    3    0  502 -0.23849370828E+02  0.45310163652E+02 -0.22115232641E+03  0.22704102558E+03  0.41800000000E+01 0.  1.
        -11    1    1    2    0    0 -0.92946890749E+01  0.41763557693E+02 -0.27033913761E+01  0.42870669707E+02  0.00000000000E+00 0. -1.
         11    1    1    2    0    0  0.90711615356E+01 -0.45610310064E+02 -0.18610611056E+02  0.50089332194E+02  0.00000000000E+00 0.  1.
</event>
<event>
 7    1  0.7017065E-006  0.7803624E+02  0.7561462E-02  0.1334719E+00
         -1   -1    0    0    0  501 -0.00000000000E+00  0.00000000000E+00  0.17046532878E+03  0.17046532878E+03  0.00000000000E+00 0.  1.
          1   -1    0    0  501    0  0.00000000000E+00 -0.00000000000E+00 -0.78310432354E+02  0.78310432354E+02  0.00000000000E+00 0. -1.
         23    2    1    2    0    0  0.13692644254E+01 -0.19178855105E+02  0.89184887153E+02  0.15482372700E+03  0.12508692569E+03 0.  0.
          5    1    3    3  502    0 -0.27041686830E+02 -0.19273521260E+02 -0.21958998470E+02  0.40029882116E+02  0.41800000000E+01 0. -1.
         -5    1    3    3    0  502  0.28410951256E+02  0.94666155968E-01  0.11114388562E+03  0.11479384489E+03  0.41800000000E+01 0. -1.
        -11    1    1    2    0    0 -0.12192268438E+01 -0.37343635553E+02  0.21036120902E+01  0.37422704528E+02  0.00000000000E+00 0.  1.
         11    1    1    2    0    0 -0.15003758151E+00  0.56522490657E+02  0.86639718395E+00  0.56529329604E+02  0.00000000000E+00 0. -1.
</event>
<event>
 7    1  0.7017065E-006  0.8503062E+02  0.7561462E-02  0.1315352E+00
         -2   -1    0    0    0  501 -0.00000000000E+00  0.00000000000E+00  0.55546852339E+02  0.55546852339E+02  0.00000000000E+00 0. -1.
          2   -1    0    0  501    0  0.00000000000E+00 -0.00000000000E+00 -0.24528281225E+03  0.24528281225E+03  0.00000000000E+00 0.  1.
         23    2    1    2    0    0  0.21827479972E+02  0.22153051021E+02 -0.68021795868E+02  0.14574727906E+03  0.12509239821E+03 0.  0.
          5    1    3    3  502    0 -0.33777538425E+02  0.24992249954E+02  0.15755358480E+02  0.45069262038E+02  0.41800000000E+01 0.  1.
         -5    1    3    3    0  502  0.55605018398E+02 -0.28391989328E+01 -0.83777154348E+02  0.10067801703E+03  0.41800000000E+01 0.  1.
        -11    1    1    2    0    0  0.22847912599E+02 -0.18311298229E+01  0.97346368424E+00  0.22941834672E+02  0.00000000000E+00 0. -1.
         11    1    1    2    0    0 -0.44675392571E+02 -0.20321921198E+02 -0.12268762773E+03  0.13214055085E+03  0.00000000000E+00 0.  1.
</event>
<event>
 7    1  0.7017065E-006  0.1072099E+03  0.7561462E-02  0.1265826E+00
         -2   -1    0    0    0  501 -0.00000000000E+00  0.00000000000E+00  0.44533305478E+02  0.44533305478E+02  0.00000000000E+00 0.  1.
          2   -1    0    0  501    0  0.00000000000E+00 -0.00000000000E+00 -0.35700358623E+03  0.35700358623E+03  0.00000000000E+00 0. -1.
         23    2    1    2    0    0  0.21332149731E+02  0.38651982192E+02 -0.14332980920E+03  0.19529498957E+03  0.12509061678E+03 0.  0.
          5    1    3    3  502    0  0.85739192961E+01 -0.43148392162E+02 -0.78407360631E+02  0.90002680179E+02  0.41800000000E+01 0. -1.
         -5    1    3    3    0  502  0.12758230435E+02  0.81800374354E+02 -0.64922448567E+02  0.10529230939E+03  0.41800000000E+01 0. -1.
        -11    1    1    2    0    0 -0.48226240465E+01  0.23005352412E+02  0.19955584097E+01  0.23589959637E+02  0.00000000000E+00 0.  1.
         11    1    1    2    0    0 -0.16509525685E+02 -0.61657334604E+02 -0.17113602996E+03  0.18265194250E+03  0.00000000000E+00 0. -1.
</event>
<event>
 7    1  0.7017065E-006  0.8870106E+02  0.7561462E-02  0.1306028E+00
          2   -1    0    0  501    0  0.00000000000E+00  0.00000000000E+00  0.14965577626E+03  0.14965577626E+03  0.00000000000E+00 0. -1.
         -2   -1    0    0    0  501 -0.00000000000E+00 -0.00000000000E+00 -0.77270753957E+02  0.77270753957E+02  0.00000000000E+00 0.  1.
         23    2    1    2    0    0 -0.23093968036E+02  0.13213546790E+02  0.35201855620E+02  0.13264629967E+03  0.12509173033E+03 0.  0.
          5    1    3    3  502    0 -0.24512666809E+02 -0.37221890447E+02 -0.27130239626E+02  0.52343693648E+02  0.41800000000E+01 0. -1.
         -5    1    3    3    0  502  0.14186987736E+01  0.50435437237E+02  0.62332095245E+02  0.80302606018E+02  0.41800000000E+01 0. -1.
        -11    1    1    2    0    0  0.24564308563E+02  0.29998643820E+02  0.32865844695E+02  0.50828020164E+02  0.00000000000E+00 0. -1.
         11    1    1    2    0    0 -0.14703405271E+01 -0.43212190611E+02  0.43173219906E+01  0.43452210390E+02  0.00000000000E+00 0.  1.
</event>
<event>
 7    1  0.7017065E-006  0.1490911E+03  0.7561462E-02  0.1201594E+00
         -2   -1    0    0    0  501 -0.00000000000E+00  0.00000000000E+00  0.20108139558E+03  0.20108139558E+03  0.00000000000E+00 0. -1.
          2   -1    0    0  501    0  0.00000000000E+00 -0.00000000000E+00 -0.14453294758E+03  0.14453294758E+03  0.00000000000E+00 0.  1.
         23    2    1    2    0    0 -0.10068438813E+03 -0.85206722492E+02  0.34100552582E+02  0.18495446555E+03  0.12509106710E+03 0.  0.
          5    1    3    3  502    0 -0.12074366914E+03 -0.80674611673E+02  0.42558724700E+00  0.14527587594E+03  0.41800000000E+01 0.  1.
         -5    1    3    3    0  502  0.20059281008E+02 -0.45321108192E+01  0.33674965335E+02  0.39678589608E+02  0.41800000000E+01 0.  1.
        -11    1    1    2    0    0  0.33284883730E+02  0.26698136099E+02  0.51424465607E+02  0.66821775037E+02  0.00000000000E+00 0. -1.
         11    1    1    2    0    0  0.67399504399E+02  0.58508586393E+02 -0.28976570188E+02  0.93838102574E+02  0.00000000000E+00 0.  1.
</event>
<event>
 7    1  0.7017065E-006  0.1171841E+03  0.7561462E-02  0.1247816E+00
          1   -1    0    0  501    0  0.00000000000E+00  0.00000000000E+00  0.31745658911E+03  0.31745658911E+03  0.00000000000E+00 0.  1.
         -1   -1    0    0    0  501 -0.00000000000E+00 -0.00000000000E+00 -0.73637970314E+02  0.73637970314E+02  0.00000000000E+00 0. -1.
         23    2    1    2    0    0  0.84859496913E+02  0.36870542862E+02  0.19454933814E+03  0.24911473232E+03  0.12509250075E+03 0.  0.
          5    1    3    3  502    0  0.31913059106E+02  0.36120634291E+02  0.97990834271E+00  0.48389835538E+02  0.41800000000E+01 0.  1.
         -5    1    3    3    0  502  0.52946437807E+02  0.74990857151E+00  0.19356942979E+03  0.20072489679E+03  0.41800000000E+01 0.  1.
        -11    1    1    2    0    0 -0.35775774730E+02 -0.66518414487E+02  0.32593357906E+02  0.82261367014E+02  0.00000000000E+00 0.  1.
         11    1    1    2    0    0 -0.49083722183E+02  0.29647871624E+02  0.16675922752E+02  0.59718460084E+02  0.00000000000E+00 0. -1.
</event>
<event>
 7    1  0.7017065E-006  0.1141774E+03  0.7561462E-02  0.1253024E+00
         -2   -1    0    0    0  501 -0.00000000000E+00  0.00000000000E+00  0.20970016043E+03  0.20970016043E+03  0.00000000000E+00 0.  1.
          2   -1    0    0  501    0  0.00000000000E+00 -0.00000000000E+00 -0.76789087942E+02  0.76789087942E+02  0.00000000000E+00 0. -1.
         23    2    1    2    0    0  0.63397815379E+02 -0.39459171317E+01  0.64628213143E+02  0.15446455985E+03  0.12509053145E+03 0.  0.
          5    1    3    3  502    0  0.99446442622E+02 -0.17364929142E+02  0.52819437972E+02  0.11401096939E+03  0.41800000000E+01 0.  1.
         -5    1    3    3    0  502 -0.36048627243E+02  0.13419012011E+02  0.11808775171E+02  0.40453590452E+02  0.41800000000E+01 0.  1.
        -11    1    1    2    0    0 -0.67183041269E+02  0.21600130060E+02  0.82845858363E+02  0.10882813469E+03  0.00000000000E+00 0.  1.
         11    1    1    2    0    0  0.37852258900E+01 -0.17654212928E+02 -0.14562999020E+02  0.23196553831E+02  0.00000000000E+00 0. -1.
</event>
<event>
 7    1  0.7017065E-006  0.1803483E+03  0.7561462E-02  0.1167466E+00
         -1   -1    0    0    0  501 -0.00000000000E+00  0.00000000000E+00  0.28257025729E+03  0.28257025729E+03  0.00000000000E+00 0.  1.
          1   -1    0    0  501    0  0.00000000000E+00 -0.00000000000E+00 -0.15418643378E+03  0.15418643378E+03  0.00000000000E+00 0. -1.
         23    2    1    2    0    0 -0.14982181511E+03  0.61586232091E+02  0.14380667362E+03  0.25013767426E+03  0.12509618875E+03 0.  0.
          5    1    3    3  502    0 -0.94879730657E+02  0.72370315795E+02  0.29815665156E+02  0.12306937957E+03  0.41800000000E+01 0.  1.
         -5    1    3    3    0  502 -0.54942084449E+02 -0.10784083704E+02  0.11399100847E+03  0.12706829469E+03  0.41800000000E+01 0.  1.
        -11    1    1    2    0    0  0.12363306248E+03 -0.84987269744E+02 -0.19392633312E+02  0.15127473148E+03  0.00000000000E+00 0. -1.
         11    1    1    2    0    0  0.26188752628E+02  0.23401037653E+02  0.39697832007E+01  0.35344285339E+02  0.00000000000E+00 0.  1.
</event>
<event>
 7    1  0.7017065E-006  0.1136496E+03  0.7561462E-02  0.1253957E+00
         -1   -1    0    0    0  501 -0.00000000000E+00  0.00000000000E+00  0.53949438042E+02  0.53949438042E+02  0.00000000000E+00 0.  1.
          1   -1    0    0  501    0  0.00000000000E+00 -0.00000000000E+00 -0.27230598250E+03  0.27230598250E+03  0.00000000000E+00 0. -1.
         23    2    1    2    0    0  0.87811134877E+01  0.42844241810E+02 -0.79365195472E+02  0.15443657863E+03  0.12505632953E+03 0.  0.
          5    1    3    3  502    0  0.32396448312E+02 -0.33288664755E+02 -0.79092117338E+01  0.47304260851E+02  0.41800000000E+01 0.  1.
         -5    1    3    3    0  502 -0.23615334824E+02  0.76132906565E+02 -0.71455983738E+02  0.10713231778E+03  0.41800000000E+01 0.  1.
        -11    1    1    2    0    0 -0.49644008369E+02 -0.30006801427E+02 -0.74986861534E+02  0.94804879102E+02  0.00000000000E+00 0.  1.
         11    1    1    2    0    0  0.40862894881E+02 -0.12837440383E+02 -0.64004487452E+02  0.77013962810E+02  0.00000000000E+00 0. -1.
</event>
<event>
 7    1  0.7017065E-006  0.1173134E+03  0.7561462E-02  0.1247596E+00
          1   -1    0    0  501    0  0.00000000000E+00  0.00000000000E+00  0.95510724654E+02  0.95510724654E+02  0.00000000000E+00 0. -1.
         -1   -1    0    0    0  501 -0.00000000000E+00 -0.00000000000E+00 -0.19136122179E+03  0.19136122179E+03  0.00000000000E+00 0.  1.
         23    2    1    2    0    0  0.36189581231E+02 -0.54703340283E+02 -0.10148729511E+03  0.17392158530E+03  0.12508759146E+03 0.  0.
          5    1    3    3  502    0 -0.13017289840E+02  0.27910232661E+02  0.37540079796E+01  0.31304886166E+02  0.41800000000E+01 0.  1.
         -5    1    3    3    0  502  0.49206871071E+02 -0.82613572944E+02 -0.10524130309E+03  0.14261669913E+03  0.41800000000E+01 0.  1.
        -11    1    1    2    0    0 -0.20483935197E+02  0.77195154922E+02 -0.11372709781E+02  0.80672312923E+02  0.00000000000E+00 0.  1.
         11    1    1    2    0    0 -0.15705646033E+02 -0.22491814639E+02  0.17009507755E+02  0.32278048224E+02  0.00000000000E+00 0. -1.
</event>
<event>
 7    1  0.7017065E-006  0.8981281E+02  0.7561462E-02  0.1303306E+00
          1   -1    0    0  501    0  0.00000000000E+00  0.00000000000E+00  0.58518776703E+03  0.58518776703E+03  0.00000000000E+00 0. -1.
         -1   -1    0    0    0  501 -0.00000000000E+00 -0.00000000000E+00 -0.23904233454E+02  0.23904233454E+02  0.00000000000E+00 0.  1.
         23    2    1    2    0    0  0.87693247948E+01  0.36585127301E+02  0.26065233346E+03  0.29155707137E+03  0.12510201570E+03 0.  0.
          5    1    3    3  502    0  0.37199933023E+02  0.37680583367E+01  0.12567682487E+02  0.39666765984E+02  0.41800000000E+01 0. -1.
         -5    1    3    3    0  502 -0.28430608229E+02  0.32817068964E+02  0.24808465097E+03  0.25189030539E+03  0.41800000000E+01 0. -1.
        -11    1    1    2    0    0 -0.18225960247E+02  0.27835196869E+02  0.64293011591E+02  0.72391816879E+02  0.00000000000E+00 0.  1.
         11    1    1    2    0    0  0.94566354518E+01 -0.64420324170E+02  0.23633818853E+03  0.24514311224E+03  0.00000000000E+00 0. -1.
</event>
<event>
 7    1  0.7017065E-006  0.6039668E+02  0.7561462E-02  0.1396175E+00
          1   -1    0    0  501    0  0.00000000000E+00  0.00000000000E+00  0.61672388905E+02  0.61672388905E+02  0.00000000000E+00 0. -1.
         -1   -1    0    0    0  501 -0.00000000000E+00 -0.00000000000E+00 -0.24887343831E+03  0.24887343831E+03  0.00000000000E+00 0.  1.
         23    2    1    2    0    0  0.22759252814E+02  0.16299082415E+02 -0.17215792150E+03  0.21464028841E+03  0.12509380399E+03 0.  0.
          5    1    3    3  502    0 -0.16927429241E+02 -0.91913134551E+01 -0.16567812023E+03  0.16684642647E+03  0.41800000000E+01 0. -1.
         -5    1    3    3    0  502  0.39686682055E+02  0.25490395870E+02 -0.64798012662E+01  0.47793861934E+02  0.41800000000E+01 0. -1.
        -11    1    1    2    0    0 -0.10377172585E+02 -0.32054251903E+02  0.30941667356E+02  0.45744371836E+02  0.00000000000E+00 0. -1.
         11    1    1    2    0    0 -0.12382080229E+02  0.15755169488E+02 -0.45984795266E+02  0.50161166972E+02  0.00000000000E+00 0.  1.
</event>
<event>
 7    1  0.7017065E-006  0.8513873E+02  0.7561462E-02  0.1315070E+00
         -2   -1    0    0    0  501 -0.00000000000E+00  0.00000000000E+00  0.78793326685E+02  0.78793326685E+02  0.00000000000E+00 0.  1.
          2   -1    0    0  501    0  0.00000000000E+00 -0.00000000000E+00 -0.19755475087E+03  0.19755475087E+03  0.00000000000E+00 0. -1.
         23    2    1    2    0    0 -0.61789178397E+01 -0.34793945643E+02 -0.11471779732E+02  0.13048369872E+03  0.12508235776E+03 0.  0.
          5    1    3    3  502    0  0.24868534911E+02  0.27685240731E+02  0.31071861901E+02  0.48660554713E+02  0.41800000000E+01 0.  1.
         -5    1    3    3    0  502 -0.31047452751E+02 -0.62479186374E+02 -0.42543641633E+02  0.81823144010E+02  0.41800000000E+01 0.  1.
        -11    1    1    2    0    0  0.23902780116E+02  0.17000206781E-01  0.71515492396E+01  0.24949706267E+02  0.00000000000E+00 0.  1.
         11    1    1    2    0    0 -0.17723862276E+02  0.34776945436E+02 -0.11444119369E+03  0.12091467256E+03  0.00000000000E+00 0. -1.
</event>
<event>
 7    1  0.7017065E-006  0.1301750E+03  0.7561462E-02  0.1227196E+00
          1   -1    0    0  501    0  0.00000000000E+00  0.00000000000E+00  0.79443903075E+02  0.79443903075E+02  0.00000000000E+00 0. -1.
         -1   -1    0    0    0  501 -0.00000000000E+00 -0.00000000000E+00 -0.31582966634E+03  0.31582966634E+03  0.00000000000E+00 0.  1.
         23    2    1    2    0    0 -0.60951343784E+02 -0.76273288789E+02 -0.20057364504E+03  0.25575325687E+03  0.12508900999E+03 0.  0.
          5    1    3    3  502    0 -0.71854211874E+01  0.24766054001E+02 -0.16015185241E+01  0.26172981679E+02  0.41800000000E+01 0.  1.
         -5    1    3    3    0  502 -0.53765922596E+02 -0.10103934279E+03 -0.19897212652E+03  0.22958027519E+03  0.41800000000E+01 0.  1.
        -11    1    1    2    0    0 -0.75235641893E+01  0.42838268076E+02  0.17115917494E+02  0.46740516274E+02  0.00000000000E+00 0. -1.
         11    1    1    2    0    0  0.68474907973E+02  0.33435020713E+02 -0.52928035719E+02  0.92779796276E+02  0.00000000000E+00 0.  1.
</event>
<event>
 7    1  0.7017065E-006  0.6130896E+02  0.7561462E-02  0.1392419E+00
          1   -1    0    0  501    0  0.00000000000E+00  0.00000000000E+00  0.28958673590E+03  0.28958673590E+03  0.00000000000E+00 0. -1.
         -1   -1    0    0    0  501 -0.00000000000E+00 -0.00000000000E+00 -0.48571312225E+02  0.48571312225E+02  0.00000000000E+00 0.  1.
         23    2    1    2    0    0 -0.51686125571E+02 -0.18645720956E+02  0.12137878409E+03  0.18275464339E+03  0.12508929598E+03 0.  0.
          5    1    3    3  502    0 -0.37912512387E+02 -0.30640391136E+02 -0.10092290689E+02  0.49955168859E+02  0.41800000000E+01 0.  1.
         -5    1    3    3    0  502 -0.13773613185E+02  0.11994670180E+02  0.13147107478E+03  0.13279947453E+03  0.41800000000E+01 0.  1.
        -11    1    1    2    0    0  0.13156721245E+02  0.42672166552E+01 -0.11488566151E+02  0.17980422801E+02  0.00000000000E+00 0.  1.
         11    1    1    2    0    0  0.38529404327E+02  0.14378504301E+02  0.13112520573E+03  0.13742298193E+03  0.00000000000E+00 0. -1.
</event>
<event>
 7    1  0.7017065E-006  0.1047677E+03  0.7561462E-02  0.1270578E+00
          2   -1    0    0  501    0  0.00000000000E+00  0.00000000000E+00  0.54313490055E+03  0.54313490055E+03  0.00000000000E+00 0. -1.
         -2   -1    0    0    0  501 -0.00000000000E+00 -0.00000000000E+00 -0.27845999821E+02  0.27845999821E+02  0.00000000000E+00 0.  1.
         23    2    1    2    0    0  0.52798501731E+02 -0.17681565244E+02  0.24663495900E+03  0.28209254065E+03  0.12508828464E+03 0.  0.
          5    1    3    3  502    0  0.76265377189E+02 -0.39617375035E+02  0.23022760548E+03  0.24578072929E+03  0.41800000000E+01 0. -1.
         -5    1    3    3    0  502 -0.23466875458E+02  0.21935809790E+02  0.16407353515E+02  0.36311811360E+02  0.41800000000E+01 0. -1.
        -11    1    1    2    0    0 -0.28607980482E+02  0.45803741227E+02  0.22599024095E+03  0.23235315419E+03  0.00000000000E+00 0. -1.
         11    1    1    2    0    0 -0.24190521249E+02 -0.28122175983E+02  0.42663700780E+02  0.56535205532E+02  0.00000000000E+00 0.  1.
</event>
<event>
 7    1  0.7017065E-006  0.1399652E+03  0.7561462E-02  0.1213376E+00
         -2   -1    0    0    0  501 -0.00000000000E+00  0.00000000000E+00  0.38118051538E+02  0.38118051538E+02  0.00000000000E+00 0.  1.
          2   -1    0    0  501    0  0.00000000000E+00 -0.00000000000E+00 -0.61677566252E+03  0.61677566252E+03  0.00000000000E+00 0. -1.
         23    2    1    2    0    0  0.10650413259E+03  0.34785723428E+01 -0.31119123993E+03  0.35191193874E+03  0.12508714599E+03 0.  0.
          5    1    3    3  502    0  0.29619176182E+02 -0.40568558163E+02 -0.21596893540E+03  0.22177275975E+03  0.41800000000E+01 0. -1.
         -5    1    3    3    0  502  0.76884956405E+02  0.44047130506E+02 -0.95222304536E+02  0.13013917899E+03  0.41800000000E+01 0. -1.
        -11    1    1    2    0    0 -0.60741349750E+02  0.43902879506E+02 -0.12015227127E+03  0.14161053171E+03  0.00000000000E+00 0.  1.
         11    1    1    2    0    0 -0.45762782838E+02 -0.47381451849E+02 -0.14731409977E+03  0.16137124361E+03  0.00000000000E+00 0. -1.
</event>
<event>
 6    1  0.7017065E-006  0.1081834E+03  0.7561462E-02  0.1263971E+00
          1   -1    0    0  501    0  0.00000000000E+00  0.00000000000E+00  0.26088033810E+03  0.26088033810E+03  0.00000000000E+00 0. -1.
         -1   -1    0    0    0  501 -0.00000000000E+00 -0.00000000000E+00 -0.57780264115E+02  0.57780264115E+02  0.00000000000E+00 0.  1.
          5    1    1    2  502    0  0.69328693056E+02  0.18631644868E+02  0.75619965844E+02  0.10435256348E+03  0.41800000000E+01 0. -1.
         -5    1    1    2    0  502 -0.64741998521E+02 -0.11474953235E+02  0.34532187614E+02  0.74385114812E+02  0.41800000000E+01 0.  1.
        -11    1    1    2    0    0  0.28354872437E+01  0.35329565416E+02 -0.21432180247E+01  0.35507908469E+02  0.00000000000E+00 0.  1.
         11    1    1    2    0    0 -0.74221817787E+01 -0.42486257049E+02  0.95091138556E+02  0.10441501545E+03  0.00000000000E+00 0. -1.
</event>
<event>
 7    1  0.7017065E-006  0.1252669E+03  0.7561462E-02  0.1234653E+00
         -1   -1    0    0    0  501 -0.00000000000E+00  0.00000000000E+00  0.40411975432E+02  0.40411975432E+02  0.00000000000E+00 0.  1.
          1   -1    0    0  501    0  0.00000000000E+00 -0.00000000000E+00 -0.52383042908E+03  0.52383042908E+03  0.00000000000E+00 0. -1.
         23    2    1    2    0    0  0.71796883065E+02  0.63354797366E+02 -0.23638982642E+03  0.28406787566E+03  0.12508311310E+03 0.  0.
          5    1    3    3  502    0 -0.13925743626E+02  0.62750549535E+02 -0.14517234447E+03  0.15882077887E+03  0.41800000000E+01 0. -1.
         -5    1    3    3    0  502  0.85722626690E+02  0.60424783016E+00 -0.91217481951E+02  0.12524709680E+03  0.41800000000E+01 0. -1.
        -11    1    1    2    0    0 -0.29528005744E+02 -0.78990938215E+01 -0.85912160509E+01  0.31750713372E+02  0.00000000000E+00 0.  1.
         11    1    1    2    0    0 -0.42268877321E+02 -0.55455703544E+02 -0.23843741118E+03  0.24842381547E+03  0.00000000000E+00 0. -1.
</event>
<event>
 7    1  0.7017065E-006  0.9905232E+02  0.7561462E-02  0.1282301E+00
         -2   -1    0    0    0  501 -0.00000000000E+00  0.00000000000E+00  0.39703454822E+03  0.39703454822E+03  0.00000000000E+00 0.  1.
          2   -1    0    0  501    0  0.00000000000E+00 -0.00000000000E+00 -0.35137147216E+02  0.35137147216E+02  0.00000000000E+00 0. -1.
         23    2    1    2    0    0  0.11205951632E+02  0.43762825783E+02  0.21448612521E+03  0.25237485009E+03  0.12509200124E+03 0.  0.
          5    1    3    3  502    0 -0.13780204758E+02 -0.37841599853E+02  0.11110636782E+03  0.11825387136E+03  0.41800000000E+01 0.  1.
         -5    1    3    3    0  502  0.24986156390E+02  0.81604425637E+02  0.10337975740E+03  0.13412097873E+03  0.41800000000E+01 0.  1.
        -11    1    1    2    0    0 -0.31813676322E+02 -0.11384440388E+02  0.73596437570E+01  0.34581495634E+02  0.00000000000E+00 0. -1.
         11    1    1    2    0    0  0.20607724690E+02 -0.32378385395E+02  0.14005163203E+03  0.14521534972E+03  0.00000000000E+00 0.  1.
</event>
<event>
 7    1  0.7017065E-006  0.8016776E+02  0.7561462E-02  0.1328576E+00
          2   -1    0    0  501    0  0.00000000000E+00  0.00000000000E+00  0.87073030418E+02  0.87073030418E+02  0.00000000000E+00 0. -1.
         -2   -1    0    0    0  501 -0.00000000000E+00 -0.00000000000E+00 -0.16484601286E+03  0.16484601286E+03  0.00000000000E+00 0.  1.
         23    2    1    2    0    0  0.46446154716E+02  0.16491031630E+02 -0.55676116547E+02  0.14552025235E+03  0.12508842664E+03 0.  0.
          5    1    3    3  502    0  0.37392594809E+02 -0.21615631804E+00 -0.94707576479E+02  0.10190804832E+03  0.41800000000E+01 0. -1.
         -5    1    3    3    0  502  0.90535599070E+01  0.16707187948E+02  0.39031459932E+02  0.43612204032E+02  0.41800000000E+01 0. -1.
        -11    1    1    2    0    0  0.18941163669E+02  0.20675852721E+02 -0.12044873097E+02  0.30517823232E+02  0.00000000000E+00 0. -1.
         11    1    1    2    0    0 -0.65387318386E+02 -0.37166884351E+02 -0.10051992793E+02  0.75880967687E+02  0.00000000000E+00 0.  1.
</event>
<event>
 7    1  0.7017065E-006  0.1140748E+03  0.7561462E-02  0.1253205E+00
          1   -1    0    0  501    0  0.00000000000E+00  0.00000000000E+00  0.27448093210E+03  0.27448093210E+03  0.00000000000E+00 0. -1.
         -1   -1    0    0    0  501 -0.00000000000E+00 -0.00000000000E+00 -0.79816415397E+02  0.79816415397E+02  0.00000000000E+00 0.  1.
         23    2    1    2    0    0 -0.55925107249E+02 -0.66527990889E+02  0.45855986904E+02  0.15906072162E+03  0.12507577877E+03 0.  0.
          5    1    3    3  502    0 -0.67001316865E+02 -0.10481746047E+02  0.69404610606E+02  0.97126288075E+02  0.41800000000E+01 0.  1.
         -5    1    3    3    0  502  0.11076209616E+02 -0.56046244843E+02 -0.23548623703E+02  0.61934433546E+02  0.41800000000E+01 0.  1.
        -11    1    1    2    0    0 -0.29945646220E+01  0.36810150838E+02  0.53355121921E+01  0.37315175363E+02  0.00000000000E+00 0.  1.
         11    1    1    2    0    0  0.58919671871E+02  0.29717840051E+02  0.14347301761E+03  0.15792145051E+03  0.00000000000E+00 0. -1.
</event>
<event>
 7    1  0.7017065E-006  0.1193585E+03  0.7561462E-02  0.1244159E+00
         -2   -1    0    0    0  501 -0.00000000000E+00  0.00000000000E+00  0.38258610539E+02  0.38258610539E+02  0.00000000000E+00 0.  1.
          2   -1    0    0  501    0  0.00000000000E+00 -0.00000000000E+00 -0.52306681952E+03  0.52306681952E+03  0.00000000000E+00 0. -1.
         23    2    1    2    0    0 -0.31551208841E+02  0.83400867086E+02 -0.23245514028E+03  0.27863001960E+03  0.12509241453E+03 0.  0.
          5    1    3    3  502    0  0.28947160355E+02  0.31165020061E+02 -0.12446705363E+02  0.44515047371E+02  0.41800000000E+01 0.  1.
         -5    1    3    3    0  502 -0.60498369196E+02  0.52235847025E+02 -0.22000843491E+03  0.23411497223E+03  0.41800000000E+01 0.  1.
        -11    1    1    2    0    0  0.28914975971E+02  0.33858117971E+01 -0.21905299486E+02  0.36433249958E+02  0.00000000000E+00 0.  1.
         11    1    1    2    0    0  0.26362328700E+01 -0.86786678884E+02 -0.23044776922E+03  0.24626216050E+03  0.00000000000E+00 0. -1.
</event>
<event>
 7    1  0.7017065E-006  0.1110371E+03  0.7561462E-02  0.1258661E+00
         -2   -1    0    0    0  501 -0.00000000000E+00  0.00000000000E+00  0.11967074489E+03  0.11967074489E+03  0.00000000000E+00 0.  1.
          2   -1    0    0  501    0  0.00000000000E+00 -0.00000000000E+00 -0.11389938029E+03  0.11389938029E+03  0.00000000000E+00 0. -1.
         23    2    1    2    0    0 -0.41085891705E+02  0.16405175453E+02  0.20036878961E+02  0.13418775605E+03  0.12509075536E+03 0.  0.
          5    1    3    3  502    0  0.40663854524E+02 -0.12570826859E+02 -0.67930706377E+01  0.43303498257E+02  0.41800000000E+01 0.  1.
         -5    1    3    3    0  502 -0.81749746228E+02  0.28976002312E+02  0.26829949599E+02  0.90884257789E+02  0.41800000000E+01 0.  1.
        -11    1    1    2    0    0  0.68265378140E+01 -0.46423744489E+02  0.96958889396E+01  0.47914256054E+02  0.00000000000E+00 0.  1.
         11    1    1    2    0    0  0.34259353891E+02  0.30018569036E+02 -0.23961403295E+02  0.51468113078E+02  0.00000000000E+00 0. -1.
</event>
<event>
 6    1  0.7017065E-006  0.1250991E+03  0.7561462E-02  0.1234915E+00
          1   -1    0    0  501    0  0.00000000000E+00  0.00000000000E+00  0.27551111850E+03  0.27551111850E+03  0.00000000000E+00 0. -1.
         -1   -1    0    0    0  501 -0.00000000000E+00 -0.00000000000E+00 -0.71737996009E+02  0.71737996009E+02  0.00000000000E+00 0.  1.
          5    1    1    2  502    0  0.52345196798E+02 -0.24978823466E+02  0.10554406529E+03  0.12050304298E+03  0.41800000000E+01 0. -1.
         -5    1    1    2    0  502 -0.87075290580E+02  0.38434539984E+02  0.16961588357E+02  0.96770284556E+02  0.41800000000E+01 0.  1.
        -11    1    1    2    0    0  0.13704221171E+02 -0.51508566045E+02  0.25008002847E+02  0.58875616857E+02  0.00000000000E+00 0.  1.
         11    1    1    2    0    0  0.21025872612E+02  0.38052849526E+02  0.56259465995E+02  0.71100170114E+02  0.00000000000E+00 0. -1.
</event>
<event>
 7    1  0.7017065E-006  0.1103815E+03  0.7561462E-02  0.1259865E+00
          2   -1    0    0  501    0  0.00000000000E+00  0.00000000000E+00  0.51812514674E+03  0.51812514674E+03  0.00000000000E+00 0. -1.
         -2   -1    0    0    0  501 -0.00000000000E+00 -0.00000000000E+00 -0.26350816136E+02  0.26350816136E+02  0.00000000000E+00 0.  1.
         23    2    1    2    0    0  0.23828821045E+02 -0.10038296274E+02  0.19782381945E+03  0.23547807355E+03  0.12508828673E+03 0.  0.
          5    1    3    3  502    0  0.52382079037E+02  0.41155109590E+02  0.83173009349E+02  0.10664355177E+03  0.41800000000E+01 0. -1.
         -5    1    3    3    0  502 -0.28553257992E+02 -0.51193405864E+02  0.11465081010E+03  0.12883452178E+03  0.41800000000E+01 0. -1.
        -11    1    1    2    0    0  0.14804450543E+02 -0.33750431258E+02  0.11288555666E+03  0.11874936745E+03  0.00000000000E+00 0.  1.
         11    1    1    2    0    0 -0.38633271588E+02  0.43788727532E+02  0.18106495449E+03  0.19024852188E+03  0.00000000000E+00 0. -1.
</event>
<event>
 7    1  0.7017065E-006  0.9086842E+02  0.7561462E-02  0.1300762E+00
          1   -1    0    0  501    0  0.00000000000E+00  0.00000000000E+00  0.42523891749E+02  0.42523891749E+02  0.00000000000E+00 0. -1.
         -1   -1    0    0    0  501 -0.00000000000E+00 -0.00000000000E+00 -0.50177117400E+03  0.50177117400E+03  0.00000000000E+00 0.  1.
         23    2    1    2    0    0 -0.13619592021E+02  0.31684041173E+02 -0.41961712732E+03  0.43922121927E+03  0.12508946464E+03 0.  0.
          5    1    3    3  502    0 -0.35576849258E+02  0.52419078778E+02 -0.10200929781E+03  0.12015340720E+03  0.41800000000E+01 0.  1.
         -5    1    3    3    0  502  0.21957257238E+02 -0.20735037605E+02 -0.31760782951E+03  0.31906781207E+03  0.41800000000E+01 0.  1.
        -11    1    1    2    0    0  0.17274601109E+02  0.25312460728E+02  0.68919018307E+01  0.31410680069E+02  0.00000000000E+00 0. -1.
         11    1    1    2    0    0 -0.36550090885E+01 -0.56996501900E+02 -0.46522056761E+02  0.73663166410E+02  0.00000000000E+00 0.  1.
</event>
<event>
 6    1  0.7017065E-006  0.1473471E+03  0.7561462E-02  0.1203771E+00
          1   -1    0    0  501    0  0.00000000000E+00  0.00000000000E+00  0.12645187244E+04  0.12645187244E+04  0.00000000000E+00 0. -1.
         -1   -1    0    0    0  501 -0.00000000000E+00 -0.00000000000E+00 -0.18941788642E+02  0.18941788642E+02  0.00000000000E+00 0.  1.
          5    1    1    2  502    0 -0.13342232186E+03  0.60110884003E+01  0.54385265919E+03  0.56002753188E+03  0.41800000000E+01 0. -1.
         -5    1    1    2    0  502  0.51799340654E+02 -0.61735616743E+01  0.25251420027E+03  0.25788016267E+03  0.41800000000E+01 0.  1.
        -11    1    1    2    0    0  0.20502416502E+02  0.33380403837E+02  0.71858385912E+02  0.81842703209E+02  0.00000000000E+00 0. -1.
         11    1    1    2    0    0  0.61120564709E+02 -0.33217930563E+02  0.37735169041E+03  0.38371011532E+03  0.00000000000E+00 0.  1.
</event>
<event>
 7    1  0.7017065E-006  0.9918997E+02  0.7561462E-02  0.1282009E+00
         -2   -1    0    0    0  501 -0.00000000000E+00  0.00000000000E+00  0.12626841982E+03  0.12626841982E+03  0.00000000000E+00 0.  1.
          2   -1    0    0  501    0  0.00000000000E+00 -0.00000000000E+00 -0.14738122402E+03  0.14738122402E+03  0.00000000000E+00 0. -1.
         23    2    1    2    0    0  0.42151537523E+02  0.55907650347E+01  0.59854681443E+02  0.14504539258E+03  0.12509026440E+03 0.  0.
          5    1    3    3  502    0  0.58298375009E+01 -0.57745712945E+02  0.34472342667E+02  0.67634082959E+02  0.41800000000E+01 0.  1.
         -5    1    3    3    0  502  0.36321700022E+02  0.63336477980E+02  0.25382338777E+02  0.77411309620E+02  0.41800000000E+01 0.  1.
        -11    1    1    2    0    0 -0.44666325740E+02 -0.22465331447E+02 -0.94444662022E+02  0.10686236923E+03  0.00000000000E+00 0. -1.
         11    1    1    2    0    0  0.25147882167E+01  0.16874566412E+02  0.13477176380E+02  0.21741882038E+02  0.00000000000E+00 0.  1.
</event>
<event>
 7    1  0.7017065E-006  0.1767175E+03  0.7561462E-02  0.1171018E+00
          1   -1    0    0  501    0  0.00000000000E+00  0.00000000000E+00  0.13928486172E+03  0.13928486172E+03  0.00000000000E+00 0. -1.
         -1   -1    0    0    0  501 -0.00000000000E+00 -0.00000000000E+00 -0.23639957162E+03  0.23639957162E+03  0.00000000000E+00 0.  1.
         23    2    1    2    0    0  0.12576991087E+03  0.67314258680E+02 -0.77640729434E+02  0.20500057499E+03  0.12509145845E+03 0.  0.
          5    1    3    3  502    0  0.11244072889E+03 -0.33042231209E+01 -0.23669875362E+02  0.11502856516E+03  0.41800000000E+01 0.  1.
         -5    1    3    3    0  502  0.13329181985E+02  0.70618481800E+02 -0.53970854072E+02  0.89972009833E+02  0.41800000000E+01 0.  1.
        -11    1    1    2    0    0 -0.11509430727E+03 -0.88481185335E+02 -0.22042924712E+02  0.14683838141E+03  0.00000000000E+00 0. -1.
         11    1    1    2    0    0 -0.10675603597E+02  0.21166926655E+02  0.25689442457E+01  0.23845476945E+02  0.00000000000E+00 0.  1.
</event>
<event>
 7    1  0.7017065E-006  0.1132742E+03  0.7561462E-02  0.1254624E+00
          1   -1    0    0  501    0  0.00000000000E+00  0.00000000000E+00  0.56236012692E+03  0.56236012692E+03  0.00000000000E+00 0. -1.
         -1   -1    0    0    0  501 -0.00000000000E+00 -0.00000000000E+00 -0.33230924453E+02  0.33230924453E+02  0.00000000000E+00 0.  1.
         23    2    1    2    0    0 -0.69378134446E+02 -0.17240328504E+02  0.20191447651E+03  0.24804721903E+03  0.12508961818E+03 0.  0.
          5    1    3    3  502    0 -0.67637687889E+02 -0.56541662896E+02  0.18509369016E+03  0.20505843802E+03  0.41800000000E+01 0. -1.
         -5    1    3    3    0  502 -0.17404465566E+01  0.39301334392E+02  0.16820786353E+02  0.42988781010E+02  0.41800000000E+01 0. -1.
        -11    1    1    2    0    0  0.63226355973E+00  0.28981811070E+02  0.27979500559E+02  0.40288926290E+02  0.00000000000E+00 0.  1.
         11    1    1    2    0    0  0.68745870886E+02 -0.11741482565E+02  0.29923522540E+03  0.30725490606E+03  0.00000000000E+00 0. -1.
</event>
<event>
 7    1  0.7017065E-006  0.2010392E+03  0.7561462E-02  0.1148865E+00
          1   -1    0    0  501    0  0.00000000000E+00  0.00000000000E+00  0.25285972568E+03  0.25285972568E+03  0.00000000000E+00 0. -1.
         -1   -1    0    0    0  501 -0.00000000000E+00 -0.00000000000E+00 -0.27725888884E+03  0.27725888884E+03  0.00000000000E+00 0.  1.
         23    2    1    2    0    0  0.13693956146E+03  0.11663450069E+03 -0.17355118648E+03  0.27950685250E+03  0.12509203020E+03 0.  0.
          5    1    3    3  502    0  0.13160018040E+03  0.14152144381E+03 -0.15248520550E+03  0.24620344602E+03  0.41800000000E+01 0. -1.
         -5    1    3    3    0  502  0.53393810621E+01 -0.24886943119E+02 -0.21065980981E+02  0.33303406471E+02  0.41800000000E+01 0. -1.
        -11    1    1    2    0    0 -0.73227880923E+02 -0.83880458785E+02  0.13924759953E+03  0.17829231022E+03  0.00000000000E+00 0. -1.
         11    1    1    2    0    0 -0.63711680539E+02 -0.32754041905E+02  0.99044237985E+01  0.72319451802E+02  0.00000000000E+00 0.  1.
</event>
<event>
 7    1  0.7017065E-006  0.1164083E+03  0.7561462E-02  0.1249143E+00
          1   -1    0    0  501    0  0.00000000000E+00  0.00000000000E+00  0.17740113053E+03  0.17740113053E+03  0.00000000000E+00 0. -1.
         -1   -1    0    0    0  501 -0.00000000000E+00 -0.00000000000E+00 -0.10735972353E+03  0.10735972353E+03  0.00000000000E+00 0.  1.
         23    2    1    2    0    0  0.93949384728E+01  0.88112494353E+02  0.34404167972E+02  0.15711647828E+03  0.12509941824E+03 0.  0.
          5    1    3    3  502    0  0.29669283703E+02  0.11821847823E+02  0.64848483982E+02  0.72407325293E+02  0.41800000000E+01 0.  1.
         -5    1    3    3    0  502 -0.20274345230E+02  0.76290646530E+02 -0.30444316010E+02  0.84709152987E+02  0.41800000000E+01 0.  1.
        -11    1    1    2    0    0 -0.45103508952E+02 -0.32996047483E+02  0.82514873950E+01  0.56490288666E+02  0.00000000000E+00 0.  1.
         11    1    1    2    0    0  0.35708570479E+02 -0.55116446871E+02  0.27385751630E+02  0.71154087118E+02  0.00000000000E+00 0. -1.
</event>
<event>
 7    1  0.7017065E-006  0.9137988E+02  0.7561462E-02  0.1299544E+00
         -1   -1    0    0    0  501 -0.00000000000E+00  0.00000000000E+00  0.11034233593E+03  0.11034233593E+03  0.00000000000E+00 0.  1.
          1   -1    0    0  501    0  0.00000000000E+00 -0.00000000000E+00 -0.25395278199E+03  0.25395278199E+03  0.00000000000E+00 0. -1.
         23    2    1    2    0    0 -0.69577463575E+02  0.18135235924E+02  0.36880350273E+02  0.14892131269E+03  0.12508991534E+03 0.  0.
          5    1    3    3  502    0 -0.23840633709E+02 -0.16713220946E+02 -0.41964885024E+02  0.51246771071E+02  0.41800000000E+01 0. -1.
         -5    1    3    3    0  502 -0.45736829865E+02  0.34848456870E+02  0.78845235297E+02  0.97674541624E+02  0.41800000000E+01 0. -1.
        -11    1    1    2    0    0  0.39094202007E+02 -0.41703353266E+02 -0.40186559339E+02  0.69874786982E+02  0.00000000000E+00 0.  1.
         11    1    1    2    0    0  0.30483261568E+02  0.23568117343E+02 -0.14030423699E+03  0.14549901824E+03  0.00000000000E+00 0. -1.
</event>
<event>
 7    1  0.7017065E-006  0.1595169E+03  0.7561462E-02  0.1189243E+00
          3   -1    0    0  501    0  0.00000000000E+00  0.00000000000E+00  0.33741297619E+02  0.33741297619E+02  0.00000000000E+00 0. -1.
         -3   -1    0    0    0  501 -0.00000000000E+00 -0.00000000000E+00 -0.99609588534E+03  0.99609588534E+03  0.00000000000E+00 0.  1.
         23    2    1    2    0    0  0.12315024161E+03  0.72920648471E+02 -0.61062797214E+03  0.63952967434E+03  0.12509308941E+03 0.  0.
          5    1    3    3  502    0  0.91270339233E+02  0.46758177512E+00 -0.18214336633E+03  0.20377480647E+03  0.41800000000E+01 0.  1.
         -5    1    3    3    0  502  0.31879902379E+02  0.72453066696E+02 -0.42848460582E+03  0.43575486787E+03  0.41800000000E+01 0.  1.
        -11    1    1    2    0    0 -0.41173983209E+02 -0.46863276823E+02 -0.61490902226E+02  0.87593348289E+02  0.00000000000E+00 0. -1.
         11    1    1    2    0    0 -0.81976258403E+02 -0.26057371648E+02 -0.29023571335E+03  0.30271416032E+03  0.00000000000E+00 0.  1.
</event>
<event>
 7    1  0.7017065E-006  0.1075603E+03  0.7561462E-02  0.1265156E+00
          1   -1    0    0  501    0  0.00000000000E+00  0.00000000000E+00  0.12437434064E+03  0.12437434064E+03  0.00000000000E+00 0. -1.
         -1   -1    0    0    0  501 -0.00000000000E+00 -0.00000000000E+00 -0.11061897086E+03  0.11061897086E+03  0.00000000000E+00 0.  1.
         23    2    1    2    0    0  0.44569154969E+02  0.48380445588E+01  0.15255814961E+02  0.13375300891E+03  0.12508921318E+03 0.  0.
          5    1    3    3  502    0  0.82345764447E+02  0.12834420259E+02  0.34635435154E+02  0.90347291238E+02  0.41800000000E+01 0. -1.
         -5    1    3    3    0  502 -0.37776609478E+02 -0.79963757003E+01 -0.19379620193E+02  0.43405717674E+02  0.41800000000E+01 0. -1.
        -11    1    1    2    0    0 -0.26791662198E+02  0.37977663764E+02 -0.20931927981E+02  0.50972950839E+02  0.00000000000E+00 0.  1.
         11    1    1    2    0    0 -0.17777492771E+02 -0.42815708322E+02  0.19431482803E+02  0.50267351754E+02  0.00000000000E+00 0. -1.
</event>
<event>
 7    1  0.7017065E-006  0.1276732E+03  0.7561462E-02  0.1230950E+00
          4   -1    0    0  501    0  0.00000000000E+00  0.00000000000E+00  0.26422985049E+03  0.26422985049E+03  0.00000000000E+00 0. -1.
         -4   -1    0    0    0  501 -0.00000000000E+00 -0.00000000000E+00 -0.87358992233E+02  0.87358992233E+02  0.00000000000E+00 0.  1.
         23    2    1    2    0    0  0.69625174944E+02  0.75765404716E+02  0.61148353810E+02  0.17313256159E+03  0.12509077173E+03 0.  0.
          5    1    3    3  502    0  0.36099914321E+02  0.78649777800E+02  0.92651116687E+02  0.12684909612E+03  0.41800000000E+01 0. -1.
         -5    1    3    3    0  502  0.33525260623E+02 -0.28843730837E+01 -0.31502762877E+02  0.46283465480E+02  0.41800000000E+01 0. -1.
        -11    1    1    2    0    0 -0.45902271824E+02  0.90001436566E+01  0.29878981636E+02  0.55504726718E+02  0.00000000000E+00 0.  1.
         11    1    1    2    0    0 -0.23722903120E+02 -0.84765548373E+02  0.85843522811E+02  0.12295155441E+03  0.00000000000E+00 0. -1.
</event>
<event>
 7    1  0.7017065E-006  0.1155821E+03  0.7561462E-02  0.1250568E+00
          1   -1    0    0  501    0  0.00000000000E+00  0.00000000000E+00  0.37977936657E+03  0.37977936657E+03  0.00000000000E+00 0. -1.
         -1   -1    0    0    0  501 -0.00000000000E+00 -0.00000000000E+00 -0.54185450499E+02  0.54185450499E+02  0.00000000000E+00 0.  1.
         23    2    1    2    0    0 -0.80341937431E+02  0.32639856173E+02  0.98719537293E+02  0.18141975155E+03  0.12508953628E+03 0.  0.
          5    1    3    3  502    0 -0.77512381966E+02  0.70611643711E+02  0.97273556775E+02  0.14308665498E+03  0.41800000000E+01 0. -1.
         -5    1    3    3    0  502 -0.28295554651E+01 -0.37971787539E+02  0.14459805183E+01  0.38333096570E+02  0.41800000000E+01 0. -1.
        -11    1    1    2    0    0  0.44504094236E+02 -0.25785617827E+02  0.49248875403E+02  0.71210702980E+02  0.00000000000E+00 0.  1.
         11    1    1    2    0    0  0.35837843195E+02 -0.68542383453E+01  0.17762550338E+03  0.18133436254E+03  0.00000000000E+00 0. -1.
</event>
<event>
 7    1  0.7017065E-006  0.7771612E+02  0.7561462E-02  0.1335661E+00
          3   -1    0    0  501    0  0.00000000000E+00  0.00000000000E+00  0.51204137858E+02  0.51204137858E+02  0.00000000000E+00 0. -1.
         -3   -1    0    0    0  501 -0.00000000000E+00 -0.00000000000E+00 -0.37073390375E+03  0.37073390375E+03  0.00000000000E+00 0.  1.
         23    2    1    2    0    0 -0.47779908437E+02 -0.27872779671E+02 -0.26511532768E+03  0.29832004829E+03  0.12509557444E+03 0.  0.
          5    1    3    3  502    0 -0.62148074101E+01 -0.31037707529E+00 -0.24381098677E+03  0.24392619752E+03  0.41800000000E+01 0.  1.
         -5    1    3    3    0  502 -0.41565101027E+02 -0.27562402596E+02 -0.21304340908E+02  0.54393850772E+02  0.41800000000E+01 0.  1.
        -11    1    1    2    0    0  0.13058506619E+02 -0.28687885731E+02  0.79922449269E+01  0.32517616176E+02  0.00000000000E+00 0. -1.
         11    1    1    2    0    0  0.34721401818E+02  0.56560665402E+02 -0.62406683139E+02  0.91100377142E+02  0.00000000000E+00 0.  1.
</event>
<event>
 7    1  0.7017065E-006  0.8369533E+02  0.7561462E-02  0.1318880E+00
         -2   -1    0    0    0  501 -0.00000000000E+00  0.00000000000E+00  0.35428189318E+02  0.35428189318E+02  0.00000000000E+00 0.  1.
          2   -1    0    0  501    0  0.00000000000E+00 -0.00000000000E+00 -0.42648336730E+03  0.42648336730E+03  0.00000000000E+00 0. -1.
         23    2    1    2    0    0 -0.54540581898E+02 -0.23292183597E+02 -0.24358072030E+03  0.28021824319E+03  0.12519383223E+03 0.  0.
          5    1    3    3  502    0 -0.71515022522E+02 -0.27911078235E+02 -0.24959115474E+03  0.26116401678E+03  0.41800000000E+01 0. -1.
         -5    1    3    3    0  502  0.16974440625E+02  0.46188946376E+01  0.60104344432E+01  0.19054226418E+02  0.41800000000E+01 0. -1.
        -11    1    1    2    0    0  0.30065753946E+02 -0.94792867944E+01 -0.31463136576E+01  0.31681315126E+02  0.00000000000E+00 0.  1.
         11    1    1    2    0    0  0.24474827952E+02  0.32771470392E+02 -0.14432814402E+03  0.15001199829E+03  0.00000000000E+00 0. -1.
</event>
<event>
 7    1  0.7017065E-006  0.1667346E+03  0.7561462E-02  0.1181297E+00
         -2   -1    0    0    0  501 -0.00000000000E+00  0.00000000000E+00  0.26050097856E+03  0.26050097856E+03  0.00000000000E+00 0. -1.
          2   -1    0    0  501    0  0.00000000000E+00 -0.00000000000E+00 -0.53571112088E+03  0.53571112088E+03  0.00000000000E+00 0.  1.
         23    2    1    2    0    0  0.84993440267E+02  0.13506493978E+03  0.20132153387E+03  0.28540050123E+03  0.12432482960E+03 0.  0.
          5    1    3    3  502    0  0.28912200874E+02  0.87298138145E+02  0.18949708631E+03  0.21067391486E+03  0.41800000000E+01 0. -1.
         -5    1    3    3    0  502  0.56081239393E+02  0.47766801637E+02  0.11824447566E+02  0.74726586371E+02  0.41800000000E+01 0. -1.
        -11    1    1    2    0    0 -0.38041891336E+02 -0.10548571646E+03 -0.20497708750E+03  0.23364509041E+03  0.00000000000E+00 0. -1.
         11    1    1    2    0    0 -0.46951548930E+02 -0.29579223326E+02 -0.27155458870E+03  0.27716650780E+03  0.00000000000E+00 0.  1.
</event>
<event>
 7    1  0.7017065E-006  0.1155064E+03  0.7561462E-02  0.1250700E+00
         -1   -1    0    0    0  501 -0.00000000000E+00  0.00000000000E+00  0.40663262570E+03  0.40663262570E+03  0.00000000000E+00 0.  1.
          1   -1    0    0  501    0  0.00000000000E+00 -0.00000000000E+00 -0.35371905581E+02  0.35371905581E+02  0.00000000000E+00 0. -1.
         23    2    1    2    0    0  0.40736021979E+02  0.18447958427E+02  0.25972279593E+03  0.29172161804E+03  0.12508325647E+03 0.  0.
          5    1    3    3  502    0  0.50213087964E+02 -0.44198791779E+02  0.16034900730E+03  0.17379345195E+03  0.41800000000E+01 0.  1.
         -5    1    3    3    0  502 -0.94770659851E+01  0.62646750207E+02  0.99373788628E+02  0.11792816609E+03  0.41800000000E+01 0.  1.
        -11    1    1    2    0    0 -0.67588735576E+02  0.56009541449E+00  0.70189265061E+02  0.97442720679E+02  0.00000000000E+00 0. -1.
         11    1    1    2    0    0  0.26852713597E+02 -0.19008053842E+02  0.41348659125E+02  0.52840192561E+02  0.00000000000E+00 0.  1.
</event>
<event>
 7    1  0.7017065E-006  0.1437503E+03  0.7561462E-02  0.1208370E+00
          1   -1    0    0  501    0  0.00000000000E+00  0.00000000000E+00  0.86587346781E+03  0.86587346781E+03  0.00000000000E+00 0. -1.
         -1   -1    0    0    0  501 -0.00000000000E+00 -0.00000000000E+00 -0.30749468480E+02  0.30749468480E+02  0.00000000000E+00 0.  1.
         23    2    1    2    0    0  0.10382567178E+03 -0.52441218232E+02  0.54553109263E+03  0.57164812606E+03  0.12509018953E+03 0.  0.
          5    1    3    3  502    0  0.36226507438E+02 -0.84178971631E+02  0.36241008438E+03  0.37384087626E+03  0.41800000000E+01 0. -1.
         -5    1    3    3    0  502  0.67599164342E+02  0.31737753399E+02  0.18312100825E+03  0.19780724980E+03  0.41800000000E+01 0. -1.
        -11    1    1    2    0    0 -0.20903218584E+02 -0.31424831619E+01  0.28228571552E+01  0.21325765405E+02  0.00000000000E+00 0.  1.
         11    1    1    2    0    0 -0.82922453197E+02  0.55583701394E+02  0.28677004955E+03  0.30364904483E+03  0.00000000000E+00 0. -1.
</event>
<event>
 7    1  0.7017065E-006  0.2139042E+03  0.7561462E-02  0.1138511E+00
          1   -1    0    0  501    0  0.00000000000E+00  0.00000000000E+00  0.93570476120E+03  0.93570476120E+03  0.00000000000E+00 0. -1.
         -1   -1    0    0    0  501 -0.00000000000E+00 -0.00000000000E+00 -0.96947343132E+02  0.96947343132E+02  0.00000000000E+00 0.  1.
         23    2    1    2    0    0 -0.19453675193E+03 -0.36668429294E+02  0.87092326005E+02  0.24984360310E+03  0.12509049205E+03 0.  0.
          5    1    3    3  502    0  0.33960631668E+01  0.10777237814E+02  0.38777764015E+02  0.40606273923E+02  0.41800000000E+01 0.  1.
         -5    1    3    3    0  502 -0.19793281509E+03 -0.47445667108E+02  0.48314561990E+02  0.20923732917E+03  0.41800000000E+01 0.  1.
        -11    1    1    2    0    0  0.99451602757E+02  0.57443346111E+02  0.49898958239E+03  0.51203609505E+03  0.00000000000E+00 0.  1.
         11    1    1    2    0    0  0.95085149171E+02 -0.20774916816E+02  0.25267550967E+03  0.27077240618E+03  0.00000000000E+00 0. -1.
</event>
<event>
 7    1  0.7017065E-006  0.1043098E+03  0.7561462E-02  0.1271485E+00
         -1   -1    0    0    0  501 -0.00000000000E+00  0.00000000000E+00  0.16630823965E+03  0.16630823965E+03  0.00000000000E+00 0.  1.
          1   -1    0    0  501    0  0.00000000000E+00 -0.00000000000E+00 -0.79066394032E+02  0.79066394032E+02  0.00000000000E+00 0. -1.
         23    2    1    2    0    0  0.19603360701E+02 -0.31407532950E+02  0.56774127622E+02  0.14227413683E+03  0.12509158072E+03 0.  0.
          5    1    3    3  502    0 -0.21699541208E+02 -0.58208187662E+02 -0.58121879014E+01  0.62532528556E+02  0.41800000000E+01 0.  1.
         -5    1    3    3    0  502  0.41302901908E+02  0.26800654712E+02  0.62586315523E+02  0.79741608272E+02  0.41800000000E+01 0.  1.
        -11    1    1    2    0    0 -0.11013538048E+01  0.61559027035E+02  0.28006241576E+02  0.67639310737E+02  0.00000000000E+00 0.  1.
         11    1    1    2    0    0 -0.18502006896E+02 -0.30151494086E+02  0.24614764225E+01  0.35461186119E+02  0.00000000000E+00 0. -1.
</event>
<event>
 7    1  0.7017065E-006  0.1062893E+03  0.7561462E-02  0.1267600E+00
         -3   -1    0    0    0  501 -0.00000000000E+00  0.00000000000E+00  0.64267894619E+03  0.64267894619E+03  0.00000000000E+00 0.  1.
          3   -1    0    0  501    0  0.00000000000E+00 -0.00000000000E+00 -0.23564424869E+02  0.23564424869E+02  0.00000000000E+00 0. -1.
         23    2    1    2    0    0  0.23172309121E+02  0.44135949438E+01  0.49379352251E+03  0.50993731371E+03  0.12509030859E+03 0.  0.
          5    1    3    3  502    0 -0.50917207880E+02 -0.33281313246E+01  0.16380636595E+03  0.17162061777E+03  0.41800000000E+01 0. -1.
         -5    1    3    3    0  502  0.74089517001E+02  0.77417262684E+01  0.32998715656E+03  0.33831669594E+03  0.41800000000E+01 0. -1.
        -11    1    1    2    0    0 -0.16158404260E+02  0.39303569008E+02  0.90489889163E+02  0.99971418944E+02  0.00000000000E+00 0.  1.
         11    1    1    2    0    0 -0.70139048605E+01 -0.43717163952E+02  0.34831109639E+02  0.56334638404E+02  0.00000000000E+00 0. -1.
</event>
<event>
 6    1  0.7017065E-006  0.3102929E+03  0.7561462E-02  0.1080206E+00
         -1   -1    0    0    0  501 -0.00000000000E+00  0.00000000000E+00  0.11786847203E+03  0.11786847203E+03  0.00000000000E+00 0.  1.
          1   -1    0    0  501    0  0.00000000000E+00 -0.00000000000E+00 -0.16961682888E+04  0.16961682888E+04  0.00000000000E+00 0. -1.
          5    1    1    2  502    0  0.10035947051E+03 -0.56260458043E+02 -0.15156786222E+03  0.19033536645E+03  0.41800000000E+01 0. -1.
         -5    1    1    2    0  502 -0.71022972949E+02 -0.20894523367E+03 -0.63604576476E+02  0.22970717862E+03  0.41800000000E+01 0.  1.
        -11    1    1    2    0    0  0.33718402679E+02  0.14635952471E+03 -0.56577170735E+03  0.58536797486E+03  0.00000000000E+00 0.  1.
         11    1    1    2    0    0 -0.63054900243E+02  0.11884616700E+03 -0.79735567067E+03  0.80862624086E+03  0.00000000000E+00 0. -1.
</event>
<event>
 7    1  0.7017065E-006  0.8585667E+02  0.7561462E-02  0.1313207E+00
         -2   -1    0    0    0  501 -0.00000000000E+00  0.00000000000E+00  0.12763735308E+03  0.12763735308E+03  0.00000000000E+00 0.  1.
          2   -1    0    0  501    0  0.00000000000E+00 -0.00000000000E+00 -0.10079879342E+03  0.10079879342E+03  0.00000000000E+00 0. -1.
         23    2    1    2    0    0  0.28046238056E+01 -0.35804112022E+02  0.15827711183E+02  0.13110239989E+03  0.12509005741E+03 0.  0.
          5    1    3    3  502    0  0.52912919992E+02  0.12034504378E+02 -0.12990178214E+02  0.55953762409E+02  0.41800000000E+01 0.  1.
         -5    1    3    3    0  502 -0.50108296187E+02 -0.47838616400E+02  0.28817889397E+02  0.75148637480E+02  0.41800000000E+01 0.  1.
        -11    1    1    2    0    0  0.13313947711E+02  0.74163157338E+01  0.46606779712E+02  0.49035240978E+02  0.00000000000E+00 0.  1.
         11    1    1    2    0    0 -0.16118571516E+02  0.28387796288E+02 -0.35595931231E+02  0.48298505630E+02  0.00000000000E+00 0. -1.
</event>
<event>
 7    1  0.7017065E-006  0.8093262E+02  0.7561462E-02  0.1326425E+00
          1   -1    0    0  501    0  0.00000000000E+00  0.00000000000E+00  0.28981254835E+03  0.28981254835E+03  0.00000000000E+00 0. -1.
         -1   -1    0    0    0  501 -0.00000000000E+00 -0.00000000000E+00 -0.48040160598E+02  0.48040160598E+02  0.00000000000E+00 0.  1.
         23    2    1    2    0    0 -0.38242299573E+02 -0.21183895776E+02  0.11679603582E+03  0.17662957213E+03  0.12508181662E+03 0.  0.
          5    1    3    3  502    0 -0.65031159545E+02  0.19995795029E+02  0.25324438233E+02  0.72716456889E+02  0.41800000000E+01 0.  1.
         -5    1    3    3    0  502  0.26788859972E+02 -0.41179690805E+02  0.91471597585E+02  0.10391311524E+03  0.41800000000E+01 0.  1.
        -11    1    1    2    0    0  0.14264635058E+02  0.37439296213E+01 -0.13266375579E+02  0.19836671681E+02  0.00000000000E+00 0.  1.
         11    1    1    2    0    0  0.23977664515E+02  0.17439966155E+02  0.13824272752E+03  0.14138646515E+03  0.00000000000E+00 0. -1.
</event>
<event>
 7    1  0.1239298E-005  0.3970123E+03  0.7561462E-02  0.1044819E+00
         -1   -1    0    0    0  501 -0.00000000000E+00  0.00000000000E+00  0.13520386027E+03  0.13520386027E+03  0.00000000000E+00 0.  1.
          1   -1    0    0  501    0  0.00000000000E+00 -0.00000000000E+00 -0.13230939358E+04  0.13230939358E+04  0.00000000000E+00 0. -1.
         23    2    1    2    0    0  0.34664988832E+03  0.18085424846E+03 -0.39489119839E+03  0.56961479005E+03  0.12509015239E+03 0.  0.
          5    1    3    3  502    0  0.14168498468E+02 -0.16929796267E+00 -0.67504491263E+02  0.69102125519E+02  0.41800000000E+01 0. -1.
         -5    1    3    3    0  502  0.33248138985E+03  0.18102354642E+03 -0.32738670712E+03  0.50051266453E+03  0.41800000000E+01 0. -1.
        -11    1    1    2    0    0 -0.15043895987E+03 -0.12782244336E+03 -0.36910468867E+03  0.41857941764E+03  0.00000000000E+00 0.  1.
         11    1    1    2    0    0 -0.19621092845E+03 -0.53031805093E+02 -0.42389418850E+03  0.47010358841E+03  0.00000000000E+00 0. -1.
</event>
<event>
 7    1  0.8793822E-006  0.2242259E+03  0.7561462E-02  0.1130771E+00
         -2   -1    0    0    0  501 -0.00000000000E+00  0.00000000000E+00  0.56539475977E+02  0.56539475977E+02  0.00000000000E+00 0.  1.
          2   -1    0    0  501    0  0.00000000000E+00 -0.00000000000E+00 -0.12431712850E+04  0.12431712850E+04  0.00000000000E+00 0. -1.
         23    2    1    2    0    0 -0.17748035287E+03 -0.10147151257E+03 -0.29303003110E+03  0.37856265818E+03  0.12508934216E+03 0.  0.
          5    1    3    3  502    0 -0.17595784208E+02 -0.74767414171E+02 -0.82074153625E+02  0.11248740790E+03  0.41800000000E+01 0. -1.
         -5    1    3    3    0  502 -0.15988456866E+03 -0.26704098400E+02 -0.21095587748E+03  0.26607525028E+03  0.41800000000E+01 0. -1.
        -11    1    1    2    0    0  0.80234855622E+02  0.71888571773E+02 -0.61969600781E+03  0.62899025502E+03  0.00000000000E+00 0.  1.
         11    1    1    2    0    0  0.97245497244E+02  0.29582940799E+02 -0.27390577009E+03  0.29215784777E+03  0.00000000000E+00 0. -1.
</event>
<event>
 7    1  0.7017065E-006  0.2083526E+03  0.7561462E-02  0.1142877E+00
         -1   -1    0    0    0  501 -0.00000000000E+00  0.00000000000E+00  0.17475781865E+03  0.17475781865E+03  0.00000000000E+00 0.  1.
          1   -1    0    0  501    0  0.00000000000E+00 -0.00000000000E+00 -0.25632071779E+03  0.25632071779E+03  0.00000000000E+00 0. -1.
         23    2    1    2    0    0 -0.17367301195E+03  0.50145221117E+02 -0.53302590187E+02  0.22619833947E+03  0.12509062466E+03 0.  0.
          5    1    3    3  502    0 -0.11642725591E+03 -0.29900466613E+02 -0.18280595514E+02  0.12165934569E+03  0.41800000000E+01 0. -1.
         -5    1    3    3    0  502 -0.57245756041E+02  0.80045687730E+02 -0.35021994673E+02  0.10453899378E+03  0.41800000000E+01 0. -1.
        -11    1    1    2    0    0  0.45532475388E+02  0.22329441528E+02  0.12290982464E+02  0.52181208532E+02  0.00000000000E+00 0. -1.
         11    1    1    2    0    0  0.12814053656E+03 -0.72474662645E+02 -0.40551291414E+02  0.15269898844E+03  0.00000000000E+00 0.  1.
</event>
<event>
 6    1  0.7017065E-006  0.1072052E+03  0.7561462E-02  0.1265835E+00
          2   -1    0    0  501    0  0.00000000000E+00  0.00000000000E+00  0.37030272947E+03  0.37030272947E+03  0.00000000000E+00 0. -1.
         -2   -1    0    0    0  501 -0.00000000000E+00 -0.00000000000E+00 -0.57913439296E+02  0.57913439296E+02  0.00000000000E+00 0.  1.
          5    1    1    2  502    0 -0.25555955985E+02 -0.24294717594E+02  0.10990096698E+03  0.11549474071E+03  0.41800000000E+01 0. -1.
         -5    1    1    2    0  502  0.62265995850E+02  0.58058457328E+02  0.48417325582E+00  0.85238169444E+02  0.41800000000E+01 0.  1.
        -11    1    1    2    0    0 -0.57520357501E+02 -0.42065319001E+02  0.18802270995E+03  0.20107367318E+03  0.00000000000E+00 0. -1.
         11    1    1    2    0    0  0.20810317637E+02  0.83015792671E+01  0.13981439996E+02  0.26409585435E+02  0.00000000000E+00 0.  1.
</event>
<event>
 7    1  0.7017065E-006  0.5686695E+02  0.7561462E-02  0.1411471E+00
         -1   -1    0    0    0  501 -0.00000000000E+00  0.00000000000E+00  0.19959744348E+02  0.19959744348E+02  0.00000000000E+00 0.  1.
          1   -1    0    0  501    0  0.00000000000E+00 -0.00000000000E+00 -0.59754447418E+03  0.59754447418E+03  0.00000000000E+00 0. -1.
         23    2    1    2    0    0 -0.11301655135E+02 -0.57320652441E+01 -0.34666873987E+03  0.36876520393E+03  0.12509187204E+03 0.  0.
          5    1    3    3  502    0 -0.68467922931E+01 -0.19461261832E+02  0.70988761532E+00  0.21061709742E+02  0.41800000000E+01 0.  1.
         -5    1    3    3    0  502 -0.44548628423E+01  0.13729196588E+02 -0.34737862748E+03  0.34770349419E+03  0.41800000000E+01 0.  1.
        -11    1    1    2    0    0  0.22300333766E+02 -0.31635041268E+02 -0.47698246882E+02  0.61426407007E+02  0.00000000000E+00 0. -1.
         11    1    1    2    0    0 -0.10998678631E+02  0.37367106512E+02 -0.18321774308E+03  0.18731260758E+03  0.00000000000E+00 0.  1.
</event>
<event>
 7    1  0.7017065E-006  0.7764542E+02  0.7561462E-02  0.1335869E+00
         -1   -1    0    0    0  501 -0.00000000000E+00  0.00000000000E+00  0.10635449596E+03  0.10635449596E+03  0.00000000000E+00 0.  1.
          1   -1    0    0  501    0  0.00000000000E+00 -0.00000000000E+00 -0.13738019476E+03  0.13738019476E+03  0.00000000000E+00 0. -1.
         23    2    1    2    0    0  0.24371895034E+02  0.27799339040E+02  0.22024380727E+02  0.13228647541E+03  0.12509134947E+03 0.  0.
          5    1    3    3  502    0  0.41116180524E+02  0.59978255914E+01 -0.43989697262E+02  0.60655420845E+02  0.41800000000E+01 0. -1.
         -5    1    3    3    0  502 -0.16744285490E+02  0.21801513449E+02  0.66014077989E+02  0.71631054565E+02  0.41800000000E+01 0. -1.
        -11    1    1    2    0    0 -0.48179428741E+02 -0.36428475442E+02 -0.60053379106E+02  0.85174523884E+02  0.00000000000E+00 0. -1.
         11    1    1    2    0    0  0.23807533707E+02  0.86291364011E+01  0.70032995717E+01  0.26273691425E+02  0.00000000000E+00 0.  1.
</event>
<event>
 7    1  0.7017065E-006  0.1079281E+03  0.7561462E-02  0.1264455E+00
          2   -1    0    0  501    0  0.00000000000E+00  0.00000000000E+00  0.19262133838E+03  0.19262133838E+03  0.00000000000E+00 0. -1.
         -2   -1    0    0    0  501 -0.00000000000E+00 -0.00000000000E+00 -0.94356738008E+02  0.94356738008E+02  0.00000000000E+00 0.  1.
         23    2    1    2    0    0  0.65309177623E+02 -0.32006863952E+02  0.19556398330E+02  0.14600920873E+03  0.12508600360E+03 0.  0.
          5    1    3    3  502    0  0.62150572119E+02 -0.50997415687E+02  0.60413079419E+02  0.10065109332E+03  0.41800000000E+01 0. -1.
         -5    1    3    3    0  502  0.31586055044E+01  0.18990551735E+02 -0.40856681089E+02  0.45358115410E+02  0.41800000000E+01 0. -1.
        -11    1    1    2    0    0 -0.12175803982E+01  0.49263118037E+02  0.44022998832E+02  0.66078451305E+02  0.00000000000E+00 0.  1.
         11    1    1    2    0    0 -0.64091597225E+02 -0.17256254085E+02  0.34685203210E+02  0.74890416353E+02  0.00000000000E+00 0. -1.
</event>
<event>
 7    1  0.7017065E-006  0.9565611E+02  0.7561462E-02  0.1289705E+00
          1   -1    0    0  501    0  0.00000000000E+00  0.00000000000E+00  0.38442127379E+03  0.38442127379E+03  0.00000000000E+00 0. -1.
         -1   -1    0    0    0  501 -0.00000000000E+00 -0.00000000000E+00 -0.38166141754E+02  0.38166141754E+02  0.00000000000E+00 0.  1.
         23    2    1    2    0    0  0.29439013004E+02 -0.47061508121E+01  0.11612082112E+03  0.17326772886E+03  0.12509539329E+03 0.  0.
          5    1    3    3  502    0  0.65274737448E+02 -0.79167705143E+01  0.11994073392E+03  0.13684560153E+03  0.41800000000E+01 0. -1.
         -5    1    3    3    0  502 -0.35835724444E+02  0.32106197022E+01 -0.38199127983E+01  0.36422127328E+02  0.41800000000E+01 0. -1.
        -11    1    1    2    0    0 -0.12158276447E+02 -0.39718558542E+02  0.62533565509E+02  0.75072194547E+02  0.00000000000E+00 0. -1.
         11    1    1    2    0    0 -0.17280736557E+02  0.44424709354E+02  0.16760074540E+03  0.17424749214E+03  0.00000000000E+00 0.  1.
</event>
<event>
 7    1  0.7017065E-006  0.9227684E+02  0.7561462E-02  0.1297430E+00
         -2   -1    0    0    0  501 -0.00000000000E+00  0.00000000000E+00  0.62282391531E+02  0.62282391531E+02  0.00000000000E+00 0.  1.
          2   -1    0    0  501    0  0.00000000000E+00 -0.00000000000E+00 -0.24413528564E+03  0.24413528564E+03  0.00000000000E+00 0. -1.
         23    2    1    2    0    0 -0.41217723065E+02 -0.35208189348E+02 -0.78486517740E+02  0.15731872963E+03  0.12510208604E+03 0.  0.
          5    1    3    3  502    0 -0.42698767544E+01 -0.39553341196E+02 -0.10439146114E+03  0.11179332810E+03  0.41800000000E+01 0. -1.
         -5    1    3    3    0  502 -0.36947846310E+02  0.43451518478E+01  0.25904943405E+02  0.45525401529E+02  0.41800000000E+01 0. -1.
        -11    1    1    2    0    0  0.33228257205E+02 -0.27970294830E+02 -0.47766847121E+02  0.64561026585E+02  0.00000000000E+00 0.  1.
         11    1    1    2    0    0  0.79894658597E+01  0.63178484178E+02 -0.55599529253E+02  0.84537920964E+02  0.00000000000E+00 0. -1.
</event>
<event>
 7    1  0.7017065E-006  0.9816855E+02  0.7561462E-02  0.1284195E+00
         -2   -1    0    0    0  501 -0.00000000000E+00  0.00000000000E+00  0.69787717540E+02  0.69787717540E+02  0.00000000000E+00 0. -1.
          2   -1    0    0  501    0  0.00000000000E+00 -0.00000000000E+00 -0.19243770576E+03  0.19243770576E+03  0.00000000000E+00 0.  1.
         23    2    1    2    0    0 -0.60018674898E+01  0.35575382262E+02 -0.46291224696E+02  0.13817295386E+03  0.12508899815E+03 0.  0.
          5    1    3    3  502    0  0.24968138082E+02  0.61199938923E+02 -0.65745594113E+02  0.93320930068E+02  0.41800000000E+01 0.  1.
         -5    1    3    3    0  502 -0.30970005572E+02 -0.25624556661E+02  0.19454369417E+02  0.44852023796E+02  0.41800000000E+01 0.  1.
        -11    1    1    2    0    0 -0.31188979849E+02  0.82048129214E+01 -0.53069788281E+01  0.32683871304E+02  0.00000000000E+00 0.  1.
         11    1    1    2    0    0  0.37190847339E+02 -0.43780195183E+02 -0.71051784695E+02  0.91368598131E+02  0.00000000000E+00 0. -1.
</event>
<event>
 7    1  0.7017065E-006  0.1786050E+03  0.7561462E-02  0.1169160E+00
          1   -1    0    0  501    0  0.00000000000E+00  0.00000000000E+00  0.85625042974E+03  0.85625042974E+03  0.00000000000E+00 0. -1.
         -1   -1    0    0    0  501 -0.00000000000E+00 -0.00000000000E+00 -0.37574031727E+02  0.37574031727E+02  0.00000000000E+00 0.  1.
         23    2    1    2    0    0  0.13722865955E+03 -0.30349141576E+02  0.45570040188E+03  0.49301245463E+03  0.12508256772E+03 0.  0.
          5    1    3    3  502    0 -0.12186144189E+02  0.24755208403E+02  0.51980065625E+02  0.58997644662E+02  0.41800000000E+01 0.  1.
         -5    1    3    3    0  502  0.14941480374E+03 -0.55104349979E+02  0.40372033626E+03  0.43401480997E+03  0.41800000000E+01 0.  1.
        -11    1    1    2    0    0 -0.14573900925E+03  0.78603528482E+01  0.31146685540E+03  0.34396692570E+03  0.00000000000E+00 0. -1.
         11    1    1    2    0    0  0.85103496978E+01  0.22488788727E+02  0.51509140730E+02  0.56845081134E+02  0.00000000000E+00 0.  1.
</event>
<event>
 7    1  0.7017065E-006  0.1122413E+03  0.7561462E-02  0.1256475E+00
         -1   -1    0    0    0  501 -0.00000000000E+00  0.00000000000E+00  0.14466541314E+03  0.14466541314E+03  0.00000000000E+00 0.  1.
          1   -1    0    0  501    0  0.00000000000E+00 -0.00000000000E+00 -0.10657778659E+03  0.10657778659E+03  0.00000000000E+00 0. -1.
         23    2    1    2    0    0 -0.15387755262E+02 -0.45026997671E+02  0.58085869220E+02  0.14589680676E+03  0.12509075301E+03 0.  0.
          5    1    3    3  502    0 -0.19860159535E+02  0.35284984640E+02 -0.82721866262E+01  0.41537423480E+02  0.41800000000E+01 0. -1.
         -5    1    3    3    0  502  0.44724042734E+01 -0.80311982311E+02  0.66358055846E+02  0.10435938328E+03  0.41800000000E+01 0. -1.
        -11    1    1    2    0    0 -0.32196124257E+02  0.45387282523E+02 -0.14028858113E+02  0.57388192966E+02  0.00000000000E+00 0.  1.
         11    1    1    2    0    0  0.47583879519E+02 -0.36028485193E+00 -0.59693845554E+01  0.47958200000E+02  0.00000000000E+00 0. -1.
</event>
<event>
 7    1  0.7017065E-006  0.2030907E+03  0.7561462E-02  0.1147157E+00
          3   -1    0    0  501    0  0.00000000000E+00  0.00000000000E+00  0.83242082387E+03  0.83242082387E+03  0.00000000000E+00 0. -1.
         -3   -1    0    0    0  501 -0.00000000000E+00 -0.00000000000E+00 -0.55168782638E+02  0.55168782638E+02  0.00000000000E+00 0.  1.
         23    2    1    2    0    0 -0.15247257609E+03 -0.10468064864E+03  0.44945682170E+03  0.50186084280E+03  0.12508775439E+03 0.  0.
          5    1    3    3  502    0 -0.75339808085E+02  0.11391507988E+02  0.10132322522E+03  0.12684526600E+03  0.41800000000E+01 0.  1.
         -5    1    3    3    0  502 -0.77132768006E+02 -0.11607215663E+03  0.34813359648E+03  0.37501557680E+03  0.41800000000E+01 0.  1.
        -11    1    1    2    0    0  0.85661197022E+02  0.31288690952E+02  0.22529496580E+03  0.24305276068E+03  0.00000000000E+00 0. -1.
         11    1    1    2    0    0  0.66811379069E+02  0.73391957693E+02  0.10250025373E+03  0.14267600303E+03  0.00000000000E+00 0.  1.
</event>
<event>
 7    1  0.7429548E-006  0.2052882E+03  0.7561462E-02  0.1145352E+00
          1   -1    0    0  501    0  0.00000000000E+00  0.00000000000E+00  0.88141911291E+03  0.88141911291E+03  0.00000000000E+00 0. -1.
         -1   -1    0    0    0  501 -0.00000000000E+00 -0.00000000000E+00 -0.54369620215E+02  0.54369620215E+02  0.00000000000E+00 0.  1.
         23    2    1    2    0    0 -0.12114748454E+03  0.14285167414E+03  0.36591775626E+03  0.42968163959E+03  0.12508874143E+03 0.  0.
          5    1    3    3  502    0 -0.76435354019E+02  0.70204228744E+01  0.86164924094E+02  0.11547084578E+03  0.41800000000E+01 0. -1.
         -5    1    3    3    0  502 -0.44712130519E+02  0.13583125127E+03  0.27975283217E+03  0.31421079380E+03  0.41800000000E+01 0. -1.
        -11    1    1    2    0    0  0.24886838556E+02 -0.54797843051E+02  0.62917947347E+02  0.87067941487E+02  0.00000000000E+00 0.  1.
         11    1    1    2    0    0  0.96260645982E+02 -0.88053831093E+02  0.39821378909E+03  0.41903915206E+03  0.00000000000E+00 0. -1.
</event>
<event>
 7    1  0.7017065E-006  0.1184193E+03  0.7561462E-02  0.1245728E+00
          1   -1    0    0  501    0  0.00000000000E+00  0.00000000000E+00  0.15865442441E+02  0.15865442441E+02  0.00000000000E+00 0. -1.
         -1   -1    0    0    0  501 -0.00000000000E+00 -0.00000000000E+00 -0.11691076457E+04  0.11691076457E+04  0.00000000000E+00 0.  1.
         23    2    1    2    0    0 -0.70334175886E+02 -0.25945618239E+02 -0.77524436285E+03  0.78884202043E+03  0.12509132527E+03 0.  0.
          5    1    3    3  502    0 -0.54823734684E+01 -0.60240895397E+02 -0.20190190157E+03  0.21081003808E+03  0.41800000000E+01 0.  1.
         -5    1    3    3    0  502 -0.64851802417E+02  0.34295277158E+02 -0.57334246128E+03  0.57803198235E+03  0.41800000000E+01 0.  1.
        -11    1    1    2    0    0  0.19028561863E+02 -0.24332713791E+02 -0.39758428429E+02  0.50347788017E+02  0.00000000000E+00 0. -1.
         11    1    1    2    0    0  0.51305614023E+02  0.50278332030E+02 -0.33823941202E+03  0.34578327974E+03  0.00000000000E+00 0.  1.
</event>
<event>
 7    1  0.7017065E-006  0.1283771E+03  0.7561462E-02  0.1229884E+00
          2   -1    0    0  501    0  0.00000000000E+00  0.00000000000E+00  0.36164546811E+03  0.36164546811E+03  0.00000000000E+00 0. -1.
         -2   -1    0    0    0  501 -0.00000000000E+00 -0.00000000000E+00 -0.69630127828E+02  0.69630127828E+02  0.00000000000E+00 0.  1.
         23    2    1    2    0    0  0.99342128228E+02  0.96630978570E+01  0.77651675679E+02  0.17787320294E+03  0.12508740818E+03 0.  0.
          5    1    3    3  502    0  0.88552601947E+02  0.41334608650E+02  0.98023394034E+02  0.13847805372E+03  0.41800000000E+01 0.  1.
         -5    1    3    3    0  502  0.10789526281E+02 -0.31671510793E+02 -0.20371718355E+02  0.39395149219E+02  0.41800000000E+01 0.  1.
        -11    1    1    2    0    0 -0.46472763483E+02 -0.42506920236E+02  0.60096145371E+02  0.87052298661E+02  0.00000000000E+00 0.  1.
         11    1    1    2    0    0 -0.52869364745E+02  0.32843822379E+02  0.15426751923E+03  0.16635009434E+03  0.00000000000E+00 0. -1.
</event>
<event>
 7    1  0.7017065E-006  0.1084787E+03  0.7561462E-02  0.1263413E+00
         -2   -1    0    0    0  501 -0.00000000000E+00  0.00000000000E+00  0.42505987134E+02  0.42505987134E+02  0.00000000000E+00 0.  1.
          2   -1    0    0  501    0  0.00000000000E+00 -0.00000000000E+00 -0.47381638745E+03  0.47381638745E+03  0.00000000000E+00 0. -1.
         23    2    1    2    0    0  0.63612208147E+02  0.58468134653E+01 -0.11622369796E+03  0.18230350643E+03  0.12508366095E+03 0.  0.
          5    1    3    3  502    0 -0.19987029993E+02  0.14342868467E+02 -0.91163303487E+02  0.94516768600E+02  0.41800000000E+01 0.  1.
         -5    1    3    3    0  502  0.83599238140E+02 -0.84960550019E+01 -0.25060394468E+02  0.87786737831E+02  0.41800000000E+01 0.  1.
        -11    1    1    2    0    0  0.11313316600E+02  0.24536218215E+02 -0.49445586537E+02  0.56346101594E+02  0.00000000000E+00 0.  1.
         11    1    1    2    0    0 -0.74925524746E+02 -0.30383031680E+02 -0.26564111583E+03  0.27767276656E+03  0.00000000000E+00 0. -1.
</event>
<event>
 7    1  0.7017065E-006  0.1826828E+03  0.7561462E-02  0.1165232E+00
          4   -1    0    0  501    0  0.00000000000E+00  0.00000000000E+00  0.54539638634E+02  0.54539638634E+02  0.00000000000E+00 0.  1.
         -4   -1    0    0    0  501 -0.00000000000E+00 -0.00000000000E+00 -0.11129324723E+04  0.11129324723E+04  0.00000000000E+00 0. -1.
         23    2    1    2    0    0 -0.90835770872E+01  0.15674631990E+03 -0.91153253995E+03  0.93337620937E+03  0.12509059380E+03 0.  0.
          5    1    3    3  502    0 -0.59771414550E+02  0.58895925720E+02 -0.51441571662E+03  0.52123157422E+03  0.41800000000E+01 0.  1.
         -5    1    3    3    0  502  0.50687837463E+02  0.97850394184E+02 -0.39711682333E+03  0.41214463515E+03  0.41800000000E+01 0.  1.
        -11    1    1    2    0    0 -0.29219387643E+02 -0.82578031245E+02 -0.34552803847E+02  0.94163687865E+02  0.00000000000E+00 0.  1.
         11    1    1    2    0    0  0.38302964731E+02 -0.74168288659E+02 -0.11230748987E+03  0.13993221370E+03  0.00000000000E+00 0. -1.
</event>
<event>
 7    1  0.7017065E-006  0.1776317E+03  0.7561462E-02  0.1170115E+00
          1   -1    0    0  501    0  0.00000000000E+00  0.00000000000E+00  0.24364480156E+03  0.24364480156E+03  0.00000000000E+00 0. -1.
         -1   -1    0    0    0  501 -0.00000000000E+00 -0.00000000000E+00 -0.15204686090E+03  0.15204686090E+03  0.00000000000E+00 0.  1.
         23    2    1    2    0    0  0.36240863633E+02 -0.14809019979E+03 -0.22527523723E+02  0.19849557777E+03  0.12509555387E+03 0.  0.
          5    1    3    3  502    0 -0.20593316402E+00  0.21141056656E+02 -0.12788392560E+02  0.25059969459E+02  0.41800000000E+01 0. -1.
         -5    1    3    3    0  502  0.36446796797E+02 -0.16923125644E+03 -0.97391311636E+01  0.17343560831E+03  0.41800000000E+01 0. -1.
        -11    1    1    2    0    0  0.12733748024E+02  0.24534326656E+02  0.15490915719E+02  0.31686747908E+02  0.00000000000E+00 0.  1.
         11    1    1    2    0    0 -0.48974611657E+02  0.12355587313E+03  0.98634548666E+02  0.16550933678E+03  0.00000000000E+00 0. -1.
</event>
<event>
 7    1  0.7017065E-006  0.1644384E+03  0.7561462E-02  0.1183775E+00
          1   -1    0    0  501    0  0.00000000000E+00  0.00000000000E+00  0.45379625219E+03  0.45379625219E+03  0.00000000000E+00 0. -1.
         -1   -1    0    0    0  501 -0.00000000000E+00 -0.00000000000E+00 -0.75490811686E+02  0.75490811686E+02  0.00000000000E+00 0.  1.
         23    2    1    2    0    0 -0.91932227085E+02  0.10371510568E+03  0.11835092870E+03  0.22105138155E+03  0.12509361869E+03 0.  0.
          5    1    3    3  502    0  0.23922626144E+02  0.47265081803E+02  0.58067149648E+02  0.78711792431E+02  0.41800000000E+01 0.  1.
         -5    1    3    3    0  502 -0.11585485323E+03  0.56450023882E+02  0.60283779052E+02  0.14233958912E+03  0.41800000000E+01 0.  1.
        -11    1    1    2    0    0  0.60528811989E+02 -0.97532257638E+02  0.12572944694E+03  0.17024738526E+03  0.00000000000E+00 0.  1.
         11    1    1    2    0    0  0.31403415096E+02 -0.61828480464E+01  0.13422506486E+03  0.13798829707E+03  0.00000000000E+00 0. -1.
</event>
<event>
 7    1  0.7017065E-006  0.7330925E+02  0.7561462E-02  0.1349188E+00
         -2   -1    0    0    0  501 -0.00000000000E+00  0.00000000000E+00  0.11429788962E+03  0.11429788962E+03  0.00000000000E+00 0.  1.
          2   -1    0    0  501    0  0.00000000000E+00 -0.00000000000E+00 -0.12230726403E+03  0.12230726403E+03  0.00000000000E+00 0. -1.
         23    2    1    2    0    0 -0.34286680835E+02  0.78619987543E+01  0.26206174746E+02  0.13446006172E+03  0.12710372574E+03 0.  0.
          5    1    3    3  502    0 -0.45873071602E+02 -0.22726570029E+02 -0.36908750890E+02  0.63250011666E+02  0.41800000000E+01 0. -1.
         -5    1    3    3    0  502  0.11586390767E+02  0.30588568783E+02  0.63114925636E+02  0.71210050058E+02  0.41800000000E+01 0.  1.
        -11    1    1    2    0    0  0.47089555416E+02 -0.12400787114E+02 -0.57401114441E+02  0.75273459395E+02  0.00000000000E+00 0. -1.
         11    1    1    2    0    0 -0.12802874581E+02  0.45387883600E+01  0.23185565284E+02  0.26871632531E+02  0.00000000000E+00 0.  1.
</event>
<event>
 7    1  0.7017065E-006  0.8345124E+02  0.7561462E-02  0.1319533E+00
         -1   -1    0    0    0  501 -0.00000000000E+00  0.00000000000E+00  0.35099277647E+02  0.35099277647E+02  0.00000000000E+00 0.  1.
          1   -1    0    0  501    0  0.00000000000E+00 -0.00000000000E+00 -0.43376157841E+03  0.43376157841E+03  0.00000000000E+00 0. -1.
         23    2    1    2    0    0 -0.57659296544E+02 -0.48079333801E+01 -0.20973671224E+03  0.25096700472E+03  0.12508892156E+03 0.  0.
          5    1    3    3  502    0 -0.40352222707E+02 -0.14163163020E+02 -0.28057632358E+01  0.43060907694E+02  0.41800000000E+01 0. -1.
         -5    1    3    3    0  502 -0.17307073837E+02  0.93552296399E+01 -0.20693094900E+03  0.20790609703E+03  0.41800000000E+01 0. -1.
        -11    1    1    2    0    0 -0.59919105110E+01 -0.30465204359E+02 -0.89131512215E+02  0.94384628716E+02  0.00000000000E+00 0. -1.
         11    1    1    2    0    0  0.63651207055E+02  0.35273137739E+02 -0.99794076310E+02  0.12350922262E+03  0.00000000000E+00 0.  1.
</event>
<event>
 7    1  0.7017065E-006  0.1312238E+03  0.7561462E-02  0.1225651E+00
          2   -1    0    0  501    0  0.00000000000E+00  0.00000000000E+00  0.11646765014E+04  0.11646765014E+04  0.00000000000E+00 0. -1.
         -2   -1    0    0    0  501 -0.00000000000E+00 -0.00000000000E+00 -0.20970635886E+02  0.20970635886E+02  0.00000000000E+00 0.  1.
         23    2    1    2    0    0  0.66226456119E+02 -0.90250540305E+02  0.55755397315E+03  0.58227664855E+03  0.12509420032E+03 0.  0.
          5    1    3    3  502    0  0.57016298038E+02 -0.44035053134E+02  0.10588543386E+03  0.12813719854E+03  0.41800000000E+01 0.  1.
         -5    1    3    3    0  502  0.92101580813E+01 -0.46215487171E+02  0.45166853930E+03  0.45413945001E+03  0.41800000000E+01 0.  1.
        -11    1    1    2    0    0 -0.26907932674E+02  0.99087886868E+02  0.40871885113E+03  0.42141849204E+03  0.00000000000E+00 0.  1.
         11    1    1    2    0    0 -0.39318523445E+02 -0.88373465636E+01  0.17743304119E+03  0.18195199665E+03  0.00000000000E+00 0. -1.
</event>
<event>
 7    1  0.7017065E-006  0.1718548E+03  0.7561462E-02  0.1175927E+00
          3   -1    0    0  501    0  0.00000000000E+00  0.00000000000E+00  0.58074258188E+02  0.58074258188E+02  0.00000000000E+00 0. -1.
         -3   -1    0    0    0  501 -0.00000000000E+00 -0.00000000000E+00 -0.56669266452E+03  0.56669266452E+03  0.00000000000E+00 0.  1.
         23    2    1    2    0    0  0.14397285942E+03 -0.23128253847E+02 -0.29338240554E+03  0.35069110445E+03  0.12509162436E+03 0.  0.
          5    1    3    3  502    0 -0.84366852175E+01 -0.33553174213E+02 -0.29086371381E+02  0.45392538565E+02  0.41800000000E+01 0. -1.
         -5    1    3    3    0  502  0.15240954464E+03  0.10424920366E+02 -0.26429603416E+03  0.30529856589E+03  0.41800000000E+01 0. -1.
        -11    1    1    2    0    0 -0.45848465054E+02  0.34328812202E+02 -0.31220435297E+02  0.65232389770E+02  0.00000000000E+00 0. -1.
         11    1    1    2    0    0 -0.98124394365E+02 -0.11200558355E+02 -0.18401556550E+03  0.20884342849E+03  0.00000000000E+00 0.  1.
</event>
<event>
 7    1  0.7017065E-006  0.1557448E+03  0.7561462E-02  0.1193586E+00
         -2   -1    0    0    0  501 -0.00000000000E+00  0.00000000000E+00  0.56788666426E+03  0.56788666426E+03  0.00000000000E+00 0.  1.
          2   -1    0    0  501    0  0.00000000000E+00 -0.00000000000E+00 -0.49822465543E+02  0.49822465543E+02  0.00000000000E+00 0. -1.
         23    2    1    2    0    0 -0.11283452809E+03  0.47679633589E+02  0.34300913977E+03  0.38510776165E+03  0.12509092664E+03 0.  0.
          5    1    3    3  502    0 -0.12639977897E+03  0.25581265082E+01  0.22776161295E+03  0.26053075225E+03  0.41800000000E+01 0. -1.
         -5    1    3    3    0  502  0.13565250878E+02  0.45121507081E+02  0.11524752682E+03  0.12457700940E+03  0.41800000000E+01 0. -1.
        -11    1    1    2    0    0  0.76634929602E+02  0.14730761649E+01  0.14621440189E+03  0.16508704888E+03  0.00000000000E+00 0.  1.
         11    1    1    2    0    0  0.36199598489E+02 -0.49152709754E+02  0.28840657053E+02  0.67514319268E+02  0.00000000000E+00 0. -1.
</event>
<event>
 7    1  0.7017065E-006  0.1211146E+03  0.7561462E-02  0.1241270E+00
         -2   -1    0    0    0  501 -0.00000000000E+00  0.00000000000E+00  0.53284816018E+02  0.53284816018E+02  0.00000000000E+00 0.  1.
          2   -1    0    0  501    0  0.00000000000E+00 -0.00000000000E+00 -0.38105771005E+03  0.38105771005E+03  0.00000000000E+00 0. -1.
         23    2    1    2    0    0  0.61977457583E+02  0.11450608194E+01 -0.73086490991E+02  0.15758288515E+03  0.12509282199E+03 0.  0.
          5    1    3    3  502    0 -0.36268254982E+02 -0.90581509396E+01 -0.35783258366E+02  0.51916764125E+02  0.41800000000E+01 0. -1.
         -5    1    3    3    0  502  0.98245712564E+02  0.10203211759E+02 -0.37303232624E+02  0.10566612102E+03  0.41800000000E+01 0. -1.
        -11    1    1    2    0    0 -0.11054466676E+00  0.34400171336E+02 -0.11302251277E+03  0.11814174708E+03  0.00000000000E+00 0.  1.
         11    1    1    2    0    0 -0.61866912916E+02 -0.35545232155E+02 -0.14166389027E+03  0.15861789385E+03  0.00000000000E+00 0. -1.
</event>
<event>
 7    1  0.7017065E-006  0.1676860E+03  0.7561462E-02  0.1180283E+00
         -2   -1    0    0    0  501 -0.00000000000E+00  0.00000000000E+00  0.76532419514E+02  0.76532419514E+02  0.00000000000E+00 0.  1.
          2   -1    0    0  501    0  0.00000000000E+00 -0.00000000000E+00 -0.49091127632E+03  0.49091127632E+03  0.00000000000E+00 0. -1.
         23    2    1    2    0    0  0.12616288453E+03  0.93043553873E+02 -0.16592097545E+03  0.26028574728E+03  0.12507887028E+03 0.  0.
          5    1    3    3  502    0 -0.37560413028E+01  0.10935541754E+02  0.17223912237E+02  0.21161981771E+02  0.41800000000E+01 0. -1.
         -5    1    3    3    0  502  0.12991892584E+03  0.82108012119E+02 -0.18314488768E+03  0.23912376550E+03  0.41800000000E+01 0. -1.
        -11    1    1    2    0    0 -0.84331158145E+02 -0.95526599211E+02 -0.22641383480E+03  0.25980819845E+03  0.00000000000E+00 0. -1.
         11    1    1    2    0    0 -0.41831726389E+02  0.24830453378E+01 -0.22044046556E+02  0.47349750109E+02  0.00000000000E+00 0.  1.
</event>
<event>
 7    1  0.7017065E-006  0.1091493E+03  0.7561462E-02  0.1262153E+00
         -2   -1    0    0    0  501 -0.00000000000E+00  0.00000000000E+00  0.15666230250E+04  0.15666230250E+04  0.00000000000E+00 0.  1.
          2   -1    0    0  501    0  0.00000000000E+00 -0.00000000000E+00 -0.10326185047E+02  0.10326185047E+02  0.00000000000E+00 0. -1.
         23    2    1    2    0    0  0.34982286726E+02 -0.10457275901E+02  0.11842733957E+04  0.11914208277E+04  0.12508796012E+03 0.  0.
          5    1    3    3  502    0  0.54301065680E+02  0.44678241968E+02  0.56217551045E+03  0.56657173243E+03  0.41800000000E+01 0. -1.
         -5    1    3    3    0  502 -0.19318778954E+02 -0.55135517869E+02  0.62209788528E+03  0.62484909524E+03  0.41800000000E+01 0. -1.
        -11    1    1    2    0    0 -0.49892101697E+02  0.34735689018E+02  0.32428604127E+03  0.32993518525E+03  0.00000000000E+00 0.  1.
         11    1    1    2    0    0  0.14909814971E+02 -0.24278413117E+02  0.47737402943E+02  0.55593197117E+02  0.00000000000E+00 0. -1.
</event>
<event>
 7    1  0.7017065E-006  0.1486320E+03  0.7561462E-02  0.1202164E+00
         -2   -1    0    0    0  501 -0.00000000000E+00  0.00000000000E+00  0.49772446633E+02  0.49772446633E+02  0.00000000000E+00 0.  1.
          2   -1    0    0  501    0  0.00000000000E+00 -0.00000000000E+00 -0.68939372003E+03  0.68939372003E+03  0.00000000000E+00 0. -1.
         23    2    1    2    0    0 -0.37820473498E+02  0.12105481240E+03 -0.17963977146E+03  0.25298649927E+03  0.12508823087E+03 0.  0.
          5    1    3    3  502    0  0.89069718459E+01  0.99183879001E+02 -0.46196928529E+02  0.10985629070E+03  0.41800000000E+01 0. -1.
         -5    1    3    3    0  502 -0.46727445344E+02  0.21870933400E+02 -0.13344284293E+03  0.14313020857E+03  0.41800000000E+01 0. -1.
        -11    1    1    2    0    0 -0.21492493617E+02 -0.25317154379E+02 -0.43431319946E+02  0.54673257997E+02  0.00000000000E+00 0.  1.
         11    1    1    2    0    0  0.59312967114E+02 -0.95737658022E+02 -0.41655018199E+03  0.43150640939E+03  0.00000000000E+00 0. -1.
</event>
<event>
 7    1  0.7017065E-006  0.6919795E+02  0.7561462E-02  0.1362842E+00
         -1   -1    0    0    0  501 -0.00000000000E+00  0.00000000000E+00  0.84465808170E+02  0.84465808170E+02  0.00000000000E+00 0.  1.
          1   -1    0    0  501    0  0.00000000000E+00 -0.00000000000E+00 -0.14920743187E+03  0.14920743187E+03  0.00000000000E+00 0. -1.
         23    2    1    2    0    0 -0.35149806977E+01 -0.25661804614E+02 -0.24672118828E+02  0.13010658436E+03  0.12509247196E+03 0.  0.
          5    1    3    3  502    0 -0.77961086411E+01  0.25511766080E+02 -0.61238469272E+02  0.66927214474E+02  0.41800000000E+01 0. -1.
         -5    1    3    3    0  502  0.42811279434E+01 -0.51173570694E+02  0.36566350445E+02  0.63179369884E+02  0.41800000000E+01 0. -1.
        -11    1    1    2    0    0  0.13657784971E+02  0.40023467303E+02  0.15685682352E+02  0.45104918314E+02  0.00000000000E+00 0.  1.
         11    1    1    2    0    0 -0.10142804274E+02 -0.14361662688E+02 -0.55755187227E+02  0.58461737371E+02  0.00000000000E+00 0. -1.
</event>
<event>
 7    1  0.7017065E-006  0.1141829E+03  0.7561462E-02  0.1253014E+00
         -2   -1    0    0    0  501 -0.00000000000E+00  0.00000000000E+00  0.15920636704E+03  0.15920636704E+03  0.00000000000E+00 0. -1.
          2   -1    0    0  501    0  0.00000000000E+00 -0.00000000000E+00 -0.15872206589E+03  0.15872206589E+03  0.00000000000E+00 0.  1.
         23    2    1    2    0    0  0.77422708305E+02  0.31348568337E+02  0.86843664095E+02  0.17368088319E+03  0.12508484598E+03 0.  0.
          5    1    3    3  502    0 -0.88636355114E+01 -0.24280361948E+02  0.62967091903E+02  0.68194039868E+02  0.41800000000E+01 0.  1.
         -5    1    3    3    0  502  0.86286343817E+02  0.55628930285E+02  0.23876572192E+02  0.10548684332E+03  0.41800000000E+01 0.  1.
        -11    1    1    2    0    0 -0.43037158835E+02 -0.45155105973E+02 -0.87163311731E+02  0.10718499684E+03  0.00000000000E+00 0.  1.
         11    1    1    2    0    0 -0.34385549470E+02  0.13806537637E+02  0.80394878331E+00  0.37062552901E+02  0.00000000000E+00 0. -1.
</event>
<event>
 7    1  0.7017065E-006  0.2255752E+03  0.7561462E-02  0.1129793E+00
          1   -1    0    0  501    0  0.00000000000E+00  0.00000000000E+00  0.20797370587E+04  0.20797370587E+04  0.00000000000E+00 0. -1.
         -1   -1    0    0    0  501 -0.00000000000E+00 -0.00000000000E+00 -0.26704989181E+02  0.26704989181E+02  0.00000000000E+00 0.  1.
         23    2    1    2    0    0  0.17741810155E+03  0.99348526475E+02  0.12728235341E+04  0.12950192895E+04  0.12509156139E+03 0.  0.
          5    1    3    3  502    0  0.17276263158E+03  0.50925856584E+02  0.11251770754E+04  0.11395092335E+04  0.41800000000E+01 0.  1.
         -5    1    3    3    0  502  0.46554699699E+01  0.48422669890E+02  0.14764645867E+03  0.15551005600E+03  0.41800000000E+01 0.  1.
        -11    1    1    2    0    0 -0.93267044382E+02 -0.17317045277E+01  0.29564079184E+03  0.31000841628E+03  0.00000000000E+00 0.  1.
         11    1    1    2    0    0 -0.84151057168E+02 -0.97616821947E+02  0.48456774365E+03  0.50141434217E+03  0.00000000000E+00 0. -1.
</event>
<event>
 7    1  0.7017065E-006  0.1046038E+03  0.7561462E-02  0.1270902E+00
         -3   -1    0    0    0  501 -0.00000000000E+00  0.00000000000E+00  0.73169041316E+02  0.73169041316E+02  0.00000000000E+00 0.  1.
          3   -1    0    0  501    0  0.00000000000E+00 -0.00000000000E+00 -0.28307099117E+03  0.28307099117E+03  0.00000000000E+00 0. -1.
         23    2    1    2    0    0 -0.72846160160E+00  0.56813714992E+02 -0.21393852722E+02  0.13904512241E+03  0.12509004862E+03 0.  0.
          5    1    3    3  502    0 -0.47968907120E+02 -0.84739862591E+01  0.14109035433E+02  0.50885771825E+02  0.41800000000E+01 0.  1.
         -5    1    3    3    0  502  0.47240445518E+02  0.65287701251E+02 -0.35502888155E+02  0.88159350581E+02  0.41800000000E+01 0.  1.
        -11    1    1    2    0    0  0.16616669140E+02 -0.60974627637E+02 -0.19044487283E+03  0.20065709182E+03  0.00000000000E+00 0. -1.
         11    1    1    2    0    0 -0.15888207538E+02  0.41609126442E+01  0.19367756990E+01  0.16537818263E+02  0.00000000000E+00 0.  1.
</event>
<event>
 7    1  0.7017065E-006  0.5744237E+02  0.7561462E-02  0.1408889E+00
          2   -1    0    0  501    0  0.00000000000E+00  0.00000000000E+00  0.25828754729E+03  0.25828754729E+03  0.00000000000E+00 0. -1.
         -2   -1    0    0    0  501 -0.00000000000E+00 -0.00000000000E+00 -0.51896712716E+02  0.51896712716E+02  0.00000000000E+00 0.  1.
         23    2    1    2    0    0 -0.30339232925E+02  0.32910780747E+02  0.11828960649E+03  0.17788887732E+03  0.12509369740E+03 0.  0.
          5    1    3    3  502    0 -0.32405099948E+02  0.25832536271E+02  0.14447844800E+03  0.15036257769E+03  0.41800000000E+01 0. -1.
         -5    1    3    3    0  502  0.20658670236E+01  0.70782444755E+01 -0.26188841516E+02  0.27526299630E+02  0.41800000000E+01 0. -1.
        -11    1    1    2    0    0  0.88635519947E+01  0.12033380183E+02  0.80538034218E+02  0.81913001094E+02  0.00000000000E+00 0. -1.
         11    1    1    2    0    0  0.21475680930E+02 -0.44944160929E+02  0.75631938682E+01  0.50382381589E+02  0.00000000000E+00 0.  1.
</event>
<event>
 7    1  0.7017065E-006  0.1242907E+03  0.7561462E-02  0.1236182E+00
          1   -1    0    0  501    0  0.00000000000E+00  0.00000000000E+00  0.72980374275E+03  0.72980374275E+03  0.00000000000E+00 0. -1.
         -1   -1    0    0    0  501 -0.00000000000E+00 -0.00000000000E+00 -0.22847389281E+02  0.22847389281E+02  0.00000000000E+00 0.  1.
         23    2    1    2    0    0 -0.57141357083E+02 -0.27593093972E+02  0.30186595223E+03  0.33286119568E+03  0.12508800482E+03 0.  0.
          5    1    3    3  502    0 -0.70694772941E+01  0.47552352542E+02  0.13008730494E+03  0.13874935332E+03  0.41800000000E+01 0. -1.
         -5    1    3    3    0  502 -0.50071879788E+02 -0.75145446514E+02  0.17177864729E+03  0.19411184235E+03  0.41800000000E+01 0. -1.
        -11    1    1    2    0    0  0.60225954215E+02  0.55471824397E+02  0.31204939736E+03  0.32261294961E+03  0.00000000000E+00 0. -1.
         11    1    1    2    0    0 -0.30845971328E+01 -0.27878730425E+02  0.93041003877E+02  0.97176986741E+02  0.00000000000E+00 0.  1.
</event>
<event>
 7    1  0.7017065E-006  0.1280572E+03  0.7561462E-02  0.1230367E+00
          2   -1    0    0  501    0  0.00000000000E+00  0.00000000000E+00  0.29179506848E+02  0.29179506848E+02  0.00000000000E+00 0.  1.
         -2   -1    0    0    0  501 -0.00000000000E+00 -0.00000000000E+00 -0.82591626197E+03  0.82591626197E+03  0.00000000000E+00 0. -1.
         23    2    1    2    0    0  0.42680144496E+02 -0.11163610210E+03 -0.43809413752E+03  0.47101795294E+03  0.12508886694E+03 0.  0.
          5    1    3    3  502    0  0.17035856523E+02 -0.84763809210E+02 -0.42119236149E+03  0.42999488548E+03  0.41800000000E+01 0.  1.
         -5    1    3    3    0  502  0.25644287973E+02 -0.26872292892E+02 -0.16901776030E+02  0.41023067460E+02  0.41800000000E+01 0.  1.
        -11    1    1    2    0    0 -0.55515434775E+02  0.74683333156E+02 -0.29543809832E+03  0.30974704791E+03  0.00000000000E+00 0. -1.
         11    1    1    2    0    0  0.12835290279E+02  0.36952768946E+02 -0.63204519279E+02  0.74330767968E+02  0.00000000000E+00 0.  1.
</event>
<event>
 7    1  0.7017065E-006  0.1133184E+03  0.7561462E-02  0.1254545E+00
          2   -1    0    0  501    0  0.00000000000E+00  0.00000000000E+00  0.62242840166E+03  0.62242840166E+03  0.00000000000E+00 0. -1.
         -2   -1    0    0    0  501 -0.00000000000E+00 -0.00000000000E+00 -0.20915587162E+02  0.20915587162E+02  0.00000000000E+00 0.  1.
         23    2    1    2    0    0  0.22368211547E+01  0.38022153915E+02  0.32390119607E+03  0.34929809985E+03  0.12508593120E+03 0.  0.
          5    1    3    3  502    0  0.23577456123E+02 -0.41148419300E+02  0.14082327272E+03  0.14865313783E+03  0.41800000000E+01 0.  1.
         -5    1    3    3    0  502 -0.21340634969E+02  0.79170573215E+02  0.18307792335E+03  0.20064496202E+03  0.41800000000E+01 0.  1.
        -11    1    1    2    0    0 -0.43722865188E+02 -0.33723592959E+02  0.15748381187E+03  0.16688355420E+03  0.00000000000E+00 0. -1.
         11    1    1    2    0    0  0.41486044034E+02 -0.42985609556E+01  0.12012780656E+03  0.12716233477E+03  0.00000000000E+00 0.  1.
</event>
<event>
 7    1  0.7017065E-006  0.9197509E+02  0.7561462E-02  0.1298138E+00
         -1   -1    0    0    0  501 -0.00000000000E+00  0.00000000000E+00  0.53225258877E+02  0.53225258877E+02  0.00000000000E+00 0.  1.
          1   -1    0    0  501    0  0.00000000000E+00 -0.00000000000E+00 -0.21221452309E+03  0.21221452309E+03  0.00000000000E+00 0. -1.
         23    2    1    2    0    0 -0.15522318937E+02 -0.30875718262E+02 -0.74175740168E+02  0.14192537126E+03  0.11595912303E+03 0.  0.
          5    1    3    3  502    0  0.35059671698E+02 -0.54552770631E+02 -0.40818863909E+02  0.76738760831E+02  0.41800000000E+01 0. -1.
         -5    1    3    3    0  502 -0.50581990635E+02  0.23677052369E+02 -0.33356876259E+02  0.65186610429E+02  0.41800000000E+01 0.  1.
        -11    1    1    2    0    0  0.35171670376E+02  0.18492832941E+02 -0.45956442872E+01  0.40001890126E+02  0.00000000000E+00 0.  1.
         11    1    1    2    0    0 -0.19649351438E+02  0.12382885321E+02 -0.80217879757E+02  0.83512520580E+02  0.00000000000E+00 0. -1.
</event>
<event>
 7    1  0.8677260E-006  0.2293430E+03  0.7561462E-02  0.1127103E+00
          1   -1    0    0  501    0  0.00000000000E+00  0.00000000000E+00  0.38433622931E+03  0.38433622931E+03  0.00000000000E+00 0. -1.
         -1   -1    0    0    0  501 -0.00000000000E+00 -0.00000000000E+00 -0.17536722832E+03  0.17536722832E+03  0.00000000000E+00 0.  1.
         23    2    1    2    0    0 -0.22597742571E+03  0.30267614166E+02  0.43091742053E+02  0.26360176260E+03  0.12508823131E+03 0.  0.
          5    1    3    3  502    0 -0.93879829302E+02  0.35226788839E+01 -0.43225976301E+02  0.10349777313E+03  0.41800000000E+01 0.  1.
         -5    1    3    3    0  502 -0.13209759641E+03  0.26744935282E+02  0.86317718354E+02  0.16010398947E+03  0.41800000000E+01 0.  1.
        -11    1    1    2    0    0  0.14541795885E+03 -0.33322707541E+02  0.54974245341E+02  0.15899356354E+03  0.00000000000E+00 0.  1.
         11    1    1    2    0    0  0.80559466860E+02  0.30550933753E+01  0.11090301360E+03  0.13710813150E+03  0.00000000000E+00 0. -1.
</event>
<event>
 7    1  0.7017065E-006  0.1419446E+03  0.7561462E-02  0.1210736E+00
          1   -1    0    0  501    0  0.00000000000E+00  0.00000000000E+00  0.37349872128E+03  0.37349872128E+03  0.00000000000E+00 0. -1.
         -1   -1    0    0    0  501 -0.00000000000E+00 -0.00000000000E+00 -0.62950467005E+02  0.62950467005E+02  0.00000000000E+00 0.  1.
         23    2    1    2    0    0  0.79245099150E+00 -0.94452381172E+02  0.92173960802E+02  0.18183873006E+03  0.12508958555E+03 0.  0.
          5    1    3    3  502    0 -0.55255800716E+02 -0.17108723065E+02  0.52836176726E+02  0.78454100522E+02  0.41800000000E+01 0. -1.
         -5    1    3    3    0  502  0.56048251707E+02 -0.77343658106E+02  0.39337784075E+02  0.10338462954E+03  0.41800000000E+01 0. -1.
        -11    1    1    2    0    0  0.14739348589E+02 -0.14237232509E+02  0.25943514565E+02  0.33060749149E+02  0.00000000000E+00 0.  1.
         11    1    1    2    0    0 -0.15531799580E+02  0.10868961368E+03  0.19243077891E+03  0.22154970907E+03  0.00000000000E+00 0. -1.
</event>
<event>
 7    1  0.7017065E-006  0.9472644E+02  0.7561462E-02  0.1291793E+00
          2   -1    0    0  501    0  0.00000000000E+00  0.00000000000E+00  0.40966826319E+03  0.40966826319E+03  0.00000000000E+00 0.  1.
         -2   -1    0    0    0  501 -0.00000000000E+00 -0.00000000000E+00 -0.36051334323E+02  0.36051334323E+02  0.00000000000E+00 0. -1.
         23    2    1    2    0    0 -0.53805983090E+01  0.53808274713E+02  0.18425714406E+03  0.22927898064E+03  0.12527519532E+03 0.  0.
          5    1    3    3  502    0  0.41253911073E+02  0.10462950680E+02  0.10297356326E+02  0.43987117012E+02  0.41800000000E+01 0.  1.
         -5    1    3    3    0  502 -0.46634509382E+02  0.43345324032E+02  0.17395978773E+03  0.18529186363E+03  0.41800000000E+01 0.  1.
        -11    1    1    2    0    0  0.34093811031E+02 -0.25630744032E+02  0.16265428385E+03  0.16815391475E+03  0.00000000000E+00 0.  1.
         11    1    1    2    0    0 -0.28713212722E+02 -0.28177530681E+02  0.26705500955E+02  0.48286702117E+02  0.00000000000E+00 0. -1.
</event>
<event>
 7    1  0.7017065E-006  0.1210965E+03  0.7561462E-02  0.1241299E+00
         -2   -1    0    0    0  501 -0.00000000000E+00  0.00000000000E+00  0.68432943495E+02  0.68432943495E+02  0.00000000000E+00 0.  1.
          2   -1    0    0  501    0  0.00000000000E+00 -0.00000000000E+00 -0.23084747015E+03  0.23084747015E+03  0.00000000000E+00 0. -1.
         23    2    1    2    0    0 -0.50462462580E+02 -0.29288759576E+02 -0.60225283242E+02  0.15059589141E+03  0.12509095171E+03 0.  0.
          5    1    3    3  502    0  0.52738744089E+01 -0.67295844900E+02 -0.15014107660E+02  0.69277993049E+02  0.41800000000E+01 0. -1.
         -5    1    3    3    0  502 -0.55736336989E+02  0.38007085324E+02 -0.45211175582E+02  0.81317898358E+02  0.41800000000E+01 0. -1.
        -11    1    1    2    0    0  0.29671552687E+02 -0.31171280435E+02 -0.51358914572E+02  0.67005879360E+02  0.00000000000E+00 0. -1.
         11    1    1    2    0    0  0.20790909893E+02  0.60460040011E+02 -0.50830328840E+02  0.81678642877E+02  0.00000000000E+00 0.  1.
</event>
<event>
 6    1  0.7017065E-006  0.1395975E+03  0.7561462E-02  0.1213872E+00
         -1   -1    0    0    0  501 -0.00000000000E+00  0.00000000000E+00  0.19181802754E+03  0.19181802754E+03  0.00000000000E+00 0.  1.
          1   -1    0    0  501    0  0.00000000000E+00 -0.00000000000E+00 -0.12857120934E+03  0.12857120934E+03  0.00000000000E+00 0. -1.
          5    1    1    2  502    0  0.31469338992E+02 -0.47234649090E+02  0.48517987939E+02  0.74785686632E+02  0.41800000000E+01 0. -1.
         -5    1    1    2    0  502 -0.10329521640E+03  0.29758554247E+02  0.56113450426E+02  0.12133286859E+03  0.41800000000E+01 0.  1.
        -11    1    1    2    0    0 -0.12934461431E+02  0.26478648767E+02 -0.22215808213E+02  0.36904759417E+02  0.00000000000E+00 0.  1.
         11    1    1    2    0    0  0.84760338837E+02 -0.90025539241E+01 -0.19168811949E+02  0.87365922237E+02  0.00000000000E+00 0. -1.
</event>
<event>
 7    1  0.7017065E-006  0.2051311E+03  0.7561462E-02  0.1145481E+00
          1   -1    0    0  501    0  0.00000000000E+00  0.00000000000E+00  0.43087168895E+03  0.43087168895E+03  0.00000000000E+00 0. -1.
         -1   -1    0    0    0  501 -0.00000000000E+00 -0.00000000000E+00 -0.10507923088E+03  0.10507923088E+03  0.00000000000E+00 0.  1.
         23    2    1    2    0    0  0.12738265803E+03  0.12206843713E+03  0.12036567321E+03  0.24751322483E+03  0.12509139165E+03 0.  0.
          5    1    3    3  502    0  0.87220562859E+02  0.62337804798E+00  0.37418752299E+02  0.95002371598E+02  0.41800000000E+01 0. -1.
         -5    1    3    3    0  502  0.40162095172E+02  0.12144505908E+03  0.82946920915E+02  0.15251085323E+03  0.41800000000E+01 0. -1.
        -11    1    1    2    0    0 -0.17652017149E+02  0.12271468081E+02  0.27583629106E+01  0.21674667338E+02  0.00000000000E+00 0.  1.
         11    1    1    2    0    0 -0.10973064088E+03 -0.13433990521E+03  0.20266842194E+03  0.26676302767E+03  0.00000000000E+00 0. -1.
</event>
<event>
 7    1  0.7017065E-006  0.9991318E+02  0.7561462E-02  0.1280479E+00
          1   -1    0    0  501    0  0.00000000000E+00  0.00000000000E+00  0.84549436643E+02  0.84549436643E+02  0.00000000000E+00 0. -1.
         -1   -1    0    0    0  501 -0.00000000000E+00 -0.00000000000E+00 -0.14701458922E+03  0.14701458922E+03  0.00000000000E+00 0.  1.
         23    2    1    2    0    0  0.61214321875E+01 -0.25269553624E+02 -0.28322931749E+02  0.13086369315E+03  0.12508835058E+03 0.  0.
          5    1    3    3  502    0 -0.42307726791E+02 -0.55014468701E+02 -0.24613570057E+02  0.73755242144E+02  0.41800000000E+01 0. -1.
         -5    1    3    3    0  502  0.48429158979E+02  0.29744915077E+02 -0.37093616918E+01  0.57108451008E+02  0.41800000000E+01 0. -1.
        -11    1    1    2    0    0 -0.72311872307E+01  0.49012274297E+02 -0.51352389905E+02  0.71355175352E+02  0.00000000000E+00 0.  1.
         11    1    1    2    0    0  0.11097550432E+01 -0.23742720673E+02  0.17210169073E+02  0.29345157364E+02  0.00000000000E+00 0. -1.
</event>
<event>
 7    1  0.7017065E-006  0.1017395E+03  0.7561462E-02  0.1276680E+00
         -3   -1    0    0    0  501 -0.00000000000E+00  0.00000000000E+00  0.61914089274E+02  0.61914089274E+02  0.00000000000E+00 0.  1.
          3   -1    0    0  501    0  0.00000000000E+00 -0.00000000000E+00 -0.34656600457E+03  0.34656600457E+03  0.00000000000E+00 0. -1.
         23    2    1    2    0    0  0.41427035568E+02  0.44937163275E+01 -0.30741815089E+02  0.13538305852E+03  0.12508845101E+03 0.  0.
          5    1    3    3  502    0  0.69061952091E+02  0.43760089749E+02 -0.29970943555E+02  0.87179289622E+02  0.41800000000E+01 0.  1.
         -5    1    3    3    0  502 -0.27634916523E+02 -0.39266373421E+02 -0.77087153421E+00  0.48203768897E+02  0.41800000000E+01 0.  1.
        -11    1    1    2    0    0  0.71721824179E+01  0.18360067707E+02 -0.78046932212E+01  0.21200130262E+02  0.00000000000E+00 0.  1.
         11    1    1    2    0    0 -0.48599217985E+02 -0.22853784034E+02 -0.24610540698E+03  0.25189690506E+03  0.00000000000E+00 0. -1.
</event>
<event>
 7    1  0.7017065E-006  0.1930984E+03  0.7561462E-02  0.1155696E+00
         -2   -1    0    0    0  501 -0.00000000000E+00  0.00000000000E+00  0.77405016953E+02  0.77405016953E+02  0.00000000000E+00 0.  1.
          2   -1    0    0  501    0  0.00000000000E+00 -0.00000000000E+00 -0.59318128477E+03  0.59318128477E+03  0.00000000000E+00 0. -1.
         23    2    1    2    0    0  0.10526759570E+03  0.14129269743E+03 -0.18893815379E+03  0.28703684448E+03  0.12509049156E+03 0.  0.
          5    1    3    3  502    0  0.56845521033E+02  0.13709766358E+03 -0.18623839050E+03  0.23817932974E+03  0.41800000000E+01 0.  1.
         -5    1    3    3    0  502  0.48422074671E+02  0.41950338407E+01 -0.26997632945E+01  0.48857514736E+02  0.41800000000E+01 0.  1.
        -11    1    1    2    0    0 -0.10497102407E+03 -0.91810423064E+02 -0.17451857578E+03  0.22339382930E+03  0.00000000000E+00 0.  1.
         11    1    1    2    0    0 -0.29657163608E+00 -0.49482274361E+02 -0.15231953826E+03  0.16015562795E+03  0.00000000000E+00 0. -1.
</event>
<event>
 7    1  0.7017065E-006  0.1114970E+03  0.7561462E-02  0.1257823E+00
         -2   -1    0    0    0  501 -0.00000000000E+00  0.00000000000E+00  0.12870523020E+03  0.12870523020E+03  0.00000000000E+00 0.  1.
          2   -1    0    0  501    0  0.00000000000E+00 -0.00000000000E+00 -0.11554989354E+03  0.11554989354E+03  0.00000000000E+00 0. -1.
         23    2    1    2    0    0 -0.21060967051E+02  0.39577696283E+02  0.41902561029E+02  0.13932186931E+03  0.12507917601E+03 0.  0.
          5    1    3    3  502    0 -0.39484570859E+02  0.78779431132E+02  0.19383216926E+02  0.90323925976E+02  0.41800000000E+01 0. -1.
         -5    1    3    3    0  502  0.18423603808E+02 -0.39201734849E+02  0.22519344103E+02  0.48997943337E+02  0.41800000000E+01 0. -1.
        -11    1    1    2    0    0  0.43984400946E+02 -0.49553115847E+02  0.75598621831E+00  0.66262435300E+02  0.00000000000E+00 0.  1.
         11    1    1    2    0    0 -0.22923433896E+02  0.99754195644E+01 -0.29503210587E+02  0.38670819127E+02  0.00000000000E+00 0. -1.
</event>
<event>
 6    1  0.7017065E-006  0.1123433E+03  0.7561462E-02  0.1256291E+00
          2   -1    0    0  501    0  0.00000000000E+00  0.00000000000E+00  0.53735776672E+02  0.53735776672E+02  0.00000000000E+00 0. -1.
         -2   -1    0    0    0  501 -0.00000000000E+00 -0.00000000000E+00 -0.43559445144E+03  0.43559445144E+03  0.00000000000E+00 0.  1.
          5    1    1    2  502    0 -0.21255828429E+02  0.46233685869E+02 -0.64918189294E+01  0.51468243260E+02  0.41800000000E+01 0. -1.
         -5    1    1    2    0  502  0.21442538963E+02  0.48690829146E+02 -0.27694738854E+03  0.28204238642E+03  0.41800000000E+01 0.  1.
        -11    1    1    2    0    0  0.36412492204E+02 -0.38362351753E+02 -0.36028001988E+02  0.63996535435E+02  0.00000000000E+00 0. -1.
         11    1    1    2    0    0 -0.36599202737E+02 -0.56562163261E+02 -0.62391465311E+02  0.91823062993E+02  0.00000000000E+00 0.  1.
</event>
<event>
 7    1  0.7017065E-006  0.1290570E+03  0.7561462E-02  0.1228862E+00
         -3   -1    0    0    0  501 -0.00000000000E+00  0.00000000000E+00  0.21643027292E+03  0.21643027292E+03  0.00000000000E+00 0.  1.
          3   -1    0    0  501    0  0.00000000000E+00 -0.00000000000E+00 -0.78114943542E+02  0.78114943542E+02  0.00000000000E+00 0. -1.
         23    2    1    2    0    0  0.64760994337E+02 -0.27219050292E+02  0.84953179288E+02  0.16673559906E+03  0.12509538056E+03 0.  0.
          5    1    3    3  502    0  0.10119649684E+03 -0.32189591270E+02  0.66668401909E+02  0.12545536646E+03  0.41800000000E+01 0.  1.
         -5    1    3    3    0  502 -0.36435502506E+02  0.49705409783E+01  0.18284777379E+02  0.41280232609E+02  0.41800000000E+01 0.  1.
        -11    1    1    2    0    0  0.23358046421E+02  0.39503933551E+01  0.19144700392E+02  0.30458553698E+02  0.00000000000E+00 0. -1.
         11    1    1    2    0    0 -0.88119040758E+02  0.23268656937E+02  0.34217449698E+02  0.97351063700E+02  0.00000000000E+00 0.  1.
</event>
<event>
 7    1  0.7017065E-006  0.1158571E+03  0.7561462E-02  0.1250092E+00
          2   -1    0    0  501    0  0.00000000000E+00  0.00000000000E+00  0.73347080080E+03  0.73347080080E+03  0.00000000000E+00 0. -1.
         -2   -1    0    0    0  501 -0.00000000000E+00 -0.00000000000E+00 -0.21721510891E+02  0.21721510891E+02  0.00000000000E+00 0.  1.
         23    2    1    2    0    0  0.20269451419E+02  0.34109555796E+02  0.24962419362E+03  0.28201956284E+03  0.12509389802E+03 0.  0.
          5    1    3    3  502    0  0.72754543256E+02  0.23138440079E+02  0.12915631098E+03  0.15009142560E+03  0.41800000000E+01 0. -1.
         -5    1    3    3    0  502 -0.52485091837E+02  0.10971115716E+02  0.12046788264E+03  0.13192813723E+03  0.41800000000E+01 0. -1.
        -11    1    1    2    0    0 -0.57902035255E+02 -0.19368544298E+02  0.26417909029E+03  0.27114272615E+03  0.00000000000E+00 0.  1.
         11    1    1    2    0    0  0.37632583836E+02 -0.14741011498E+02  0.19794600599E+03  0.20203002271E+03  0.00000000000E+00 0. -1.
</event>
<event>
 6    1  0.7017065E-006  0.6309819E+02  0.7561462E-02  0.1385272E+00
         -2   -1    0    0    0  501 -0.00000000000E+00  0.00000000000E+00  0.29189022875E+02  0.29189022875E+02  0.00000000000E+00 0.  1.
          2   -1    0    0  501    0  0.00000000000E+00 -0.00000000000E+00 -0.34025632167E+03  0.34025632167E+03  0.00000000000E+00 0. -1.
          5    1    1    2  502    0 -0.28194097079E+02  0.53398282792E+02 -0.25651243289E+03  0.26355717472E+03  0.41800000000E+01 0. -1.
         -5    1    1    2    0  502  0.57658591146E+01 -0.30575443666E+02  0.79299499486E+01  0.32379922682E+02  0.41800000000E+01 0.  1.
        -11    1    1    2    0    0  0.22496012058E+01 -0.10260079252E+02 -0.57034218680E+01  0.11952361811E+02  0.00000000000E+00 0. -1.
         11    1    1    2    0    0  0.20178636758E+02 -0.12562759874E+02 -0.56781393983E+02  0.61555885338E+02  0.00000000000E+00 0.  1.
</event>
<event>
 7    1  0.7017065E-006  0.9280536E+02  0.7561462E-02  0.1296197E+00
          1   -1    0    0  501    0  0.00000000000E+00  0.00000000000E+00  0.67671426049E+03  0.67671426049E+03  0.00000000000E+00 0. -1.
         -1   -1    0    0    0  501 -0.00000000000E+00 -0.00000000000E+00 -0.23353512084E+02  0.23353512084E+02  0.00000000000E+00 0.  1.
         23    2    1    2    0    0 -0.47489684307E+02  0.53557190225E+02  0.39526389386E+03  0.41724930318E+03  0.11287068919E+03 0.  0.
          5    1    3    3  502    0 -0.23407568299E+02  0.75776372173E+02  0.36108981801E+03  0.36972057274E+03  0.41800000000E+01 0. -1.
         -5    1    3    3    0  502 -0.24082116008E+02 -0.22219181948E+02  0.34174075850E+02  0.47528730448E+02  0.41800000000E+01 0.  1.
        -11    1    1    2    0    0  0.50549668651E+01 -0.14981556574E+02 -0.24808455124E+01  0.16004821831E+02  0.00000000000E+00 0.  1.
         11    1    1    2    0    0  0.42434717441E+02 -0.38575633650E+02  0.26057770006E+03  0.26681364756E+03  0.00000000000E+00 0. -1.
</event>
<event>
 7    1  0.7017065E-006  0.2407925E+03  0.7561462E-02  0.1119266E+00
          1   -1    0    0  501    0  0.00000000000E+00  0.00000000000E+00  0.12009448296E+04  0.12009448296E+04  0.00000000000E+00 0. -1.
         -1   -1    0    0    0  501 -0.00000000000E+00 -0.00000000000E+00 -0.52508185567E+02  0.52508185567E+02  0.00000000000E+00 0.  1.
         23    2    1    2    0    0 -0.17399949992E+03 -0.14473475669E+03  0.58839516853E+03  0.64271390193E+03  0.12509320372E+03 0.  0.
          5    1    3    3  502    0 -0.17274100363E+03 -0.92895546872E+02  0.52648844500E+03  0.56185104083E+03  0.41800000000E+01 0. -1.
         -5    1    3    3    0  502 -0.12584962965E+01 -0.51839209814E+02  0.61906723532E+02  0.80862861102E+02  0.41800000000E+01 0. -1.
        -11    1    1    2    0    0  0.15377822071E+03  0.97711379710E+02  0.49815026793E+03  0.53042336330E+03  0.00000000000E+00 0.  1.
         11    1    1    2    0    0  0.20221279210E+02  0.47023376977E+02  0.61891207612E+02  0.80315749980E+02  0.00000000000E+00 0. -1.
</event>
<event>
 7    1  0.7017065E-006  0.1837992E+03  0.7561462E-02  0.1164176E+00
          2   -1    0    0  501    0  0.00000000000E+00  0.00000000000E+00  0.46191436640E+03  0.46191436640E+03  0.00000000000E+00 0. -1.
         -2   -1    0    0    0  501 -0.00000000000E+00 -0.00000000000E+00 -0.12230529854E+03  0.12230529854E+03  0.00000000000E+00 0.  1.
         23    2    1    2    0    0 -0.17921435687E+03  0.36862758832E+02  0.42644852821E+02  0.22570055795E+03  0.12508201185E+03 0.  0.
          5    1    3    3  502    0 -0.31163414948E+02  0.94042259519E+01  0.65577378137E+02  0.73331185865E+02  0.41800000000E+01 0.  1.
         -5    1    3    3    0  502 -0.14805094192E+03  0.27458532880E+02 -0.22932525316E+02  0.15236937208E+03  0.41800000000E+01 0.  1.
        -11    1    1    2    0    0  0.60028983906E+02 -0.23954786665E+01  0.37239905309E+02  0.70682584660E+02  0.00000000000E+00 0.  1.
         11    1    1    2    0    0  0.11918537296E+03 -0.34467280165E+02  0.25972430973E+03  0.28783652234E+03  0.00000000000E+00 0. -1.
</event>
<event>
 7    1  0.7017065E-006  0.1247567E+03  0.7561462E-02  0.1235450E+00
         -2   -1    0    0    0  501 -0.00000000000E+00  0.00000000000E+00  0.24625319167E+02  0.24625319167E+02  0.00000000000E+00 0.  1.
          2   -1    0    0  501    0  0.00000000000E+00 -0.00000000000E+00 -0.65283539385E+03  0.65283539385E+03  0.00000000000E+00 0. -1.
         23    2    1    2    0    0 -0.61709316819E+02 -0.27959758904E+02 -0.33570949336E+03  0.36460646064E+03  0.12508884566E+03 0.  0.
          5    1    3    3  502    0 -0.21534323760E+01 -0.67016445444E+02 -0.12160289417E+03  0.13892651836E+03  0.41800000000E+01 0.  1.
         -5    1    3    3    0  502 -0.59555884443E+02  0.39056686541E+02 -0.21410659918E+03  0.22567994228E+03  0.41800000000E+01 0.  1.
        -11    1    1    2    0    0  0.81287037197E+02  0.59088564156E+01 -0.21277913997E+03  0.22785403092E+03  0.00000000000E+00 0.  1.
         11    1    1    2    0    0 -0.19577720378E+02  0.22050902488E+02 -0.79721441358E+02  0.85000221458E+02  0.00000000000E+00 0. -1.
</event>
<event>
 7    1  0.7017065E-006  0.6680108E+02  0.7561462E-02  0.1371322E+00
         -1   -1    0    0    0  501 -0.00000000000E+00  0.00000000000E+00  0.22117276372E+02  0.22117276372E+02  0.00000000000E+00 0.  1.
          1   -1    0    0  501    0  0.00000000000E+00 -0.00000000000E+00 -0.75163808124E+03  0.75163808124E+03  0.00000000000E+00 0. -1.
         23    2    1    2    0    0 -0.33466969611E+02 -0.35502462998E+01 -0.22353278431E+03  0.25835358314E+03  0.12508807279E+03 0.  0.
          5    1    3    3  502    0 -0.20597022074E+02  0.27611782446E+01 -0.23717988990E+03  0.23812524855E+03  0.41800000000E+01 0. -1.
         -5    1    3    3    0  502 -0.12869947538E+02 -0.63114245444E+01  0.13647105586E+02  0.20228334590E+02  0.41800000000E+01 0. -1.
        -11    1    1    2    0    0 -0.17677669748E+02 -0.31046319216E+02 -0.15919828918E+03  0.16315780466E+03  0.00000000000E+00 0. -1.
         11    1    1    2    0    0  0.51144639359E+02  0.34596565516E+02 -0.34678973138E+03  0.35224396982E+03  0.00000000000E+00 0.  1.
</event>
<event>
 7    1  0.7017065E-006  0.1090099E+03  0.7561462E-02  0.1262414E+00
          2   -1    0    0  501    0  0.00000000000E+00  0.00000000000E+00  0.19595413069E+03  0.19595413069E+03  0.00000000000E+00 0. -1.
         -2   -1    0    0    0  501 -0.00000000000E+00 -0.00000000000E+00 -0.80443927756E+02  0.80443927756E+02  0.00000000000E+00 0.  1.
         23    2    1    2    0    0 -0.47744336057E+02  0.21463563535E+02  0.24860910532E+02  0.13786028497E+03  0.12508871698E+03 0.  0.
          5    1    3    3  502    0 -0.77594131949E+02  0.28848644151E+02  0.50969185050E+02  0.97305826171E+02  0.41800000000E+01 0. -1.
         -5    1    3    3    0  502  0.29849795892E+02 -0.73850806170E+01 -0.26108274517E+02  0.40554458803E+02  0.41800000000E+01 0. -1.
        -11    1    1    2    0    0  0.70976719633E+02  0.20999493841E+01  0.68890788501E+02  0.98934550374E+02  0.00000000000E+00 0. -1.
         11    1    1    2    0    0 -0.23232383577E+02 -0.23563512919E+02  0.21758503897E+02  0.39603223095E+02  0.00000000000E+00 0.  1.
</event>
<event>
 7    1  0.7017065E-006  0.9425438E+02  0.7561462E-02  0.1292864E+00
          3   -1    0    0  501    0  0.00000000000E+00  0.00000000000E+00  0.23077738233E+03  0.23077738233E+03  0.00000000000E+00 0. -1.
         -3   -1    0    0    0  501 -0.00000000000E+00 -0.00000000000E+00 -0.56169248992E+02  0.56169248992E+02  0.00000000000E+00 0.  1.
         23    2    1    2    0    0  0.65036727382E+01  0.12849552303E+02  0.59857975252E+02  0.13908572992E+03  0.12471749802E+03 0.  0.
          5    1    3    3  502    0  0.39762582760E+02  0.52238702483E+02  0.57400968147E+02  0.87305718994E+02  0.41800000000E+01 0. -1.
         -5    1    3    3    0  502 -0.33258910022E+02 -0.39389150180E+02  0.24570071045E+01  0.51780010928E+02  0.41800000000E+01 0.  1.
        -11    1    1    2    0    0 -0.33889840189E+00  0.28849589586E+02  0.98576863862E+02  0.10271227658E+03  0.00000000000E+00 0. -1.
         11    1    1    2    0    0 -0.61647743363E+01 -0.41699141889E+02  0.16173294222E+02  0.45148624817E+02  0.00000000000E+00 0.  1.
</event>
<event>
 7    1  0.7017065E-006  0.1759338E+03  0.7561462E-02  0.1171797E+00
         -2   -1    0    0    0  501 -0.00000000000E+00  0.00000000000E+00  0.15227513209E+02  0.15227513209E+02  0.00000000000E+00 0. -1.
          2   -1    0    0  501    0  0.00000000000E+00 -0.00000000000E+00 -0.23296414784E+04  0.23296414784E+04  0.00000000000E+00 0.  1.
         23    2    1    2    0    0 -0.14895974308E+03 -0.16824814278E+02 -0.14303621306E+04  0.14436258139E+04  0.12509031326E+03 0.  0.
          5    1    3    3  502    0 -0.85964022490E+02 -0.57043788309E+02 -0.51753714145E+03  0.52773665036E+03  0.41800000000E+01 0. -1.
         -5    1    3    3    0  502 -0.62995720588E+02  0.40218974031E+02 -0.91282498911E+03  0.91588916351E+03  0.41800000000E+01 0. -1.
        -11    1    1    2    0    0  0.53427868697E+02 -0.36161681041E+02 -0.38570204461E+03  0.39106044488E+03  0.00000000000E+00 0.  1.
         11    1    1    2    0    0  0.95531874381E+02  0.52986495320E+02 -0.49834979004E+03  0.51018273290E+03  0.00000000000E+00 0. -1.
</event>
<event>
 7    1  0.7017065E-006  0.1152946E+03  0.7561462E-02  0.1251068E+00
          1   -1    0    0  501    0  0.00000000000E+00  0.00000000000E+00  0.32174297189E+02  0.32174297189E+02  0.00000000000E+00 0. -1.
         -1   -1    0    0    0  501 -0.00000000000E+00 -0.00000000000E+00 -0.44155645139E+03  0.44155645139E+03  0.00000000000E+00 0.  1.
         23    2    1    2    0    0  0.30368891609E+02  0.37584665351E+02 -0.26146866359E+03  0.29385006551E+03  0.12508845794E+03 0.  0.
          5    1    3    3  502    0  0.64070437773E+02  0.63809769569E+02 -0.16322980201E+03  0.18664980138E+03  0.41800000000E+01 0.  1.
         -5    1    3    3    0  502 -0.33701546164E+02 -0.26225104218E+02 -0.98238861579E+02  0.10720026413E+03  0.41800000000E+01 0.  1.
        -11    1    1    2    0    0  0.28361222569E+02 -0.23332759745E+02 -0.85243304268E+02  0.92818088461E+02  0.00000000000E+00 0.  1.
         11    1    1    2    0    0 -0.58730114178E+02 -0.14251905607E+02 -0.62670186342E+02  0.87062594614E+02  0.00000000000E+00 0. -1.
</event>
<event>
 7    1  0.7017065E-006  0.1114502E+03  0.7561462E-02  0.1257908E+00
         -2   -1    0    0    0  501 -0.00000000000E+00  0.00000000000E+00  0.54038271746E+03  0.54038271746E+03  0.00000000000E+00 0.  1.
          2   -1    0    0  501    0  0.00000000000E+00 -0.00000000000E+00 -0.30554198322E+02  0.30554198322E+02  0.00000000000E+00 0. -1.
         23    2    1    2    0    0 -0.50654621085E+02 -0.45804540519E+01  0.40121944477E+03  0.42333353159E+03  0.12508942764E+03 0.  0.
          5    1    3    3  502    0 -0.67155326341E+02  0.43698082011E+02  0.19509846609E+03  0.21095080966E+03  0.41800000000E+01 0. -1.
         -5    1    3    3    0  502  0.16500705256E+02 -0.48278536063E+02  0.20612097869E+03  0.21238272193E+03  0.41800000000E+01 0. -1.
        -11    1    1    2    0    0  0.59532182223E+02 -0.21990785151E+02  0.99738020891E+02  0.11821737674E+03  0.00000000000E+00 0.  1.
         11    1    1    2    0    0 -0.88775611383E+01  0.26571239203E+02  0.88710534763E+01  0.29386007458E+02  0.00000000000E+00 0. -1.
</event>
<event>
 7    1  0.7017065E-006  0.1207753E+03  0.7561462E-02  0.1241823E+00
         -2   -1    0    0    0  501 -0.00000000000E+00  0.00000000000E+00  0.29804653026E+03  0.29804653026E+03  0.00000000000E+00 0.  1.
          2   -1    0    0  501    0  0.00000000000E+00 -0.00000000000E+00 -0.63254791485E+02  0.63254791485E+02  0.00000000000E+00 0. -1.
         23    2    1    2    0    0 -0.50675150284E+02 -0.60314065722E+02  0.16737209133E+03  0.22330770953E+03  0.12508860379E+03 0.  0.
          5    1    3    3  502    0 -0.89100683675E+02 -0.44104242499E+02  0.84931222457E+02  0.13082393124E+03  0.41800000000E+01 0.  1.
         -5    1    3    3    0  502  0.38425533391E+02 -0.16209823223E+02  0.82440868876E+02  0.92483778288E+02  0.41800000000E+01 0.  1.
        -11    1    1    2    0    0 -0.74277314669E+01  0.36646958960E+02 -0.96492672287E+01  0.38617083704E+02  0.00000000000E+00 0. -1.
         11    1    1    2    0    0  0.58102881751E+02  0.23667106761E+02  0.77068914665E+02  0.99376528506E+02  0.00000000000E+00 0.  1.
</event>
<event>
 7    1  0.7017065E-006  0.2813217E+03  0.7561462E-02  0.1094969E+00
          2   -1    0    0  501    0  0.00000000000E+00  0.00000000000E+00  0.14348371695E+04  0.14348371695E+04  0.00000000000E+00 0. -1.
         -2   -1    0    0    0  501 -0.00000000000E+00 -0.00000000000E+00 -0.13076389760E+03  0.13076389760E+03  0.00000000000E+00 0.  1.
         23    2    1    2    0    0  0.19895868562E+03 -0.17433596586E+03  0.70738570306E+02  0.30102983225E+03  0.12504969811E+03 0.  0.
          5    1    3    3  502    0  0.49668641814E+02 -0.11502887782E+03  0.62615681371E+02  0.14013141213E+03  0.41800000000E+01 0.  1.
         -5    1    3    3    0  502  0.14929004380E+03 -0.59307088041E+02  0.81228889346E+01  0.16089842012E+03  0.41800000000E+01 0.  1.
        -11    1    1    2    0    0 -0.65463319954E+02  0.12243735877E+02  0.22734052028E+03  0.23689463372E+03  0.00000000000E+00 0. -1.
         11    1    1    2    0    0 -0.13349536566E+03  0.16209222999E+03  0.10059941813E+04  0.10276766011E+04  0.00000000000E+00 0.  1.
</event>
<event>
 7    1  0.7017065E-006  0.1350522E+03  0.7561462E-02  0.1220146E+00
         -1   -1    0    0    0  501 -0.00000000000E+00  0.00000000000E+00  0.82282228850E+03  0.82282228850E+03  0.00000000000E+00 0.  1.
          1   -1    0    0  501    0  0.00000000000E+00 -0.00000000000E+00 -0.31876977679E+02  0.31876977679E+02  0.00000000000E+00 0. -1.
         23    2    1    2    0    0 -0.96309353678E+02  0.63186310036E+02  0.51984868891E+03  0.54695219060E+03  0.12508412396E+03 0.  0.
          5    1    3    3  502    0 -0.29646847670E+02 -0.21685656837E+02  0.29720595644E+03  0.29949633759E+03  0.41800000000E+01 0. -1.
         -5    1    3    3    0  502 -0.66662506008E+02  0.84871966873E+02  0.22264273247E+03  0.24745585301E+03  0.41800000000E+01 0. -1.
        -11    1    1    2    0    0  0.98503229692E+02 -0.47614790657E+02  0.27074785259E+03  0.29201790053E+03  0.00000000000E+00 0.  1.
         11    1    1    2    0    0 -0.21938760141E+01 -0.15571519379E+02  0.34876933286E+00  0.15729175051E+02  0.00000000000E+00 0. -1.
</event>
<event>
 6    1  0.7017065E-006  0.1149583E+03  0.7561462E-02  0.1251654E+00
         -2   -1    0    0    0  501 -0.00000000000E+00  0.00000000000E+00  0.67412184056E+03  0.67412184056E+03  0.00000000000E+00 0.  1.
          2   -1    0    0  501    0  0.00000000000E+00 -0.00000000000E+00 -0.10488886608E+03  0.10488886608E+03  0.00000000000E+00 0. -1.
          5    1    1    2  502    0  0.20104869038E+02  0.52609053227E+02  0.46443170919E+02  0.73118798989E+02  0.41800000000E+01 0. -1.
         -5    1    1    2    0  502 -0.59669392002E+02  0.11249916198E+02  0.57494907161E+03  0.57816165932E+03  0.41800000000E+01 0.  1.
        -11    1    1    2    0    0 -0.15176712730E+02 -0.55085247554E+02 -0.98275180749E+01  0.57976695481E+02  0.00000000000E+00 0. -1.
         11    1    1    2    0    0  0.54741235693E+02 -0.87737218716E+01 -0.42331749974E+02  0.69753552860E+02  0.00000000000E+00 0.  1.
</event>
<event>
 7    1  0.7017065E-006  0.2082316E+03  0.7561462E-02  0.1142974E+00
         -2   -1    0    0    0  501 -0.00000000000E+00  0.00000000000E+00  0.58171733826E+02  0.58171733826E+02  0.00000000000E+00 0.  1.
          2   -1    0    0  501    0  0.00000000000E+00 -0.00000000000E+00 -0.87552062514E+03  0.87552062514E+03  0.00000000000E+00 0. -1.
         23    2    1    2    0    0  0.18003062479E+02  0.17987537479E+03 -0.25844525935E+03  0.33929361340E+03  0.12508774240E+03 0.  0.
          5    1    3    3  502    0 -0.52792637404E+02  0.94482770476E+02 -0.11600438296E+03  0.15870899706E+03  0.41800000000E+01 0.  1.
         -5    1    3    3    0  502  0.70795699882E+02  0.85392604315E+02 -0.14244087639E+03  0.18058461634E+03  0.41800000000E+01 0.  1.
        -11    1    1    2    0    0  0.29659744644E+02 -0.43201167491E+02 -0.21461879746E+03  0.22092367358E+03  0.00000000000E+00 0. -1.
         11    1    1    2    0    0 -0.47662807123E+02 -0.13667420730E+03 -0.34428483451E+03  0.37347507199E+03  0.00000000000E+00 0.  1.
</event>
<event>
 7    1  0.7017065E-006  0.7787471E+02  0.7561462E-02  0.1335193E+00
         -2   -1    0    0    0  501 -0.00000000000E+00  0.00000000000E+00  0.14952888691E+03  0.14952888691E+03  0.00000000000E+00 0.  1.
          2   -1    0    0  501    0  0.00000000000E+00 -0.00000000000E+00 -0.10895354992E+03  0.10895354992E+03  0.00000000000E+00 0. -1.
         23    2    1    2    0    0 -0.65181753198E+02 -0.16012973935E+02  0.49919878844E+02  0.15048098417E+03  0.12508979179E+03 0.  0.
          5    1    3    3  502    0 -0.57451663926E+02 -0.31121330638E+02 -0.27572575389E+02  0.71041890615E+02  0.41800000000E+01 0. -1.
         -5    1    3    3    0  502 -0.77300892724E+01  0.15108356703E+02  0.77492454233E+02  0.79439093559E+02  0.41800000000E+01 0. -1.
        -11    1    1    2    0    0  0.12299272020E+02  0.15662695695E+02  0.34147805931E+02  0.39530555000E+02  0.00000000000E+00 0.  1.
         11    1    1    2    0    0  0.52882481178E+02  0.35027823952E+00 -0.43492347786E+02  0.68470897660E+02  0.00000000000E+00 0. -1.
</event>
<event>
 7    1  0.7017065E-006  0.1735776E+03  0.7561462E-02  0.1174167E+00
         -2   -1    0    0    0  501 -0.00000000000E+00  0.00000000000E+00  0.87267805274E+03  0.87267805274E+03  0.00000000000E+00 0.  1.
          2   -1    0    0  501    0  0.00000000000E+00 -0.00000000000E+00 -0.39506296403E+02  0.39506296403E+02  0.00000000000E+00 0. -1.
         23    2    1    2    0    0  0.66052329634E+02 -0.13268221350E+03  0.49989464231E+03  0.53619953871E+03  0.12509121421E+03 0.  0.
          5    1    3    3  502    0 -0.25917528269E+02 -0.87462300144E+02  0.22887253106E+03  0.24641728854E+03  0.41800000000E+01 0.  1.
         -5    1    3    3    0  502  0.91969857902E+02 -0.45219913352E+02  0.27102211125E+03  0.28978225017E+03  0.41800000000E+01 0.  1.
        -11    1    1    2    0    0 -0.71093530056E+02  0.11820495314E+03  0.33323452077E+03  0.36065488600E+03  0.00000000000E+00 0.  1.
         11    1    1    2    0    0  0.50412004223E+01  0.14477260355E+02  0.42593262389E-01  0.15329924438E+02  0.00000000000E+00 0. -1.
</event>
<event>
 7    1  0.7017065E-006  0.9065344E+02  0.7561462E-02  0.1301277E+00
         -1   -1    0    0    0  501 -0.00000000000E+00  0.00000000000E+00  0.87644220420E+02  0.87644220420E+02  0.00000000000E+00 0.  1.
          1   -1    0    0  501    0  0.00000000000E+00 -0.00000000000E+00 -0.16641568166E+03  0.16641568166E+03  0.00000000000E+00 0. -1.
         23    2    1    2    0    0  0.62040777262E+01 -0.29802691298E+02  0.48708284625E+01  0.12883359360E+03  0.12509068263E+03 0.  0.
          5    1    3    3  502    0 -0.37971052243E+02 -0.21708493271E+02  0.48942913724E+02  0.65771883752E+02  0.41800000000E+01 0. -1.
         -5    1    3    3    0  502  0.44175129969E+02 -0.80941980275E+01 -0.44072085261E+02  0.63061709847E+02  0.41800000000E+01 0. -1.
        -11    1    1    2    0    0 -0.42656956214E+02 -0.36176283169E+01 -0.47680426664E+02  0.64079062376E+02  0.00000000000E+00 0.  1.
         11    1    1    2    0    0  0.36452878488E+02  0.33420319615E+02 -0.35961863041E+02  0.61147246108E+02  0.00000000000E+00 0. -1.
</event>
<event>
 7    1  0.7017065E-006  0.1306662E+03  0.7561462E-02  0.1226471E+00
         -1   -1    0    0    0  501 -0.00000000000E+00  0.00000000000E+00  0.12941875048E+03  0.12941875048E+03  0.00000000000E+00 0.  1.
          1   -1    0    0  501    0  0.00000000000E+00 -0.00000000000E+00 -0.17946953608E+03  0.17946953608E+03  0.00000000000E+00 0. -1.
         23    2    1    2    0    0 -0.60873980535E+02 -0.83920374319E+02  0.20493463987E+01  0.16247947120E+03  0.12508840078E+03 0.  0.
          5    1    3    3  502    0  0.19370881025E+02 -0.32251775542E+02  0.44086494898E+02  0.58107654313E+02  0.41800000000E+01 0. -1.
         -5    1    3    3    0  502 -0.80244861560E+02 -0.51668598777E+02 -0.42037148499E+02  0.10437181689E+03  0.41800000000E+01 0. -1.
        -11    1    1    2    0    0  0.67238089442E+02  0.29956895554E+02 -0.55162394996E+02  0.91985140565E+02  0.00000000000E+00 0. -1.
         11    1    1    2    0    0 -0.63641089077E+01  0.53963478765E+02  0.30622629968E+01  0.54423674787E+02  0.00000000000E+00 0.  1.
</event>
<event>
 7    1  0.7017065E-006  0.1479313E+03  0.7561462E-02  0.1203038E+00
          2   -1    0    0  501    0  0.00000000000E+00  0.00000000000E+00  0.22155485975E+03  0.22155485975E+03  0.00000000000E+00 0. -1.
         -2   -1    0    0    0  501 -0.00000000000E+00 -0.00000000000E+00 -0.10942953127E+03  0.10942953127E+03  0.00000000000E+00 0.  1.
         23    2    1    2    0    0  0.22447171489E+01  0.10677369284E+03  0.94586532138E+02  0.18973821420E+03  0.12509323573E+03 0.  0.
          5    1    3    3  502    0 -0.47433342039E+02  0.95479469224E+02  0.87793835008E+02  0.13817192495E+03  0.41800000000E+01 0.  1.
         -5    1    3    3    0  502  0.49678059187E+02  0.11294223619E+02  0.67926971306E+01  0.51566289241E+02  0.41800000000E+01 0.  1.
        -11    1    1    2    0    0 -0.31062951114E+02 -0.10464074087E+03  0.37260361067E+01  0.10921755778E+03  0.00000000000E+00 0.  1.
         11    1    1    2    0    0  0.28818233966E+02 -0.21329519694E+01  0.13812760235E+02  0.32028619051E+02  0.00000000000E+00 0. -1.
</event>
<event>
 6    1  0.7017065E-006  0.1655552E+03  0.7561462E-02  0.1182564E+00
          2   -1    0    0  501    0  0.00000000000E+00  0.00000000000E+00  0.39720027204E+03  0.39720027204E+03  0.00000000000E+00 0. -1.
         -2   -1    0    0    0  501 -0.00000000000E+00 -0.00000000000E+00 -0.97744168462E+02  0.97744168462E+02  0.00000000000E+00 0.  1.
          5    1    1    2  502    0  0.60201651602E+02  0.38537628297E+02  0.11407821513E+03  0.13468741299E+03  0.41800000000E+01 0. -1.
         -5    1    1    2    0  502  0.64256719667E+02 -0.10129990372E+03  0.18599193071E+02  0.12146604011E+03  0.41800000000E+01 0.  1.
        -11    1    1    2    0    0 -0.17015839539E+02  0.67216399460E+01 -0.12673151241E+02  0.22255965518E+02  0.00000000000E+00 0.  1.
         11    1    1    2    0    0 -0.10744253173E+03  0.56040635478E+02  0.17945184661E+03  0.21653502188E+03  0.00000000000E+00 0. -1.
</event>
<event>
 7    1  0.7017065E-006  0.7444048E+02  0.7561462E-02  0.1345612E+00
          1   -1    0    0  501    0  0.00000000000E+00  0.00000000000E+00  0.12964161724E+03  0.12964161724E+03  0.00000000000E+00 0. -1.
         -1   -1    0    0    0  501 -0.00000000000E+00 -0.00000000000E+00 -0.10358059107E+03  0.10358059107E+03  0.00000000000E+00 0.  1.
         23    2    1    2    0    0  0.55960128745E+01 -0.21034113377E+02 -0.21204246880E+02  0.12872601188E+03  0.12508803605E+03 0.  0.
          5    1    3    3  502    0 -0.21969019757E+02  0.88756378365E+01  0.44933319980E+02  0.50969504810E+02  0.41800000000E+01 0.  1.
         -5    1    3    3    0  502  0.27565032632E+02 -0.29909751214E+02 -0.66137566861E+02  0.77756507071E+02  0.41800000000E+01 0.  1.
        -11    1    1    2    0    0  0.22767766434E+02 -0.22476302288E+02  0.41260903981E+02  0.52211277998E+02  0.00000000000E+00 0. -1.
         11    1    1    2    0    0 -0.28363779308E+02  0.43510415665E+02  0.60043690662E+01  0.52284918436E+02  0.00000000000E+00 0.  1.
</event>
<event>
 7    1  0.7017065E-006  0.1140089E+03  0.7561462E-02  0.1253321E+00
          1   -1    0    0  501    0  0.00000000000E+00  0.00000000000E+00  0.13273356680E+03  0.13273356680E+03  0.00000000000E+00 0. -1.
         -1   -1    0    0    0  501 -0.00000000000E+00 -0.00000000000E+00 -0.13693519354E+03  0.13693519354E+03  0.00000000000E+00 0.  1.
         23    2    1    2    0    0  0.45808373062E+02 -0.19466667601E+02 -0.63124010116E+02  0.14869085259E+03  0.12508785234E+03 0.  0.
          5    1    3    3  502    0  0.99532823624E+01  0.50978648511E+02 -0.92053343892E+01  0.52915980715E+02  0.41800000000E+01 0.  1.
         -5    1    3    3    0  502  0.35855090700E+02 -0.70445316113E+02 -0.53918675727E+02  0.95774871879E+02  0.41800000000E+01 0.  1.
        -11    1    1    2    0    0 -0.64313578461E+02 -0.67462557984E+01  0.14657639357E+02  0.66306822675E+02  0.00000000000E+00 0.  1.
         11    1    1    2    0    0  0.18505205399E+02  0.26212923400E+02  0.44264744014E+02  0.54671085069E+02  0.00000000000E+00 0. -1.
</event>
<event>
 7    1  0.7017065E-006  0.2514464E+03  0.7561462E-02  0.1112394E+00
         -2   -1    0    0    0  501 -0.00000000000E+00  0.00000000000E+00  0.30765291962E+03  0.30765291962E+03  0.00000000000E+00 0.  1.
          2   -1    0    0  501    0  0.00000000000E+00 -0.00000000000E+00 -0.22988243712E+03  0.22988243712E+03  0.00000000000E+00 0. -1.
         23    2    1    2    0    0 -0.57834802770E+01  0.22908153451E+03  0.12036781993E+03  0.28748584127E+03  0.12509156149E+03 0.  0.
          5    1    3    3  502    0  0.25594158990E+02  0.22741109793E+03  0.99784078834E+02  0.24969021451E+03  0.41800000000E+01 0.  1.
         -5    1    3    3    0  502 -0.31377639267E+02  0.16704365849E+01  0.20583741093E+02  0.37795626754E+02  0.41800000000E+01 0.  1.
        -11    1    1    2    0    0  0.39308874530E+02 -0.16895383921E+03 -0.50720233554E+02  0.18072943726E+03  0.00000000000E+00 0.  1.
         11    1    1    2    0    0 -0.33525394253E+02 -0.60127695302E+02  0.81228961301E+01  0.69320078214E+02  0.00000000000E+00 0. -1.
</event>
<event>
 7    1  0.7017065E-006  0.8816078E+02  0.7561462E-02  0.1307368E+00
         -2   -1    0    0    0  501 -0.00000000000E+00  0.00000000000E+00  0.36522366955E+03  0.36522366955E+03  0.00000000000E+00 0.  1.
          2   -1    0    0  501    0  0.00000000000E+00 -0.00000000000E+00 -0.48206171502E+02  0.48206171502E+02  0.00000000000E+00 0. -1.
         23    2    1    2    0    0  0.35964560255E+02 -0.59574494566E+02  0.22494269075E+03  0.26662729872E+03  0.12509329440E+03 0.  0.
          5    1    3    3  502    0 -0.18521768312E+01  0.18928183375E+02  0.15105454922E+03  0.15230448426E+03  0.41800000000E+01 0.  1.
         -5    1    3    3    0  502  0.37816737086E+02 -0.78502677941E+02  0.73888141530E+02  0.11432281446E+03  0.41800000000E+01 0.  1.
        -11    1    1    2    0    0 -0.30953442066E+02  0.50000905911E+02  0.11065389576E+03  0.12530957990E+03  0.00000000000E+00 0.  1.
         11    1    1    2    0    0 -0.50111181894E+01  0.95735886554E+01 -0.18579088472E+02  0.21492962423E+02  0.00000000000E+00 0. -1.
</event>
<event>
 6    1  0.7017065E-006  0.1210368E+03  0.7561462E-02  0.1241396E+00
          2   -1    0    0  501    0  0.00000000000E+00  0.00000000000E+00  0.28202402622E+03  0.28202402622E+03  0.00000000000E+00 0. -1.
         -2   -1    0    0    0  501 -0.00000000000E+00 -0.00000000000E+00 -0.77632076670E+02  0.77632076670E+02  0.00000000000E+00 0.  1.
          5    1    1    2  502    0 -0.36909660717E+02 -0.37953724646E+02  0.18055026956E+02  0.56091573940E+02  0.41800000000E+01 0. -1.
         -5    1    1    2    0  502  0.58318655090E+02  0.73941152355E+02  0.13684164818E+01  0.94274622814E+02  0.41800000000E+01 0.  1.
        -11    1    1    2    0    0 -0.12402446189E+02 -0.64044995660E+02  0.14993137671E+03  0.16350840915E+03  0.00000000000E+00 0. -1.
         11    1    1    2    0    0 -0.90065481841E+01  0.28057567951E+02  0.35037129404E+02  0.45781496987E+02  0.00000000000E+00 0.  1.
</event>
<event>
 7    1  0.7017065E-006  0.1007838E+03  0.7561462E-02  0.1278656E+00
          2   -1    0    0  501    0  0.00000000000E+00  0.00000000000E+00  0.27278752314E+03  0.27278752314E+03  0.00000000000E+00 0. -1.
         -2   -1    0    0    0  501 -0.00000000000E+00 -0.00000000000E+00 -0.53977646543E+02  0.53977646543E+02  0.00000000000E+00 0.  1.
         23    2    1    2    0    0 -0.21432901749E+02 -0.87642033622E+01  0.59354715874E+02  0.14038371098E+03  0.12509365881E+03 0.  0.
          5    1    3    3  502    0 -0.71232214336E+02  0.46178934788E+01  0.16937444826E+02  0.73482669635E+02  0.41800000000E+01 0. -1.
         -5    1    3    3    0  502  0.49799312587E+02 -0.13382096841E+02  0.42417271048E+02  0.66901041346E+02  0.41800000000E+01 0. -1.
        -11    1    1    2    0    0 -0.21468873053E+02  0.24551304563E+02  0.12486878318E+03  0.12905770833E+03  0.00000000000E+00 0. -1.
         11    1    1    2    0    0  0.42901774802E+02 -0.15787101201E+02  0.34586377543E+02  0.57323750375E+02  0.00000000000E+00 0.  1.
</event>
<event>
 7    1  0.7017065E-006  0.1502110E+03  0.7561462E-02  0.1200214E+00
          3   -1    0    0  501    0  0.00000000000E+00  0.00000000000E+00  0.70234447905E+03  0.70234447905E+03  0.00000000000E+00 0. -1.
         -3   -1    0    0    0  501 -0.00000000000E+00 -0.00000000000E+00 -0.33458698707E+02  0.33458698707E+02  0.00000000000E+00 0.  1.
         23    2    1    2    0    0  0.93294226678E+02 -0.44461739413E+02  0.29083042226E+03  0.33303192609E+03  0.12508904941E+03 0.  0.
          5    1    3    3  502    0 -0.56911691695E+01  0.34251942936E+02  0.50530507870E+02  0.61452336221E+02  0.41800000000E+01 0.  1.
         -5    1    3    3    0  502  0.98985395847E+02 -0.78713682349E+02  0.24029991439E+03  0.27157958987E+03  0.41800000000E+01 0.  1.
        -11    1    1    2    0    0 -0.93187495604E+02 -0.12556779641E+01  0.25176621588E+03  0.26846175430E+03  0.00000000000E+00 0. -1.
         11    1    1    2    0    0 -0.10673107427E+00  0.45717417377E+02  0.12628914221E+03  0.13430949737E+03  0.00000000000E+00 0.  1.
</event>
<event>
 7    1  0.7017065E-006  0.1041052E+03  0.7561462E-02  0.1271893E+00
         -1   -1    0    0    0  501 -0.00000000000E+00  0.00000000000E+00  0.14754752527E+03  0.14754752527E+03  0.00000000000E+00 0.  1.
          1   -1    0    0  501    0  0.00000000000E+00 -0.00000000000E+00 -0.14157530689E+03  0.14157530689E+03  0.00000000000E+00 0. -1.
         23    2    1    2    0    0 -0.37551400698E+02  0.62641037110E+02  0.74225207673E+02  0.16274716432E+03  0.12507298195E+03 0.  0.
          5    1    3    3  502    0  0.26381437371E+02  0.31952569350E+02  0.81309894338E+02  0.91354902677E+02  0.41800000000E+01 0.  1.
         -5    1    3    3    0  502 -0.63932838070E+02  0.30688467761E+02 -0.70846866652E+01  0.71392261641E+02  0.41800000000E+01 0.  1.
        -11    1    1    2    0    0  0.46880804973E+02 -0.18485144068E+02 -0.78910952753E+01  0.51007644631E+02  0.00000000000E+00 0.  1.
         11    1    1    2    0    0 -0.93294042744E+01 -0.44155893042E+02 -0.60361894017E+02  0.75368023218E+02  0.00000000000E+00 0. -1.
</event>
<event>
 7    1  0.7017065E-006  0.9962198E+02  0.7561462E-02  0.1281093E+00
         -2   -1    0    0    0  501 -0.00000000000E+00  0.00000000000E+00  0.21970871322E+02  0.21970871322E+02  0.00000000000E+00 0.  1.
          2   -1    0    0  501    0  0.00000000000E+00 -0.00000000000E+00 -0.71663812462E+03  0.71663812462E+03  0.00000000000E+00 0. -1.
         23    2    1    2    0    0  0.76424223167E+01 -0.61811659435E+02 -0.37360425182E+03  0.39888217083E+03  0.12509101233E+03 0.  0.
          5    1    3    3  502    0  0.87897906435E+01  0.12273302583E+02 -0.27512947334E+03  0.27557502404E+03  0.41800000000E+01 0. -1.
         -5    1    3    3    0  502 -0.11473683267E+01 -0.74084962018E+02 -0.98474778481E+02  0.12330714678E+03  0.41800000000E+01 0. -1.
        -11    1    1    2    0    0  0.40749812629E+02  0.36739483408E+02 -0.13157068261E+03  0.14255238122E+03  0.00000000000E+00 0.  1.
         11    1    1    2    0    0 -0.48392234946E+02  0.25072176026E+02 -0.18949231887E+03  0.19717444389E+03  0.00000000000E+00 0. -1.
</event>
<event>
 7    1  0.7017065E-006  0.1147175E+03  0.7561462E-02  0.1252075E+00
         -1   -1    0    0    0  501 -0.00000000000E+00  0.00000000000E+00  0.17860366532E+03  0.17860366532E+03  0.00000000000E+00 0.  1.
          1   -1    0    0  501    0  0.00000000000E+00 -0.00000000000E+00 -0.10926237800E+03  0.10926237800E+03  0.00000000000E+00 0. -1.
         23    2    1    2    0    0 -0.39912770358E+02 -0.79837571358E+02  0.39393680354E+02  0.15864090274E+03  0.12509199388E+03 0.  0.
          5    1    3    3  502    0 -0.68961410148E+02 -0.44918855284E+02  0.66226229990E+02  0.10572022318E+03  0.41800000000E+01 0. -1.
         -5    1    3    3    0  502  0.29048639790E+02 -0.34918716074E+02 -0.26832549635E+02  0.52920679567E+02  0.41800000000E+01 0. -1.
        -11    1    1    2    0    0  0.33597750189E+00  0.54327931178E+02 -0.22445484795E+02  0.58782963303E+02  0.00000000000E+00 0. -1.
         11    1    1    2    0    0  0.39576792856E+02  0.25509640180E+02  0.52393091761E+02  0.70442177274E+02  0.00000000000E+00 0.  1.
</event>
<event>
 7    1  0.7017065E-006  0.3031375E+03  0.7561462E-02  0.1083683E+00
          2   -1    0    0  501    0  0.00000000000E+00  0.00000000000E+00  0.32028228515E+03  0.32028228515E+03  0.00000000000E+00 0. -1.
         -2   -1    0    0    0  501 -0.00000000000E+00 -0.00000000000E+00 -0.37429814786E+03  0.37429814786E+03  0.00000000000E+00 0.  1.
         23    2    1    2    0    0  0.19470758845E+03  0.22459541997E+03 -0.16779093485E+03  0.36352969979E+03  0.12508356065E+03 0.  0.
          5    1    3    3  502    0  0.10366520120E+03  0.59826334043E+02 -0.14325060917E+02  0.12061651609E+03  0.41800000000E+01 0. -1.
         -5    1    3    3    0  502  0.91042387253E+02  0.16476908592E+03 -0.15346587394E+03  0.24291318370E+03  0.41800000000E+01 0. -1.
        -11    1    1    2    0    0 -0.10887124939E+03 -0.14354868731E+03  0.11361744897E+03  0.21299788563E+03  0.00000000000E+00 0. -1.
         11    1    1    2    0    0 -0.85836339057E+02 -0.81046732656E+02  0.15762317871E+00  0.11805284758E+03  0.00000000000E+00 0.  1.
</event>
<event>
 7    1  0.7017065E-006  0.7977818E+02  0.7561462E-02  0.1329682E+00
         -1   -1    0    0    0  501 -0.00000000000E+00  0.00000000000E+00  0.64101963080E+03  0.64101963080E+03  0.00000000000E+00 0.  1.
          1   -1    0    0  501    0  0.00000000000E+00 -0.00000000000E+00 -0.26991899867E+02  0.26991899867E+02  0.00000000000E+00 0. -1.
         23    2    1    2    0    0  0.12311551314E+02  0.61532220501E+02  0.43285858826E+03  0.45491966613E+03  0.12509019441E+03 0.  0.
          5    1    3    3  502    0 -0.50296161812E+01  0.45623449137E+02  0.39112454405E+02  0.60448760447E+02  0.41800000000E+01 0.  1.
         -5    1    3    3    0  502  0.17341167495E+02  0.15908771364E+02  0.39374613386E+03  0.39447090568E+03  0.41800000000E+01 0.  1.
        -11    1    1    2    0    0  0.26232220203E+02 -0.29234841688E+02  0.19637817576E+02  0.43914111906E+02  0.00000000000E+00 0. -1.
         11    1    1    2    0    0 -0.38543771517E+02 -0.32297378813E+02  0.16153132509E+03  0.16917775264E+03  0.00000000000E+00 0.  1.
</event>
<event>
 7    1  0.7017065E-006  0.1168288E+03  0.7561462E-02  0.1248422E+00
         -1   -1    0    0    0  501 -0.00000000000E+00  0.00000000000E+00  0.29950417218E+02  0.29950417218E+02  0.00000000000E+00 0.  1.
          1   -1    0    0  501    0  0.00000000000E+00 -0.00000000000E+00 -0.50592302253E+03  0.50592302253E+03  0.00000000000E+00 0. -1.
         23    2    1    2    0    0 -0.52702008900E+00 -0.56474876690E+02 -0.22766728911E+03  0.26583755942E+03  0.12509006364E+03 0.  0.
          5    1    3    3  502    0  0.25631239633E+02  0.33518995334E+02 -0.86621474012E+02  0.96442913961E+02  0.41800000000E+01 0. -1.
         -5    1    3    3    0  502 -0.26158259722E+02 -0.89993872023E+02 -0.14104581509E+03  0.16939464546E+03  0.41800000000E+01 0. -1.
        -11    1    1    2    0    0  0.32990226932E+02  0.80519518234E+00 -0.39281914607E+02  0.51303725279E+02  0.00000000000E+00 0.  1.
         11    1    1    2    0    0 -0.32463206843E+02  0.55669681507E+02 -0.20902340159E+03  0.21873215505E+03  0.00000000000E+00 0. -1.
</event>
<event>
 7    1  0.7017065E-006  0.9509559E+02  0.7561462E-02  0.1290961E+00
          1   -1    0    0  501    0  0.00000000000E+00  0.00000000000E+00  0.61243106074E+02  0.61243106074E+02  0.00000000000E+00 0. -1.
         -1   -1    0    0    0  501 -0.00000000000E+00 -0.00000000000E+00 -0.27237720613E+03  0.27237720613E+03  0.00000000000E+00 0.  1.
         23    2    1    2    0    0 -0.40876514991E+02 -0.55048693287E+02 -0.10504557442E+03  0.17715407418E+03  0.12509094764E+03 0.  0.
          5    1    3    3  502    0 -0.11348168284E+02 -0.61491376855E+02  0.50849878824E+01  0.62875272188E+02  0.41800000000E+01 0. -1.
         -5    1    3    3    0  502 -0.29528346707E+02  0.64426835683E+01 -0.11013056230E+03  0.11427880199E+03  0.41800000000E+01 0. -1.
        -11    1    1    2    0    0  0.27479786945E+02 -0.11013218064E+02  0.13473352279E+01  0.29635198243E+02  0.00000000000E+00 0.  1.
         11    1    1    2    0    0  0.13396728046E+02  0.66061911351E+02 -0.10743586087E+03  0.12683103979E+03  0.00000000000E+00 0. -1.
</event>
<event>
 7    1  0.7017065E-006  0.1163603E+03  0.7561462E-02  0.1249225E+00
          3   -1    0    0  501    0  0.00000000000E+00  0.00000000000E+00  0.17609088574E+02  0.17609088574E+02  0.00000000000E+00 0. -1.
         -3   -1    0    0    0  501 -0.00000000000E+00 -0.00000000000E+00 -0.10982611081E+04  0.10982611081E+04  0.00000000000E+00 0.  1.
         23    2    1    2    0    0 -0.42814083514E+02 -0.54474675280E+02 -0.82429130568E+03  0.83562696092E+03  0.11838802814E+03 0.  0.
          5    1    3    3  502    0  0.37696362097E+02 -0.25469415047E+02 -0.18200182045E+03  0.18764818642E+03  0.41800000000E+01 0. -1.
         -5    1    3    3    0  502 -0.80510445611E+02 -0.29005260233E+02 -0.64228948522E+03  0.64797877450E+03  0.41800000000E+01 0.  1.
        -11    1    1    2    0    0  0.14007146175E+02 -0.18324867563E+02 -0.12667130160E+03  0.12875410504E+03  0.00000000000E+00 0.  1.
         11    1    1    2    0    0  0.28806937339E+02  0.72799542843E+02 -0.12968941229E+03  0.15148913075E+03  0.00000000000E+00 0. -1.
</event>
<event>
 7    1  0.7017065E-006  0.1351699E+03  0.7561462E-02  0.1219980E+00
          1   -1    0    0  501    0  0.00000000000E+00  0.00000000000E+00  0.29061295005E+03  0.29061295005E+03  0.00000000000E+00 0. -1.
         -1   -1    0    0    0  501 -0.00000000000E+00 -0.00000000000E+00 -0.13067742985E+03  0.13067742985E+03  0.00000000000E+00 0.  1.
         23    2    1    2    0    0  0.60768733827E+02 -0.10504891364E+03 -0.31252615039E+02  0.17706569750E+03  0.12508965591E+03 0.  0.
          5    1    3    3  502    0  0.61731188570E+01  0.11832262294E+02 -0.45133242936E+02  0.47250310532E+02  0.41800000000E+01 0. -1.
         -5    1    3    3    0  502  0.54595614970E+02 -0.11688117594E+03  0.13880627898E+02  0.12981538697E+03  0.41800000000E+01 0. -1.
        -11    1    1    2    0    0 -0.61896781977E+02  0.75130215975E+02  0.71320970207E+02  0.12067494256E+03  0.00000000000E+00 0.  1.
         11    1    1    2    0    0  0.11280481503E+01  0.29918697669E+02  0.11986716503E+03  0.12354973984E+03  0.00000000000E+00 0. -1.
</event>
<event>
 7    1  0.7017065E-006  0.1092774E+03  0.7561462E-02  0.1261914E+00
          4   -1    0    0  501    0  0.00000000000E+00  0.00000000000E+00  0.21793279963E+03  0.21793279963E+03  0.00000000000E+00 0. -1.
         -4   -1    0    0    0  501 -0.00000000000E+00 -0.00000000000E+00 -0.81527519999E+02  0.81527519999E+02  0.00000000000E+00 0.  1.
         23    2    1    2    0    0  0.21124906652E+02 -0.63586263454E+02  0.31468922835E+02  0.14535226530E+03  0.12509002096E+03 0.  0.
          5    1    3    3  502    0 -0.31473512283E+02 -0.19966118062E+02 -0.34002509860E+02  0.50624805409E+02  0.41800000000E+01 0.  1.
         -5    1    3    3    0  502  0.52598418935E+02 -0.43620145392E+02  0.65471432695E+02  0.94727459892E+02  0.41800000000E+01 0.  1.
        -11    1    1    2    0    0 -0.36052458173E+02 -0.10072070718E+02  0.29929677943E+02  0.47927152749E+02  0.00000000000E+00 0.  1.
         11    1    1    2    0    0  0.14927551522E+02  0.73658334172E+02  0.75006678854E+02  0.10618090158E+03  0.00000000000E+00 0. -1.
</event>
<event>
 7    1  0.7017065E-006  0.8252712E+02  0.7561462E-02  0.1322029E+00
         -1   -1    0    0    0  501 -0.00000000000E+00  0.00000000000E+00  0.12431895112E+03  0.12431895112E+03  0.00000000000E+00 0.  1.
          1   -1    0    0  501    0  0.00000000000E+00 -0.00000000000E+00 -0.14149829069E+03  0.14149829069E+03  0.00000000000E+00 0. -1.
         23    2    1    2    0    0  0.41397673783E+02  0.34950591638E+02  0.38524163581E+02  0.14165908308E+03  0.12509146009E+03 0.  0.
          5    1    3    3  502    0 -0.18895661049E+02 -0.18326420721E+02 -0.26903834568E+02  0.37870732992E+02  0.41800000000E+01 0.  1.
         -5    1    3    3    0  502  0.60293334832E+02  0.53277012359E+02  0.65427998149E+02  0.10378835008E+03  0.41800000000E+01 0.  1.
        -11    1    1    2    0    0 -0.24540257135E+02 -0.75731462056E+01  0.25884710166E+02  0.36463611780E+02  0.00000000000E+00 0.  1.
         11    1    1    2    0    0 -0.16857416648E+02 -0.27377445432E+02 -0.81588213315E+02  0.87694546959E+02  0.00000000000E+00 0. -1.
</event>
<event>
 7    1  0.7017065E-006  0.7654656E+02  0.7561462E-02  0.1339148E+00
          1   -1    0    0  501    0  0.00000000000E+00  0.00000000000E+00  0.72258228004E+02  0.72258228004E+02  0.00000000000E+00 0. -1.
         -1   -1    0    0    0  501 -0.00000000000E+00 -0.00000000000E+00 -0.18325341117E+03  0.18325341117E+03  0.00000000000E+00 0.  1.
         23    2    1    2    0    0  0.25424189784E+02  0.12727124053E+02 -0.88480201321E+02  0.15583567396E+03  0.12509053577E+03 0.  0.
          5    1    3    3  502    0  0.59207146506E+01 -0.22056023421E+02  0.25810419407E+02  0.34715604288E+02  0.41800000000E+01 0. -1.
         -5    1    3    3    0  502  0.19503475133E+02  0.34783147474E+02 -0.11429062073E+03  0.12112006967E+03  0.41800000000E+01 0. -1.
        -11    1    1    2    0    0 -0.56625760611E+02 -0.14743783825E+02 -0.32398499135E+02  0.66884367923E+02  0.00000000000E+00 0.  1.
         11    1    1    2    0    0  0.31201570827E+02  0.20166597712E+01  0.98835172933E+01  0.32791597290E+02  0.00000000000E+00 0. -1.
</event>
<event>
 7    1  0.7017065E-006  0.1321311E+03  0.7561462E-02  0.1224327E+00
          1   -1    0    0  501    0  0.00000000000E+00  0.00000000000E+00  0.33349035727E+03  0.33349035727E+03  0.00000000000E+00 0. -1.
         -1   -1    0    0    0  501 -0.00000000000E+00 -0.00000000000E+00 -0.68995984638E+02  0.68995984638E+02  0.00000000000E+00 0.  1.
         23    2    1    2    0    0  0.10120480634E+03 -0.13896136094E+02  0.11012628336E+03  0.19547532585E+03  0.12508912544E+03 0.  0.
          5    1    3    3  502    0 -0.13566444970E+02  0.80865091386E+01  0.69951580152E+02  0.71834086789E+02  0.41800000000E+01 0. -1.
         -5    1    3    3    0  502  0.11477125131E+03 -0.21982645232E+02  0.40174703212E+02  0.12364123906E+03  0.41800000000E+01 0. -1.
        -11    1    1    2    0    0 -0.45090100220E+01 -0.26001133621E+02  0.89228083616E+01  0.27856895556E+02  0.00000000000E+00 0.  1.
         11    1    1    2    0    0 -0.96695796315E+02  0.39897269714E+02  0.14544528091E+03  0.17915412051E+03  0.00000000000E+00 0. -1.
</event>
<event>
 7    1  0.7017065E-006  0.1484244E+03  0.7561462E-02  0.1202423E+00
          1   -1    0    0  501    0  0.00000000000E+00  0.00000000000E+00  0.47232981838E+03  0.47232981838E+03  0.00000000000E+00 0. -1.
         -1   -1    0    0    0  501 -0.00000000000E+00 -0.00000000000E+00 -0.69815177023E+02  0.69815177023E+02  0.00000000000E+00 0.  1.
         23    2    1    2    0    0  0.10913119601E+03 -0.50002156984E+02  0.90452021381E+02  0.19554691112E+03  0.12508873902E+03 0.  0.
          5    1    3    3  502    0 -0.10215572503E+02 -0.20088799588E+02 -0.19797022284E+02  0.30287163647E+02  0.41800000000E+01 0. -1.
         -5    1    3    3    0  502  0.11934676851E+03 -0.29913357395E+02  0.11024904366E+03  0.16525974747E+03  0.41800000000E+01 0. -1.
        -11    1    1    2    0    0 -0.11260506529E+03  0.12659866230E+02  0.23342665528E+03  0.25947673564E+03  0.00000000000E+00 0.  1.
         11    1    1    2    0    0  0.34738692825E+01  0.37342290753E+02  0.78635964693E+02  0.87121348645E+02  0.00000000000E+00 0. -1.
</event>
<event>
 7    1  0.7017065E-006  0.9854856E+02  0.7561462E-02  0.1283378E+00
         -3   -1    0    0    0  501 -0.00000000000E+00  0.00000000000E+00  0.49887018585E+02  0.49887018585E+02  0.00000000000E+00 0.  1.
          3   -1    0    0  501    0  0.00000000000E+00 -0.00000000000E+00 -0.32047309378E+03  0.32047309378E+03  0.00000000000E+00 0. -1.
         23    2    1    2    0    0  0.53033704779E+02 -0.32474450183E+02 -0.12349734848E+03  0.18645835021E+03  0.12509179639E+03 0.  0.
          5    1    3    3  502    0 -0.23764736908E+02 -0.34733877330E+02 -0.16195263003E+01  0.42323754796E+02  0.41800000000E+01 0.  1.
         -5    1    3    3    0  502  0.76798441687E+02  0.22594271465E+01 -0.12187782218E+03  0.14413459542E+03  0.41800000000E+01 0.  1.
        -11    1    1    2    0    0 -0.44094856424E+02 -0.84929672138E-01 -0.13504467375E+02  0.46116528655E+02  0.00000000000E+00 0.  1.
         11    1    1    2    0    0 -0.89388483556E+01  0.32559379855E+02 -0.13358425934E+03  0.13778523349E+03  0.00000000000E+00 0. -1.
</event>
<event>
 7    1  0.7017065E-006  0.1412133E+03  0.7561462E-02  0.1211706E+00
         -1   -1    0    0    0  501 -0.00000000000E+00  0.00000000000E+00  0.27355109049E+03  0.27355109049E+03  0.00000000000E+00 0.  1.
          1   -1    0    0  501    0  0.00000000000E+00 -0.00000000000E+00 -0.84370849826E+02  0.84370849826E+02  0.00000000000E+00 0. -1.
         23    2    1    2    0    0  0.84745611651E+02  0.62512867453E+02  0.10535319527E+03  0.19451766758E+03  0.12509256554E+03 0.  0.
          5    1    3    3  502    0  0.16018796704E+02  0.71445114004E+02  0.63737577439E+01  0.73614559366E+02  0.41800000000E+01 0.  1.
         -5    1    3    3    0  502  0.68726814948E+02 -0.89322465510E+01  0.98979437531E+02  0.12090310821E+03  0.41800000000E+01 0.  1.
        -11    1    1    2    0    0  0.15930887980E+02 -0.29815490040E+02  0.26987409974E+02  0.43255946819E+02  0.00000000000E+00 0. -1.
         11    1    1    2    0    0 -0.10067649963E+03 -0.32697377413E+02  0.56839635419E+02  0.12014832592E+03  0.00000000000E+00 0.  1.
</event>
<event>
 7    1  0.7017065E-006  0.8321755E+02  0.7561462E-02  0.1320161E+00
          1   -1    0    0  501    0  0.00000000000E+00  0.00000000000E+00  0.55861685209E+02  0.55861685209E+02  0.00000000000E+00 0. -1.
         -1   -1    0    0    0  501 -0.00000000000E+00 -0.00000000000E+00 -0.27831756930E+03  0.27831756930E+03  0.00000000000E+00 0.  1.
         23    2    1    2    0    0  0.33909684151E+02 -0.17088077896E+02 -0.18755813552E+03  0.22861923548E+03  0.12508729571E+03 0.  0.
          5    1    3    3  502    0 -0.21768814513E+02  0.34572670422E+02 -0.22388223724E+02  0.46774520702E+02  0.41800000000E+01 0.  1.
         -5    1    3    3    0  502  0.55678498664E+02 -0.51660748318E+02 -0.16516991180E+03  0.18184471478E+03  0.41800000000E+01 0.  1.
        -11    1    1    2    0    0  0.78265203194E+00  0.14487377619E+02 -0.60595676680E+02  0.62308367711E+02  0.00000000000E+00 0.  1.
         11    1    1    2    0    0 -0.34692336183E+02  0.26007002770E+01  0.25697928115E+02  0.43251651312E+02  0.00000000000E+00 0. -1.
</event>
<event>
 7    1  0.7017065E-006  0.8734591E+02  0.7561462E-02  0.1309409E+00
          1   -1    0    0  501    0  0.00000000000E+00  0.00000000000E+00  0.19689969733E+03  0.19689969733E+03  0.00000000000E+00 0. -1.
         -1   -1    0    0    0  501 -0.00000000000E+00 -0.00000000000E+00 -0.10045759473E+03  0.10045759473E+03  0.00000000000E+00 0.  1.
         23    2    1    2    0    0  0.65070006992E+02 -0.12032455591E+02 -0.14655742605E+02  0.14227014311E+03  0.12508843684E+03 0.  0.
          5    1    3    3  502    0  0.84082877889E+02 -0.21444445975E+02 -0.50442996917E+02  0.10045776702E+03  0.41800000000E+01 0.  1.
         -5    1    3    3    0  502 -0.19012870897E+02  0.94119903843E+01  0.35787254312E+02  0.41812376086E+02  0.41800000000E+01 0.  1.
        -11    1    1    2    0    0 -0.27746473693E+02  0.42965629799E+01  0.11347434487E+03  0.11689633955E+03  0.00000000000E+00 0. -1.
         11    1    1    2    0    0 -0.37323533299E+02  0.77358926111E+01 -0.23764996550E+01  0.38190809405E+02  0.00000000000E+00 0.  1.
</event>
<event>
 7    1  0.7017065E-006  0.5903065E+02  0.7561462E-02  0.1401945E+00
          1   -1    0    0  501    0  0.00000000000E+00  0.00000000000E+00  0.50409064876E+03  0.50409064876E+03  0.00000000000E+00 0. -1.
         -1   -1    0    0    0  501 -0.00000000000E+00 -0.00000000000E+00 -0.24785562904E+02  0.24785562904E+02  0.00000000000E+00 0.  1.
         23    2    1    2    0    0 -0.11819447966E+02  0.14470986907E+02  0.25719116544E+03  0.28660703433E+03  0.12508871944E+03 0.  0.
          5    1    3    3  502    0 -0.42979861480E+01 -0.82651400170E+01  0.26168587780E+03  0.26188500580E+03  0.41800000000E+01 0. -1.
         -5    1    3    3    0  502 -0.75214618176E+01  0.22736126924E+02 -0.44947123528E+01  0.24722028528E+02  0.41800000000E+01 0. -1.
        -11    1    1    2    0    0  0.30647137736E+02  0.25168333014E+02  0.16790221469E+03  0.17252201522E+03  0.00000000000E+00 0. -1.
         11    1    1    2    0    0 -0.18827689771E+02 -0.39639319921E+02  0.54211705725E+02  0.69747162118E+02  0.00000000000E+00 0.  1.
</event>
<event>
 7    1  0.7017065E-006  0.8033377E+02  0.7561462E-02  0.1328107E+00
          2   -1    0    0  501    0  0.00000000000E+00  0.00000000000E+00  0.57386298674E+02  0.57386298674E+02  0.00000000000E+00 0. -1.
         -2   -1    0    0    0  501 -0.00000000000E+00 -0.00000000000E+00 -0.29430184002E+03  0.29430184002E+03  0.00000000000E+00 0.  1.
         23    2    1    2    0    0  0.75868488995E+01 -0.32210609215E+02 -0.21008753184E+03  0.24673944839E+03  0.12509396762E+03 0.  0.
          5    1    3    3  502    0  0.30282710597E+02 -0.26747663997E+01 -0.20685390468E+03  0.20911768748E+03  0.41800000000E+01 0. -1.
         -5    1    3    3    0  502 -0.22695861697E+02 -0.29535842816E+02 -0.32336271585E+01  0.37621760905E+02  0.41800000000E+01 0. -1.
        -11    1    1    2    0    0  0.41547966664E+01 -0.29443987351E+02 -0.29823247353E+02  0.42114567659E+02  0.00000000000E+00 0.  1.
         11    1    1    2    0    0 -0.11741645566E+02  0.61654596566E+02  0.29952378502E+01  0.62834122642E+02  0.00000000000E+00 0. -1.
</event>
<event>
 7    1  0.7017065E-006  0.1595511E+03  0.7561462E-02  0.1189205E+00
          1   -1    0    0  501    0  0.00000000000E+00  0.00000000000E+00  0.83469394196E+03  0.83469394196E+03  0.00000000000E+00 0. -1.
         -1   -1    0    0    0  501 -0.00000000000E+00 -0.00000000000E+00 -0.38260791403E+02  0.38260791403E+02  0.00000000000E+00 0.  1.
         23    2    1    2    0    0  0.45183907322E+02  0.13019985685E+03  0.34555942806E+03  0.39249517363E+03  0.12509018665E+03 0.  0.
          5    1    3    3  502    0  0.55514662369E+02  0.37576613312E+02  0.53414862825E+02  0.85816662581E+02  0.41800000000E+01 0.  1.
         -5    1    3    3    0  502 -0.10330755046E+02  0.92623243541E+02  0.29214456523E+03  0.30667851105E+03  0.41800000000E+01 0.  1.
        -11    1    1    2    0    0 -0.25806098826E+02  0.11896067300E+01  0.32528475098E+02  0.41538796239E+02  0.00000000000E+00 0.  1.
         11    1    1    2    0    0 -0.19377808496E+02 -0.13138946358E+03  0.41834524740E+03  0.43892076349E+03  0.00000000000E+00 0. -1.
</event>
<event>
 7    1  0.7017065E-006  0.5155995E+02  0.7561462E-02  0.1437105E+00
          1   -1    0    0  501    0  0.00000000000E+00  0.00000000000E+00  0.80767503693E+02  0.80767503693E+02  0.00000000000E+00 0. -1.
         -1   -1    0    0    0  501 -0.00000000000E+00 -0.00000000000E+00 -0.15344900455E+03  0.15344900455E+03  0.00000000000E+00 0.  1.
         23    2    1    2    0    0 -0.84578184733E+01  0.21084616319E+02 -0.39021389652E+02  0.13299034698E+03  0.12509063835E+03 0.  0.
          5    1    3    3  502    0  0.27604951948E+02  0.10521766158E+02 -0.75050181473E+02  0.80763500879E+02  0.41800000000E+01 0.  1.
         -5    1    3    3    0  502 -0.36062770421E+02  0.10562850161E+02  0.36028791821E+02  0.52226846105E+02  0.41800000000E+01 0.  1.
        -11    1    1    2    0    0  0.18287871041E+02 -0.10762132144E+02 -0.64150209782E+02  0.67568625342E+02  0.00000000000E+00 0.  1.
         11    1    1    2    0    0 -0.98300525673E+01 -0.10322484175E+02  0.30490098575E+02  0.33657535919E+02  0.00000000000E+00 0. -1.
</event>
<event>
 7    1  0.7017065E-006  0.2803162E+03  0.7561462E-02  0.1095516E+00
          1   -1    0    0  501    0  0.00000000000E+00  0.00000000000E+00  0.28395866418E+03  0.28395866418E+03  0.00000000000E+00 0. -1.
         -1   -1    0    0    0  501 -0.00000000000E+00 -0.00000000000E+00 -0.31493436418E+03  0.31493436418E+03  0.00000000000E+00 0.  1.
         23    2    1    2    0    0 -0.66514510585E+02 -0.26696576564E+03 -0.73923677146E+02  0.31113939749E+03  0.12509242377E+03 0.  0.
          5    1    3    3  502    0 -0.66908779393E+02 -0.11610421373E+03 -0.86731133254E+02  0.15967697104E+03  0.41800000000E+01 0.  1.
         -5    1    3    3    0  502  0.39426880841E+00 -0.15086155191E+03  0.12807456108E+02  0.15146242645E+03  0.41800000000E+01 0.  1.
        -11    1    1    2    0    0  0.91541823610E+01  0.66693760041E+02  0.42153227590E+02  0.79427648079E+02  0.00000000000E+00 0.  1.
         11    1    1    2    0    0  0.57360328224E+02  0.20027200560E+03  0.79474955448E+00  0.20832598280E+03  0.00000000000E+00 0. -1.
</event>
<event>
 7    1  0.7017065E-006  0.7158449E+02  0.7561462E-02  0.1354786E+00
          3   -1    0    0  501    0  0.00000000000E+00  0.00000000000E+00  0.80575433142E+02  0.80575433142E+02  0.00000000000E+00 0. -1.
         -3   -1    0    0    0  501 -0.00000000000E+00 -0.00000000000E+00 -0.19893613817E+03  0.19893613817E+03  0.00000000000E+00 0.  1.
         23    2    1    2    0    0 -0.55346934981E+02 -0.14453888429E+02 -0.99108477432E+02  0.16953612151E+03  0.12509119911E+03 0.  0.
          5    1    3    3  502    0 -0.22925969904E+02 -0.38481139170E+02 -0.11688430169E+03  0.12524300599E+03  0.41800000000E+01 0.  1.
         -5    1    3    3    0  502 -0.32420965077E+02  0.24027250742E+02  0.17775824253E+02  0.44293115521E+02  0.41800000000E+01 0.  1.
        -11    1    1    2    0    0  0.32667789649E+02  0.50304994094E+01  0.36386506171E+02  0.49157585744E+02  0.00000000000E+00 0. -1.
         11    1    1    2    0    0  0.22679145332E+02  0.94233890191E+01 -0.55638733770E+02  0.60817864062E+02  0.00000000000E+00 0.  1.
</event>
<event>
 7    1  0.7017065E-006  0.9951626E+02  0.7561462E-02  0.1281316E+00
          1   -1    0    0  501    0  0.00000000000E+00  0.00000000000E+00  0.10050972474E+03  0.10050972474E+03  0.00000000000E+00 0. -1.
         -1   -1    0    0    0  501 -0.00000000000E+00 -0.00000000000E+00 -0.44729994429E+03  0.44729994429E+03  0.00000000000E+00 0.  1.
         23    2    1    2    0    0  0.18878528256E+02  0.77218170995E+02 -0.39166731284E+03  0.41877182761E+03  0.12509002713E+03 0.  0.
          5    1    3    3  502    0  0.16691890376E+02  0.27265065571E+02 -0.35540518835E+03  0.35686457279E+03  0.41800000000E+01 0.  1.
         -5    1    3    3    0  502  0.21866378796E+01  0.49953105424E+02 -0.36262124493E+02  0.61907254821E+02  0.41800000000E+01 0.  1.
        -11    1    1    2    0    0  0.30972668410E+02 -0.92465874278E+01 -0.23638407464E+01  0.32409771837E+02  0.00000000000E+00 0.  1.
         11    1    1    2    0    0 -0.49851196665E+02 -0.67971583567E+02  0.47240934038E+02  0.96628069578E+02  0.00000000000E+00 0. -1.
</event>
<event>
 7    1  0.7017065E-006  0.1064274E+03  0.7561462E-02  0.1267332E+00
         -1   -1    0    0    0  501 -0.00000000000E+00  0.00000000000E+00  0.12600841046E+03  0.12600841046E+03  0.00000000000E+00 0.  1.
          1   -1    0    0  501    0  0.00000000000E+00 -0.00000000000E+00 -0.10497764083E+03  0.10497764083E+03  0.00000000000E+00 0. -1.
         23    2    1    2    0    0  0.30794819852E+01 -0.13457979353E+02  0.49228865775E+02  0.13513428462E+03  0.12508874144E+03 0.  0.
          5    1    3    3  502    0  0.60332096208E+02 -0.25644789749E+02  0.15671359406E+02  0.67532814096E+02  0.41800000000E+01 0.  1.
         -5    1    3    3    0  502 -0.57252614223E+02  0.12186810396E+02  0.33557506369E+02  0.67601470522E+02  0.41800000000E+01 0.  1.
        -11    1    1    2    0    0  0.30377337119E+02  0.36776380945E+02 -0.27510802651E+02  0.55064771573E+02  0.00000000000E+00 0.  1.
         11    1    1    2    0    0 -0.33456819104E+02 -0.23318401592E+02 -0.68729349015E+00  0.40786995105E+02  0.00000000000E+00 0. -1.
</event>
<event>
 7    1  0.7017065E-006  0.1287289E+03  0.7561462E-02  0.1229354E+00
          1   -1    0    0  501    0  0.00000000000E+00  0.00000000000E+00  0.44236888185E+02  0.44236888185E+02  0.00000000000E+00 0. -1.
         -1   -1    0    0    0  501 -0.00000000000E+00 -0.00000000000E+00 -0.58721296985E+03  0.58721296985E+03  0.00000000000E+00 0.  1.
         23    2    1    2    0    0 -0.54773752669E+02  0.65991218442E+02 -0.45189647011E+03  0.47666966155E+03  0.12509413116E+03 0.  0.
          5    1    3    3  502    0 -0.93290121442E+01  0.88102393124E+02 -0.18705824527E+03  0.20702009966E+03  0.41800000000E+01 0.  1.
         -5    1    3    3    0  502 -0.45444740525E+02 -0.22111174682E+02 -0.26483822485E+03  0.26964956189E+03  0.41800000000E+01 0.  1.
        -11    1    1    2    0    0  0.75978794104E+02 -0.57176914717E+02 -0.49309984886E+02  0.10711419766E+03  0.00000000000E+00 0.  1.
         11    1    1    2    0    0 -0.21205041436E+02 -0.88143037259E+01 -0.41769626661E+02  0.47665998823E+02  0.00000000000E+00 0. -1.
</event>
<event>
 6    1  0.7017065E-006  0.1278035E+03  0.7561462E-02  0.1230752E+00
          1   -1    0    0  501    0  0.00000000000E+00  0.00000000000E+00  0.34703949167E+03  0.34703949167E+03  0.00000000000E+00 0. -1.
         -1   -1    0    0    0  501 -0.00000000000E+00 -0.00000000000E+00 -0.82850138346E+02  0.82850138346E+02  0.00000000000E+00 0.  1.
          5    1    1    2  502    0  0.40605109300E+02 -0.99146111133E+02 -0.48105031969E+01  0.10732818640E+03  0.41800000000E+01 0. -1.
         -5    1    1    2    0  502 -0.10144418113E+02  0.55373390224E+02  0.43741054309E+02  0.71413400674E+02  0.41800000000E+01 0.  1.
        -11    1    1    2    0    0  0.23005852837E+02  0.27904247790E+02  0.16550688266E+03  0.16941205540E+03  0.00000000000E+00 0. -1.
         11    1    1    2    0    0 -0.53466544024E+02  0.15868473120E+02  0.59751919555E+02  0.81735987543E+02  0.00000000000E+00 0.  1.
</event>
<event>
 7    1  0.7017065E-006  0.1167084E+03  0.7561462E-02  0.1248628E+00
         -1   -1    0    0    0  501 -0.00000000000E+00  0.00000000000E+00  0.16486683823E+03  0.16486683823E+03  0.00000000000E+00 0.  1.
          1   -1    0    0  501    0  0.00000000000E+00 -0.00000000000E+00 -0.10918918626E+03  0.10918918626E+03  0.00000000000E+00 0. -1.
         23    2    1    2    0    0 -0.50352699476E+02  0.19306880400E+02  0.89222698413E+02  0.16283861262E+03  0.12509026290E+03 0.  0.
          5    1    3    3  502    0 -0.67491240649E+02  0.56391287082E+02  0.34836678629E+02  0.94689552755E+02  0.41800000000E+01 0.  1.
         -5    1    3    3    0  502  0.17138541173E+02 -0.37084406681E+02  0.54386019784E+02  0.68149059865E+02  0.41800000000E+01 0.  1.
        -11    1    1    2    0    0  0.29683315980E+02  0.35178026242E+02 -0.24821443314E+02  0.52294328814E+02  0.00000000000E+00 0. -1.
         11    1    1    2    0    0  0.20669383495E+02 -0.54484906643E+02 -0.87236031301E+01  0.58923083062E+02  0.00000000000E+00 0.  1.
</event>
<event>
 7    1  0.7017065E-006  0.1345182E+03  0.7561462E-02  0.1220901E+00
         -3   -1    0    0    0  501 -0.00000000000E+00  0.00000000000E+00  0.18334593556E+03  0.18334593556E+03  0.00000000000E+00 0.  1.
          3   -1    0    0  501    0  0.00000000000E+00 -0.00000000000E+00 -0.15730401066E+03  0.15730401066E+03  0.00000000000E+00 0. -1.
         23    2    1    2    0    0  0.10852191177E+02  0.11829582840E+03  0.70066866942E+02  0.18616545022E+03  0.12504613525E+03 0.  0.
          5    1    3    3  502    0 -0.88009045419E+01  0.67508911360E+02  0.10214486758E+03  0.12282489734E+03  0.41800000000E+01 0.  1.
         -5    1    3    3    0  502  0.19653095719E+02  0.50786917038E+02 -0.32078000638E+02  0.63340552875E+02  0.41800000000E+01 0.  1.
        -11    1    1    2    0    0  0.37517240233E+02 -0.53948549575E+02 -0.76738744875E+01  0.66157975072E+02  0.00000000000E+00 0.  1.
         11    1    1    2    0    0 -0.48369431410E+02 -0.64347278823E+02 -0.36351067557E+02  0.88326520929E+02  0.00000000000E+00 0. -1.
</event>
<event>
 7    1  0.7017065E-006  0.1425753E+03  0.7561462E-02  0.1209905E+00
          1   -1    0    0  501    0  0.00000000000E+00  0.00000000000E+00  0.66348452631E+03  0.66348452631E+03  0.00000000000E+00 0. -1.
         -1   -1    0    0    0  501 -0.00000000000E+00 -0.00000000000E+00 -0.45212039822E+02  0.45212039822E+02  0.00000000000E+00 0.  1.
         23    2    1    2    0    0 -0.60627378214E+01 -0.13145487539E+03  0.27134507595E+03  0.32648563278E+03  0.12509027586E+03 0.  0.
          5    1    3    3  502    0  0.29577358116E+01 -0.24549908527E+02  0.19035040074E+03  0.19199529596E+03  0.41800000000E+01 0. -1.
         -5    1    3    3    0  502 -0.90204736330E+01 -0.10690496686E+03  0.80994675215E+02  0.13449033682E+03  0.41800000000E+01 0. -1.
        -11    1    1    2    0    0  0.38361133632E+02  0.10207074860E+03  0.29416091369E+03  0.31372066785E+03  0.00000000000E+00 0. -1.
         11    1    1    2    0    0 -0.32298395811E+02  0.29384126795E+02  0.52766496839E+02  0.68490265499E+02  0.00000000000E+00 0.  1.
</event>
<event>
 7    1  0.7017065E-006  0.9645438E+02  0.7561462E-02  0.1287934E+00
         -3   -1    0    0    0  501 -0.00000000000E+00  0.00000000000E+00  0.12266637489E+03  0.12266637489E+03  0.00000000000E+00 0.  1.
          3   -1    0    0  501    0  0.00000000000E+00 -0.00000000000E+00 -0.17289476697E+03  0.17289476697E+03  0.00000000000E+00 0. -1.
         23    2    1    2    0    0  0.59739704568E+02  0.45194659378E+02  0.33484145129E+02  0.14960061742E+03  0.12509103573E+03 0.  0.
          5    1    3    3  502    0  0.11201468469E+02 -0.94712656464E+01  0.67255758285E+02  0.68963665733E+02  0.41800000000E+01 0.  1.
         -5    1    3    3    0  502  0.48538236100E+02  0.54665925024E+02 -0.33771613156E+02  0.80636951689E+02  0.41800000000E+01 0.  1.
        -11    1    1    2    0    0 -0.25742652124E+02  0.18861282175E+02 -0.62870426421E+02  0.70506188537E+02  0.00000000000E+00 0. -1.
         11    1    1    2    0    0 -0.33997052444E+02 -0.64055941554E+02 -0.20842110785E+02  0.75454335894E+02  0.00000000000E+00 0.  1.
</event>
<event>
 6    1  0.7017065E-006  0.1105315E+03  0.7561462E-02  0.1259589E+00
         -2   -1    0    0    0  501 -0.00000000000E+00  0.00000000000E+00  0.46588726189E+02  0.46588726189E+02  0.00000000000E+00 0.  1.
          2   -1    0    0  501    0  0.00000000000E+00 -0.00000000000E+00 -0.30660838095E+03  0.30660838095E+03  0.00000000000E+00 0. -1.
          5    1    1    2  502    0  0.85353459062E+02  0.51673176376E+01 -0.10214538642E+03  0.13327815467E+03  0.41800000000E+01 0. -1.
         -5    1    1    2    0  502 -0.50350133471E+02 -0.19718714555E+02 -0.65945565240E+02  0.85382982022E+02  0.41800000000E+01 0.  1.
        -11    1    1    2    0    0  0.20915937327E+02 -0.58055724289E+01 -0.66263004253E+02  0.69727805344E+02  0.00000000000E+00 0. -1.
         11    1    1    2    0    0 -0.55919262918E+02  0.20356969346E+02 -0.25665698843E+02  0.64808165098E+02  0.00000000000E+00 0.  1.
</event>
<event>
 7    1  0.7017065E-006  0.8821673E+02  0.7561462E-02  0.1307229E+00
         -1   -1    0    0    0  501 -0.00000000000E+00  0.00000000000E+00  0.78322305081E+03  0.78322305081E+03  0.00000000000E+00 0.  1.
          1   -1    0    0  501    0  0.00000000000E+00 -0.00000000000E+00 -0.18477652641E+02  0.18477652641E+02  0.00000000000E+00 0. -1.
         23    2    1    2    0    0  0.44067181274E+02 -0.26941201976E+02  0.48053842181E+03  0.49923165716E+03  0.12508927951E+03 0.  0.
          5    1    3    3  502    0  0.43121418753E+02  0.22568772706E+02  0.41026035073E+03  0.41315836436E+03  0.41800000000E+01 0.  1.
         -5    1    3    3    0  502  0.94576252148E+00 -0.49509974681E+02  0.70278071074E+02  0.86073292801E+02  0.41800000000E+01 0.  1.
        -11    1    1    2    0    0  0.76445239603E+01  0.24997817375E+02  0.19141576500E+02  0.32399530413E+02  0.00000000000E+00 0. -1.
         11    1    1    2    0    0 -0.51711705235E+02  0.19433846010E+01  0.26506539986E+03  0.27006951587E+03  0.00000000000E+00 0.  1.
</event>
<event>
 7    1  0.7017065E-006  0.1127397E+03  0.7561462E-02  0.1255579E+00
         -1   -1    0    0    0  501 -0.00000000000E+00  0.00000000000E+00  0.75468389783E+02  0.75468389783E+02  0.00000000000E+00 0.  1.
          1   -1    0    0  501    0  0.00000000000E+00 -0.00000000000E+00 -0.34323909660E+03  0.34323909660E+03  0.00000000000E+00 0. -1.
         23    2    1    2    0    0 -0.50732802814E+02  0.66321404736E+02 -0.34758906714E+02  0.15436311012E+03  0.12508973644E+03 0.  0.
          5    1    3    3  502    0 -0.30539403483E+02  0.82483032247E+02 -0.68559337894E+02  0.11159731621E+03  0.41800000000E+01 0. -1.
         -5    1    3    3    0  502 -0.20193399331E+02 -0.16161627511E+02  0.33800431180E+02  0.42765793904E+02  0.41800000000E+01 0. -1.
        -11    1    1    2    0    0 -0.14491134707E+02 -0.36955592804E+02 -0.32007688512E+02  0.50992165560E+02  0.00000000000E+00 0.  1.
         11    1    1    2    0    0  0.65223937521E+02 -0.29365811932E+02 -0.20100411159E+03  0.21335221071E+03  0.00000000000E+00 0. -1.
</event>
<event>
 7    1  0.7017065E-006  0.1407551E+03  0.7561462E-02  0.1212317E+00
          1   -1    0    0  501    0  0.00000000000E+00  0.00000000000E+00  0.36888026907E+03  0.36888026907E+03  0.00000000000E+00 0. -1.
         -1   -1    0    0    0  501 -0.00000000000E+00 -0.00000000000E+00 -0.69528675403E+02  0.69528675403E+02  0.00000000000E+00 0.  1.
         23    2    1    2    0    0  0.10559783218E+03 -0.44055839255E+01  0.90285981573E+02  0.18700038176E+03  0.12508906018E+03 0.  0.
          5    1    3    3  502    0  0.50811575718E+02 -0.53864204656E+02  0.85112607382E+02  0.11289285675E+03  0.41800000000E+01 0. -1.
         -5    1    3    3    0  502  0.54786256462E+02  0.49458620731E+02  0.51733741907E+01  0.74107525004E+02  0.41800000000E+01 0. -1.
        -11    1    1    2    0    0  0.13717602411E+01  0.24532204046E+02  0.14676528555E+02  0.28620119705E+02  0.00000000000E+00 0.  1.
         11    1    1    2    0    0 -0.10696959242E+03 -0.20126620120E+02  0.19438908354E+03  0.22278844301E+03  0.00000000000E+00 0. -1.
</event>
<event>
 7    1  0.7017065E-006  0.1874743E+03  0.7561462E-02  0.1160759E+00
         -1   -1    0    0    0  501 -0.00000000000E+00  0.00000000000E+00  0.45742253581E+02  0.45742253581E+02  0.00000000000E+00 0.  1.
          1   -1    0    0  501    0  0.00000000000E+00 -0.00000000000E+00 -0.92176314818E+03  0.92176314818E+03  0.00000000000E+00 0. -1.
         23    2    1    2    0    0 -0.33094742448E+01  0.16586761275E+03 -0.33220190934E+03  0.39182786772E+03  0.12509177343E+03 0.  0.
          5    1    3    3  502    0 -0.48074583430E+02  0.23922614584E+02 -0.13003189975E+03  0.14074524650E+03  0.41800000000E+01 0.  1.
         -5    1    3    3    0  502  0.44765109185E+02  0.14194499816E+03 -0.20217000959E+03  0.25108262122E+03  0.41800000000E+01 0.  1.
        -11    1    1    2    0    0  0.17498167306E+02 -0.14954680003E+03 -0.52754809474E+03  0.54861409345E+03  0.00000000000E+00 0. -1.
         11    1    1    2    0    0 -0.14188693061E+02 -0.16320812715E+02 -0.16270890518E+02  0.27063440592E+02  0.00000000000E+00 0.  1.
</event>
<event>
 7    1  0.7017065E-006  0.8754180E+02  0.7561462E-02  0.1308916E+00
         -1   -1    0    0    0  501 -0.00000000000E+00  0.00000000000E+00  0.10415492080E+03  0.10415492080E+03  0.00000000000E+00 0.  1.
          1   -1    0    0  501    0  0.00000000000E+00 -0.00000000000E+00 -0.11775892925E+03  0.11775892925E+03  0.00000000000E+00 0. -1.
         23    2    1    2    0    0 -0.11656101578E+02  0.72994547534E+01  0.14823647245E+02  0.12671672587E+03  0.12509293087E+03 0.  0.
          5    1    3    3  502    0 -0.25393862203E+02 -0.34572575169E+02  0.52965058095E+02  0.68285291025E+02  0.41800000000E+01 0. -1.
         -5    1    3    3    0  502  0.13737760626E+02  0.41872029922E+02 -0.38141410849E+02  0.58431434848E+02  0.41800000000E+01 0. -1.
        -11    1    1    2    0    0  0.23912760099E+02  0.35720733067E+02 -0.26344557687E+02  0.50416530881E+02  0.00000000000E+00 0. -1.
         11    1    1    2    0    0 -0.12256658522E+02 -0.43020187820E+02 -0.20830980083E+01  0.44780593291E+02  0.00000000000E+00 0.  1.
</event>
<event>
 7    1  0.7017065E-006  0.1606712E+03  0.7561462E-02  0.1187941E+00
          1   -1    0    0  501    0  0.00000000000E+00  0.00000000000E+00  0.13229248096E+04  0.13229248096E+04  0.00000000000E+00 0. -1.
         -1   -1    0    0    0  501 -0.00000000000E+00 -0.00000000000E+00 -0.20509778732E+02  0.20509778732E+02  0.00000000000E+00 0.  1.
         23    2    1    2    0    0 -0.11495317306E+03 -0.51954480220E+02  0.64609736845E+03  0.67007629658E+03  0.12508770404E+03 0.  0.
          5    1    3    3  502    0 -0.20361227390E+02 -0.75811497160E+02  0.33044053209E+03  0.33966215617E+03  0.41800000000E+01 0. -1.
         -5    1    3    3    0  502 -0.94591945666E+02  0.23857016940E+02  0.31565683636E+03  0.33041414041E+03  0.41800000000E+01 0. -1.
        -11    1    1    2    0    0  0.85097129135E+02 -0.80924186529E-01  0.46933416112E+03  0.47698645969E+03  0.00000000000E+00 0. -1.
         11    1    1    2    0    0  0.29856043921E+02  0.52035404407E+02  0.18698350127E+03  0.19637183203E+03  0.00000000000E+00 0.  1.
</event>
<event>
 7    1  0.7017065E-006  0.9521123E+02  0.7561462E-02  0.1290701E+00
          1   -1    0    0  501    0  0.00000000000E+00  0.00000000000E+00  0.27437008914E+03  0.27437008914E+03  0.00000000000E+00 0. -1.
         -1   -1    0    0    0  501 -0.00000000000E+00 -0.00000000000E+00 -0.68925728990E+02  0.68925728990E+02  0.00000000000E+00 0.  1.
         23    2    1    2    0    0  0.28890858761E+02 -0.55929179667E+01  0.11632939280E+02  0.12902684460E+03  0.12508652565E+03 0.  0.
          5    1    3    3  502    0 -0.29518586984E+02  0.34730275676E+02 -0.21520204043E+02  0.50577965638E+02  0.41800000000E+01 0. -1.
         -5    1    3    3    0  502  0.58409445745E+02 -0.40323193642E+02  0.33153143323E+02  0.78448878960E+02  0.41800000000E+01 0. -1.
        -11    1    1    2    0    0  0.22151622658E+02 -0.42688708228E+00  0.11723044187E+02  0.25066040453E+02  0.00000000000E+00 0.  1.
         11    1    1    2    0    0 -0.51042481420E+02  0.60198050490E+01  0.18208837668E+03  0.18920293308E+03  0.00000000000E+00 0. -1.
</event>
<event>
 7    1  0.7017065E-006  0.1689387E+03  0.7561462E-02  0.1178959E+00
          1   -1    0    0  501    0  0.00000000000E+00  0.00000000000E+00  0.16704099308E+02  0.16704099308E+02  0.00000000000E+00 0. -1.
         -1   -1    0    0    0  501 -0.00000000000E+00 -0.00000000000E+00 -0.19156925995E+04  0.19156925995E+04  0.00000000000E+00 0.  1.
         23    2    1    2    0    0 -0.11230780025E+03 -0.77667886017E+02 -0.12223455263E+04  0.12362932411E+04  0.12508816840E+03 0.  0.
          5    1    3    3  502    0 -0.11644703836E+03 -0.10309566276E+03 -0.11159500589E+04  0.11267433758E+04  0.41800000000E+01 0.  1.
         -5    1    3    3    0  502  0.41392381158E+01  0.25427776739E+02 -0.10639546737E+03  0.10954986535E+03  0.41800000000E+01 0.  1.
        -11    1    1    2    0    0  0.48739366725E+02 -0.81310452239E+01 -0.12884854843E+03  0.13799850795E+03  0.00000000000E+00 0.  1.
         11    1    1    2    0    0  0.63568433523E+02  0.85798931241E+02 -0.54779442547E+03  0.55810494973E+03  0.00000000000E+00 0. -1.
</event>
<event>
 7    1  0.7017065E-006  0.1071730E+03  0.7561462E-02  0.1265896E+00
         -2   -1    0    0    0  501 -0.00000000000E+00  0.00000000000E+00  0.16900606080E+02  0.16900606080E+02  0.00000000000E+00 0.  1.
          2   -1    0    0  501    0  0.00000000000E+00 -0.00000000000E+00 -0.89813369840E+03  0.89813369840E+03  0.00000000000E+00 0. -1.
         23    2    1    2    0    0 -0.50468294037E+02 -0.45240709072E+01 -0.43091081315E+03  0.45155061936E+03  0.12508523910E+03 0.  0.
          5    1    3    3  502    0 -0.60218036653E+02  0.30960581652E+02 -0.11532292134E+03  0.13379692875E+03  0.41800000000E+01 0.  1.
         -5    1    3    3    0  502  0.97497426162E+01 -0.35484652559E+02 -0.31558789180E+03  0.31775369062E+03  0.41800000000E+01 0.  1.
        -11    1    1    2    0    0  0.24663901976E+02  0.50808409345E+02 -0.24620662944E+03  0.25260147842E+03  0.00000000000E+00 0.  1.
         11    1    1    2    0    0  0.25804392060E+02 -0.46284338438E+02 -0.20411564974E+03  0.21088220670E+03  0.00000000000E+00 0. -1.
</event>
<event>
 7    1  0.7017065E-006  0.1718786E+03  0.7561462E-02  0.1175903E+00
          1   -1    0    0  501    0  0.00000000000E+00  0.00000000000E+00  0.22840415068E+03  0.22840415068E+03  0.00000000000E+00 0. -1.
         -1   -1    0    0    0  501 -0.00000000000E+00 -0.00000000000E+00 -0.17778610873E+03  0.17778610873E+03  0.00000000000E+00 0.  1.
         23    2    1    2    0    0  0.13096776026E+03 -0.20681835201E+02 -0.77529925763E+02  0.19807198801E+03  0.12506530498E+03 0.  0.
          5    1    3    3  502    0  0.12080596713E+03  0.33786932985E+02 -0.43107919594E+02  0.13270796384E+03  0.41800000000E+01 0.  1.
         -5    1    3    3    0  502  0.10161793131E+02 -0.54468768185E+02 -0.34422006169E+02  0.65364024172E+02  0.41800000000E+01 0.  1.
        -11    1    1    2    0    0 -0.90468056031E+02  0.58118663718E+02  0.71956328020E+02  0.12938300266E+03  0.00000000000E+00 0.  1.
         11    1    1    2    0    0 -0.40499704229E+02 -0.37436828517E+02  0.56191639690E+02  0.78735268738E+02  0.00000000000E+00 0. -1.
</event>
<event>
 7    1  0.7017065E-006  0.1713662E+03  0.7561462E-02  0.1176431E+00
         -2   -1    0    0    0  501 -0.00000000000E+00  0.00000000000E+00  0.14413829487E+03  0.14413829487E+03  0.00000000000E+00 0.  1.
          2   -1    0    0  501    0  0.00000000000E+00 -0.00000000000E+00 -0.26058205918E+03  0.26058205918E+03  0.00000000000E+00 0. -1.
         23    2    1    2    0    0  0.15657711721E+03 -0.34354469920E+02 -0.71380950333E+02  0.21549353700E+03  0.12508237757E+03 0.  0.
          5    1    3    3  502    0  0.34346400640E+02 -0.24725884088E+02 -0.81982116188E+02  0.92355748904E+02  0.41800000000E+01 0.  1.
         -5    1    3    3    0  502  0.12223071657E+03 -0.96285858318E+01  0.10601165856E+02  0.12313778809E+03  0.41800000000E+01 0.  1.
        -11    1    1    2    0    0 -0.92945191620E+02  0.58096327469E+02 -0.36279636770E+01  0.10966838209E+03  0.00000000000E+00 0. -1.
         11    1    1    2    0    0 -0.63631925594E+02 -0.23741857550E+02 -0.41434850301E+02  0.79558434966E+02  0.00000000000E+00 0.  1.
</event>
<event>
 7    1  0.7017065E-006  0.1147570E+03  0.7561462E-02  0.1252006E+00
          4   -1    0    0  501    0  0.00000000000E+00  0.00000000000E+00  0.20684159018E+03  0.20684159018E+03  0.00000000000E+00 0.  1.
         -4   -1    0    0    0  501 -0.00000000000E+00 -0.00000000000E+00 -0.15249192795E+03  0.15249192795E+03  0.00000000000E+00 0. -1.
         23    2    1    2    0    0 -0.35336418504E+02  0.17757362123E+02 -0.10436112434E+03  0.16763752350E+03  0.12508840326E+03 0.  0.
          5    1    3    3  502    0 -0.72321613869E+01  0.65726237888E+02 -0.86775472522E+02  0.10917736733E+03  0.41800000000E+01 0. -1.
         -5    1    3    3    0  502 -0.28104257117E+02 -0.47968875765E+02 -0.17585651821E+02  0.58460156177E+02  0.41800000000E+01 0. -1.
        -11    1    1    2    0    0  0.56393737351E+02  0.23572052239E+02  0.89561878308E+02  0.10843073967E+03  0.00000000000E+00 0.  1.
         11    1    1    2    0    0 -0.21057318847E+02 -0.41329414362E+02  0.69148908269E+02  0.83265254958E+02  0.00000000000E+00 0. -1.
</event>
<event>
 7    1  0.7017065E-006  0.1067571E+03  0.7561462E-02  0.1266696E+00
         -2   -1    0    0    0  501 -0.00000000000E+00  0.00000000000E+00  0.17138171027E+02  0.17138171027E+02  0.00000000000E+00 0.  1.
          2   -1    0    0  501    0  0.00000000000E+00 -0.00000000000E+00 -0.83796816034E+03  0.83796816034E+03  0.00000000000E+00 0. -1.
         23    2    1    2    0    0  0.99242856722E+00  0.39728908410E+02 -0.35036073191E+03  0.37413992990E+03  0.12509465859E+03 0.  0.
          5    1    3    3  502    0  0.39275586458E+02 -0.19500933153E+02 -0.23322252953E+03  0.23734590530E+03  0.41800000000E+01 0. -1.
         -5    1    3    3    0  502 -0.38283157890E+02  0.59229841563E+02 -0.11713820238E+03  0.13679402460E+03  0.41800000000E+01 0. -1.
        -11    1    1    2    0    0 -0.45594757745E+02 -0.23971104428E+02 -0.28090868838E+03  0.28559269421E+03  0.00000000000E+00 0. -1.
         11    1    1    2    0    0  0.44602329178E+02 -0.15757803982E+02 -0.18956056903E+03  0.19537370725E+03  0.00000000000E+00 0.  1.
</event>
<event>
 7    1  0.7017065E-006  0.1281284E+03  0.7561462E-02  0.1230260E+00
          2   -1    0    0  501    0  0.00000000000E+00  0.00000000000E+00  0.56183291227E+02  0.56183291227E+02  0.00000000000E+00 0. -1.
         -2   -1    0    0    0  501 -0.00000000000E+00 -0.00000000000E+00 -0.30508174050E+03  0.30508174050E+03  0.00000000000E+00 0.  1.
         23    2    1    2    0    0  0.53957417644E+02  0.46421573180E+02 -0.17504930351E+03  0.22661947199E+03  0.12509101108E+03 0.  0.
          5    1    3    3  502    0 -0.40941871047E+02  0.16388782575E+02 -0.53672046995E+02  0.69591594519E+02  0.41800000000E+01 0. -1.
         -5    1    3    3    0  502  0.94899288691E+02  0.30032790605E+02 -0.12137725651E+03  0.15702787748E+03  0.41800000000E+01 0. -1.
        -11    1    1    2    0    0 -0.72130742217E+02 -0.56434064432E+02 -0.63613188849E+02  0.11150912697E+03  0.00000000000E+00 0.  1.
         11    1    1    2    0    0  0.18173324573E+02  0.10012491251E+02 -0.10235956911E+02  0.23136432763E+02  0.00000000000E+00 0. -1.
</event>
<event>
 7    1  0.7017065E-006  0.1158426E+03  0.7561462E-02  0.1250117E+00
          2   -1    0    0  501    0  0.00000000000E+00  0.00000000000E+00  0.89155130483E+02  0.89155130483E+02  0.00000000000E+00 0. -1.
         -2   -1    0    0    0  501 -0.00000000000E+00 -0.00000000000E+00 -0.20823180534E+03  0.20823180534E+03  0.00000000000E+00 0.  1.
         23    2    1    2    0    0  0.81042881244E+02  0.11965079794E+02 -0.56890649013E+02  0.16001408764E+03  0.12512733739E+03 0.  0.
          5    1    3    3  502    0 -0.17709588724E+02  0.32018177527E+02 -0.45472694169E+02  0.58515224855E+02  0.41800000000E+01 0. -1.
         -5    1    3    3    0  502  0.98752469967E+02 -0.20053097733E+02 -0.11417954844E+02  0.10149886278E+03  0.41800000000E+01 0. -1.
        -11    1    1    2    0    0 -0.77262901320E+02  0.42243208173E+01 -0.81167149143E+02  0.11214056762E+03  0.00000000000E+00 0.  1.
         11    1    1    2    0    0 -0.37799799239E+01 -0.16189400611E+02  0.18981123302E+02  0.25232280558E+02  0.00000000000E+00 0. -1.
</event>
<event>
 7    1  0.7017065E-006  0.1468480E+03  0.7561462E-02  0.1204400E+00
          1   -1    0    0  501    0  0.00000000000E+00  0.00000000000E+00  0.33110753102E+03  0.33110753102E+03  0.00000000000E+00 0.  1.
         -1   -1    0    0    0  501 -0.00000000000E+00 -0.00000000000E+00 -0.95634754873E+02  0.95634754873E+02  0.00000000000E+00 0. -1.
         23    2    1    2    0    0 -0.39929506793E+02  0.13354676654E+03  0.12284743754E+03  0.22398381447E+03  0.12509257319E+03 0.  0.
          5    1    3    3  502    0 -0.31185881251E+01 -0.30607667500E+01  0.74005027599E+02  0.74251669307E+02  0.41800000000E+01 0. -1.
         -5    1    3    3    0  502 -0.36810918668E+02  0.13660753329E+03  0.48842409939E+02  0.14973214516E+03  0.41800000000E+01 0. -1.
        -11    1    1    2    0    0  0.43306843109E+01 -0.88899389090E+02  0.15868469020E+02  0.90408321056E+02  0.00000000000E+00 0. -1.
         11    1    1    2    0    0  0.35598822483E+02 -0.44647377453E+02  0.96756869592E+02  0.11235015037E+03  0.00000000000E+00 0.  1.
</event>
<event>
 7    1  0.7017065E-006  0.7529479E+02  0.7561462E-02  0.1342961E+00
         -1   -1    0    0    0  501 -0.00000000000E+00  0.00000000000E+00  0.13864332176E+03  0.13864332176E+03  0.00000000000E+00 0.  1.
          1   -1    0    0  501    0  0.00000000000E+00 -0.00000000000E+00 -0.23290800196E+03  0.23290800196E+03  0.00000000000E+00 0. -1.
         23    2    1    2    0    0  0.15787628274E+02 -0.11417434955E+02  0.94123367911E+02  0.15775351147E+03  0.12508938791E+03 0.  0.
          5    1    3    3  502    0 -0.18314066901E+02  0.30666878171E+02  0.96896637715E+02  0.10335518015E+03  0.41800000000E+01 0.  1.
         -5    1    3    3    0  502  0.34101695175E+02 -0.42084313127E+02 -0.27732698041E+01  0.54398331321E+02  0.41800000000E+01 0.  1.
        -11    1    1    2    0    0  0.13801454336E+01 -0.22363453164E+02 -0.79943518051E+00  0.22420257256E+02  0.00000000000E+00 0.  1.
         11    1    1    2    0    0 -0.17167773708E+02  0.33780888119E+02 -0.18758861293E+03  0.19137755500E+03  0.00000000000E+00 0. -1.
</event>
<event>
 7    1  0.7017065E-006  0.1226866E+03  0.7561462E-02  0.1238730E+00
         -2   -1    0    0    0  501 -0.00000000000E+00  0.00000000000E+00  0.59214338518E+02  0.59214338518E+02  0.00000000000E+00 0.  1.
          2   -1    0    0  501    0  0.00000000000E+00 -0.00000000000E+00 -0.29808838764E+03  0.29808838764E+03  0.00000000000E+00 0. -1.
         23    2    1    2    0    0 -0.45879397929E+02 -0.56158921731E+02 -0.99363825828E+02  0.17544185863E+03  0.12509169530E+03 0.  0.
          5    1    3    3  502    0 -0.31408193584E+02 -0.92185593291E+02 -0.42217375382E+02  0.10622823268E+03  0.41800000000E+01 0.  1.
         -5    1    3    3    0  502 -0.14471204346E+02  0.36026671560E+02 -0.57146450446E+02  0.69213625953E+02  0.41800000000E+01 0.  1.
        -11    1    1    2    0    0  0.24490138158E+02 -0.18813109348E+02 -0.13547946107E+02  0.33723089925E+02  0.00000000000E+00 0.  1.
         11    1    1    2    0    0  0.21389259772E+02  0.74972031080E+02 -0.12596227719E+03  0.14813777760E+03  0.00000000000E+00 0. -1.
</event>
<event>
 7    1  0.7017065E-006  0.8107062E+02  0.7561462E-02  0.1326040E+00
         -1   -1    0    0    0  501 -0.00000000000E+00  0.00000000000E+00  0.16510406164E+02  0.16510406164E+02  0.00000000000E+00 0.  1.
          1   -1    0    0  501    0  0.00000000000E+00 -0.00000000000E+00 -0.92269195333E+03  0.92269195333E+03  0.00000000000E+00 0. -1.
         23    2    1    2    0    0 -0.19991943737E+02  0.53742138517E+02 -0.43291076896E+03  0.45425418634E+03  0.12508891500E+03 0.  0.
          5    1    3    3  502    0 -0.27558656204E+02  0.39332321469E+02 -0.44896560908E+02  0.65876282722E+02  0.41800000000E+01 0. -1.
         -5    1    3    3    0  502  0.75667124674E+01  0.14409817048E+02 -0.38801420805E+03  0.38837790361E+03  0.41800000000E+01 0. -1.
        -11    1    1    2    0    0  0.99097569320E+00 -0.71271179782E+02 -0.41667650894E+03  0.42272908133E+03  0.00000000000E+00 0. -1.
         11    1    1    2    0    0  0.19000968044E+02  0.17529041265E+02 -0.56594269270E+02  0.62219091833E+02  0.00000000000E+00 0.  1.
</event>
<event>
 7    1  0.7017065E-006  0.1579980E+03  0.7561462E-02  0.1190976E+00
          2   -1    0    0  501    0  0.00000000000E+00  0.00000000000E+00  0.75398966515E+03  0.75398966515E+03  0.00000000000E+00 0.  1.
         -2   -1    0    0    0  501 -0.00000000000E+00 -0.00000000000E+00 -0.37753429663E+02  0.37753429663E+02  0.00000000000E+00 0. -1.
         23    2    1    2    0    0 -0.55455456181E+02  0.11515381814E+03  0.33794879510E+03  0.38235165194E+03  0.12509071981E+03 0.  0.
          5    1    3    3  502    0 -0.10204452397E+02  0.12536213290E+03  0.28667751904E+03  0.31308348334E+03  0.41800000000E+01 0.  1.
         -5    1    3    3    0  502 -0.45251003784E+02 -0.10208314760E+02  0.51271276052E+02  0.69268168603E+02  0.41800000000E+01 0.  1.
        -11    1    1    2    0    0 -0.13922742089E+02 -0.84126574622E+01  0.86049101574E+01  0.18402718051E+02  0.00000000000E+00 0.  1.
         11    1    1    2    0    0  0.69378198271E+02 -0.10674116068E+03  0.36968253023E+03  0.39098872482E+03  0.00000000000E+00 0. -1.
</event>
<event>
 7    1  0.7017065E-006  0.9656248E+02  0.7561462E-02  0.1287695E+00
         -1   -1    0    0    0  501 -0.00000000000E+00  0.00000000000E+00  0.18391467531E+03  0.18391467531E+03  0.00000000000E+00 0.  1.
          1   -1    0    0  501    0  0.00000000000E+00 -0.00000000000E+00 -0.76358716455E+02  0.76358716455E+02  0.00000000000E+00 0. -1.
         23    2    1    2    0    0  0.45665280406E+02  0.35062897495E+02  0.68729460511E+02  0.15390093402E+03  0.12508810549E+03 0.  0.
          5    1    3    3  502    0 -0.12368168311E+02 -0.38585312648E+02  0.36407202853E+02  0.54632909122E+02  0.41800000000E+01 0.  1.
         -5    1    3    3    0  502  0.58033448717E+02  0.73648210143E+02  0.32322257658E+02  0.99268024899E+02  0.41800000000E+01 0.  1.
        -11    1    1    2    0    0 -0.15665771903E+02 -0.18579768559E+02  0.60949447318E+02  0.65615999096E+02  0.00000000000E+00 0.  1.
         11    1    1    2    0    0 -0.29999508503E+02 -0.16483128936E+02 -0.22122948977E+02  0.40756458646E+02  0.00000000000E+00 0. -1.
</event>
<event>
 7    1  0.7017065E-006  0.8815415E+02  0.7561462E-02  0.1307384E+00
         -1   -1    0    0    0  501 -0.00000000000E+00  0.00000000000E+00  0.28622653690E+02  0.28622653690E+02  0.00000000000E+00 0.  1.
          1   -1    0    0  501    0  0.00000000000E+00 -0.00000000000E+00 -0.43876427970E+03  0.43876427970E+03  0.00000000000E+00 0. -1.
         23    2    1    2    0    0 -0.10178464700E+02 -0.15198709006E+02 -0.19593868299E+03  0.23318257523E+03  0.12509014350E+03 0.  0.
          5    1    3    3  502    0 -0.48269375992E+02 -0.17721092701E+02 -0.18668343057E+03  0.19368052415E+03  0.41800000000E+01 0.  1.
         -5    1    3    3    0  502  0.38090911292E+02  0.25223836946E+01 -0.92552524194E+01  0.39502051084E+02  0.41800000000E+01 0.  1.
        -11    1    1    2    0    0  0.40084175781E+02 -0.15945157395E+02 -0.58882168663E+02  0.72993828361E+02  0.00000000000E+00 0. -1.
         11    1    1    2    0    0 -0.29905711081E+02  0.31143866401E+02 -0.15532077436E+03  0.16121052979E+03  0.00000000000E+00 0.  1.
</event>
<event>
 7    1  0.7017065E-006  0.1417446E+03  0.7561462E-02  0.1211001E+00
          4   -1    0    0  501    0  0.00000000000E+00  0.00000000000E+00  0.69230840226E+02  0.69230840226E+02  0.00000000000E+00 0. -1.
         -4   -1    0    0    0  501 -0.00000000000E+00 -0.00000000000E+00 -0.32537486006E+03  0.32537486006E+03  0.00000000000E+00 0.  1.
         23    2    1    2    0    0  0.61431246047E+02  0.77218482026E+02 -0.18036862237E+03  0.24059827497E+03  0.12497278913E+03 0.  0.
          5    1    3    3  502    0  0.99207976356E+02  0.65110960424E+02 -0.12558988555E+03  0.17283504128E+03  0.41800000000E+01 0. -1.
         -5    1    3    3    0  502 -0.37776730310E+02  0.12107521602E+02 -0.54778736821E+02  0.67763233689E+02  0.41800000000E+01 0. -1.
        -11    1    1    2    0    0 -0.12518774439E+02  0.15564366070E+02 -0.37254536315E+02  0.42271381344E+02  0.00000000000E+00 0.  1.
         11    1    1    2    0    0 -0.48912471607E+02 -0.92782848096E+02 -0.38520861142E+02  0.11173604397E+03  0.00000000000E+00 0. -1.
</event>
<event>
 7    1  0.7017065E-006  0.1162592E+03  0.7561462E-02  0.1249399E+00
         -3   -1    0    0    0  501 -0.00000000000E+00  0.00000000000E+00  0.52219024717E+03  0.52219024717E+03  0.00000000000E+00 0.  1.
          3   -1    0    0  501    0  0.00000000000E+00 -0.00000000000E+00 -0.28648341261E+02  0.28648341261E+02  0.00000000000E+00 0. -1.
         23    2    1    2    0    0 -0.50479760839E+02  0.25467631114E+02  0.26167923630E+03  0.29550573084E+03  0.12510318844E+03 0.  0.
          5    1    3    3  502    0 -0.73310007530E+02 -0.19144720003E+02  0.96041693282E+02  0.12240243771E+03  0.41800000000E+01 0.  1.
         -5    1    3    3    0  502  0.22830246691E+02  0.44612351117E+02  0.16563754302E+03  0.17310329313E+03  0.41800000000E+01 0.  1.
        -11    1    1    2    0    0  0.41583288063E+02 -0.58703820576E+02  0.14389497090E+03  0.16087594925E+03  0.00000000000E+00 0.  1.
         11    1    1    2    0    0  0.88964727760E+01  0.33236189462E+02  0.87967698710E+02  0.94456908346E+02  0.00000000000E+00 0. -1.
</event>
<event>
 7    1  0.7017065E-006  0.1581208E+03  0.7561462E-02  0.1190835E+00
         -3   -1    0    0    0  501 -0.00000000000E+00  0.00000000000E+00  0.45466564820E+02  0.45466564820E+02  0.00000000000E+00 0.  1.
          3   -1    0    0  501    0  0.00000000000E+00 -0.00000000000E+00 -0.66986952300E+03  0.66986952300E+03  0.00000000000E+00 0. -1.
         23    2    1    2    0    0 -0.61925985878E+02 -0.10615790152E+03 -0.21349928464E+03  0.27628030621E+03  0.12507811670E+03 0.  0.
          5    1    3    3  502    0 -0.14541769234E+02  0.21069053792E+02 -0.86581732099E+02  0.90383830486E+02  0.41800000000E+01 0.  1.
         -5    1    3    3    0  502 -0.47384216645E+02 -0.12722695531E+03 -0.12691755254E+03  0.18589647573E+03  0.41800000000E+01 0.  1.
        -11    1    1    2    0    0 -0.23238024692E+02  0.81312769200E+01 -0.57425228261E+02  0.62480239250E+02  0.00000000000E+00 0.  1.
         11    1    1    2    0    0  0.85164010570E+02  0.98026624596E+02 -0.35347844527E+03  0.37657554235E+03  0.00000000000E+00 0. -1.
</event>
<event>
 7    1  0.7017065E-006  0.9076606E+02  0.7561462E-02  0.1301007E+00
          3   -1    0    0  501    0  0.00000000000E+00  0.00000000000E+00  0.20301907360E+03  0.20301907360E+03  0.00000000000E+00 0. -1.
         -3   -1    0    0    0  501 -0.00000000000E+00 -0.00000000000E+00 -0.85784268029E+02  0.85784268029E+02  0.00000000000E+00 0.  1.
         23    2    1    2    0    0  0.22813480945E+02 -0.69929818476E+02  0.48694233566E+02  0.15306217050E+03  0.12508503200E+03 0.  0.
          5    1    3    3  502    0  0.30051276799E+01  0.13319965234E+02 -0.32203902847E+02  0.35228057352E+02  0.41800000000E+01 0.  1.
         -5    1    3    3    0  502  0.19808353265E+02 -0.83249783710E+02  0.80898136413E+02  0.11783411315E+03  0.41800000000E+01 0.  1.
        -11    1    1    2    0    0 -0.32278306552E+02  0.50014673320E+02 -0.42563894415E+01  0.59678082009E+02  0.00000000000E+00 0.  1.
         11    1    1    2    0    0  0.94648256073E+01  0.19915145157E+02  0.72796961449E+02  0.76063089120E+02  0.00000000000E+00 0. -1.
</event>
<event>
 7    1  0.7017065E-006  0.1087474E+03  0.7561462E-02  0.1262907E+00
          1   -1    0    0  501    0  0.00000000000E+00  0.00000000000E+00  0.13451328015E+03  0.13451328015E+03  0.00000000000E+00 0. -1.
         -1   -1    0    0    0  501 -0.00000000000E+00 -0.00000000000E+00 -0.16591696217E+03  0.16591696217E+03  0.00000000000E+00 0.  1.
         23    2    1    2    0    0 -0.39897433834E+02 -0.76946437496E+02 -0.71194325562E+02  0.16801612554E+03  0.12509287341E+03 0.  0.
          5    1    3    3  502    0 -0.62902779403E+02 -0.50257552541E+02  0.82145918735E+01  0.81040318137E+02  0.41800000000E+01 0.  1.
         -5    1    3    3    0  502  0.23005345569E+02 -0.26688884954E+02 -0.79408917435E+02  0.86975807401E+02  0.41800000000E+01 0.  1.
        -11    1    1    2    0    0 -0.11030566265E+02  0.30607883827E+02 -0.22505969524E+02  0.39560518306E+02  0.00000000000E+00 0.  1.
         11    1    1    2    0    0  0.50928000099E+02  0.46338553669E+02  0.62296613064E+02  0.92853598473E+02  0.00000000000E+00 0. -1.
</event>
<event>
 7    1  0.7017065E-006  0.1252250E+03  0.7561462E-02  0.1234718E+00
         -1   -1    0    0    0  501 -0.00000000000E+00  0.00000000000E+00  0.33367056236E+02  0.33367056236E+02  0.00000000000E+00 0.  1.
          1   -1    0    0  501    0  0.00000000000E+00 -0.00000000000E+00 -0.64642501027E+03  0.64642501027E+03  0.00000000000E+00 0. -1.
         23    2    1    2    0    0 -0.66742199360E+02 -0.67181831015E+02 -0.28768517155E+03  0.32762013212E+03  0.12491706627E+03 0.  0.
          5    1    3    3  502    0 -0.23820638739E+02 -0.79375800886E+02 -0.80381036660E+02  0.11552715720E+03  0.41800000000E+01 0.  1.
         -5    1    3    3    0  502 -0.42921560621E+02  0.12193969871E+02 -0.20730413489E+03  0.21209297492E+03  0.41800000000E+01 0.  1.
        -11    1    1    2    0    0  0.37353097260E+02 -0.11158890419E+02 -0.18236095852E+03  0.18648135001E+03  0.00000000000E+00 0. -1.
         11    1    1    2    0    0  0.29389102100E+02  0.78340721434E+02 -0.14301182396E+03  0.16569058438E+03  0.00000000000E+00 0.  1.
</event>
<event>
 7    1  0.7017065E-006  0.7539131E+02  0.7561462E-02  0.1342664E+00
          1   -1    0    0  501    0  0.00000000000E+00  0.00000000000E+00  0.14329654501E+02  0.14329654501E+02  0.00000000000E+00 0. -1.
         -1   -1    0    0    0  501 -0.00000000000E+00 -0.00000000000E+00 -0.92666506089E+03  0.92666506089E+03  0.00000000000E+00 0.  1.
         23    2    1    2    0    0 -0.19898743508E+02  0.49330329233E+02 -0.54023368483E+03  0.55410702047E+03  0.11114276644E+03 0.  0.
          5    1    3    3  502    0 -0.11677049406E+02  0.39112881914E+02 -0.54705358806E+02  0.68383621552E+02  0.41800000000E+01 0. -1.
         -5    1    3    3    0  502 -0.82216941016E+01  0.10217447319E+02 -0.48552832603E+03  0.48572339892E+03  0.41800000000E+01 0.  1.
        -11    1    1    2    0    0  0.21822966164E+02  0.18207201967E+02 -0.47703931520E+02  0.55528453410E+02  0.00000000000E+00 0.  1.
         11    1    1    2    0    0 -0.19242226561E+01 -0.67537531200E+02 -0.32439779004E+03  0.33135924151E+03  0.00000000000E+00 0. -1.
</event>
<event>
 7    1  0.7017065E-006  0.2018829E+03  0.7561462E-02  0.1148160E+00
         -1   -1    0    0    0  501 -0.00000000000E+00  0.00000000000E+00  0.80133972810E+02  0.80133972810E+02  0.00000000000E+00 0.  1.
          1   -1    0    0  501    0  0.00000000000E+00 -0.00000000000E+00 -0.56421609129E+03  0.56421609129E+03  0.00000000000E+00 0. -1.
         23    2    1    2    0    0  0.15726013195E+03 -0.65247737783E+02 -0.15217073309E+03  0.26036598537E+03  0.12508596221E+03 0.  0.
          5    1    3    3  502    0  0.12792636477E+03 -0.10217360732E+03 -0.12208278267E+03  0.20427011299E+03  0.41800000000E+01 0.  1.
         -5    1    3    3    0  502  0.29333767177E+02  0.36925869534E+02 -0.30087950419E+02  0.56095872379E+02  0.41800000000E+01 0.  1.
        -11    1    1    2    0    0 -0.80979037849E+02  0.81241583906E+02 -0.18492436231E+03  0.21761162493E+03  0.00000000000E+00 0.  1.
         11    1    1    2    0    0 -0.76281094102E+02 -0.15993846124E+02 -0.14698702308E+03  0.16637245380E+03  0.00000000000E+00 0. -1.
</event>
<event>
 7    1  0.7017065E-006  0.1282057E+03  0.7561462E-02  0.1230143E+00
          1   -1    0    0  501    0  0.00000000000E+00  0.00000000000E+00  0.46851883131E+03  0.46851883131E+03  0.00000000000E+00 0. -1.
         -1   -1    0    0    0  501 -0.00000000000E+00 -0.00000000000E+00 -0.75101104109E+02  0.75101104109E+02  0.00000000000E+00 0.  1.
         23    2    1    2    0    0  0.22521150073E+02 -0.67925396663E+02  0.12056091303E+02  0.14508580963E+03  0.12563232508E+03 0.  0.
          5    1    3    3  502    0 -0.51476955787E+02 -0.20981680175E+02  0.13439764847E+02  0.57342894583E+02  0.41800000000E+01 0. -1.
         -5    1    3    3    0  502  0.73998105860E+02 -0.46943716488E+02 -0.13836735436E+01  0.87742915047E+02  0.41800000000E+01 0.  1.
        -11    1    1    2    0    0 -0.11674647895E+02  0.88717647266E+02  0.26111550050E+03  0.27602250441E+03  0.00000000000E+00 0.  1.
         11    1    1    2    0    0 -0.10846502178E+02 -0.20792250603E+02  0.12024613540E+03  0.12251162138E+03  0.00000000000E+00 0. -1.
</event>
<event>
 7    1  0.7017065E-006  0.9499205E+02  0.7561462E-02  0.1291194E+00
         -3   -1    0    0    0  501 -0.00000000000E+00  0.00000000000E+00  0.41530928081E+02  0.41530928081E+02  0.00000000000E+00 0.  1.
          3   -1    0    0  501    0  0.00000000000E+00 -0.00000000000E+00 -0.46869529064E+03  0.46869529064E+03  0.00000000000E+00 0. -1.
         23    2    1    2    0    0 -0.78638428667E+01  0.25304818036E+02 -0.85858535605E+02  0.15401750773E+03  0.12509009038E+03 0.  0.
          5    1    3    3  502    0  0.36974580132E+02 -0.38581789148E+01 -0.92669782355E+02  0.99935809809E+02  0.41800000000E+01 0. -1.
         -5    1    3    3    0  502 -0.44838422999E+02  0.29162996951E+02  0.68112467501E+01  0.54081697925E+02  0.41800000000E+01 0. -1.
        -11    1    1    2    0    0  0.14020874852E+02  0.35312524326E+02 -0.91397108739E+02  0.98979749402E+02  0.00000000000E+00 0.  1.
         11    1    1    2    0    0 -0.61570319850E+01 -0.60617342362E+02 -0.24990871822E+03  0.25722896159E+03  0.00000000000E+00 0. -1.
</event>
<event>
 7    1  0.7017065E-006  0.1152518E+03  0.7561462E-02  0.1251142E+00
          2   -1    0    0  501    0  0.00000000000E+00  0.00000000000E+00  0.47655840838E+03  0.47655840838E+03  0.00000000000E+00 0. -1.
         -2   -1    0    0    0  501 -0.00000000000E+00 -0.00000000000E+00 -0.38667980693E+02  0.38667980693E+02  0.00000000000E+00 0.  1.
         23    2    1    2    0    0  0.22784663725E+02 -0.76960362674E+02  0.25607177466E+03  0.29607724423E+03  0.12508773901E+03 0.  0.
          5    1    3    3  502    0 -0.64379261687E+01 -0.95865625121E+02  0.11117359913E+03  0.14699900175E+03  0.41800000000E+01 0.  1.
         -5    1    3    3    0  502  0.29222589894E+02  0.18905262446E+02  0.14489817553E+03  0.14907824248E+03  0.41800000000E+01 0.  1.
        -11    1    1    2    0    0 -0.42383881472E+02  0.59332402488E+02  0.17820080876E+03  0.19254156859E+03  0.00000000000E+00 0. -1.
         11    1    1    2    0    0  0.19599217746E+02  0.17627960186E+02  0.36178442659E+01  0.26607576247E+02  0.00000000000E+00 0.  1.
</event>
<event>
 7    1  0.7017065E-006  0.1046326E+03  0.7561462E-02  0.1270845E+00
         -2   -1    0    0    0  501 -0.00000000000E+00  0.00000000000E+00  0.31708763319E+02  0.31708763319E+02  0.00000000000E+00 0.  1.
          2   -1    0    0  501    0  0.00000000000E+00 -0.00000000000E+00 -0.53237046813E+03  0.53237046813E+03  0.00000000000E+00 0. -1.
         23    2    1    2    0    0 -0.37916142658E+02 -0.17604517101E+02 -0.16455514299E+03  0.21088009938E+03  0.12507784909E+03 0.  0.
          5    1    3    3  502    0  0.43822478557E+02  0.48194783851E+01 -0.77803937523E+02  0.89524086663E+02  0.41800000000E+01 0.  1.
         -5    1    3    3    0  502 -0.81738621216E+02 -0.22423995486E+02 -0.86751205470E+02  0.12135601272E+03  0.41800000000E+01 0.  1.
        -11    1    1    2    0    0 -0.19651884364E+02  0.10003192567E+02 -0.14497886654E+02  0.26390322810E+02  0.00000000000E+00 0.  1.
         11    1    1    2    0    0  0.57568027022E+02  0.76013245346E+01 -0.32160867517E+03  0.32680880926E+03  0.00000000000E+00 0. -1.
</event>
<event>
 7    1  0.7017065E-006  0.1010179E+03  0.7561462E-02  0.1278170E+00
          2   -1    0    0  501    0  0.00000000000E+00  0.00000000000E+00  0.15042137508E+03  0.15042137508E+03  0.00000000000E+00 0. -1.
         -2   -1    0    0    0  501 -0.00000000000E+00 -0.00000000000E+00 -0.77921452205E+02  0.77921452205E+02  0.00000000000E+00 0.  1.
         23    2    1    2    0    0 -0.53420631272E+01  0.13848500066E+02  0.29084471684E+02  0.12930390742E+03  0.12511305043E+03 0.  0.
          5    1    3    3  502    0 -0.19504481820E+02  0.63627118728E+02 -0.55166238884E+01  0.66908449301E+02  0.41800000000E+01 0. -1.
         -5    1    3    3    0  502  0.14162418693E+02 -0.49778618662E+02  0.34601095572E+02  0.62395458120E+02  0.41800000000E+01 0. -1.
        -11    1    1    2    0    0  0.42446111017E+02  0.32660149302E+01  0.39357153834E+02  0.57976932929E+02  0.00000000000E+00 0.  1.
         11    1    1    2    0    0 -0.37104047889E+02 -0.17114514996E+02  0.40582973522E+01  0.41061986931E+02  0.00000000000E+00 0. -1.
</event>
<event>
 7    1  0.7017065E-006  0.1123839E+03  0.7561462E-02  0.1256218E+00
          1   -1    0    0  501    0  0.00000000000E+00  0.00000000000E+00  0.23879201703E+03  0.23879201703E+03  0.00000000000E+00 0. -1.
         -1   -1    0    0    0  501 -0.00000000000E+00 -0.00000000000E+00 -0.76723945281E+02  0.76723945281E+02  0.00000000000E+00 0.  1.
         23    2    1    2    0    0  0.49868759614E+02  0.27519636620E+02  0.23615780348E+02  0.13946154677E+03  0.12509034480E+03 0.  0.
          5    1    3    3  502    0 -0.37237628389E+02  0.16392611767E+02 -0.14834283186E+02  0.43507321754E+02  0.41800000000E+01 0.  1.
         -5    1    3    3    0  502  0.87106388003E+02  0.11127024853E+02  0.38450063535E+02  0.95954225018E+02  0.41800000000E+01 0.  1.
        -11    1    1    2    0    0  0.30050378412E+01  0.22779491166E+02  0.77928706720E+02  0.81245423263E+02  0.00000000000E+00 0. -1.
         11    1    1    2    0    0 -0.52873797455E+02 -0.50299127786E+02  0.60523584677E+02  0.94808992272E+02  0.00000000000E+00 0.  1.
</event>
<event>
 7    1  0.7017065E-006  0.1143365E+03  0.7561462E-02  0.1252744E+00
          3   -1    0    0  501    0  0.00000000000E+00  0.00000000000E+00  0.57391692151E+02  0.57391692151E+02  0.00000000000E+00 0. -1.
         -3   -1    0    0    0  501 -0.00000000000E+00 -0.00000000000E+00 -0.29134768687E+03  0.29134768687E+03  0.00000000000E+00 0.  1.
         23    2    1    2    0    0  0.63435811769E+01  0.76752767338E+02 -0.16359665728E+03  0.21986889595E+03  0.12508891565E+03 0.  0.
          5    1    3    3  502    0  0.70339896266E+01 -0.33928734555E+02 -0.27742247919E+02  0.44584086378E+02  0.41800000000E+01 0.  1.
         -5    1    3    3    0  502 -0.69040844968E+00  0.11068150189E+03 -0.13585440936E+03  0.17528480958E+03  0.41800000000E+01 0.  1.
        -11    1    1    2    0    0  0.12615222876E+02 -0.28611082576E+02  0.10404690453E+02  0.32954445494E+02  0.00000000000E+00 0. -1.
         11    1    1    2    0    0 -0.18958804053E+02 -0.48141684761E+02 -0.80764027895E+02  0.95916037577E+02  0.00000000000E+00 0.  1.
</event>
<event>
 7    1  0.7017065E-006  0.1185708E+03  0.7561462E-02  0.1245474E+00
         -2   -1    0    0    0  501 -0.00000000000E+00  0.00000000000E+00  0.12887208539E+04  0.12887208539E+04  0.00000000000E+00 0. -1.
          2   -1    0    0  501    0  0.00000000000E+00 -0.00000000000E+00 -0.14410871191E+02  0.14410871191E+02  0.00000000000E+00 0.  1.
         23    2    1    2    0    0  0.53010037082E+02  0.28361135513E+02  0.96570468452E+03  0.97562668273E+03  0.12508984089E+03 0.  0.
          5    1    3    3  502    0 -0.17907301116E+02 -0.31068268613E+02  0.46704566219E+03  0.46843893062E+03  0.41800000000E+01 0. -1.
         -5    1    3    3    0  502  0.70917338198E+02  0.59429404127E+02  0.49865902233E+03  0.50718775211E+03  0.41800000000E+01 0. -1.
        -11    1    1    2    0    0 -0.77812294021E+02 -0.12066271068E+02  0.20072422007E+03  0.21561669815E+03  0.00000000000E+00 0.  1.
         11    1    1    2    0    0  0.24802256939E+02 -0.16294864445E+02  0.10788107813E+03  0.11188834423E+03  0.00000000000E+00 0. -1.
</event>
<event>
 7    1  0.7017065E-006  0.1109499E+03  0.7561462E-02  0.1258821E+00
         -2   -1    0    0    0  501 -0.00000000000E+00  0.00000000000E+00  0.75362199551E+02  0.75362199551E+02  0.00000000000E+00 0.  1.
          2   -1    0    0  501    0  0.00000000000E+00 -0.00000000000E+00 -0.17765902782E+03  0.17765902782E+03  0.00000000000E+00 0. -1.
         23    2    1    2    0    0  0.25190969669E+02 -0.35288006572E+02 -0.65121273733E+02  0.14754016493E+03  0.12508993411E+03 0.  0.
          5    1    3    3  502    0  0.17698502968E+02 -0.81919991767E+02 -0.50428789771E+02  0.97901262995E+02  0.41800000000E+01 0. -1.
         -5    1    3    3    0  502  0.74924667012E+01  0.46631985194E+02 -0.14692483963E+02  0.49638901936E+02  0.41800000000E+01 0. -1.
        -11    1    1    2    0    0 -0.36757948056E+02  0.55919069216E+02 -0.44915338413E+02  0.80594520111E+02  0.00000000000E+00 0. -1.
         11    1    1    2    0    0  0.11566978387E+02 -0.20631062643E+02  0.77397838741E+01  0.24886542331E+02  0.00000000000E+00 0.  1.
</event>
<event>
 7    1  0.7017065E-006  0.1212534E+03  0.7561462E-02  0.1241044E+00
         -2   -1    0    0    0  501 -0.00000000000E+00  0.00000000000E+00  0.12578310573E+03  0.12578310573E+03  0.00000000000E+00 0.  1.
          2   -1    0    0  501    0  0.00000000000E+00 -0.00000000000E+00 -0.12711684048E+03  0.12711684048E+03  0.00000000000E+00 0. -1.
         23    2    1    2    0    0  0.57554578662E+02 -0.32626196416E+02  0.80243537230E+00  0.14151380639E+03  0.12509402576E+03 0.  0.
          5    1    3    3  502    0 -0.17274975948E+02  0.35502814625E+02 -0.52502779024E+01  0.40048875868E+02  0.41800000000E+01 0.  1.
         -5    1    3    3    0  502  0.74829554610E+02 -0.68129011040E+02  0.60527132747E+01  0.10146493052E+03  0.41800000000E+01 0.  1.
        -11    1    1    2    0    0 -0.36410282981E+02  0.58005474049E+02  0.20326867450E+02  0.71438961825E+02  0.00000000000E+00 0.  1.
         11    1    1    2    0    0 -0.21144295681E+02 -0.25379277633E+02 -0.22463037568E+02  0.39947177995E+02  0.00000000000E+00 0. -1.
</event>
<event>
 7    1  0.7017065E-006  0.1171305E+03  0.7561462E-02  0.1247907E+00
         -1   -1    0    0    0  501 -0.00000000000E+00  0.00000000000E+00  0.19912080173E+02  0.19912080173E+02  0.00000000000E+00 0.  1.
          1   -1    0    0  501    0  0.00000000000E+00 -0.00000000000E+00 -0.78284504401E+03  0.78284504401E+03  0.00000000000E+00 0. -1.
         23    2    1    2    0    0 -0.62322256713E+02 -0.14860951615E+02 -0.44563530593E+03  0.46727062870E+03  0.12508438349E+03 0.  0.
          5    1    3    3  502    0 -0.38472380237E+02  0.53931938046E+02 -0.18172714091E+03  0.19347093871E+03  0.41800000000E+01 0. -1.
         -5    1    3    3    0  502 -0.23849876476E+02 -0.68792889661E+02 -0.26390816502E+03  0.27379968999E+03  0.41800000000E+01 0. -1.
        -11    1    1    2    0    0  0.83625939775E+01  0.36030282791E+02 -0.51284137721E+02  0.63231139780E+02  0.00000000000E+00 0. -1.
         11    1    1    2    0    0  0.53959662735E+02 -0.21169331176E+02 -0.26601352019E+03  0.27225535570E+03  0.00000000000E+00 0.  1.
</event>
<event>
 7    1  0.7017065E-006  0.2179592E+03  0.7561462E-02  0.1135414E+00
         -2   -1    0    0    0  501 -0.00000000000E+00  0.00000000000E+00  0.95575516200E+02  0.95575516200E+02  0.00000000000E+00 0.  1.
          2   -1    0    0  501    0  0.00000000000E+00 -0.00000000000E+00 -0.67375443436E+03  0.67375443436E+03  0.00000000000E+00 0. -1.
         23    2    1    2    0    0  0.85873603108E+02  0.19512746878E+03 -0.17665664760E+03  0.30381595596E+03  0.12509020413E+03 0.  0.
          5    1    3    3  502    0  0.16414667568E+02  0.16627480857E+01 -0.70312435501E+02  0.72343051004E+02  0.41800000000E+01 0. -1.
         -5    1    3    3    0  502  0.69458935540E+02  0.19346472070E+03 -0.10634421210E+03  0.23147290495E+03  0.41800000000E+01 0. -1.
        -11    1    1    2    0    0 -0.53669270731E+02 -0.13010027447E+03 -0.34789626037E+03  0.37528426561E+03  0.00000000000E+00 0.  1.
         11    1    1    2    0    0 -0.32204332377E+02 -0.65027194318E+02 -0.53626010197E+02  0.90229728994E+02  0.00000000000E+00 0. -1.
</event>
<event>
 7    1  0.7017065E-006  0.9365480E+02  0.7561462E-02  0.1294235E+00
          1   -1    0    0  501    0  0.00000000000E+00  0.00000000000E+00  0.16280421676E+03  0.16280421676E+03  0.00000000000E+00 0. -1.
         -1   -1    0    0    0  501 -0.00000000000E+00 -0.00000000000E+00 -0.98053190003E+02  0.98053190003E+02  0.00000000000E+00 0.  1.
         23    2    1    2    0    0 -0.48403386259E+02 -0.21394989310E+02 -0.36798820432E+01  0.13587482836E+03  0.12509114310E+03 0.  0.
          5    1    3    3  502    0 -0.64814455414E+02 -0.13582090833E+02  0.47368039934E+02  0.81526624052E+02  0.41800000000E+01 0. -1.
         -5    1    3    3    0  502  0.16411069156E+02 -0.78128984767E+01 -0.51047921977E+02  0.54348204309E+02  0.41800000000E+01 0. -1.
        -11    1    1    2    0    0  0.28983869617E+02  0.55754169170E+02  0.54341300409E+02  0.83075682410E+02  0.00000000000E+00 0. -1.
         11    1    1    2    0    0  0.19419516642E+02 -0.34359179860E+02  0.14089608396E+02  0.41906895996E+02  0.00000000000E+00 0.  1.
</event>
<event>
 7    1  0.1108772E-005  0.2778369E+03  0.7561462E-02  0.1096876E+00
          2   -1    0    0  501    0  0.00000000000E+00  0.00000000000E+00  0.25523952502E+03  0.25523952502E+03  0.00000000000E+00 0. -1.
         -2   -1    0    0    0  501 -0.00000000000E+00 -0.00000000000E+00 -0.32631670506E+03  0.32631670506E+03  0.00000000000E+00 0.  1.
         23    2    1    2    0    0 -0.17501303326E+03  0.19099996026E+03 -0.10147943746E+03  0.30505119378E+03  0.12509039917E+03 0.  0.
          5    1    3    3  502    0 -0.16784844540E+03  0.11287367760E+03 -0.10180605975E+03  0.22648512958E+03  0.41800000000E+01 0.  1.
         -5    1    3    3    0  502 -0.71645878603E+01  0.78126282661E+02  0.32662228592E+00  0.78566064200E+02  0.41800000000E+01 0.  1.
        -11    1    1    2    0    0  0.52909670740E+02 -0.12557772620E+03  0.17259355849E+02  0.13735750413E+03  0.00000000000E+00 0.  1.
         11    1    1    2    0    0  0.12210336252E+03 -0.65422234064E+02  0.13142901568E+02  0.13914753217E+03  0.00000000000E+00 0. -1.
</event>
<event>
 7    1  0.7017065E-006  0.2547199E+03  0.7561462E-02  0.1110358E+00
          2   -1    0    0  501    0  0.00000000000E+00  0.00000000000E+00  0.10095424420E+04  0.10095424420E+04  0.00000000000E+00 0. -1.
         -2   -1    0    0    0  501 -0.00000000000E+00 -0.00000000000E+00 -0.79228839490E+02  0.79228839490E+02  0.00000000000E+00 0.  1.
         23    2    1    2    0    0 -0.14339908075E+03 -0.18512976950E+03  0.25490017686E+03  0.36804558193E+03  0.12508845791E+03 0.  0.
          5    1    3    3  502    0 -0.19698171743E+02  0.15306086313E+02  0.49132422146E+02  0.55260850104E+02  0.41800000000E+01 0. -1.
         -5    1    3    3    0  502 -0.12370090901E+03 -0.20043585581E+03  0.20576775471E+03  0.31278473183E+03  0.41800000000E+01 0. -1.
        -11    1    1    2    0    0  0.77846617891E+02  0.16080043584E+03  0.53156949040E+03  0.56078783797E+03  0.00000000000E+00 0.  1.
         11    1    1    2    0    0  0.65552462862E+02  0.24329333658E+02  0.14384393527E+03  0.15993786161E+03  0.00000000000E+00 0. -1.
</event>
<event>
 7    1  0.7017065E-006  0.8379960E+02  0.7561462E-02  0.1318602E+00
         -2   -1    0    0    0  501 -0.00000000000E+00  0.00000000000E+00  0.19003050886E+03  0.19003050886E+03  0.00000000000E+00 0.  1.
          2   -1    0    0  501    0  0.00000000000E+00 -0.00000000000E+00 -0.48459381241E+02  0.48459381241E+02  0.00000000000E+00 0. -1.
         23    2    1    2    0    0  0.18247841362E+02  0.31007519597E+02  0.14182730465E+03  0.19250002264E+03  0.12508726708E+03 0.  0.
          5    1    3    3  502    0  0.33954223717E+02 -0.41421122295E+02  0.77357557686E+02  0.94182072666E+02  0.41800000000E+01 0. -1.
         -5    1    3    3    0  502 -0.15706382355E+02  0.72428641892E+02  0.64469746967E+02  0.98317949973E+02  0.41800000000E+01 0. -1.
        -11    1    1    2    0    0 -0.11347579736E+02 -0.44186453700E+01 -0.11080792566E+02  0.16464384491E+02  0.00000000000E+00 0. -1.
         11    1    1    2    0    0 -0.69002616259E+01 -0.26588874227E+02  0.10824615529E+02  0.29525482968E+02  0.00000000000E+00 0.  1.
</event>
<event>
 7    1  0.7017065E-006  0.1195790E+03  0.7561462E-02  0.1243793E+00
         -2   -1    0    0    0  501 -0.00000000000E+00  0.00000000000E+00  0.93881817283E+02  0.93881817283E+02  0.00000000000E+00 0.  1.
          2   -1    0    0  501    0  0.00000000000E+00 -0.00000000000E+00 -0.18668812400E+03  0.18668812400E+03  0.00000000000E+00 0. -1.
         23    2    1    2    0    0  0.60195946829E+02  0.11358367867E+02 -0.21806864467E+01  0.13930642582E+03  0.12509580467E+03 0.  0.
          5    1    3    3  502    0  0.79775706267E+02 -0.30547639653E+02  0.20007155147E+02  0.87835529576E+02  0.41800000000E+01 0.  1.
         -5    1    3    3    0  502 -0.19579759438E+02  0.41906007521E+02 -0.22187841594E+02  0.51470896248E+02  0.41800000000E+01 0.  1.
        -11    1    1    2    0    0 -0.76810275395E+02 -0.29780029612E+02 -0.60343397915E+02  0.10211755110E+03  0.00000000000E+00 0.  1.
         11    1    1    2    0    0  0.16614328566E+02  0.18421661744E+02 -0.30282222354E+02  0.39145964362E+02  0.00000000000E+00 0. -1.
</event>
<event>
 7    1  0.7017065E-006  0.1480021E+03  0.7561462E-02  0.1202950E+00
         -1   -1    0    0    0  501 -0.00000000000E+00  0.00000000000E+00  0.38054298506E+02  0.38054298506E+02  0.00000000000E+00 0.  1.
          1   -1    0    0  501    0  0.00000000000E+00 -0.00000000000E+00 -0.83122419461E+03  0.83122419461E+03  0.00000000000E+00 0. -1.
         23    2    1    2    0    0 -0.10634094732E+03 -0.63343959556E+02 -0.25472573899E+03  0.30960343327E+03  0.12509288349E+03 0.  0.
          5    1    3    3  502    0 -0.30137235252E+02 -0.74027867571E+02 -0.59535106187E+02  0.99751087184E+02  0.41800000000E+01 0. -1.
         -5    1    3    3    0  502 -0.76203712069E+02  0.10683908015E+02 -0.19519063280E+03  0.20985234608E+03  0.41800000000E+01 0. -1.
        -11    1    1    2    0    0  0.31830187372E+02  0.55503829015E+02 -0.13578168305E+03  0.15010163662E+03  0.00000000000E+00 0. -1.
         11    1    1    2    0    0  0.74510759949E+02  0.78401305405E+01 -0.40266247407E+03  0.40957342324E+03  0.00000000000E+00 0.  1.
</event>
<event>
 7    1  0.7017065E-006  0.1158752E+03  0.7561462E-02  0.1250061E+00
          2   -1    0    0  501    0  0.00000000000E+00  0.00000000000E+00  0.61575175396E+03  0.61575175396E+03  0.00000000000E+00 0. -1.
         -2   -1    0    0    0  501 -0.00000000000E+00 -0.00000000000E+00 -0.23361200078E+02  0.23361200078E+02  0.00000000000E+00 0.  1.
         23    2    1    2    0    0 -0.46404583299E+02  0.18205605515E+02  0.29458198937E+03  0.32390110712E+03  0.12509416177E+03 0.  0.
          5    1    3    3  502    0 -0.87402170092E+02  0.28397227079E+02  0.19290975558E+03  0.21372222168E+03  0.41800000000E+01 0.  1.
         -5    1    3    3    0  502  0.40997586793E+02 -0.10191621564E+02  0.10167223379E+03  0.11017888544E+03  0.41800000000E+01 0.  1.
        -11    1    1    2    0    0 -0.23252394634E+02  0.51875034115E+01  0.35108318500E+02  0.42428505462E+02  0.00000000000E+00 0.  1.
         11    1    1    2    0    0  0.69656977933E+02 -0.23393108926E+02  0.26270024601E+03  0.27278334145E+03  0.00000000000E+00 0. -1.
</event>
<event>
 7    1  0.7017065E-006  0.1320693E+03  0.7561462E-02  0.1224417E+00
         -1   -1    0    0    0  501 -0.00000000000E+00  0.00000000000E+00  0.39591994380E+02  0.39591994380E+02  0.00000000000E+00 0.  1.
          1   -1    0    0  501    0  0.00000000000E+00 -0.00000000000E+00 -0.67206819255E+03  0.67206819255E+03  0.00000000000E+00 0. -1.
         23    2    1    2    0    0 -0.23278541355E+02  0.11818143355E+03 -0.30249658536E+03  0.34879704209E+03  0.12508577334E+03 0.  0.
          5    1    3    3  502    0 -0.34640477751E+02  0.33933104802E+02 -0.18084644191E+02  0.51922490848E+02  0.41800000000E+01 0.  1.
         -5    1    3    3    0  502  0.11361936396E+02  0.84248328748E+02 -0.28441194117E+03  0.29687455124E+03  0.41800000000E+01 0.  1.
        -11    1    1    2    0    0 -0.64478343989E+01 -0.87125464837E+02 -0.11944893099E+03  0.14798806812E+03  0.00000000000E+00 0.  1.
         11    1    1    2    0    0  0.29726375754E+02 -0.31055968713E+02 -0.21053068182E+03  0.21487507672E+03  0.00000000000E+00 0. -1.
</event>
<event>
 7    1  0.7017065E-006  0.1108010E+03  0.7561462E-02  0.1259094E+00
         -1   -1    0    0    0  501 -0.00000000000E+00  0.00000000000E+00  0.28786723639E+02  0.28786723639E+02  0.00000000000E+00 0.  1.
          1   -1    0    0  501    0  0.00000000000E+00 -0.00000000000E+00 -0.62949532248E+03  0.62949532248E+03  0.00000000000E+00 0. -1.
         23    2    1    2    0    0 -0.62373051725E+02 -0.32034506984E+02 -0.39369016207E+03  0.41899441746E+03  0.12509105058E+03 0.  0.
          5    1    3    3  502    0 -0.60774362031E+02 -0.66320765653E+02 -0.35858703464E+03  0.36972165320E+03  0.41800000000E+01 0.  1.
         -5    1    3    3    0  502 -0.15986896939E+01  0.34286258669E+02 -0.35103127433E+02  0.49272764260E+02  0.41800000000E+01 0.  1.
        -11    1    1    2    0    0  0.62251355962E+02  0.49483764625E+02 -0.20709448753E+03  0.22183778092E+03  0.00000000000E+00 0. -1.
         11    1    1    2    0    0  0.12169576315E+00 -0.17449257641E+02  0.76050760287E-01  0.17449847730E+02  0.00000000000E+00 0.  1.
</event>
<event>
 7    1  0.7017065E-006  0.1678389E+03  0.7561462E-02  0.1180120E+00
         -1   -1    0    0    0  501 -0.00000000000E+00  0.00000000000E+00  0.30873850334E+03  0.30873850334E+03  0.00000000000E+00 0.  1.
          1   -1    0    0  501    0  0.00000000000E+00 -0.00000000000E+00 -0.12171041786E+03  0.12171041786E+03  0.00000000000E+00 0. -1.
         23    2    1    2    0    0 -0.13689101895E+03 -0.67069977186E+02  0.15231849371E+03  0.24917026683E+03  0.12508942975E+03 0.  0.
          5    1    3    3  502    0 -0.99065208353E+02 -0.93513942253E+02  0.15014152625E+03  0.20277752145E+03  0.41800000000E+01 0. -1.
         -5    1    3    3    0  502 -0.37825810601E+02  0.26443965066E+02  0.21769674596E+01  0.46392745374E+02  0.41800000000E+01 0. -1.
        -11    1    1    2    0    0  0.54573489037E+02  0.34198682661E+02  0.61120810275E+02  0.88789464748E+02  0.00000000000E+00 0.  1.
         11    1    1    2    0    0  0.82317529916E+02  0.32871294525E+02 -0.26411218503E+02  0.92489189628E+02  0.00000000000E+00 0. -1.
</event>
<event>
 7    1  0.7017065E-006  0.1138995E+03  0.7561462E-02  0.1253514E+00
          2   -1    0    0  501    0  0.00000000000E+00  0.00000000000E+00  0.72926699789E+03  0.72926699789E+03  0.00000000000E+00 0. -1.
         -2   -1    0    0    0  501 -0.00000000000E+00 -0.00000000000E+00 -0.22041175934E+02  0.22041175934E+02  0.00000000000E+00 0.  1.
         23    2    1    2    0    0  0.38033677233E+01  0.64458451712E+02  0.41307941916E+03  0.43641229783E+03  0.12510687255E+03 0.  0.
          5    1    3    3  502    0 -0.34454641662E+02  0.69701881056E+02  0.13673197751E+03  0.15734859589E+03  0.41800000000E+01 0. -1.
         -5    1    3    3    0  502  0.38258009385E+02 -0.52434293438E+01  0.27634744165E+03  0.27906370194E+03  0.41800000000E+01 0. -1.
        -11    1    1    2    0    0  0.43336209221E+02 -0.31447469556E+02  0.11782748221E+03  0.12942289572E+03  0.00000000000E+00 0. -1.
         11    1    1    2    0    0 -0.47139576944E+02 -0.33010982156E+02  0.17631892059E+03  0.18547298028E+03  0.00000000000E+00 0.  1.
</event>
<event>
 7    1  0.7017065E-006  0.1651294E+03  0.7561462E-02  0.1183024E+00
          2   -1    0    0  501    0  0.00000000000E+00  0.00000000000E+00  0.14791477683E+04  0.14791477683E+04  0.00000000000E+00 0. -1.
         -2   -1    0    0    0  501 -0.00000000000E+00 -0.00000000000E+00 -0.23725430760E+02  0.23725430760E+02  0.00000000000E+00 0.  1.
         23    2    1    2    0    0 -0.15058795388E+03  0.23091620636E+02  0.80807125540E+03  0.83174258514E+03  0.12492645568E+03 0.  0.
          5    1    3    3  502    0 -0.13299109051E+03  0.14282191347E+02  0.37426273834E+03  0.39746783625E+03  0.41800000000E+01 0. -1.
         -5    1    3    3    0  502 -0.17596863366E+02  0.88094292891E+01  0.43380851706E+03  0.43427474889E+03  0.41800000000E+01 0. -1.
        -11    1    1    2    0    0  0.10174308335E+03 -0.57223478922E+02  0.39853535377E+03  0.41527895414E+03  0.00000000000E+00 0.  1.
         11    1    1    2    0    0  0.48844870533E+02  0.34131858285E+02  0.24881572838E+03  0.25585165979E+03  0.00000000000E+00 0. -1.
</event>
<event>
 6    1  0.7017065E-006  0.1775969E+03  0.7561462E-02  0.1170149E+00
          1   -1    0    0  501    0  0.00000000000E+00  0.00000000000E+00  0.11393597188E+03  0.11393597188E+03  0.00000000000E+00 0. -1.
         -1   -1    0    0    0  501 -0.00000000000E+00 -0.00000000000E+00 -0.32204176223E+03  0.32204176223E+03  0.00000000000E+00 0.  1.
          5    1    1    2  502    0  0.12256448756E+03  0.50768392010E+01 -0.10246520416E+03  0.15988876874E+03  0.41800000000E+01 0. -1.
         -5    1    1    2    0  502 -0.13752537475E+03 -0.33762646799E+02 -0.11462063690E+03  0.18223201646E+03  0.41800000000E+01 0.  1.
        -11    1    1    2    0    0  0.24625312506E+02  0.56340707763E+02  0.16400249282E+02  0.63636856803E+02  0.00000000000E+00 0. -1.
         11    1    1    2    0    0 -0.96644253113E+01 -0.27654900166E+02 -0.74201985706E+01  0.30220092101E+02  0.00000000000E+00 0.  1.
</event>
<event>
 7    1  0.7017065E-006  0.6485344E+02  0.7561462E-02  0.1378524E+00
          3   -1    0    0  501    0  0.00000000000E+00  0.00000000000E+00  0.25255848780E+02  0.25255848780E+02  0.00000000000E+00 0. -1.
         -3   -1    0    0    0  501 -0.00000000000E+00 -0.00000000000E+00 -0.55482483626E+03  0.55482483626E+03  0.00000000000E+00 0.  1.
         23    2    1    2    0    0  0.14366919301E+01 -0.64303860126E+01 -0.41815694859E+03  0.43651847280E+03  0.12509887885E+03 0.  0.
          5    1    3    3  502    0  0.16026839089E+02 -0.14473390359E+02 -0.44328152964E+01  0.22437933308E+02  0.41800000000E+01 0. -1.
         -5    1    3    3    0  502 -0.14590147159E+02  0.80430043464E+01 -0.41372413330E+03  0.41408053949E+03  0.41800000000E+01 0. -1.
        -11    1    1    2    0    0 -0.45870664922E+02  0.30227902848E+01 -0.57344615016E+02  0.73495986508E+02  0.00000000000E+00 0. -1.
         11    1    1    2    0    0  0.44433972991E+02  0.34075957278E+01 -0.54067423866E+02  0.70066225730E+02  0.00000000000E+00 0.  1.
</event>
<event>
 7    1  0.7017065E-006  0.1105475E+03  0.7561462E-02  0.1259559E+00
          3   -1    0    0  501    0  0.00000000000E+00  0.00000000000E+00  0.19556349754E+03  0.19556349754E+03  0.00000000000E+00 0. -1.
         -3   -1    0    0    0  501 -0.00000000000E+00 -0.00000000000E+00 -0.10770184880E+03  0.10770184880E+03  0.00000000000E+00 0.  1.
         23    2    1    2    0    0  0.26810728339E+02 -0.91414612961E+02  0.35224946497E+02  0.16113187865E+03  0.12508892375E+03 0.  0.
          5    1    3    3  502    0 -0.11854753572E+02 -0.85519433517E+02  0.67961749518E+02  0.10995626626E+03  0.41800000000E+01 0. -1.
         -5    1    3    3    0  502  0.38665481911E+02 -0.58951794439E+01 -0.32736803021E+02  0.51175612396E+02  0.41800000000E+01 0. -1.
        -11    1    1    2    0    0 -0.22756604687E+02  0.81300993984E+02 -0.39394475043E+01  0.84517654524E+02  0.00000000000E+00 0.  1.
         11    1    1    2    0    0 -0.40541236517E+01  0.10113618977E+02  0.56576149744E+02  0.57615813170E+02  0.00000000000E+00 0. -1.
</event>
<event>
 6    1  0.7017065E-006  0.1850072E+03  0.7561462E-02  0.1163043E+00
          2   -1    0    0  501    0  0.00000000000E+00  0.00000000000E+00  0.19691994243E+04  0.19691994243E+04  0.00000000000E+00 0. -1.
         -2   -1    0    0    0  501 -0.00000000000E+00 -0.00000000000E+00 -0.13124507065E+03  0.13124507065E+03  0.00000000000E+00 0.  1.
          5    1    1    2  502    0 -0.16909104606E+01  0.68320548641E+02  0.10031911103E+04  0.10055249538E+04  0.41800000000E+01 0. -1.
         -5    1    1    2    0  502  0.11938235454E+03  0.30205172527E+02 -0.90333106088E+02  0.15278102460E+03  0.41800000000E+01 0.  1.
        -11    1    1    2    0    0  0.42724327150E+01 -0.44891104252E+02  0.22377414168E+03  0.22827249376E+03  0.00000000000E+00 0.  1.
         11    1    1    2    0    0 -0.12196387679E+03 -0.53634616916E+02  0.70132220779E+03  0.71386602281E+03  0.00000000000E+00 0. -1.
</event>
<event>
 7    1  0.7017065E-006  0.1132375E+03  0.7561462E-02  0.1254689E+00
          2   -1    0    0  501    0  0.00000000000E+00  0.00000000000E+00  0.98822346413E+02  0.98822346413E+02  0.00000000000E+00 0. -1.
         -2   -1    0    0    0  501 -0.00000000000E+00 -0.00000000000E+00 -0.14800175595E+03  0.14800175595E+03  0.00000000000E+00 0.  1.
         23    2    1    2    0    0 -0.23740398892E+02  0.28648329452E+02 -0.65801288171E+02  0.14615651378E+03  0.12509030208E+03 0.  0.
          5    1    3    3  502    0 -0.73696517211E+02  0.25647247446E+02 -0.26943168740E+02  0.82658119337E+02  0.41800000000E+01 0.  1.
         -5    1    3    3    0  502  0.49956118320E+02  0.30010820061E+01 -0.38858119431E+02  0.63498394440E+02  0.41800000000E+01 0.  1.
        -11    1    1    2    0    0  0.58147303759E+02 -0.25713453711E+02  0.18096508228E+02  0.66104267989E+02  0.00000000000E+00 0.  1.
         11    1    1    2    0    0 -0.34406904868E+02 -0.29348757404E+01 -0.14746295934E+01  0.34563320596E+02  0.00000000000E+00 0. -1.
</event>
<event>
 7    1  0.7017065E-006  0.1007526E+03  0.7561462E-02  0.1278721E+00
          4   -1    0    0  501    0  0.00000000000E+00  0.00000000000E+00  0.15058503926E+02  0.15058503926E+02  0.00000000000E+00 0. -1.
         -4   -1    0    0    0  501 -0.00000000000E+00 -0.00000000000E+00 -0.10746254822E+04  0.10746254822E+04  0.00000000000E+00 0.  1.
         23    2    1    2    0    0  0.20590907108E+00 -0.35682906591E+02 -0.83409141906E+03  0.84417425544E+03  0.12509342901E+03 0.  0.
          5    1    3    3  502    0  0.24406199220E+02  0.30313352412E+02 -0.11170865913E+03  0.11836747365E+03  0.41800000000E+01 0. -1.
         -5    1    3    3    0  502 -0.24200290148E+02 -0.65996259004E+02 -0.72238275993E+03  0.72580678179E+03  0.41800000000E+01 0. -1.
        -11    1    1    2    0    0 -0.32730857987E+02  0.47203753062E+02 -0.17640912129E+03  0.18552541993E+03  0.00000000000E+00 0.  1.
         11    1    1    2    0    0  0.32524948916E+02 -0.11520846471E+02 -0.49066437928E+02  0.59984310751E+02  0.00000000000E+00 0. -1.
</event>
<event>
 7    1  0.7017065E-006  0.8976608E+02  0.7561462E-02  0.1303419E+00
          2   -1    0    0  501    0  0.00000000000E+00  0.00000000000E+00  0.28819106559E+03  0.28819106559E+03  0.00000000000E+00 0. -1.
         -2   -1    0    0    0  501 -0.00000000000E+00 -0.00000000000E+00 -0.53026218925E+02  0.53026218925E+02  0.00000000000E+00 0.  1.
         23    2    1    2    0    0  0.88764816631E+01 -0.22519416752E+02  0.47288589875E+02  0.13590442734E+03  0.12509151282E+03 0.  0.
          5    1    3    3  502    0  0.52845403505E+02 -0.43096297522E+01 -0.16974967671E+02  0.55828590414E+02  0.41800000000E+01 0.  1.
         -5    1    3    3    0  502 -0.43968921842E+02 -0.18209787000E+02  0.64263557546E+02  0.80075836923E+02  0.41800000000E+01 0.  1.
        -11    1    1    2    0    0  0.13927903324E+02 -0.23440718968E+02  0.37069746395E+02  0.46017604180E+02  0.00000000000E+00 0.  1.
         11    1    1    2    0    0 -0.22804384988E+02  0.45960135720E+02  0.15080651039E+03  0.15929525299E+03  0.00000000000E+00 0. -1.
</event>
<event>
 6    1  0.7017065E-006  0.1190890E+03  0.7561462E-02  0.1244608E+00
          3   -1    0    0  501    0  0.00000000000E+00  0.00000000000E+00  0.24559275517E+02  0.24559275517E+02  0.00000000000E+00 0. -1.
         -3   -1    0    0    0  501 -0.00000000000E+00 -0.00000000000E+00 -0.89280818377E+03  0.89280818377E+03  0.00000000000E+00 0.  1.
          5    1    1    2  502    0  0.17749167009E+02 -0.41443086467E+02 -0.15965744135E+03  0.16595340709E+03  0.41800000000E+01 0. -1.
         -5    1    1    2    0  502  0.88752455777E+00  0.94400962773E+02 -0.56192943476E+03  0.56981970089E+03  0.41800000000E+01 0.  1.
        -11    1    1    2    0    0  0.32117418552E+02 -0.18622116366E+02 -0.23245393374E+02  0.43802512548E+02  0.00000000000E+00 0. -1.
         11    1    1    2    0    0 -0.50754110119E+02 -0.34335759940E+02 -0.12341663877E+03  0.13779183876E+03  0.00000000000E+00 0.  1.
</event>
<event>
 7    1  0.7017065E-006  0.1355978E+03  0.7561462E-02  0.1219378E+00
         -3   -1    0    0    0  501 -0.00000000000E+00  0.00000000000E+00  0.25990249610E+03  0.25990249610E+03  0.00000000000E+00 0.  1.
          3   -1    0    0  501    0  0.00000000000E+00 -0.00000000000E+00 -0.16640059066E+03  0.16640059066E+03  0.00000000000E+00 0. -1.
         23    2    1    2    0    0 -0.10780623611E+03  0.21681397824E+02  0.19052139706E+03  0.25305977262E+03  0.12509427734E+03 0.  0.
          5    1    3    3  502    0 -0.13066204066E+03  0.10833367898E+02  0.11911433418E+03  0.17718811399E+03  0.41800000000E+01 0.  1.
         -5    1    3    3    0  502  0.22855804550E+02  0.10848029925E+02  0.71407062880E+02  0.75871658635E+02  0.41800000000E+01 0.  1.
        -11    1    1    2    0    0  0.80491638851E+02 -0.29878137775E+02 -0.15980052358E+02  0.87332520375E+02  0.00000000000E+00 0.  1.
         11    1    1    2    0    0  0.27314597262E+02  0.81967399517E+01 -0.81039439257E+02  0.85910793761E+02  0.00000000000E+00 0. -1.
</event>
<event>
 7    1  0.7017065E-006  0.1138039E+03  0.7561462E-02  0.1253683E+00
         -2   -1    0    0    0  501 -0.00000000000E+00  0.00000000000E+00  0.75886280000E+02  0.75886280000E+02  0.00000000000E+00 0.  1.
          2   -1    0    0  501    0  0.00000000000E+00 -0.00000000000E+00 -0.46783335694E+03  0.46783335694E+03  0.00000000000E+00 0. -1.
         23    2    1    2    0    0  0.78179544186E+02 -0.55450114528E+02 -0.32461818766E+02  0.16089070266E+03  0.12508114244E+03 0.  0.
          5    1    3    3  502    0  0.32839604308E+02 -0.67690499780E+02 -0.68274883893E+02  0.10168271998E+03  0.41800000000E+01 0. -1.
         -5    1    3    3    0  502  0.45339939878E+02  0.12240385252E+02  0.35813065127E+02  0.59207982681E+02  0.41800000000E+01 0. -1.
        -11    1    1    2    0    0 -0.28399920002E+02 -0.27375965312E+01 -0.20071706750E+02  0.34884427797E+02  0.00000000000E+00 0.  1.
         11    1    1    2    0    0 -0.49779624184E+02  0.58187711059E+02 -0.33941355142E+03  0.34794450648E+03  0.00000000000E+00 0. -1.
</event>
<event>
 7    1  0.7017065E-006  0.2760688E+03  0.7561462E-02  0.1097856E+00
         -3   -1    0    0    0  501 -0.00000000000E+00  0.00000000000E+00  0.86980084350E+02  0.86980084350E+02  0.00000000000E+00 0.  1.
          3   -1    0    0  501    0  0.00000000000E+00 -0.00000000000E+00 -0.10148459256E+04  0.10148459256E+04  0.00000000000E+00 0. -1.
         23    2    1    2    0    0 -0.22775239614E+03 -0.14124981037E+03 -0.34860131830E+03  0.45715730120E+03  0.12508899250E+03 0.  0.
          5    1    3    3  502    0 -0.77385390911E+02 -0.36240849842E+01 -0.16692437853E+03  0.18407295637E+03  0.41800000000E+01 0. -1.
         -5    1    3    3    0  502 -0.15036700523E+03 -0.13762572539E+03 -0.18167693977E+03  0.27308434483E+03  0.41800000000E+01 0. -1.
        -11    1    1    2    0    0  0.31275839521E+02  0.36320766440E+02 -0.44635904307E+02  0.65496108021E+02  0.00000000000E+00 0.  1.
         11    1    1    2    0    0  0.19647655662E+03  0.10492904393E+03 -0.53462861866E+03  0.57917260074E+03  0.00000000000E+00 0. -1.
</event>
<event>
 7    1  0.7017065E-006  0.2082073E+03  0.7561462E-02  0.1142994E+00
          2   -1    0    0  501    0  0.00000000000E+00  0.00000000000E+00  0.61148944757E+02  0.61148944757E+02  0.00000000000E+00 0.  1.
         -2   -1    0    0    0  501 -0.00000000000E+00 -0.00000000000E+00 -0.96464831606E+03  0.96464831606E+03  0.00000000000E+00 0. -1.
         23    2    1    2    0    0  0.17417361325E+03  0.54469222021E+02 -0.71664679825E+03  0.75002269709E+03  0.12509224204E+03 0.  0.
          5    1    3    3  502    0  0.38469778386E+02  0.74399780594E+02 -0.28602043672E+03  0.29806109076E+03  0.41800000000E+01 0.  1.
         -5    1    3    3    0  502  0.13570383486E+03 -0.19930558573E+02 -0.43062636153E+03  0.45196160634E+03  0.41800000000E+01 0.  1.
        -11    1    1    2    0    0 -0.49341423758E+02 -0.50252602603E+02 -0.10503176320E+03  0.12645778524E+03  0.00000000000E+00 0. -1.
         11    1    1    2    0    0 -0.12483218949E+03 -0.42166194175E+01 -0.81820809858E+02  0.14931677849E+03  0.00000000000E+00 0.  1.
</event>
<event>
 7    1  0.7017065E-006  0.9388788E+02  0.7561462E-02  0.1293701E+00
          2   -1    0    0  501    0  0.00000000000E+00  0.00000000000E+00  0.45955758475E+02  0.45955758475E+02  0.00000000000E+00 0. -1.
         -2   -1    0    0    0  501 -0.00000000000E+00 -0.00000000000E+00 -0.39314346645E+03  0.39314346645E+03  0.00000000000E+00 0.  1.
         23    2    1    2    0    0 -0.32334134964E+02 -0.15043062568E+02 -0.30653160879E+03  0.33298775656E+03  0.12508968309E+03 0.  0.
          5    1    3    3  502    0  0.21494605707E+02  0.25303520730E+02 -0.22374504960E+03  0.22623352063E+03  0.41800000000E+01 0. -1.
         -5    1    3    3    0  502 -0.53828740672E+02 -0.40346583299E+02 -0.82786559187E+02  0.10675423593E+03  0.41800000000E+01 0. -1.
        -11    1    1    2    0    0  0.15547280339E+01 -0.31267519539E+02 -0.39619932809E+02  0.50495683312E+02  0.00000000000E+00 0.  1.
         11    1    1    2    0    0  0.30779406931E+02  0.46310582107E+02 -0.10361663733E+01  0.55615785051E+02  0.00000000000E+00 0. -1.
</event>
<event>
 7    1  0.7017065E-006  0.1640669E+03  0.7561462E-02  0.1184180E+00
          2   -1    0    0  501    0  0.00000000000E+00  0.00000000000E+00  0.83570976220E+03  0.83570976220E+03  0.00000000000E+00 0. -1.
         -2   -1    0    0    0  501 -0.00000000000E+00 -0.00000000000E+00 -0.38124025286E+02  0.38124025286E+02  0.00000000000E+00 0.  1.
         23    2    1    2    0    0  0.13586065999E+03 -0.36053036885E+02  0.40039288004E+03  0.44240291624E+03  0.12509173239E+03 0.  0.
          5    1    3    3  502    0  0.78115069802E+02  0.18242584640E+02  0.84076935720E+02  0.11628052092E+03  0.41800000000E+01 0. -1.
         -5    1    3    3    0  502  0.57745590189E+02 -0.54295621524E+02  0.31631594432E+03  0.32612239533E+03  0.41800000000E+01 0. -1.
        -11    1    1    2    0    0 -0.98531710360E+02  0.67657425582E+02  0.28202163823E+03  0.30630414560E+03  0.00000000000E+00 0.  1.
         11    1    1    2    0    0 -0.37328949631E+02 -0.31604388697E+02  0.11517121865E+03  0.12512672564E+03  0.00000000000E+00 0. -1.
</event>
<event>
 7    1  0.7017065E-006  0.1072101E+03  0.7561462E-02  0.1265825E+00
         -1   -1    0    0    0  501 -0.00000000000E+00  0.00000000000E+00  0.12328532078E+03  0.12328532078E+03  0.00000000000E+00 0.  1.
          1   -1    0    0  501    0  0.00000000000E+00 -0.00000000000E+00 -0.12091325812E+03  0.12091325812E+03  0.00000000000E+00 0. -1.
         23    2    1    2    0    0 -0.53903892509E+02 -0.87577990186E+01  0.13041453896E+02  0.13710789400E+03  0.12508463697E+03 0.  0.
          5    1    3    3  502    0  0.38172801202E+02 -0.10443918772E+02 -0.12026547267E+02  0.41573410133E+02  0.41800000000E+01 0. -1.
         -5    1    3    3    0  502 -0.92076693711E+02  0.16861197529E+01  0.25068001162E+02  0.95534483862E+02  0.41800000000E+01 0. -1.
        -11    1    1    2    0    0  0.65049718295E+02  0.18505049429E+02 -0.36846094484E+02  0.77016474753E+02  0.00000000000E+00 0. -1.
         11    1    1    2    0    0 -0.11145825786E+02 -0.97472504104E+01  0.26176703250E+02  0.30074210148E+02  0.00000000000E+00 0.  1.
</event>
<event>
 7    1  0.7017065E-006  0.1535918E+03  0.7561462E-02  0.1196128E+00
         -3   -1    0    0    0  501 -0.00000000000E+00  0.00000000000E+00  0.20979755199E+03  0.20979755199E+03  0.00000000000E+00 0.  1.
          3   -1    0    0  501    0  0.00000000000E+00 -0.00000000000E+00 -0.15791216294E+03  0.15791216294E+03  0.00000000000E+00 0. -1.
         23    2    1    2    0    0  0.14250291185E+03  0.13942004665E+02  0.28058056087E+01  0.19014966435E+03  0.12509021914E+03 0.  0.
          5    1    3    3  502    0  0.12011641792E+02  0.24434104931E+02 -0.43277348213E+02  0.51300158778E+02  0.41800000000E+01 0. -1.
         -5    1    3    3    0  502  0.13049127006E+03 -0.10492100266E+02  0.46083153822E+02  0.13884950557E+03  0.41800000000E+01 0. -1.
        -11    1    1    2    0    0 -0.88400319446E+02 -0.28055297480E+02  0.71715904076E+02  0.11723859046E+03  0.00000000000E+00 0.  1.
         11    1    1    2    0    0 -0.54102592407E+02  0.14113292815E+02 -0.22636320633E+02  0.60321460120E+02  0.00000000000E+00 0. -1.
</event>
<event>
 7    1  0.7017065E-006  0.3805689E+03  0.7561462E-02  0.1050724E+00
          1   -1    0    0  501    0  0.00000000000E+00  0.00000000000E+00  0.15890946312E+03  0.15890946312E+03  0.00000000000E+00 0. -1.
         -1   -1    0    0    0  501 -0.00000000000E+00 -0.00000000000E+00 -0.96975680247E+03  0.96975680247E+03  0.00000000000E+00 0.  1.
         23    2    1    2    0    0 -0.33814744467E+03  0.16739520317E+03 -0.41419426200E+03  0.57408146504E+03  0.12509114061E+03 0.  0.
          5    1    3    3  502    0 -0.19610014999E+03  0.12653066070E+03 -0.17057831104E+03  0.28910155572E+03  0.41800000000E+01 0.  1.
         -5    1    3    3    0  502 -0.14204729467E+03  0.40864542470E+02 -0.24361595096E+03  0.28497990932E+03  0.41800000000E+01 0.  1.
        -11    1    1    2    0    0  0.23201289396E+03 -0.91627310111E+02 -0.20554704676E+03  0.32322613656E+03  0.00000000000E+00 0. -1.
         11    1    1    2    0    0  0.10613455070E+03 -0.75767893061E+02 -0.19110603059E+03  0.23135866398E+03  0.00000000000E+00 0.  1.
</event>
<event>
 7    1  0.7017065E-006  0.1058384E+03  0.7561462E-02  0.1268477E+00
         -1   -1    0    0    0  501 -0.00000000000E+00  0.00000000000E+00  0.91416527101E+02  0.91416527101E+02  0.00000000000E+00 0.  1.
          1   -1    0    0  501    0  0.00000000000E+00 -0.00000000000E+00 -0.25137313342E+03  0.25137313342E+03  0.00000000000E+00 0. -1.
         23    2    1    2    0    0 -0.51625555486E+02  0.59389851795E+02 -0.42838770223E+01  0.14623620385E+03  0.12318410302E+03 0.  0.
          5    1    3    3  502    0 -0.62745467245E+01 -0.75964559064E+01  0.48425705978E+02  0.49594329095E+02  0.41800000000E+01 0. -1.
         -5    1    3    3    0  502 -0.45351008762E+02  0.66986307701E+02 -0.52709583001E+02  0.96641874750E+02  0.41800000000E+01 0.  1.
        -11    1    1    2    0    0  0.75595839110E+02 -0.28311394493E+02 -0.10661716134E+03  0.13372914806E+03  0.00000000000E+00 0. -1.
         11    1    1    2    0    0 -0.23970283624E+02 -0.31078457302E+02 -0.49055567958E+02  0.62824308615E+02  0.00000000000E+00 0.  1.
</event>
<event>
 7    1  0.7017065E-006  0.1991979E+03  0.7561462E-02  0.1150418E+00
         -1   -1    0    0    0  501 -0.00000000000E+00  0.00000000000E+00  0.24312709010E+03  0.24312709010E+03  0.00000000000E+00 0.  1.
          1   -1    0    0  501    0  0.00000000000E+00 -0.00000000000E+00 -0.22377118847E+03  0.22377118847E+03  0.00000000000E+00 0. -1.
         23    2    1    2    0    0  0.16954392105E+02  0.18524039431E+03  0.98141184667E+02  0.24470524032E+03  0.12508999727E+03 0.  0.
          5    1    3    3  502    0  0.37087993112E+02  0.64280279924E+02 -0.17214830187E+02  0.76297420654E+02  0.41800000000E+01 0.  1.
         -5    1    3    3    0  502 -0.20133601007E+02  0.12096011438E+03  0.11535601485E+03  0.16840781966E+03  0.41800000000E+01 0.  1.
        -11    1    1    2    0    0 -0.47095043641E+02 -0.91583007501E+02 -0.12910877795E+02  0.10378863697E+03  0.00000000000E+00 0.  1.
         11    1    1    2    0    0  0.30140651536E+02 -0.93657386806E+02 -0.65874405242E+02  0.11840440129E+03  0.00000000000E+00 0. -1.
</event>
<event>
 7    1  0.7017065E-006  0.1029006E+03  0.7561462E-02  0.1274312E+00
         -2   -1    0    0    0  501 -0.00000000000E+00  0.00000000000E+00  0.17705689149E+03  0.17705689149E+03  0.00000000000E+00 0.  1.
          2   -1    0    0  501    0  0.00000000000E+00 -0.00000000000E+00 -0.98855540219E+02  0.98855540219E+02  0.00000000000E+00 0. -1.
         23    2    1    2    0    0  0.20960961138E+02 -0.63271774072E+02  0.78869209595E+02  0.16220491965E+03  0.12508958569E+03 0.  0.
          5    1    3    3  502    0 -0.41704644199E+02 -0.12662010685E+02  0.67915674819E+02  0.80806034109E+02  0.41800000000E+01 0.  1.
         -5    1    3    3    0  502  0.62665605337E+02 -0.50609763387E+02  0.10953534776E+02  0.81398885536E+02  0.41800000000E+01 0.  1.
        -11    1    1    2    0    0 -0.31613980018E+02  0.21457495990E+02  0.39356724553E+02  0.54852708541E+02  0.00000000000E+00 0.  1.
         11    1    1    2    0    0  0.10653018880E+02  0.41814278082E+02 -0.40024582879E+02  0.58854803521E+02  0.00000000000E+00 0. -1.
</event>
<event>
 6    1  0.7017065E-006  0.3829028E+03  0.7561462E-02  0.1049866E+00
         -1   -1    0    0    0  501 -0.00000000000E+00  0.00000000000E+00  0.21307206799E+03  0.21307206799E+03  0.00000000000E+00 0.  1.
          1   -1    0    0  501    0  0.00000000000E+00 -0.00000000000E+00 -0.14035746038E+04  0.14035746038E+04  0.00000000000E+00 0. -1.
          5    1    1    2  502    0  0.34606513109E+03 -0.12943382833E+02 -0.82358119545E+03  0.89343833811E+03  0.41800000000E+01 0. -1.
         -5    1    1    2    0  502 -0.28567103183E+03 -0.65148999007E+02  0.39016490363E+02  0.29562153070E+03  0.41800000000E+01 0.  1.
        -11    1    1    2    0    0  0.18358120498E+02  0.50819269218E+01 -0.22936428947E+02  0.29814867806E+02  0.00000000000E+00 0. -1.
         11    1    1    2    0    0 -0.78752219760E+02  0.73010454919E+02 -0.38300140175E+03  0.39777193514E+03  0.00000000000E+00 0.  1.
</event>
<event>
 7    1  0.7017065E-006  0.2313260E+03  0.7561462E-02  0.1125710E+00
         -4   -1    0    0    0  501 -0.00000000000E+00  0.00000000000E+00  0.43664565114E+03  0.43664565114E+03  0.00000000000E+00 0.  1.
          4   -1    0    0  501    0  0.00000000000E+00 -0.00000000000E+00 -0.30333520549E+03  0.30333520549E+03  0.00000000000E+00 0. -1.
         23    2    1    2    0    0  0.10287757258E+03  0.18692915024E+03  0.34550250213E+03  0.42490725141E+03  0.12509153120E+03 0.  0.
          5    1    3    3  502    0  0.67415043280E+02  0.19854509234E+03  0.28949076402E+03  0.35747351875E+03  0.41800000000E+01 0. -1.
         -5    1    3    3    0  502  0.35462529302E+02 -0.11615942100E+02  0.56011738109E+02  0.67433732667E+02  0.41800000000E+01 0. -1.
        -11    1    1    2    0    0 -0.13883928571E+02 -0.93125486999E+01 -0.66878453427E+02  0.68936308057E+02  0.00000000000E+00 0. -1.
         11    1    1    2    0    0 -0.88993644011E+02 -0.17761660154E+03 -0.14531360306E+03  0.24613729715E+03  0.00000000000E+00 0.  1.
</event>
<event>
 7    1  0.7017065E-006  0.1354296E+03  0.7561462E-02  0.1219614E+00
         -1   -1    0    0    0  501 -0.00000000000E+00  0.00000000000E+00  0.13143409706E+04  0.13143409706E+04  0.00000000000E+00 0.  1.
          1   -1    0    0  501    0  0.00000000000E+00 -0.00000000000E+00 -0.19201881504E+02  0.19201881504E+02  0.00000000000E+00 0. -1.
         23    2    1    2    0    0 -0.91640302442E+02  0.21598922035E+02  0.99425203759E+03  0.10065029882E+04  0.12508673995E+03 0.  0.
          5    1    3    3  502    0 -0.40555444552E+02 -0.50743860667E+02  0.51742185791E+03  0.52150027317E+03  0.41800000000E+01 0.  1.
         -5    1    3    3    0  502 -0.51084857890E+02  0.72342782702E+02  0.47683017968E+03  0.48500271501E+03  0.41800000000E+01 0.  1.
        -11    1    1    2    0    0  0.94327731791E+02  0.10144895614E+01  0.28230219712E+03  0.29764623410E+03  0.00000000000E+00 0.  1.
         11    1    1    2    0    0 -0.26874293482E+01 -0.22613411596E+02  0.18584854341E+02  0.29393629776E+02  0.00000000000E+00 0. -1.
</event>
<event>
 7    1  0.7017065E-006  0.9549152E+02  0.7561462E-02  0.1290073E+00
         -2   -1    0    0    0  501 -0.00000000000E+00  0.00000000000E+00  0.88761763998E+02  0.88761763998E+02  0.00000000000E+00 0.  1.
          2   -1    0    0  501    0  0.00000000000E+00 -0.00000000000E+00 -0.21824197090E+03  0.21824197090E+03  0.00000000000E+00 0. -1.
         23    2    1    2    0    0  0.51097825367E+02  0.48477745642E+02 -0.14899827938E+02  0.14432681553E+03  0.12508854955E+03 0.  0.
          5    1    3    3  502    0  0.18796918522E+02 -0.27706600546E+02  0.34178660171E+02  0.48027419989E+02  0.41800000000E+01 0. -1.
         -5    1    3    3    0  502  0.32300906845E+02  0.76184346188E+02 -0.49078488109E+02  0.96299395544E+02  0.41800000000E+01 0. -1.
        -11    1    1    2    0    0 -0.37215374567E+02 -0.47676927401E+02 -0.12910445196E+03  0.14256939723E+03  0.00000000000E+00 0. -1.
         11    1    1    2    0    0 -0.13882450800E+02 -0.80081824148E+00  0.14524072995E+02  0.20107522136E+02  0.00000000000E+00 0.  1.
</event>
<event>
 7    1  0.7017065E-006  0.1283171E+03  0.7561462E-02  0.1229974E+00
          2   -1    0    0  501    0  0.00000000000E+00  0.00000000000E+00  0.20478096048E+03  0.20478096048E+03  0.00000000000E+00 0. -1.
         -2   -1    0    0    0  501 -0.00000000000E+00 -0.00000000000E+00 -0.94549260140E+02  0.94549260140E+02  0.00000000000E+00 0.  1.
         23    2    1    2    0    0  0.22364508281E+02 -0.75909535723E+02  0.20442661415E+02  0.14942468158E+03  0.12508958477E+03 0.  0.
          5    1    3    3  502    0 -0.35927593754E+02 -0.70418511383E+02  0.38473784751E+02  0.88018539248E+02  0.41800000000E+01 0. -1.
         -5    1    3    3    0  502  0.58292102035E+02 -0.54910243399E+01 -0.18031123336E+02  0.61406142337E+02  0.41800000000E+01 0. -1.
        -11    1    1    2    0    0 -0.46295196378E+02  0.81920136978E+02  0.79453031159E+02  0.12315412381E+03  0.00000000000E+00 0. -1.
         11    1    1    2    0    0  0.23930688097E+02 -0.60106012548E+01  0.10336007765E+02  0.26751415229E+02  0.00000000000E+00 0.  1.
</event>
<event>
 7    1  0.7017065E-006  0.1193910E+03  0.7561462E-02  0.1244105E+00
          2   -1    0    0  501    0  0.00000000000E+00  0.00000000000E+00  0.18772657619E+03  0.18772657619E+03  0.00000000000E+00 0. -1.
         -2   -1    0    0    0  501 -0.00000000000E+00 -0.00000000000E+00 -0.23549155561E+03  0.23549155561E+03  0.00000000000E+00 0.  1.
         23    2    1    2    0    0  0.65449048032E+02 -0.99333159069E+02 -0.15924003557E+03  0.23485422595E+03  0.12509382134E+03 0.  0.
          5    1    3    3  502    0  0.39277288549E+02 -0.69210654294E+02 -0.17457368185E+03  0.19190170103E+03  0.41800000000E+01 0. -1.
         -5    1    3    3    0  502  0.26171759483E+02 -0.30122504775E+02  0.15333646281E+02  0.42952524916E+02  0.41800000000E+01 0. -1.
        -11    1    1    2    0    0 -0.50045084953E+02  0.77363945323E+02  0.12735079132E+03  0.15718751418E+03  0.00000000000E+00 0. -1.
         11    1    1    2    0    0 -0.15403963078E+02  0.21969213745E+02 -0.15875735169E+02  0.31176391681E+02  0.00000000000E+00 0.  1.
</event>
<event>
 7    1  0.7017065E-006  0.1235806E+03  0.7561462E-02  0.1237304E+00
         -1   -1    0    0    0  501 -0.00000000000E+00  0.00000000000E+00  0.39322811793E+02  0.39322811793E+02  0.00000000000E+00 0.  1.
          1   -1    0    0  501    0  0.00000000000E+00 -0.00000000000E+00 -0.49547978765E+03  0.49547978765E+03  0.00000000000E+00 0. -1.
         23    2    1    2    0    0  0.89013951737E+01  0.86352779610E+02 -0.23046202806E+03  0.27621922986E+03  0.12509308208E+03 0.  0.
          5    1    3    3  502    0  0.19409438793E+02  0.10721933160E+03 -0.11553212415E+03  0.15886426752E+03  0.41800000000E+01 0. -1.
         -5    1    3    3    0  502 -0.10508043620E+02 -0.20866551993E+02 -0.11492990392E+03  0.11735496235E+03  0.41800000000E+01 0. -1.
        -11    1    1    2    0    0  0.32438611809E+02 -0.48402068764E+02 -0.59969869673E+02  0.83614646237E+02  0.00000000000E+00 0.  1.
         11    1    1    2    0    0 -0.41340006983E+02 -0.37950710846E+02 -0.16572507812E+03  0.17496872335E+03  0.00000000000E+00 0. -1.
</event>
<event>
 7    1  0.7017065E-006  0.6333672E+02  0.7561462E-02  0.1384340E+00
          2   -1    0    0  501    0  0.00000000000E+00  0.00000000000E+00  0.50529719306E+02  0.50529719306E+02  0.00000000000E+00 0. -1.
         -2   -1    0    0    0  501 -0.00000000000E+00 -0.00000000000E+00 -0.26726956950E+03  0.26726956950E+03  0.00000000000E+00 0.  1.
         23    2    1    2    0    0 -0.44170602189E+02  0.21689539165E+02 -0.14683979540E+03  0.19417384574E+03  0.11713273944E+03 0.  0.
          5    1    3    3  502    0 -0.34395000681E+02  0.14783512306E+02  0.82531047344E+01  0.38563641499E+02  0.41800000000E+01 0. -1.
         -5    1    3    3    0  502 -0.97756015086E+01  0.69060268589E+01 -0.15509290014E+03  0.15561020424E+03  0.41800000000E+01 0.  1.
        -11    1    1    2    0    0  0.51880645724E+02  0.14851139260E+01 -0.81471619893E+02  0.96599336499E+02  0.00000000000E+00 0. -1.
         11    1    1    2    0    0 -0.77100435348E+01 -0.23174653091E+02  0.11571565100E+02  0.27026106565E+02  0.00000000000E+00 0.  1.
</event>
<event>
 7    1  0.7017065E-006  0.9975557E+02  0.7561462E-02  0.1280811E+00
         -4   -1    0    0    0  501 -0.00000000000E+00  0.00000000000E+00  0.53570972548E+03  0.53570972548E+03  0.00000000000E+00 0.  1.
          4   -1    0    0  501    0  0.00000000000E+00 -0.00000000000E+00 -0.24863932956E+02  0.24863932956E+02  0.00000000000E+00 0. -1.
         23    2    1    2    0    0  0.20891820363E+02 -0.30373854980E+02  0.31263877486E+03  0.33874485222E+03  0.12508410023E+03 0.  0.
          5    1    3    3  502    0  0.51081670297E+02 -0.48049051596E+02  0.28619836025E+03  0.29469479502E+03  0.41800000000E+01 0. -1.
         -5    1    3    3    0  502 -0.30189849934E+02  0.17675196616E+02  0.26440414611E+02  0.44050057200E+02  0.41800000000E+01 0. -1.
        -11    1    1    2    0    0 -0.47121592604E+02  0.43997527762E+02  0.16618186668E+03  0.17824881417E+03  0.00000000000E+00 0.  1.
         11    1    1    2    0    0  0.26229772241E+02 -0.13623672783E+02  0.32025150986E+02  0.43579992056E+02  0.00000000000E+00 0. -1.
</event>
<event>
 7    1  0.7017065E-006  0.1992172E+03  0.7561462E-02  0.1150401E+00
          2   -1    0    0  501    0  0.00000000000E+00  0.00000000000E+00  0.81912846149E+03  0.81912846149E+03  0.00000000000E+00 0. -1.
         -2   -1    0    0    0  501 -0.00000000000E+00 -0.00000000000E+00 -0.72207460968E+02  0.72207460968E+02  0.00000000000E+00 0.  1.
         23    2    1    2    0    0  0.98758810270E+02  0.14743482931E+03  0.15485129758E+03  0.26667566781E+03  0.12508659376E+03 0.  0.
          5    1    3    3  502    0 -0.22630873606E+02  0.65268337660E+02  0.63373814191E+02  0.93839357767E+02  0.41800000000E+01 0. -1.
         -5    1    3    3    0  502  0.12138968388E+03  0.82166491650E+02  0.91477483387E+02  0.17283631004E+03  0.41800000000E+01 0. -1.
        -11    1    1    2    0    0 -0.32125961402E+02 -0.86565802505E+02  0.17422561444E+03  0.19718083144E+03  0.00000000000E+00 0.  1.
         11    1    1    2    0    0 -0.66632848868E+02 -0.60869026805E+02  0.41784408850E+03  0.42747942321E+03  0.00000000000E+00 0. -1.
</event>
<event>
 7    1  0.7017065E-006  0.1200807E+03  0.7561462E-02  0.1242964E+00
         -3   -1    0    0    0  501 -0.00000000000E+00  0.00000000000E+00  0.20996414271E+03  0.20996414271E+03  0.00000000000E+00 0.  1.
          3   -1    0    0  501    0  0.00000000000E+00 -0.00000000000E+00 -0.13293896431E+03  0.13293896431E+03  0.00000000000E+00 0. -1.
         23    2    1    2    0    0  0.66584061531E+02 -0.68289091869E+02  0.11838441358E+03  0.19687680211E+03  0.12509503792E+03 0.  0.
          5    1    3    3  502    0  0.31696969746E+02 -0.54288116440E+02 -0.93202803528E+01  0.63688597909E+02  0.41800000000E+01 0. -1.
         -5    1    3    3    0  502  0.34887091785E+02 -0.14000975428E+02  0.12770469393E+03  0.13318820420E+03  0.41800000000E+01 0. -1.
        -11    1    1    2    0    0 -0.56066832426E+01 -0.26247003332E+02 -0.22792646030E+01  0.26935759281E+02  0.00000000000E+00 0.  1.
         11    1    1    2    0    0 -0.60977378289E+02  0.94536095201E+02 -0.39079970577E+02  0.11909054563E+03  0.00000000000E+00 0. -1.
</event>
<event>
 7    1  0.7017065E-006  0.1690941E+03  0.7561462E-02  0.1178796E+00
          2   -1    0    0  501    0  0.00000000000E+00  0.00000000000E+00  0.72618422884E+03  0.72618422884E+03  0.00000000000E+00 0. -1.
         -2   -1    0    0    0  501 -0.00000000000E+00 -0.00000000000E+00 -0.44802490481E+02  0.44802490481E+02  0.00000000000E+00 0.  1.
         23    2    1    2    0    0  0.17743668001E+02  0.13944494310E+03  0.28926608924E+03  0.34508281959E+03  0.12509017581E+03 0.  0.
          5    1    3    3  502    0  0.17614525190E+00  0.15174896512E+03  0.18876841640E+03  0.24223700558E+03  0.41800000000E+01 0. -1.
         -5    1    3    3    0  502  0.17567522749E+02 -0.12304022023E+02  0.10049767284E+03  0.10284581401E+03  0.41800000000E+01 0. -1.
        -11    1    1    2    0    0  0.21084969841E+02 -0.11860074528E+03  0.31235607256E+03  0.33477907462E+03  0.00000000000E+00 0. -1.
         11    1    1    2    0    0 -0.38828637841E+02 -0.20844197814E+02  0.79759576552E+02  0.91124825108E+02  0.00000000000E+00 0.  1.
</event>
<event>
 7    1  0.7017065E-006  0.1025217E+03  0.7561462E-02  0.1275081E+00
         -2   -1    0    0    0  501 -0.00000000000E+00  0.00000000000E+00  0.15415900928E+03  0.15415900928E+03  0.00000000000E+00 0. -1.
          2   -1    0    0  501    0  0.00000000000E+00 -0.00000000000E+00 -0.99628121503E+02  0.99628121503E+02  0.00000000000E+00 0.  1.
         23    2    1    2    0    0  0.31039223850E+02  0.51183011496E+02  0.42632264068E+02  0.14508143371E+03  0.12509187977E+03 0.  0.
          5    1    3    3  502    0 -0.26638073676E+02 -0.26338448881E+01  0.58534761401E+02  0.64500502327E+02  0.41800000000E+01 0.  1.
         -5    1    3    3    0  502  0.57677297526E+02  0.53816856384E+02 -0.15902497334E+02  0.80580931382E+02  0.41800000000E+01 0.  1.
        -11    1    1    2    0    0 -0.57803517068E+02 -0.32486789182E+02  0.28389905018E+02  0.72129222675E+02  0.00000000000E+00 0. -1.
         11    1    1    2    0    0  0.26764293217E+02 -0.18696222314E+02 -0.16491281310E+02  0.36576474399E+02  0.00000000000E+00 0.  1.
</event>
<event>
 7    1  0.7017065E-006  0.1271104E+03  0.7561462E-02  0.1231807E+00
         -1   -1    0    0    0  501 -0.00000000000E+00  0.00000000000E+00  0.73638918348E+02  0.73638918348E+02  0.00000000000E+00 0.  1.
          1   -1    0    0  501    0  0.00000000000E+00 -0.00000000000E+00 -0.26762080053E+03  0.26762080053E+03  0.00000000000E+00 0. -1.
         23    2    1    2    0    0  0.73311766551E+02 -0.49334037991E+02 -0.89753850077E+02  0.17751760772E+03  0.12509310543E+03 0.  0.
          5    1    3    3  502    0 -0.27005025233E+02 -0.14253885131E+02 -0.59392198216E+02  0.66913004999E+02  0.41800000000E+01 0. -1.
         -5    1    3    3    0  502  0.10031679178E+03 -0.35080152860E+02 -0.30361651862E+02  0.11060460272E+03  0.41800000000E+01 0. -1.
        -11    1    1    2    0    0 -0.85922784642E+02  0.24753277198E+02 -0.10255801171E+03  0.13606467366E+03  0.00000000000E+00 0. -1.
         11    1    1    2    0    0  0.12611018090E+02  0.24580760793E+02 -0.16700203935E+01  0.27677437500E+02  0.00000000000E+00 0.  1.
</event>
<event>
 6    1  0.7017065E-006  0.2307667E+03  0.7561462E-02  0.1126101E+00
         -2   -1    0    0    0  501 -0.00000000000E+00  0.00000000000E+00  0.19860299177E+03  0.19860299177E+03  0.00000000000E+00 0.  1.
          2   -1    0    0  501    0  0.00000000000E+00 -0.00000000000E+00 -0.32589783413E+03  0.32589783413E+03  0.00000000000E+00 0. -1.
          5    1    1    2  502    0  0.32965770899E+02 -0.18970450203E+03 -0.33217008091E+02  0.19543638906E+03  0.41800000000E+01 0. -1.
         -5    1    1    2    0  502 -0.57679907096E+02 -0.83347482864E+00  0.46900098606E+02  0.74463131898E+02  0.41800000000E+01 0.  1.
        -11    1    1    2    0    0  0.52522809011E+02  0.70662295108E+02 -0.70478319439E+02  0.11277853930E+03  0.00000000000E+00 0. -1.
         11    1    1    2    0    0 -0.27808672815E+02  0.11987568175E+03 -0.70499613438E+02  0.14182276564E+03  0.00000000000E+00 0.  1.
</event>
<event>
 7    1  0.7017065E-006  0.1093185E+03  0.7561462E-02  0.1261837E+00
         -2   -1    0    0    0  501 -0.00000000000E+00  0.00000000000E+00  0.11209377224E+03  0.11209377224E+03  0.00000000000E+00 0. -1.
          2   -1    0    0  501    0  0.00000000000E+00 -0.00000000000E+00 -0.15096030110E+03  0.15096030110E+03  0.00000000000E+00 0.  1.
         23    2    1    2    0    0  0.43977301424E+02  0.53852485396E+02 -0.69084817263E+01  0.14484920977E+03  0.12688369961E+03 0.  0.
          5    1    3    3  502    0 -0.37004988538E+02  0.29837732609E+02 -0.31010718012E+02  0.56910425192E+02  0.41800000000E+01 0. -1.
         -5    1    3    3    0  502  0.80982289963E+02  0.24014752787E+02  0.24102236286E+02  0.87938784578E+02  0.41800000000E+01 0. -1.
        -11    1    1    2    0    0 -0.51802003859E+02 -0.27078512078E+02 -0.56319742544E+02  0.81170233586E+02  0.00000000000E+00 0.  1.
         11    1    1    2    0    0  0.78247024347E+01 -0.26773973318E+02  0.24361695406E+02  0.37034629990E+02  0.00000000000E+00 0. -1.
</event>
<event>
 7    1  0.7017065E-006  0.9550497E+02  0.7561462E-02  0.1290043E+00
         -3   -1    0    0    0  501 -0.00000000000E+00  0.00000000000E+00  0.57812132307E+02  0.57812132307E+02  0.00000000000E+00 0.  1.
          3   -1    0    0  501    0  0.00000000000E+00 -0.00000000000E+00 -0.22910841522E+03  0.22910841522E+03  0.00000000000E+00 0. -1.
         23    2    1    2    0    0  0.35195687106E+02  0.27548791487E+01 -0.69821030526E+02  0.14754218793E+03  0.12508954858E+03 0.  0.
          5    1    3    3  502    0 -0.26691191584E+02  0.16885893285E+02 -0.77183499077E+02  0.83500407364E+02  0.41800000000E+01 0.  1.
         -5    1    3    3    0  502  0.61886878690E+02 -0.14131014136E+02  0.73624685513E+01  0.64041780563E+02  0.41800000000E+01 0.  1.
        -11    1    1    2    0    0 -0.42832635115E+02  0.36049892922E+02 -0.60596795977E+02  0.82499703595E+02  0.00000000000E+00 0.  1.
         11    1    1    2    0    0  0.76369480093E+01 -0.38804772071E+02 -0.40878456407E+02  0.56878656002E+02  0.00000000000E+00 0. -1.
</event>
<event>
 7    1  0.7017065E-006  0.1056007E+03  0.7561462E-02  0.1268941E+00
          2   -1    0    0  501    0  0.00000000000E+00  0.00000000000E+00  0.67827146914E+03  0.67827146914E+03  0.00000000000E+00 0.  1.
         -2   -1    0    0    0  501 -0.00000000000E+00 -0.00000000000E+00 -0.18397716933E+02  0.18397716933E+02  0.00000000000E+00 0. -1.
         23    2    1    2    0    0  0.60350175442E+01 -0.18012918641E+02  0.33171049197E+03  0.35502155170E+03  0.12509022750E+03 0.  0.
          5    1    3    3  502    0 -0.41682216169E+02  0.28106906130E+02  0.79190465985E+02  0.93893597332E+02  0.41800000000E+01 0.  1.
         -5    1    3    3    0  502  0.47717233713E+02 -0.46119824771E+02  0.25252002598E+03  0.26112795437E+03  0.41800000000E+01 0.  1.
        -11    1    1    2    0    0 -0.19659935709E+02 -0.34663524483E+02  0.16067969839E+03  0.16554769245E+03  0.00000000000E+00 0.  1.
         11    1    1    2    0    0  0.13624918165E+02  0.52676443123E+02  0.16748356185E+03  0.17609994192E+03  0.00000000000E+00 0. -1.
</event>
<event>
 7    1  0.7017065E-006  0.1172812E+03  0.7561462E-02  0.1247651E+00
         -2   -1    0    0    0  501 -0.00000000000E+00  0.00000000000E+00  0.58562283371E+02  0.58562283371E+02  0.00000000000E+00 0.  1.
          2   -1    0    0  501    0  0.00000000000E+00 -0.00000000000E+00 -0.26544663621E+03  0.26544663621E+03  0.00000000000E+00 0. -1.
         23    2    1    2    0    0 -0.13266883308E+02  0.17363177336E+02 -0.60844049239E+02  0.14080147119E+03  0.12508223631E+03 0.  0.
          5    1    3    3  502    0 -0.17083399860E+02 -0.51739146978E+02 -0.11884897304E+02  0.55924100928E+02  0.41800000000E+01 0. -1.
         -5    1    3    3    0  502  0.38165165514E+01  0.69102324313E+02 -0.48959151935E+02  0.84877370260E+02  0.41800000000E+01 0. -1.
        -11    1    1    2    0    0  0.54137340845E+02 -0.36663195617E+02 -0.88754918779E+02  0.11023827463E+03  0.00000000000E+00 0. -1.
         11    1    1    2    0    0 -0.40870457537E+02  0.19300018282E+02 -0.57285384821E+02  0.72969173759E+02  0.00000000000E+00 0.  1.
</event>
<event>
 7    1  0.7017065E-006  0.1091091E+03  0.7561462E-02  0.1262229E+00
         -2   -1    0    0    0  501 -0.00000000000E+00  0.00000000000E+00  0.40016909644E+02  0.40016909644E+02  0.00000000000E+00 0.  1.
          2   -1    0    0  501    0  0.00000000000E+00 -0.00000000000E+00 -0.35323875379E+03  0.35323875379E+03  0.00000000000E+00 0. -1.
         23    2    1    2    0    0 -0.18341395604E+02 -0.42038425326E+02 -0.16022386569E+03  0.20838167493E+03  0.12509036458E+03 0.  0.
          5    1    3    3  502    0 -0.74295510179E+01 -0.80903628056E+02 -0.14252166658E+03  0.16410512821E+03  0.41800000000E+01 0.  1.
         -5    1    3    3    0  502 -0.10911844586E+02  0.38865202729E+02 -0.17702199109E+02  0.44276546712E+02  0.41800000000E+01 0.  1.
        -11    1    1    2    0    0  0.14061608891E+02  0.68270707689E+02 -0.74618065015E+02  0.10211010723E+03  0.00000000000E+00 0. -1.
         11    1    1    2    0    0  0.42797867127E+01 -0.26232282363E+02 -0.78379913441E+02  0.82763881272E+02  0.00000000000E+00 0.  1.
</event>
<event>
 7    1  0.7017065E-006  0.9810606E+02  0.7561462E-02  0.1284330E+00
         -2   -1    0    0    0  501 -0.00000000000E+00  0.00000000000E+00  0.36295101209E+02  0.36295101209E+02  0.00000000000E+00 0.  1.
          2   -1    0    0  501    0  0.00000000000E+00 -0.00000000000E+00 -0.36059375414E+03  0.36059375414E+03  0.00000000000E+00 0. -1.
         23    2    1    2    0    0 -0.11591560416E+02 -0.34790532351E+02 -0.18283047586E+03  0.22454395484E+03  0.12509300276E+03 0.  0.
          5    1    3    3  502    0  0.19499147864E+02  0.26768942284E+02 -0.13847113017E+03  0.14243777353E+03  0.41800000000E+01 0. -1.
         -5    1    3    3    0  502 -0.31090708281E+02 -0.61559474635E+02 -0.44359345686E+02  0.82106181305E+02  0.41800000000E+01 0. -1.
        -11    1    1    2    0    0  0.42740910203E+02 -0.51925007657E+01 -0.91731532227E+02  0.10133321999E+03  0.00000000000E+00 0. -1.
         11    1    1    2    0    0 -0.31149349787E+02  0.39983033117E+02 -0.49736644844E+02  0.71011680516E+02  0.00000000000E+00 0.  1.
</event>
<event>
 7    1  0.7017065E-006  0.1271729E+03  0.7561462E-02  0.1231712E+00
         -1   -1    0    0    0  501 -0.00000000000E+00  0.00000000000E+00  0.34373712684E+02  0.34373712684E+02  0.00000000000E+00 0.  1.
          1   -1    0    0  501    0  0.00000000000E+00 -0.00000000000E+00 -0.53503127115E+03  0.53503127115E+03  0.00000000000E+00 0. -1.
         23    2    1    2    0    0 -0.46429054732E+02  0.62471436821E+02 -0.22984614042E+03  0.27301111588E+03  0.12508990202E+03 0.  0.
          5    1    3    3  502    0 -0.77837228880E+02  0.13550165417E+02 -0.81319521745E+02  0.11345738495E+03  0.41800000000E+01 0. -1.
         -5    1    3    3    0  502  0.31408174148E+02  0.48921271404E+02 -0.14852661868E+03  0.15955373093E+03  0.41800000000E+01 0. -1.
        -11    1    1    2    0    0  0.72221726432E+02 -0.39056166518E+02 -0.21969055283E+03  0.23453208931E+03  0.00000000000E+00 0.  1.
         11    1    1    2    0    0 -0.25792671700E+02 -0.23415270303E+02 -0.51120865211E+02  0.61861778641E+02  0.00000000000E+00 0. -1.
</event>
<event>
 7    1  0.7017065E-006  0.1002468E+03  0.7561462E-02  0.1279778E+00
         -1   -1    0    0    0  501 -0.00000000000E+00  0.00000000000E+00  0.42305168962E+03  0.42305168962E+03  0.00000000000E+00 0.  1.
          1   -1    0    0  501    0  0.00000000000E+00 -0.00000000000E+00 -0.34875666439E+02  0.34875666439E+02  0.00000000000E+00 0. -1.
         23    2    1    2    0    0  0.27653445444E+01  0.47906283129E+02  0.28111291603E+03  0.31140144420E+03  0.12507489275E+03 0.  0.
          5    1    3    3  502    0 -0.37410611208E+02 -0.17527842032E+02  0.37537798238E+02  0.55976225077E+02  0.41800000000E+01 0. -1.
         -5    1    3    3    0  502  0.40175955753E+02  0.65434125161E+02  0.24357511779E+03  0.25542521912E+03  0.41800000000E+01 0. -1.
        -11    1    1    2    0    0  0.30001968855E+02 -0.36786283369E+02  0.17639475134E+02  0.50640891208E+02  0.00000000000E+00 0.  1.
         11    1    1    2    0    0 -0.32767313400E+02 -0.11119999760E+02  0.89423632018E+02  0.95885020651E+02  0.00000000000E+00 0. -1.
</event>
<event>
 7    1  0.7017065E-006  0.1639491E+03  0.7561462E-02  0.1184309E+00
         -1   -1    0    0    0  501 -0.00000000000E+00  0.00000000000E+00  0.77916350221E+02  0.77916350221E+02  0.00000000000E+00 0.  1.
          1   -1    0    0  501    0  0.00000000000E+00 -0.00000000000E+00 -0.52032435563E+03  0.52032435563E+03  0.00000000000E+00 0. -1.
         23    2    1    2    0    0 -0.52648585358E+02 -0.11914053280E+03 -0.66161816858E+02  0.19233069518E+03  0.12508944880E+03 0.  0.
          5    1    3    3  502    0  0.33645960326E+02 -0.74237634175E+02 -0.42989868247E+02  0.92243580514E+02  0.41800000000E+01 0.  1.
         -5    1    3    3    0  502 -0.86294545684E+02 -0.44902898629E+02 -0.23171948611E+02  0.10008711467E+03  0.41800000000E+01 0.  1.
        -11    1    1    2    0    0 -0.16528885024E+02  0.89101904820E+01 -0.82771993699E+02  0.84875193523E+02  0.00000000000E+00 0.  1.
         11    1    1    2    0    0  0.69177470382E+02  0.11023034232E+03 -0.29347419485E+03  0.32103481715E+03  0.00000000000E+00 0. -1.
</event>
<event>
 7    1  0.7017065E-006  0.1100989E+03  0.7561462E-02  0.1260387E+00
          1   -1    0    0  501    0  0.00000000000E+00  0.00000000000E+00  0.11148568794E+03  0.11148568794E+03  0.00000000000E+00 0. -1.
         -1   -1    0    0    0  501 -0.00000000000E+00 -0.00000000000E+00 -0.18349288942E+03  0.18349288942E+03  0.00000000000E+00 0.  1.
         23    2    1    2    0    0  0.28824486271E+02 -0.58837640383E+02 -0.97465936389E+02  0.17158262573E+03  0.12509304441E+03 0.  0.
          5    1    3    3  502    0  0.70516926977E+02 -0.60732738877E+02 -0.42380566346E+02  0.10234592012E+03  0.41800000000E+01 0. -1.
         -5    1    3    3    0  502 -0.41692440706E+02  0.18950984943E+01 -0.55085370043E+02  0.69236705606E+02  0.41800000000E+01 0. -1.
        -11    1    1    2    0    0 -0.44985475615E+02  0.39256269533E+02  0.57244849730E+02  0.82714693583E+02  0.00000000000E+00 0. -1.
         11    1    1    2    0    0  0.16160989345E+02  0.19581370850E+02 -0.31786114824E+02  0.40681258051E+02  0.00000000000E+00 0.  1.
</event>
<event>
 7    1  0.7017065E-006  0.1612146E+03  0.7561462E-02  0.1187332E+00
          1   -1    0    0  501    0  0.00000000000E+00  0.00000000000E+00  0.10977751685E+03  0.10977751685E+03  0.00000000000E+00 0. -1.
         -1   -1    0    0    0  501 -0.00000000000E+00 -0.00000000000E+00 -0.30927221775E+03  0.30927221775E+03  0.00000000000E+00 0.  1.
         23    2    1    2    0    0 -0.11483019016E+03  0.79007172896E+02 -0.16474024193E+03  0.24943036335E+03  0.12509217766E+03 0.  0.
          5    1    3    3  502    0  0.12264525211E+02 -0.51440875709E+01 -0.66711623611E+02  0.68152720712E+02  0.41800000000E+01 0.  1.
         -5    1    3    3    0  502 -0.12709471537E+03  0.84151260467E+02 -0.98028618315E+02  0.18127764264E+03  0.41800000000E+01 0.  1.
        -11    1    1    2    0    0  0.14227365374E+02 -0.48993659007E+02 -0.39509163072E+02  0.64527285043E+02  0.00000000000E+00 0.  1.
         11    1    1    2    0    0  0.10060282478E+03 -0.30013513889E+02  0.47547040985E+01  0.10509208620E+03  0.00000000000E+00 0. -1.
</event>
<event>
 7    1  0.7017065E-006  0.1237769E+03  0.7561462E-02  0.1236993E+00
          3   -1    0    0  501    0  0.00000000000E+00  0.00000000000E+00  0.13483859066E+03  0.13483859066E+03  0.00000000000E+00 0. -1.
         -3   -1    0    0    0  501 -0.00000000000E+00 -0.00000000000E+00 -0.15137207375E+03  0.15137207375E+03  0.00000000000E+00 0.  1.
         23    2    1    2    0    0  0.35236266435E+02  0.81843535586E+02 -0.44080979069E+01  0.15364593784E+03  0.12509070349E+03 0.  0.
          5    1    3    3  502    0  0.61630834536E+02  0.60779001251E+02 -0.47432857051E+02  0.98791675189E+02  0.41800000000E+01 0.  1.
         -5    1    3    3    0  502 -0.26394568100E+02  0.21064534335E+02  0.43024759144E+02  0.54854262655E+02  0.41800000000E+01 0.  1.
        -11    1    1    2    0    0 -0.17185341667E+01  0.19781962114E+02 -0.15975634483E+02  0.25485295405E+02  0.00000000000E+00 0.  1.
         11    1    1    2    0    0 -0.33517732269E+02 -0.10162549770E+03  0.38502492998E+01  0.10707943117E+03  0.00000000000E+00 0. -1.
</event>
<event>
 7    1  0.7017065E-006  0.2897074E+03  0.7561462E-02  0.1090502E+00
          1   -1    0    0  501    0  0.00000000000E+00  0.00000000000E+00  0.84907059474E+03  0.84907059474E+03  0.00000000000E+00 0.  1.
         -1   -1    0    0    0  501 -0.00000000000E+00 -0.00000000000E+00 -0.99293884676E+02  0.99293884676E+02  0.00000000000E+00 0. -1.
         23    2    1    2    0    0 -0.19468726140E+03 -0.18402041483E+03  0.40181808490E+03  0.49887098361E+03  0.12509133506E+03 0.  0.
          5    1    3    3  502    0  0.16344274911E+02 -0.29326554509E+02  0.50965890349E+02  0.61173331615E+02  0.41800000000E+01 0.  1.
         -5    1    3    3    0  502 -0.21103153631E+03 -0.15469386032E+03  0.35085219455E+03  0.43769765199E+03  0.41800000000E+01 0.  1.
        -11    1    1    2    0    0  0.37678819597E+02 -0.51751084508E+01  0.57650302484E+02  0.69065422392E+02  0.00000000000E+00 0.  1.
         11    1    1    2    0    0  0.15700844180E+03  0.18919552328E+03  0.29030832267E+03  0.38042807341E+03  0.00000000000E+00 0. -1.
</event>
<event>
 7    1  0.7017065E-006  0.9861691E+02  0.7561462E-02  0.1283232E+00
          1   -1    0    0  501    0  0.00000000000E+00  0.00000000000E+00  0.37127235816E+03  0.37127235816E+03  0.00000000000E+00 0. -1.
         -1   -1    0    0    0  501 -0.00000000000E+00 -0.00000000000E+00 -0.30454247651E+02  0.30454247651E+02  0.00000000000E+00 0.  1.
         23    2    1    2    0    0  0.14767690020E+02 -0.14056339319E+01  0.19680246669E+03  0.23364679568E+03  0.12505820148E+03 0.  0.
          5    1    3    3  502    0 -0.48827348797E+02 -0.10078654305E+02  0.39639139992E+02  0.63831207747E+02  0.41800000000E+01 0. -1.
         -5    1    3    3    0  502  0.63595038817E+02  0.86730203731E+01  0.15716332670E+03  0.16981558793E+03  0.41800000000E+01 0. -1.
        -11    1    1    2    0    0 -0.47108542540E+02 -0.10772908094E+02  0.10718423525E+03  0.11757436207E+03  0.00000000000E+00 0. -1.
         11    1    1    2    0    0  0.32340852520E+02  0.12178542026E+02  0.36831408563E+02  0.50505448066E+02  0.00000000000E+00 0.  1.
</event>
<event>
 7    1  0.7017065E-006  0.1365961E+03  0.7561462E-02  0.1217984E+00
         -1   -1    0    0    0  501 -0.00000000000E+00  0.00000000000E+00  0.46995736905E+02  0.46995736905E+02  0.00000000000E+00 0.  1.
          1   -1    0    0  501    0  0.00000000000E+00 -0.00000000000E+00 -0.67956597161E+03  0.67956597161E+03  0.00000000000E+00 0. -1.
         23    2    1    2    0    0 -0.75074569374E+02  0.72260142492E+02 -0.13900394519E+03  0.21407360786E+03  0.12509074163E+03 0.  0.
          5    1    3    3  502    0 -0.21280364897E+02 -0.34972710393E+02 -0.23015917803E+02  0.47150283930E+02  0.41800000000E+01 0.  1.
         -5    1    3    3    0  502 -0.53794204478E+02  0.10723285289E+03 -0.11598802739E+03  0.16692332393E+03  0.41800000000E+01 0.  1.
        -11    1    1    2    0    0  0.36677565515E+02 -0.86270560230E+01 -0.49307200833E+02  0.62055378186E+02  0.00000000000E+00 0.  1.
         11    1    1    2    0    0  0.38397003859E+02 -0.63633086469E+02 -0.44425908868E+03  0.45043272247E+03  0.00000000000E+00 0. -1.
</event>
<event>
 7    1  0.7017065E-006  0.1196726E+03  0.7561462E-02  0.1243638E+00
         -3   -1    0    0    0  501 -0.00000000000E+00  0.00000000000E+00  0.79857859693E+02  0.79857859693E+02  0.00000000000E+00 0.  1.
          3   -1    0    0  501    0  0.00000000000E+00 -0.00000000000E+00 -0.33158758921E+03  0.33158758921E+03  0.00000000000E+00 0. -1.
         23    2    1    2    0    0  0.66127766030E+02  0.72548165148E+02 -0.42274991391E+02  0.16463051667E+03  0.12521946501E+03 0.  0.
          5    1    3    3  502    0  0.42199136270E+02  0.89443621581E+02  0.15045308278E+02  0.10012373467E+03  0.41800000000E+01 0.  1.
         -5    1    3    3    0  502  0.23928629760E+02 -0.16895456432E+02 -0.57320299668E+02  0.64506782003E+02  0.41800000000E+01 0.  1.
        -11    1    1    2    0    0 -0.61364849095E+02 -0.30635513027E+02 -0.58721508602E+02  0.90290613772E+02  0.00000000000E+00 0.  1.
         11    1    1    2    0    0 -0.47629169356E+01 -0.41912652121E+02 -0.15073322953E+03  0.15652431846E+03  0.00000000000E+00 0. -1.
</event>
<event>
 7    1  0.7017065E-006  0.1065588E+03  0.7561462E-02  0.1267078E+00
         -2   -1    0    0    0  501 -0.00000000000E+00  0.00000000000E+00  0.77151799802E+02  0.77151799802E+02  0.00000000000E+00 0.  1.
          2   -1    0    0  501    0  0.00000000000E+00 -0.00000000000E+00 -0.21880047684E+03  0.21880047684E+03  0.00000000000E+00 0. -1.
         23    2    1    2    0    0 -0.65549389268E+02  0.33285236960E+02 -0.64442658557E+02  0.15876221730E+03  0.12509179017E+03 0.  0.
          5    1    3    3  502    0  0.79848700298E+01 -0.23918884773E+02 -0.60206812287E+02  0.65407979971E+02  0.41800000000E+01 0. -1.
         -5    1    3    3    0  502 -0.73534259298E+02  0.57204121733E+02 -0.42358462704E+01  0.93354237329E+02  0.41800000000E+01 0. -1.
        -11    1    1    2    0    0 -0.65719431135E+01  0.86567066963E+01  0.11217861833E+02  0.15619520839E+02  0.00000000000E+00 0.  1.
         11    1    1    2    0    0  0.72121332382E+02 -0.41941943656E+02 -0.88423880315E+02  0.12157053850E+03  0.00000000000E+00 0. -1.
</event>
<event>
 7    1  0.7017065E-006  0.1495255E+03  0.7561462E-02  0.1201057E+00
          1   -1    0    0  501    0  0.00000000000E+00  0.00000000000E+00  0.31109685525E+03  0.31109685525E+03  0.00000000000E+00 0. -1.
         -1   -1    0    0    0  501 -0.00000000000E+00 -0.00000000000E+00 -0.12030739739E+03  0.12030739739E+03  0.00000000000E+00 0.  1.
         23    2    1    2    0    0 -0.47785134780E+02  0.10909564237E+03 -0.18493559034E+02  0.17370954322E+03  0.12509082856E+03 0.  0.
          5    1    3    3  502    0 -0.70039383538E+02  0.12022028661E+03  0.49285677239E+01  0.13928458543E+03  0.41800000000E+01 0.  1.
         -5    1    3    3    0  502  0.22254248757E+02 -0.11124644237E+02 -0.23422126758E+02  0.34424957793E+02  0.41800000000E+01 0.  1.
        -11    1    1    2    0    0  0.53729483797E+02 -0.44523143933E+02  0.16506388592E+03  0.17920729396E+03  0.00000000000E+00 0. -1.
         11    1    1    2    0    0 -0.59443490161E+01 -0.64572498440E+02  0.44219130972E+02  0.78487415449E+02  0.00000000000E+00 0.  1.
</event>
<event>
 7    1  0.7017065E-006  0.8372933E+02  0.7561462E-02  0.1318789E+00
          2   -1    0    0  501    0  0.00000000000E+00  0.00000000000E+00  0.17089610227E+03  0.17089610227E+03  0.00000000000E+00 0. -1.
         -2   -1    0    0    0  501 -0.00000000000E+00 -0.00000000000E+00 -0.89253245262E+02  0.89253245262E+02  0.00000000000E+00 0.  1.
         23    2    1    2    0    0 -0.26020957798E+02  0.35214569848E+02  0.18090917916E+02  0.13376192343E+03  0.12509122540E+03 0.  0.
          5    1    3    3  502    0  0.35669392785E+02  0.19280968267E+02 -0.32632364237E+02  0.52214987452E+02  0.41800000000E+01 0.  1.
         -5    1    3    3    0  502 -0.61690350583E+02  0.15933601581E+02  0.50723282153E+02  0.81546935974E+02  0.41800000000E+01 0.  1.
        -11    1    1    2    0    0  0.33097205665E+02 -0.70955928637E+01  0.84227852860E+02  0.90775016708E+02  0.00000000000E+00 0. -1.
         11    1    1    2    0    0 -0.70762478669E+01 -0.28118976984E+02 -0.20675913769E+02  0.35612407398E+02  0.00000000000E+00 0.  1.
</event>
<event>
 6    1  0.7017065E-006  0.1782739E+03  0.7561462E-02  0.1169484E+00
         -1   -1    0    0    0  501 -0.00000000000E+00  0.00000000000E+00  0.49132350595E+02  0.49132350595E+02  0.00000000000E+00 0.  1.
          1   -1    0    0  501    0  0.00000000000E+00 -0.00000000000E+00 -0.75774325066E+03  0.75774325066E+03  0.00000000000E+00 0. -1.
          5    1    1    2  502    0 -0.97327104302E+02  0.64095313066E+02 -0.10673846282E+03  0.15808651503E+03  0.41800000000E+01 0. -1.
         -5    1    1    2    0  502  0.11789316187E+03  0.12708534108E+02 -0.30555922357E+03  0.32778684532E+03  0.41800000000E+01 0.  1.
        -11    1    1    2    0    0  0.34617326567E+02 -0.47585934170E+02 -0.17384888968E+03  0.18353805293E+03  0.00000000000E+00 0.  1.
         11    1    1    2    0    0 -0.55183384137E+02 -0.29217913004E+02 -0.12246432399E+03  0.13746418797E+03  0.00000000000E+00 0. -1.
</event>
<event>
 7    1  0.7017065E-006  0.7046104E+02  0.7561462E-02  0.1358532E+00
         -2   -1    0    0    0  501 -0.00000000000E+00  0.00000000000E+00  0.57798988997E+02  0.57798988997E+02  0.00000000000E+00 0.  1.
          2   -1    0    0  501    0  0.00000000000E+00 -0.00000000000E+00 -0.24538448122E+03  0.24538448122E+03  0.00000000000E+00 0. -1.
         23    2    1    2    0    0  0.26825647838E+02 -0.29537798015E+02 -0.69876864051E+02  0.14873240377E+03  0.12508579020E+03 0.  0.
          5    1    3    3  502    0  0.81396054006E+01 -0.24362913999E+02  0.34091190864E+02  0.42889234653E+02  0.41800000000E+01 0.  1.
         -5    1    3    3    0  502  0.18686042437E+02 -0.51748840159E+01 -0.10396805492E+03  0.10584316912E+03  0.41800000000E+01 0.  1.
        -11    1    1    2    0    0 -0.48527788507E+02  0.46734988145E+02 -0.59060760030E+02  0.89595082174E+02  0.00000000000E+00 0. -1.
         11    1    1    2    0    0  0.21702140669E+02 -0.17197190131E+02 -0.58647868140E+02  0.64855984268E+02  0.00000000000E+00 0.  1.
</event>
<event>
 7    1  0.7017065E-006  0.2296645E+03  0.7561462E-02  0.1126876E+00
         -2   -1    0    0    0  501 -0.00000000000E+00  0.00000000000E+00  0.44796302545E+04  0.44796302545E+04  0.00000000000E+00 0.  1.
          2   -1    0    0  501    0  0.00000000000E+00 -0.00000000000E+00 -0.20957707990E+02  0.20957707990E+02  0.00000000000E+00 0. -1.
         23    2    1    2    0    0 -0.14017211644E+03  0.14838904040E+03  0.37431484965E+04  0.37507965754E+04  0.12508698309E+03 0.  0.
          5    1    3    3  502    0 -0.11603484425E+03  0.32232706447E+02  0.18105305802E+04  0.18145361629E+04  0.41800000000E+01 0.  1.
         -5    1    3    3    0  502 -0.24137272190E+02  0.11615633395E+03  0.19326179164E+04  0.19362604125E+04  0.41800000000E+01 0.  1.
        -11    1    1    2    0    0  0.11953829612E+03 -0.15736193709E+03  0.67620624585E+03  0.70449064607E+03  0.00000000000E+00 0.  1.
         11    1    1    2    0    0  0.20633820319E+02  0.89728966861E+01  0.39317804133E+02  0.45300741028E+02  0.00000000000E+00 0. -1.
</event>
<event>
 7    1  0.7017065E-006  0.3560760E+03  0.7561462E-02  0.1060148E+00
          2   -1    0    0  501    0  0.00000000000E+00  0.00000000000E+00  0.17128608685E+04  0.17128608685E+04  0.00000000000E+00 0. -1.
         -2   -1    0    0    0  501 -0.00000000000E+00 -0.00000000000E+00 -0.80578116168E+02  0.80578116168E+02  0.00000000000E+00 0.  1.
         23    2    1    2    0    0  0.16248724706E+03  0.30577580377E+03  0.63504618802E+03  0.73405198639E+03  0.12509080772E+03 0.  0.
          5    1    3    3  502    0  0.16794856644E+03  0.20820732989E+03  0.42250801225E+03  0.50008749835E+03  0.41800000000E+01 0.  1.
         -5    1    3    3    0  502 -0.54613193806E+01  0.97568473877E+02  0.21253817577E+03  0.23396448804E+03  0.41800000000E+01 0.  1.
        -11    1    1    2    0    0 -0.33918513387E+02 -0.48348837941E+02  0.90312797246E+02  0.10790957801E+03  0.00000000000E+00 0.  1.
         11    1    1    2    0    0 -0.12856873367E+03 -0.25742696582E+03  0.90692376710E+03  0.95147742030E+03  0.00000000000E+00 0. -1.
</event>
<event>
 7    1  0.7017065E-006  0.1715236E+03  0.7561462E-02  0.1176268E+00
         -2   -1    0    0    0  501 -0.00000000000E+00  0.00000000000E+00  0.12039765926E+03  0.12039765926E+03  0.00000000000E+00 0.  1.
          2   -1    0    0  501    0  0.00000000000E+00 -0.00000000000E+00 -0.40799521379E+03  0.40799521379E+03  0.00000000000E+00 0. -1.
         23    2    1    2    0    0  0.92991732440E+02 -0.10360211361E+03  0.10174930862E+02  0.18743554824E+03  0.12509074818E+03 0.  0.
          5    1    3    3  502    0  0.29857641116E+02  0.27258767097E+02 -0.63757639631E+01  0.41141729214E+02  0.41800000000E+01 0. -1.
         -5    1    3    3    0  502  0.63134091324E+02 -0.13086088070E+03  0.16550694825E+02  0.14629381902E+03  0.41800000000E+01 0. -1.
        -11    1    1    2    0    0 -0.94343854611E+02  0.56586078739E+02 -0.15095187551E+03  0.18678655179E+03  0.00000000000E+00 0. -1.
         11    1    1    2    0    0  0.13521221717E+01  0.47016034867E+02 -0.14682060988E+03  0.15417077302E+03  0.00000000000E+00 0.  1.
</event>
<event>
 7    1  0.7017065E-006  0.1172523E+03  0.7561462E-02  0.1247700E+00
          2   -1    0    0  501    0  0.00000000000E+00  0.00000000000E+00  0.51833450178E+03  0.51833450178E+03  0.00000000000E+00 0. -1.
         -2   -1    0    0    0  501 -0.00000000000E+00 -0.00000000000E+00 -0.27140706699E+02  0.27140706699E+02  0.00000000000E+00 0.  1.
         23    2    1    2    0    0  0.37018195113E+02 -0.41052441404E+02  0.26479171663E+03  0.29802324599E+03  0.12509017644E+03 0.  0.
          5    1    3    3  502    0 -0.29762671106E+02 -0.59718194557E+02  0.11795273295E+03  0.13558170585E+03  0.41800000000E+01 0.  1.
         -5    1    3    3    0  502  0.66780866219E+02  0.18665753153E+02  0.14683898368E+03  0.16244154014E+03  0.41800000000E+01 0.  1.
        -11    1    1    2    0    0  0.19175599300E+02  0.37207917353E+02  0.74661014906E+02  0.85594391575E+02  0.00000000000E+00 0.  1.
         11    1    1    2    0    0 -0.56193794413E+02  0.38445240507E+01  0.15174106354E+03  0.16185757091E+03  0.00000000000E+00 0. -1.
</event>
<event>
 7    1  0.7017065E-006  0.9958707E+02  0.7561462E-02  0.1281167E+00
         -1   -1    0    0    0  501 -0.00000000000E+00  0.00000000000E+00  0.77314604906E+02  0.77314604906E+02  0.00000000000E+00 0.  1.
          1   -1    0    0  501    0  0.00000000000E+00 -0.00000000000E+00 -0.17565329519E+03  0.17565329519E+03  0.00000000000E+00 0. -1.
         23    2    1    2    0    0  0.13954040207E+02 -0.12353987452E+02 -0.14130885913E+02  0.12725645970E+03  0.12508872193E+03 0.  0.
          5    1    3    3  502    0 -0.48720037933E+02  0.22795723084E+02 -0.25571899921E+00  0.53952060936E+02  0.41800000000E+01 0.  1.
         -5    1    3    3    0  502  0.62674078140E+02 -0.35149710535E+02 -0.13875166914E+02  0.73304398765E+02  0.41800000000E+01 0.  1.
        -11    1    1    2    0    0  0.26409463853E+02 -0.85877976856E+01 -0.74094321111E+02  0.79127608779E+02  0.00000000000E+00 0. -1.
         11    1    1    2    0    0 -0.40363504060E+02  0.20941785137E+02 -0.10113483265E+02  0.46583831621E+02  0.00000000000E+00 0.  1.
</event>
<event>
 7    1  0.7017065E-006  0.7766701E+02  0.7561462E-02  0.1335806E+00
          1   -1    0    0  501    0  0.00000000000E+00  0.00000000000E+00  0.30932424773E+02  0.30932424773E+02  0.00000000000E+00 0. -1.
         -1   -1    0    0    0  501 -0.00000000000E+00 -0.00000000000E+00 -0.48266173811E+03  0.48266173811E+03  0.00000000000E+00 0.  1.
         23    2    1    2    0    0 -0.97517322032E+01 -0.25694677835E+02 -0.36449272111E+03  0.38633733139E+03  0.12508507958E+03 0.  0.
          5    1    3    3  502    0 -0.40937107303E+02 -0.19003709700E+02 -0.40598984437E+02  0.60850124683E+02  0.41800000000E+01 0. -1.
         -5    1    3    3    0  502  0.31185375099E+02 -0.66909681351E+01 -0.32389373667E+03  0.32548720671E+03  0.41800000000E+01 0. -1.
        -11    1    1    2    0    0 -0.30864164660E+02  0.22564873893E+01 -0.71305055908E+02  0.77730942318E+02  0.00000000000E+00 0.  1.
         11    1    1    2    0    0  0.40615896863E+02  0.23438190446E+02 -0.15931536323E+02  0.49525889179E+02  0.00000000000E+00 0. -1.
</event>
<event>
 7    1  0.7017065E-006  0.1080954E+03  0.7561462E-02  0.1264138E+00
         -1   -1    0    0    0  501 -0.00000000000E+00  0.00000000000E+00  0.56965586671E+02  0.56965586671E+02  0.00000000000E+00 0.  1.
          1   -1    0    0  501    0  0.00000000000E+00 -0.00000000000E+00 -0.34313963466E+03  0.34313963466E+03  0.00000000000E+00 0. -1.
         23    2    1    2    0    0 -0.55126511949E+02 -0.66283300323E+02 -0.17214946543E+03  0.22959780552E+03  0.12508919070E+03 0.  0.
          5    1    3    3  502    0 -0.82989799238E+02 -0.44294127589E+02 -0.59433380506E+02  0.11135113666E+03  0.41800000000E+01 0. -1.
         -5    1    3    3    0  502  0.27863287289E+02 -0.21989172734E+02 -0.11271608493E+03  0.11824666886E+03  0.41800000000E+01 0. -1.
        -11    1    1    2    0    0  0.44030295662E+02  0.50590536473E+02 -0.12949693488E+03  0.14583389681E+03  0.00000000000E+00 0. -1.
         11    1    1    2    0    0  0.11096216287E+02  0.15692763850E+02  0.15472352325E+02  0.24673518995E+02  0.00000000000E+00 0.  1.
</event>
<event>
 7    1  0.7017065E-006  0.9221012E+02  0.7561462E-02  0.1297586E+00
          2   -1    0    0  501    0  0.00000000000E+00  0.00000000000E+00  0.88287990550E+03  0.88287990550E+03  0.00000000000E+00 0. -1.
         -2   -1    0    0    0  501 -0.00000000000E+00 -0.00000000000E+00 -0.18373356991E+02  0.18373356991E+02  0.00000000000E+00 0.  1.
         23    2    1    2    0    0  0.18784939782E+02 -0.67059155412E+02  0.42514788598E+03  0.44860713869E+03  0.12509130923E+03 0.  0.
          5    1    3    3  502    0  0.27388070897E+02 -0.52312103582E+02  0.64558452777E+02  0.87589547513E+02  0.41800000000E+01 0. -1.
         -5    1    3    3    0  502 -0.86031311155E+01 -0.14747051830E+02  0.36058943320E+03  0.36101759118E+03  0.41800000000E+01 0. -1.
        -11    1    1    2    0    0  0.32080694978E+02  0.35210237936E+02  0.16138387363E+03  0.16826671244E+03  0.00000000000E+00 0. -1.
         11    1    1    2    0    0 -0.50865634760E+02  0.31848917476E+02  0.27797478890E+03  0.28437941137E+03  0.00000000000E+00 0.  1.
</event>
<event>
 7    1  0.7017065E-006  0.2456153E+03  0.7561462E-02  0.1116108E+00
          2   -1    0    0  501    0  0.00000000000E+00  0.00000000000E+00  0.12597934102E+03  0.12597934102E+03  0.00000000000E+00 0. -1.
         -2   -1    0    0    0  501 -0.00000000000E+00 -0.00000000000E+00 -0.49978233087E+03  0.49978233087E+03  0.00000000000E+00 0.  1.
         23    2    1    2    0    0 -0.86177223762E+02  0.20348899552E+03 -0.24856277746E+03  0.35533946611E+03  0.12509355159E+03 0.  0.
          5    1    3    3  502    0 -0.19614202413E+02  0.18198703666E+03 -0.19181533370E+03  0.26516898969E+03  0.41800000000E+01 0. -1.
         -5    1    3    3    0  502 -0.66563021350E+02  0.21501958853E+02 -0.56747443753E+02  0.90170476422E+02  0.41800000000E+01 0. -1.
        -11    1    1    2    0    0  0.47737682267E+02 -0.19214879403E+03 -0.91849113286E+02  0.21825742821E+03  0.00000000000E+00 0.  1.
         11    1    1    2    0    0  0.38439541495E+02 -0.11340201486E+02 -0.33391099105E+02  0.52164777576E+02  0.00000000000E+00 0. -1.
</event>
<event>
 7    1  0.7017065E-006  0.7985228E+02  0.7561462E-02  0.1329471E+00
          2   -1    0    0  501    0  0.00000000000E+00  0.00000000000E+00  0.62242134172E+03  0.62242134172E+03  0.00000000000E+00 0. -1.
         -2   -1    0    0    0  501 -0.00000000000E+00 -0.00000000000E+00 -0.26138295078E+02  0.26138295078E+02  0.00000000000E+00 0.  1.
         23    2    1    2    0    0  0.42494154527E+02  0.42640432476E+02  0.24999822930E+03  0.28595638212E+03  0.12509187892E+03 0.  0.
          5    1    3    3  502    0  0.20266854002E+02  0.41906869368E+02  0.25781376271E+03  0.26201591500E+03  0.41800000000E+01 0.  1.
         -5    1    3    3    0  502  0.22227300525E+02  0.73356310770E+00 -0.78155334075E+01  0.23940467120E+02  0.41800000000E+01 0.  1.
        -11    1    1    2    0    0 -0.36456913788E+02 -0.60970867514E+02  0.32936029582E+03  0.33693435222E+03  0.00000000000E+00 0. -1.
         11    1    1    2    0    0 -0.60372407390E+01  0.18330435038E+02  0.16924521525E+02  0.25668902456E+02  0.00000000000E+00 0.  1.
</event>
<event>
 7    1  0.7017065E-006  0.1077153E+03  0.7561462E-02  0.1264860E+00
         -1   -1    0    0    0  501 -0.00000000000E+00  0.00000000000E+00  0.12122515461E+03  0.12122515461E+03  0.00000000000E+00 0.  1.
          1   -1    0    0  501    0  0.00000000000E+00 -0.00000000000E+00 -0.15129127607E+03  0.15129127607E+03  0.00000000000E+00 0. -1.
         23    2    1    2    0    0  0.67202819423E+02  0.38190795584E+02 -0.49461372708E+01  0.14715073784E+03  0.12511642405E+03 0.  0.
          5    1    3    3  502    0 -0.90065241647E+01  0.11168385986E+02  0.48091282670E+02  0.50359648449E+02  0.41800000000E+01 0.  1.
         -5    1    3    3    0  502  0.76209343588E+02  0.27022409598E+02 -0.53037419941E+02  0.96791089387E+02  0.41800000000E+01 0.  1.
        -11    1    1    2    0    0 -0.79862427193E+02 -0.61038568944E+00 -0.29178212607E+01  0.79918042573E+02  0.00000000000E+00 0.  1.
         11    1    1    2    0    0  0.12659607769E+02 -0.37580409895E+02 -0.22202162926E+02  0.45447650273E+02  0.00000000000E+00 0. -1.
</event>
<event>
 7    1  0.7017065E-006  0.1280201E+03  0.7561462E-02  0.1230423E+00
         -1   -1    0    0    0  501 -0.00000000000E+00  0.00000000000E+00  0.46698019555E+02  0.46698019555E+02  0.00000000000E+00 0.  1.
          1   -1    0    0  501    0  0.00000000000E+00 -0.00000000000E+00 -0.40711211569E+03  0.40711211569E+03  0.00000000000E+00 0. -1.
         23    2    1    2    0    0 -0.79861450181E+02 -0.35177037810E+02 -0.19376768639E+03  0.24666999369E+03  0.12523934798E+03 0.  0.
          5    1    3    3  502    0 -0.70607933963E+02  0.36912879236E+02 -0.97909854947E+02  0.12630064563E+03  0.41800000000E+01 0.  1.
         -5    1    3    3    0  502 -0.92535162175E+01 -0.72089917045E+02 -0.95857831444E+02  0.12036934805E+03  0.41800000000E+01 0.  1.
        -11    1    1    2    0    0  0.73418757595E+02  0.60993948788E+01 -0.55955065888E+02  0.92512085607E+02  0.00000000000E+00 0.  1.
         11    1    1    2    0    0  0.64426925853E+01  0.29077642931E+02 -0.11069134385E+03  0.11462805595E+03  0.00000000000E+00 0. -1.
</event>
<event>
 7    1  0.7017065E-006  0.1139569E+03  0.7561462E-02  0.1253413E+00
         -2   -1    0    0    0  501 -0.00000000000E+00  0.00000000000E+00  0.10451822446E+03  0.10451822446E+03  0.00000000000E+00 0.  1.
          2   -1    0    0  501    0  0.00000000000E+00 -0.00000000000E+00 -0.17011831960E+03  0.17011831960E+03  0.00000000000E+00 0. -1.
         23    2    1    2    0    0 -0.70629277191E+02  0.14179292195E+02  0.91685580768E-01  0.14435063203E+03  0.12509016523E+03 0.  0.
          5    1    3    3  502    0 -0.11439299545E+02 -0.51056467010E+02 -0.15647939718E+02  0.54771806753E+02  0.41800000000E+01 0.  1.
         -5    1    3    3    0  502 -0.59189977646E+02  0.65235759204E+02  0.15739625299E+02  0.89578825273E+02  0.41800000000E+01 0.  1.
        -11    1    1    2    0    0  0.66308918345E+02 -0.28579167015E+02 -0.10356250363E+02  0.72944453942E+02  0.00000000000E+00 0.  1.
         11    1    1    2    0    0  0.43203588451E+01  0.14399874820E+02 -0.55335530361E+02  0.57341458089E+02  0.00000000000E+00 0. -1.
</event>
<event>
 7    1  0.7017065E-006  0.1525695E+03  0.7561462E-02  0.1197351E+00
         -2   -1    0    0    0  501 -0.00000000000E+00  0.00000000000E+00  0.21932868481E+03  0.21932868481E+03  0.00000000000E+00 0.  1.
          2   -1    0    0  501    0  0.00000000000E+00 -0.00000000000E+00 -0.34267594499E+03  0.34267594499E+03  0.00000000000E+00 0. -1.
         23    2    1    2    0    0  0.13186489254E+03  0.23706704237E+02  0.15442133380E+03  0.23967589452E+03  0.12509287898E+03 0.  0.
          5    1    3    3  502    0  0.11740045215E+03  0.59439267565E+02  0.75561718609E+02  0.15179900663E+03  0.41800000000E+01 0.  1.
         -5    1    3    3    0  502  0.14464440388E+02 -0.35732563328E+02  0.78859615189E+02  0.87876887892E+02  0.41800000000E+01 0.  1.
        -11    1    1    2    0    0 -0.96125463921E+02 -0.23548297259E+02 -0.26738229940E+03  0.28511036661E+03  0.00000000000E+00 0. -1.
         11    1    1    2    0    0 -0.35739428620E+02 -0.15840697793E+00 -0.10386294573E+02  0.37218368661E+02  0.00000000000E+00 0.  1.
</event>
<event>
 7    1  0.7017065E-006  0.1239115E+03  0.7561462E-02  0.1236780E+00
          2   -1    0    0  501    0  0.00000000000E+00  0.00000000000E+00  0.15080797995E+03  0.15080797995E+03  0.00000000000E+00 0. -1.
         -2   -1    0    0    0  501 -0.00000000000E+00 -0.00000000000E+00 -0.27116842905E+03  0.27116842905E+03  0.00000000000E+00 0.  1.
         23    2    1    2    0    0  0.89014023993E+02  0.44018646024E+01 -0.21444153132E+03  0.26377296287E+03  0.12509249661E+03 0.  0.
          5    1    3    3  502    0 -0.17673349307E+02 -0.17157529011E+02 -0.20359106410E+01  0.25066818897E+02  0.41800000000E+01 0. -1.
         -5    1    3    3    0  502  0.10668737330E+03  0.21559393613E+02 -0.21240562068E+03  0.23870614397E+03  0.41800000000E+01 0. -1.
        -11    1    1    2    0    0 -0.14123194075E+02  0.28736680567E+02 -0.18465667828E+01  0.32072904917E+02  0.00000000000E+00 0.  1.
         11    1    1    2    0    0 -0.74890829918E+02 -0.33138545170E+02  0.95927649003E+02  0.12613054121E+03  0.00000000000E+00 0. -1.
</event>
<event>
 7    1  0.7017065E-006  0.1138371E+03  0.7561462E-02  0.1253625E+00
         -2   -1    0    0    0  501 -0.00000000000E+00  0.00000000000E+00  0.45833102059E+02  0.45833102059E+02  0.00000000000E+00 0.  1.
          2   -1    0    0  501    0  0.00000000000E+00 -0.00000000000E+00 -0.41087884854E+03  0.41087884854E+03  0.00000000000E+00 0. -1.
         23    2    1    2    0    0 -0.17469549492E+02  0.54503252696E+02 -0.96196246479E+02  0.16786425789E+03  0.12509556957E+03 0.  0.
          5    1    3    3  502    0 -0.56878724595E+02 -0.13208700540E+01 -0.78703073355E+02  0.97203807357E+02  0.41800000000E+01 0. -1.
         -5    1    3    3    0  502  0.39409175102E+02  0.55824122750E+02 -0.17493173124E+02  0.70660450529E+02  0.41800000000E+01 0. -1.
        -11    1    1    2    0    0 -0.29806565686E+02 -0.44949626082E+02 -0.17796225879E+03  0.18595554791E+03  0.00000000000E+00 0.  1.
         11    1    1    2    0    0  0.47276115179E+02 -0.95536266137E+01 -0.90887241211E+02  0.10289214481E+03  0.00000000000E+00 0. -1.
</event>
<event>
 7    1  0.7017065E-006  0.1090371E+03  0.7561462E-02  0.1262364E+00
         -2   -1    0    0    0  501 -0.00000000000E+00  0.00000000000E+00  0.75113678810E+03  0.75113678810E+03  0.00000000000E+00 0.  1.
          2   -1    0    0  501    0  0.00000000000E+00 -0.00000000000E+00 -0.47009324806E+02  0.47009324806E+02  0.00000000000E+00 0. -1.
         23    2    1    2    0    0 -0.27059833479E+02  0.45649978589E+02  0.66464370267E+03  0.67839221647E+03  0.12509433532E+03 0.  0.
          5    1    3    3  502    0  0.37139966705E+02  0.71227947926E+01  0.43832751740E+03  0.43997567688E+03  0.41800000000E+01 0. -1.
         -5    1    3    3    0  502 -0.64199800185E+02  0.38527183796E+02  0.22631618527E+03  0.23841653959E+03  0.41800000000E+01 0. -1.
        -11    1    1    2    0    0  0.48498015152E+02 -0.61539446546E+02  0.47825689842E+02  0.91795738266E+02  0.00000000000E+00 0.  1.
         11    1    1    2    0    0 -0.21438181673E+02  0.15889467957E+02 -0.83419292183E+01  0.27958158174E+02  0.00000000000E+00 0. -1.
</event>
<event>
 7    1  0.7017065E-006  0.7425841E+02  0.7561462E-02  0.1346183E+00
         -1   -1    0    0    0  501 -0.00000000000E+00  0.00000000000E+00  0.29063175459E+03  0.29063175459E+03  0.00000000000E+00 0.  1.
          1   -1    0    0  501    0  0.00000000000E+00 -0.00000000000E+00 -0.60290781616E+02  0.60290781616E+02  0.00000000000E+00 0. -1.
         23    2    1    2    0    0  0.17518227668E+02 -0.25445728257E+02  0.21922408318E+03  0.25428363322E+03  0.12508634654E+03 0.  0.
          5    1    3    3  502    0  0.16077424238E+02  0.14829565783E+02 -0.78589343134E+01  0.23614293129E+02  0.41800000000E+01 0.  1.
         -5    1    3    3    0  502  0.14408034296E+01 -0.40275294039E+02  0.22708301749E+03  0.23066934009E+03  0.41800000000E+01 0.  1.
        -11    1    1    2    0    0  0.30647872208E+02  0.21432342141E+02  0.26592275004E+02  0.45888848868E+02  0.00000000000E+00 0.  1.
         11    1    1    2    0    0 -0.48166099875E+02  0.40133861152E+01 -0.15475385212E+02  0.50750054116E+02  0.00000000000E+00 0. -1.
</event>
<event>
 7    1  0.7017065E-006  0.1193851E+03  0.7561462E-02  0.1244115E+00
          2   -1    0    0  501    0  0.00000000000E+00  0.00000000000E+00  0.13853230927E+03  0.13853230927E+03  0.00000000000E+00 0.  1.
         -2   -1    0    0    0  501 -0.00000000000E+00 -0.00000000000E+00 -0.15242896452E+03  0.15242896452E+03  0.00000000000E+00 0. -1.
         23    2    1    2    0    0  0.23514363650E+02  0.45720845308E+02 -0.89137410715E+02  0.16196894421E+03  0.12508053368E+03 0.  0.
          5    1    3    3  502    0 -0.28036191890E+02 -0.30866706534E+02 -0.19326100782E+02  0.46149238340E+02  0.41800000000E+01 0.  1.
         -5    1    3    3    0  502  0.51550555539E+02  0.76587551842E+02 -0.69811309933E+02  0.11581970587E+03  0.41800000000E+01 0.  1.
        -11    1    1    2    0    0 -0.66108376037E+01 -0.72488381989E+02  0.47652557234E+02  0.87000200622E+02  0.00000000000E+00 0. -1.
         11    1    1    2    0    0 -0.16903526046E+02  0.26767536682E+02  0.27588198229E+02  0.41992128957E+02  0.00000000000E+00 0.  1.
</event>
<event>
 6    1  0.7017065E-006  0.7619106E+02  0.7561462E-02  0.1340222E+00
          2   -1    0    0  501    0  0.00000000000E+00  0.00000000000E+00  0.46151357025E+03  0.46151357025E+03  0.00000000000E+00 0. -1.
         -2   -1    0    0    0  501 -0.00000000000E+00 -0.00000000000E+00 -0.34330318918E+02  0.34330318918E+02  0.00000000000E+00 0.  1.
          5    1    1    2  502    0 -0.28399365581E+02  0.13819557912E+02  0.27738218136E+03  0.27920575044E+03  0.41800000000E+01 0. -1.
         -5    1    1    2    0  502  0.26118927118E+02 -0.18791993305E+02 -0.10077683041E+02  0.33976013033E+02  0.41800000000E+01 0.  1.
        -11    1    1    2    0    0 -0.17135221201E+02 -0.37580869123E+02  0.82061869755E+02  0.91869951547E+02  0.00000000000E+00 0. -1.
         11    1    1    2    0    0  0.19415659665E+02  0.42553304516E+02  0.77816883267E+02  0.90792174149E+02  0.00000000000E+00 0.  1.
</event>
<event>
 7    1  0.7017065E-006  0.1111641E+03  0.7561462E-02  0.1258429E+00
          3   -1    0    0  501    0  0.00000000000E+00  0.00000000000E+00  0.20120208513E+02  0.20120208513E+02  0.00000000000E+00 0. -1.
         -3   -1    0    0    0  501 -0.00000000000E+00 -0.00000000000E+00 -0.69439942899E+03  0.69439942899E+03  0.00000000000E+00 0.  1.
         23    2    1    2    0    0 -0.42082008752E+02  0.99468842445E+01 -0.44973888830E+03  0.46880828390E+03  0.12508518471E+03 0.  0.
          5    1    3    3  502    0  0.42177130523E+02 -0.11996598044E+02 -0.12333407928E+03  0.13096410278E+03  0.41800000000E+01 0.  1.
         -5    1    3    3    0  502 -0.84259139275E+02  0.21943482289E+02 -0.32640480902E+03  0.33784418112E+03  0.41800000000E+01 0.  1.
        -11    1    1    2    0    0 -0.15118034774E+02 -0.27410291636E+02 -0.13098469137E+03  0.13467319123E+03  0.00000000000E+00 0.  1.
         11    1    1    2    0    0  0.57200043526E+02  0.17463407391E+02 -0.93555640807E+02  0.11103816238E+03  0.00000000000E+00 0. -1.
</event>
<event>
 7    1  0.7017065E-006  0.8104367E+02  0.7561462E-02  0.1326115E+00
          3   -1    0    0  501    0  0.00000000000E+00  0.00000000000E+00  0.74149735165E+02  0.74149735165E+02  0.00000000000E+00 0. -1.
         -3   -1    0    0    0  501 -0.00000000000E+00 -0.00000000000E+00 -0.24450788698E+03  0.24450788698E+03  0.00000000000E+00 0.  1.
         23    2    1    2    0    0 -0.46508545169E+02 -0.22262255647E+02 -0.16834077877E+03  0.21597554342E+03  0.12509262471E+03 0.  0.
          5    1    3    3  502    0  0.23959002799E+02 -0.28874157198E+01  0.74110948960E+01  0.25588429264E+02  0.41800000000E+01 0. -1.
         -5    1    3    3    0  502 -0.70467547968E+02 -0.19374839928E+02 -0.17575187366E+03  0.19038711415E+03  0.41800000000E+01 0. -1.
        -11    1    1    2    0    0  0.17256791305E+02  0.29575203362E+02  0.38920198175E+02  0.51838897809E+02  0.00000000000E+00 0. -1.
         11    1    1    2    0    0  0.29251753864E+02 -0.73129477151E+01 -0.40937571222E+02  0.50843180919E+02  0.00000000000E+00 0.  1.
</event>
<event>
 7    1  0.7017065E-006  0.6370803E+02  0.7561462E-02  0.1382898E+00
          2   -1    0    0  501    0  0.00000000000E+00  0.00000000000E+00  0.86245466906E+02  0.86245466906E+02  0.00000000000E+00 0. -1.
         -2   -1    0    0    0  501 -0.00000000000E+00 -0.00000000000E+00 -0.22947080753E+03  0.22947080753E+03  0.00000000000E+00 0.  1.
         23    2    1    2    0    0  0.35222728956E+02  0.20571744690E+01 -0.16975436798E+03  0.21379274499E+03  0.12508365104E+03 0.  0.
          5    1    3    3  502    0  0.13504976869E+02  0.10269782523E+02 -0.18492198423E+03  0.18574570112E+03  0.41800000000E+01 0.  1.
         -5    1    3    3    0  502  0.21717752086E+02 -0.82126080543E+01  0.15167616250E+02  0.28047043863E+02  0.41800000000E+01 0.  1.
        -11    1    1    2    0    0 -0.46569993575E+02 -0.30539929564E+02 -0.74156149623E+01  0.56182229793E+02  0.00000000000E+00 0.  1.
         11    1    1    2    0    0  0.11347264619E+02  0.28482755095E+02  0.33944642320E+02  0.45741299657E+02  0.00000000000E+00 0. -1.
</event>
<event>
 7    1  0.7017065E-006  0.1226036E+03  0.7561462E-02  0.1238863E+00
          1   -1    0    0  501    0  0.00000000000E+00  0.00000000000E+00  0.47538103837E+02  0.47538103837E+02  0.00000000000E+00 0. -1.
         -1   -1    0    0    0  501 -0.00000000000E+00 -0.00000000000E+00 -0.45967361320E+03  0.45967361320E+03  0.00000000000E+00 0.  1.
         23    2    1    2    0    0  0.16492168181E+02  0.79339144557E+02 -0.30687923460E+03  0.34115867429E+03  0.12509070685E+03 0.  0.
          5    1    3    3  502    0 -0.42123645672E+02  0.56052127956E+02 -0.23579650682E+03  0.24603598843E+03  0.41800000000E+01 0.  1.
         -5    1    3    3    0  502  0.58615813852E+02  0.23287016600E+02 -0.71082727783E+02  0.95122685858E+02  0.41800000000E+01 0.  1.
        -11    1    1    2    0    0 -0.40129788271E+02 -0.14377410486E+02 -0.83211187639E+02  0.93494446826E+02  0.00000000000E+00 0.  1.
         11    1    1    2    0    0  0.23637620091E+02 -0.64961734071E+02 -0.22045087125E+02  0.72558595930E+02  0.00000000000E+00 0. -1.
</event>
<event>
 7    1  0.7017065E-006  0.8132887E+02  0.7561462E-02  0.1325322E+00
          1   -1    0    0  501    0  0.00000000000E+00  0.00000000000E+00  0.20158831810E+03  0.20158831810E+03  0.00000000000E+00 0. -1.
         -1   -1    0    0    0  501 -0.00000000000E+00 -0.00000000000E+00 -0.10457236916E+03  0.10457236916E+03  0.00000000000E+00 0.  1.
         23    2    1    2    0    0  0.42711062561E+02 -0.15323695705E+02 -0.45484287817E+02  0.13121398965E+03  0.11440821704E+03 0.  0.
          5    1    3    3  502    0 -0.12148197025E+02  0.12963870347E+02 -0.64069378438E+02  0.66618302881E+02  0.41800000000E+01 0. -1.
         -5    1    3    3    0  502  0.54859259586E+02 -0.28287566051E+02  0.18585090621E+02  0.64595686766E+02  0.41800000000E+01 0.  1.
        -11    1    1    2    0    0 -0.21621492685E+02 -0.27395948628E+02  0.11446699484E+03  0.11966921014E+03  0.00000000000E+00 0. -1.
         11    1    1    2    0    0 -0.21089569876E+02  0.42719644333E+02  0.28033241912E+02  0.55277487475E+02  0.00000000000E+00 0.  1.
</event>
<event>
 7    1  0.7017065E-006  0.1073503E+03  0.7561462E-02  0.1265557E+00
          1   -1    0    0  501    0  0.00000000000E+00  0.00000000000E+00  0.43744736207E+03  0.43744736207E+03  0.00000000000E+00 0. -1.
         -1   -1    0    0    0  501 -0.00000000000E+00 -0.00000000000E+00 -0.27449432218E+02  0.27449432218E+02  0.00000000000E+00 0.  1.
         23    2    1    2    0    0  0.23167839554E+01  0.13278966811E+02  0.21174373676E+03  0.24630120609E+03  0.12508867101E+03 0.  0.
          5    1    3    3  502    0 -0.44956526316E+02  0.46454606089E+02  0.84266483324E+02  0.10628937998E+03  0.41800000000E+01 0. -1.
         -5    1    3    3    0  502  0.47273310271E+02 -0.33175639278E+02  0.12747725344E+03  0.14001182611E+03  0.41800000000E+01 0. -1.
        -11    1    1    2    0    0 -0.13706484071E+02 -0.50897436552E+02  0.10940616245E+03  0.12144185908E+03  0.00000000000E+00 0. -1.
         11    1    1    2    0    0  0.11389700116E+02  0.37618469741E+02  0.88848030635E+02  0.97153729121E+02  0.00000000000E+00 0.  1.
</event>
<event>
 7    1  0.7017065E-006  0.1126559E+03  0.7561462E-02  0.1255729E+00
         -1   -1    0    0    0  501 -0.00000000000E+00  0.00000000000E+00  0.19809758907E+02  0.19809758907E+02  0.00000000000E+00 0.  1.
          1   -1    0    0  501    0  0.00000000000E+00 -0.00000000000E+00 -0.79777180279E+03  0.79777180279E+03  0.00000000000E+00 0. -1.
         23    2    1    2    0    0  0.49783281683E+01  0.58527163523E+02 -0.37466739852E+03  0.39934048052E+03  0.12508775819E+03 0.  0.
          5    1    3    3  502    0  0.49945177563E+02  0.46678930738E+01 -0.67317786252E+02  0.84056330716E+02  0.41800000000E+01 0.  1.
         -5    1    3    3    0  502 -0.44966849395E+02  0.53859270449E+02 -0.30734961226E+03  0.31528414980E+03  0.41800000000E+01 0.  1.
        -11    1    1    2    0    0  0.35559533516E+02 -0.26547497130E+01 -0.20964583755E+03  0.21265677822E+03  0.00000000000E+00 0. -1.
         11    1    1    2    0    0 -0.40537861684E+02 -0.55872413810E+02 -0.19364880782E+03  0.20558430297E+03  0.00000000000E+00 0.  1.
</event>
<event>
 7    1  0.7017065E-006  0.2870486E+03  0.7561462E-02  0.1091900E+00
         -2   -1    0    0    0  501 -0.00000000000E+00  0.00000000000E+00  0.57152832046E+02  0.57152832046E+02  0.00000000000E+00 0.  1.
          2   -1    0    0  501    0  0.00000000000E+00 -0.00000000000E+00 -0.15091364792E+04  0.15091364792E+04  0.00000000000E+00 0. -1.
         23    2    1    2    0    0  0.82897270092E+02 -0.25447046239E+03 -0.59610998915E+03  0.66530005168E+03  0.12509942442E+03 0.  0.
          5    1    3    3  502    0  0.10504296502E+03 -0.12671983235E+03 -0.36104671143E+03  0.39681751554E+03  0.41800000000E+01 0. -1.
         -5    1    3    3    0  502 -0.22145694925E+02 -0.12775063004E+03 -0.23506327772E+03  0.26848253614E+03  0.41800000000E+01 0. -1.
        -11    1    1    2    0    0 -0.15125464402E+02  0.17339747724E+03 -0.58069770540E+03  0.60622214562E+03  0.00000000000E+00 0. -1.
         11    1    1    2    0    0 -0.67771805690E+02  0.81072985146E+02 -0.27517595261E+03  0.29476711394E+03  0.00000000000E+00 0.  1.
</event>
<event>
 7    1  0.7017065E-006  0.1468181E+03  0.7561462E-02  0.1204438E+00
          1   -1    0    0  501    0  0.00000000000E+00  0.00000000000E+00  0.38652666761E+03  0.38652666761E+03  0.00000000000E+00 0. -1.
         -1   -1    0    0    0  501 -0.00000000000E+00 -0.00000000000E+00 -0.67683503404E+02  0.67683503404E+02  0.00000000000E+00 0.  1.
         23    2    1    2    0    0 -0.10197414522E+03  0.51041869133E+02  0.91384803838E+02  0.18397241290E+03  0.11176165549E+03 0.  0.
          5    1    3    3  502    0 -0.67270375822E+02 -0.28134004108E+02  0.38824893495E+02  0.82714390558E+02  0.41800000000E+01 0. -1.
         -5    1    3    3    0  502 -0.34703769402E+02  0.79175873241E+02  0.52559910343E+02  0.10125802235E+03  0.41800000000E+01 0.  1.
        -11    1    1    2    0    0  0.10856507629E+03 -0.30927015247E+02  0.13789667351E+03  0.17820872208E+03  0.00000000000E+00 0.  1.
         11    1    1    2    0    0 -0.65909310632E+01 -0.20114853886E+02  0.89561686864E+02  0.92029036032E+02  0.00000000000E+00 0. -1.
</event>
<event>
 7    1  0.7017065E-006  0.5749724E+02  0.7561462E-02  0.1408645E+00
          2   -1    0    0  501    0  0.00000000000E+00  0.00000000000E+00  0.50577350631E+02  0.50577350631E+02  0.00000000000E+00 0.  1.
         -2   -1    0    0    0  501 -0.00000000000E+00 -0.00000000000E+00 -0.23175315220E+03  0.23175315220E+03  0.00000000000E+00 0. -1.
         23    2    1    2    0    0  0.10018144971E+02  0.28441124107E+01 -0.12590301275E+03  0.17781464534E+03  0.12513203936E+03 0.  0.
          5    1    3    3  502    0  0.17588668154E+02 -0.58922935600E+01  0.22184258519E+02  0.29218044029E+02  0.41800000000E+01 0.  1.
         -5    1    3    3    0  502 -0.75705231833E+01  0.87364059707E+01 -0.14808727127E+03  0.14859660131E+03  0.41800000000E+01 0.  1.
        -11    1    1    2    0    0 -0.44050731531E+02  0.13306807308E+02 -0.12840552670E+02  0.47774657110E+02  0.00000000000E+00 0.  1.
         11    1    1    2    0    0  0.34032586560E+02 -0.16150919719E+02 -0.42432236152E+02  0.56741200380E+02  0.00000000000E+00 0. -1.
</event>
<event>
 7    1  0.7017065E-006  0.1123460E+03  0.7561462E-02  0.1256286E+00
          1   -1    0    0  501    0  0.00000000000E+00  0.00000000000E+00  0.49431433794E+03  0.49431433794E+03  0.00000000000E+00 0. -1.
         -1   -1    0    0    0  501 -0.00000000000E+00 -0.00000000000E+00 -0.28563790106E+02  0.28563790106E+02  0.00000000000E+00 0.  1.
         23    2    1    2    0    0 -0.45331711557E+01  0.29229879224E+02  0.17877544482E+03  0.22019146642E+03  0.12509471106E+03 0.  0.
          5    1    3    3  502    0  0.77655523567E+01  0.77773868717E+02  0.10697002262E+03  0.13254861975E+03  0.41800000000E+01 0.  1.
         -5    1    3    3    0  502 -0.12298723512E+02 -0.48543989494E+02  0.71805422196E+02  0.87642846672E+02  0.41800000000E+01 0.  1.
        -11    1    1    2    0    0  0.37310792817E+02  0.15761009386E+02  0.11464390855E+03  0.12158836476E+03  0.00000000000E+00 0.  1.
         11    1    1    2    0    0 -0.32777621662E+02 -0.44990888610E+02  0.17233119446E+03  0.18109829686E+03  0.00000000000E+00 0. -1.
</event>
<event>
 7    1  0.7017065E-006  0.8355279E+02  0.7561462E-02  0.1319261E+00
         -2   -1    0    0    0  501 -0.00000000000E+00  0.00000000000E+00  0.36274528603E+02  0.36274528603E+02  0.00000000000E+00 0.  1.
          2   -1    0    0  501    0  0.00000000000E+00 -0.00000000000E+00 -0.54387899769E+03  0.54387899769E+03  0.00000000000E+00 0. -1.
         23    2    1    2    0    0 -0.56360265941E+02 -0.13858716117E+02 -0.13816271871E+03  0.19520390441E+03  0.12508830428E+03 0.  0.
          5    1    3    3  502    0 -0.37669112326E+02 -0.14244662405E+02 -0.16064389614E+03  0.16566775848E+03  0.41800000000E+01 0.  1.
         -5    1    3    3    0  502 -0.18691153615E+02  0.38594628730E+00  0.22481177435E+02  0.29536145938E+02  0.41800000000E+01 0.  1.
        -11    1    1    2    0    0  0.61414498795E+02 -0.26426629244E+02 -0.25051045225E+03  0.25927898889E+03  0.00000000000E+00 0.  1.
         11    1    1    2    0    0 -0.50542328537E+01  0.40285345361E+02 -0.11893129813E+03  0.12567063299E+03  0.00000000000E+00 0. -1.
</event>
<event>
 7    1  0.7017065E-006  0.1592861E+03  0.7561462E-02  0.1189505E+00
          2   -1    0    0  501    0  0.00000000000E+00  0.00000000000E+00  0.19347969371E+03  0.19347969371E+03  0.00000000000E+00 0. -1.
         -2   -1    0    0    0  501 -0.00000000000E+00 -0.00000000000E+00 -0.17224517599E+03  0.17224517599E+03  0.00000000000E+00 0.  1.
         23    2    1    2    0    0 -0.12857802383E+03  0.19425223128E+02 -0.68261409325E+02  0.19291597017E+03  0.12508918433E+03 0.  0.
          5    1    3    3  502    0 -0.45093501922E+02  0.62126103115E+02 -0.62138635915E+02  0.98852208257E+02  0.41800000000E+01 0.  1.
         -5    1    3    3    0  502 -0.83484521909E+02 -0.42700879987E+02 -0.61227734097E+01  0.94063761908E+02  0.41800000000E+01 0.  1.
        -11    1    1    2    0    0  0.67805034701E+02  0.25299790871E+02  0.43471881986E+02  0.84423969773E+02  0.00000000000E+00 0. -1.
         11    1    1    2    0    0  0.60772989130E+02 -0.44725013998E+02  0.46024045059E+02  0.88384929760E+02  0.00000000000E+00 0.  1.
</event>
<event>
 7    1  0.7017065E-006  0.5350266E+02  0.7561462E-02  0.1427316E+00
         -1   -1    0    0    0  501 -0.00000000000E+00  0.00000000000E+00  0.43751601528E+02  0.43751601528E+02  0.00000000000E+00 0.  1.
          1   -1    0    0  501    0  0.00000000000E+00 -0.00000000000E+00 -0.39079064131E+03  0.39079064131E+03  0.00000000000E+00 0. -1.
         23    2    1    2    0    0 -0.89731705672E+01  0.29375000571E+02 -0.88222452577E+02  0.15612983454E+03  0.12509962289E+03 0.  0.
          5    1    3    3  502    0 -0.81790326683E+01 -0.64124493400E+01  0.30270820407E+02  0.32277097919E+02  0.41800000000E+01 0. -1.
         -5    1    3    3    0  502 -0.79413789890E+00  0.35787449911E+02 -0.11849327298E+03  0.12385273662E+03  0.41800000000E+01 0. -1.
        -11    1    1    2    0    0  0.20337997544E+02 -0.39573523029E+02 -0.25934435649E+03  0.26313341315E+03  0.00000000000E+00 0. -1.
         11    1    1    2    0    0 -0.11364826977E+02  0.10198522458E+02  0.52776928411E+00  0.15278995156E+02  0.00000000000E+00 0.  1.
</event>
<event>
 7    1  0.7017065E-006  0.1074791E+03  0.7561462E-02  0.1265311E+00
          1   -1    0    0  501    0  0.00000000000E+00  0.00000000000E+00  0.80135594772E+02  0.80135594772E+02  0.00000000000E+00 0.  1.
         -1   -1    0    0    0  501 -0.00000000000E+00 -0.00000000000E+00 -0.31235679562E+03  0.31235679562E+03  0.00000000000E+00 0. -1.
         23    2    1    2    0    0 -0.42649378150E+02  0.43497744441E+02 -0.24362986799E+03  0.28056201354E+03  0.12509399520E+03 0.  0.
          5    1    3    3  502    0 -0.46427781855E+02  0.78523458706E+02 -0.21927664941E+03  0.23753145870E+03  0.41800000000E+01 0. -1.
         -5    1    3    3    0  502  0.37784037047E+01 -0.35025714265E+02 -0.24353218579E+02  0.43030554836E+02  0.41800000000E+01 0. -1.
        -11    1    1    2    0    0 -0.40592017882E+01 -0.41199734058E+02  0.39629798874E+02  0.57309826072E+02  0.00000000000E+00 0.  1.
         11    1    1    2    0    0  0.46708579938E+02 -0.22980103830E+01 -0.28221131730E+02  0.54620550782E+02  0.00000000000E+00 0. -1.
</event>
<event>
 7    1  0.7017065E-006  0.1247214E+03  0.7561462E-02  0.1235505E+00
         -2   -1    0    0    0  501 -0.00000000000E+00  0.00000000000E+00  0.86411181285E+02  0.86411181285E+02  0.00000000000E+00 0.  1.
          2   -1    0    0  501    0  0.00000000000E+00 -0.00000000000E+00 -0.27117767006E+03  0.27117767006E+03  0.00000000000E+00 0. -1.
         23    2    1    2    0    0 -0.91148016420E+02 -0.20498509533E+02 -0.38688032526E+02  0.16082985037E+03  0.12506529142E+03 0.  0.
          5    1    3    3  502    0  0.30861132101E+02 -0.12857151204E+02 -0.10678388840E+02  0.35344252713E+02  0.41800000000E+01 0. -1.
         -5    1    3    3    0  502 -0.12200914852E+03 -0.76413583294E+01 -0.28009643686E+02  0.12548559766E+03  0.41800000000E+01 0. -1.
        -11    1    1    2    0    0  0.34263635244E+02  0.82368344867E+01  0.43124472138E+01  0.35502666709E+02  0.00000000000E+00 0.  1.
         11    1    1    2    0    0  0.56884381176E+02  0.12261675046E+02 -0.15039090346E+03  0.16125633427E+03  0.00000000000E+00 0. -1.
</event>
<event>
 7    1  0.7017065E-006  0.1646619E+03  0.7561462E-02  0.1183532E+00
          1   -1    0    0  501    0  0.00000000000E+00  0.00000000000E+00  0.19081087918E+03  0.19081087918E+03  0.00000000000E+00 0. -1.
         -1   -1    0    0    0  501 -0.00000000000E+00 -0.00000000000E+00 -0.17339644399E+03  0.17339644399E+03  0.00000000000E+00 0.  1.
         23    2    1    2    0    0 -0.14493019208E+03  0.13940659779E+02  0.68627379200E+01  0.19207713431E+03  0.12508967097E+03 0.  0.
          5    1    3    3  502    0 -0.16242837620E+03  0.42614175948E+01  0.25376554000E+02  0.16450707877E+03  0.41800000000E+01 0. -1.
         -5    1    3    3    0  502  0.17498184118E+02  0.96792421845E+01 -0.18513816080E+02  0.27570055542E+02  0.41800000000E+01 0. -1.
        -11    1    1    2    0    0  0.66775668897E+02  0.10189894727E+01  0.49893045339E+02  0.83362727099E+02  0.00000000000E+00 0. -1.
         11    1    1    2    0    0  0.78154523180E+02 -0.14959649252E+02 -0.39341348073E+02  0.88767461760E+02  0.00000000000E+00 0.  1.
</event>
<event>
 7    1  0.7017065E-006  0.1203307E+03  0.7561462E-02  0.1242552E+00
         -2   -1    0    0    0  501 -0.00000000000E+00  0.00000000000E+00  0.82081776784E+02  0.82081776784E+02  0.00000000000E+00 0. -1.
          2   -1    0    0  501    0  0.00000000000E+00 -0.00000000000E+00 -0.18997150504E+03  0.18997150504E+03  0.00000000000E+00 0.  1.
         23    2    1    2    0    0 -0.47555291497E+02  0.23010911998E+02 -0.28635772495E+02  0.13877678977E+03  0.12509189459E+03 0.  0.
          5    1    3    3  502    0  0.75678447615E+01  0.64505488907E+02 -0.24466763900E+02  0.69529312589E+02  0.41800000000E+01 0.  1.
         -5    1    3    3    0  502 -0.55123136259E+02 -0.41494576909E+02 -0.41690085949E+01  0.69247477185E+02  0.41800000000E+01 0.  1.
        -11    1    1    2    0    0 -0.11576584399E+02  0.26766836510E+02 -0.28708364245E+02  0.40922500177E+02  0.00000000000E+00 0.  1.
         11    1    1    2    0    0  0.59131875896E+02 -0.49777748508E+02 -0.50545591520E+02  0.92353991877E+02  0.00000000000E+00 0. -1.
</event>
<event>
 7    1  0.7017065E-006  0.1739908E+03  0.7561462E-02  0.1173749E+00
          2   -1    0    0  501    0  0.00000000000E+00  0.00000000000E+00  0.14689897805E+04  0.14689897805E+04  0.00000000000E+00 0. -1.
         -2   -1    0    0    0  501 -0.00000000000E+00 -0.00000000000E+00 -0.25017352197E+02  0.25017352197E+02  0.00000000000E+00 0.  1.
         23    2    1    2    0    0 -0.85052983356E+02  0.13226538487E+03  0.76682628924E+03  0.79271553042E+03  0.12508881761E+03 0.  0.
          5    1    3    3  502    0 -0.73130814372E+02  0.66912010470E+02  0.65582098933E+03  0.66328272675E+03  0.41800000000E+01 0. -1.
         -5    1    3    3    0  502 -0.11922168983E+02  0.65353374403E+02  0.11100529991E+03  0.12943280368E+03  0.41800000000E+01 0. -1.
        -11    1    1    2    0    0 -0.14401289703E+02 -0.53315233527E+02  0.22171870208E+03  0.22849309425E+03  0.00000000000E+00 0. -1.
         11    1    1    2    0    0  0.99454273058E+02 -0.78950151346E+02  0.45542743699E+03  0.47279850802E+03  0.00000000000E+00 0.  1.
</event>
<event>
 7    1  0.7017065E-006  0.2045383E+03  0.7561462E-02  0.1145966E+00
         -1   -1    0    0    0  501 -0.00000000000E+00  0.00000000000E+00  0.72505523427E+02  0.72505523427E+02  0.00000000000E+00 0.  1.
          1   -1    0    0  501    0  0.00000000000E+00 -0.00000000000E+00 -0.59938837623E+03  0.59938837623E+03  0.00000000000E+00 0. -1.
         23    2    1    2    0    0  0.16011149324E+03  0.69865922459E+02 -0.23795412640E+03  0.32060385814E+03  0.12509088773E+03 0.  0.
          5    1    3    3  502    0  0.16748648319E+03  0.25480486303E+02 -0.18199356064E+03  0.24867670930E+03  0.41800000000E+01 0.  1.
         -5    1    3    3    0  502 -0.73749899534E+01  0.44385436157E+02 -0.55960565757E+02  0.71927148834E+02  0.41800000000E+01 0.  1.
        -11    1    1    2    0    0 -0.10398228955E+03  0.10438864644E+01 -0.19442046096E+03  0.22048292877E+03  0.00000000000E+00 0.  1.
         11    1    1    2    0    0 -0.56129203691E+02 -0.70909808924E+02 -0.94508265447E+02  0.13080711275E+03  0.00000000000E+00 0. -1.
</event>
<event>
 7    1  0.7017065E-006  0.1169147E+03  0.7561462E-02  0.1248275E+00
          3   -1    0    0  501    0  0.00000000000E+00  0.00000000000E+00  0.36702170437E+02  0.36702170437E+02  0.00000000000E+00 0. -1.
         -3   -1    0    0    0  501 -0.00000000000E+00 -0.00000000000E+00 -0.49840241204E+03  0.49840241204E+03  0.00000000000E+00 0.  1.
         23    2    1    2    0    0 -0.25992617760E+02  0.55352529966E+02 -0.36049093488E+03  0.38644608192E+03  0.12508933348E+03 0.  0.
          5    1    3    3  502    0 -0.68757903777E+02  0.43293890365E+02 -0.14392653782E+03  0.16533097400E+03  0.41800000000E+01 0. -1.
         -5    1    3    3    0  502  0.42765286016E+02  0.12058639600E+02 -0.21656439706E+03  0.22111510792E+03  0.41800000000E+01 0. -1.
        -11    1    1    2    0    0 -0.32952334996E+02 -0.26096047664E+02 -0.29636311801E+02  0.51431226532E+02  0.00000000000E+00 0. -1.
         11    1    1    2    0    0  0.58944952757E+02 -0.29256482302E+02 -0.71572994919E+02  0.97227274022E+02  0.00000000000E+00 0.  1.
</event>
<event>
 7    1  0.7017065E-006  0.1147036E+03  0.7561462E-02  0.1252099E+00
         -1   -1    0    0    0  501 -0.00000000000E+00  0.00000000000E+00  0.66119289976E+02  0.66119289976E+02  0.00000000000E+00 0.  1.
          1   -1    0    0  501    0  0.00000000000E+00 -0.00000000000E+00 -0.23751354351E+03  0.23751354351E+03  0.00000000000E+00 0. -1.
         23    2    1    2    0    0  0.29928831398E+00  0.50556136251E+02 -0.48060660337E+02  0.14322850661E+03  0.12509422668E+03 0.  0.
          5    1    3    3  502    0 -0.43485052277E+01  0.92407028352E+02 -0.32385333145E+02  0.98103264927E+02  0.41800000000E+01 0. -1.
         -5    1    3    3    0  502  0.46477935417E+01 -0.41850892101E+02 -0.15675327193E+02  0.45125241684E+02  0.41800000000E+01 0. -1.
        -11    1    1    2    0    0 -0.27568208960E+02 -0.59674949545E+02 -0.53065775471E+02  0.84481253984E+02  0.00000000000E+00 0.  1.
         11    1    1    2    0    0  0.27268920646E+02  0.91188132941E+01 -0.70267817724E+02  0.75923072888E+02  0.00000000000E+00 0. -1.
</event>
<event>
 6    1  0.7017065E-006  0.2039835E+03  0.7561462E-02  0.1146421E+00
          1   -1    0    0  501    0  0.00000000000E+00  0.00000000000E+00  0.12200290421E+03  0.12200290421E+03  0.00000000000E+00 0. -1.
         -1   -1    0    0    0  501 -0.00000000000E+00 -0.00000000000E+00 -0.39639971723E+03  0.39639971723E+03  0.00000000000E+00 0.  1.
          5    1    1    2  502    0 -0.15710620679E+03  0.60019017937E+01 -0.50016718479E+02  0.16503795795E+03  0.41800000000E+01 0. -1.
         -5    1    1    2    0  502 -0.18031413550E+02  0.60252940761E+02 -0.65783083119E+02  0.91106724064E+02  0.41800000000E+01 0.  1.
        -11    1    1    2    0    0  0.81284587506E+02 -0.24169765392E+02 -0.13049921022E+03  0.15563227683E+03  0.00000000000E+00 0.  1.
         11    1    1    2    0    0  0.93853032834E+02 -0.42085077163E+02 -0.28097801207E+02  0.10662566260E+03  0.00000000000E+00 0. -1.
</event>
<event>
 6    1  0.7017065E-006  0.1625900E+03  0.7561462E-02  0.1185803E+00
         -2   -1    0    0    0  501 -0.00000000000E+00  0.00000000000E+00  0.31801351277E+02  0.31801351277E+02  0.00000000000E+00 0.  1.
          2   -1    0    0  501    0  0.00000000000E+00 -0.00000000000E+00 -0.98550641009E+03  0.98550641009E+03  0.00000000000E+00 0. -1.
          5    1    1    2  502    0  0.14457404983E+02  0.46344146550E+02 -0.24286285296E+03  0.24770271340E+03  0.41800000000E+01 0. -1.
         -5    1    1    2    0  502  0.58771277054E+01 -0.15100300785E+03 -0.32120561558E+03  0.35500277307E+03  0.41800000000E+01 0.  1.
        -11    1    1    2    0    0 -0.50650388507E+01 -0.91454378323E+01 -0.24353705048E+01  0.10734275998E+02  0.00000000000E+00 0.  1.
         11    1    1    2    0    0 -0.15269493838E+02  0.11380429913E+03 -0.38720121977E+03  0.40386799890E+03  0.00000000000E+00 0. -1.
</event>
<event>
 7    1  0.7017065E-006  0.1497861E+03  0.7561462E-02  0.1200736E+00
          1   -1    0    0  501    0  0.00000000000E+00  0.00000000000E+00  0.25291246829E+03  0.25291246829E+03  0.00000000000E+00 0. -1.
         -1   -1    0    0    0  501 -0.00000000000E+00 -0.00000000000E+00 -0.11523865711E+03  0.11523865711E+03  0.00000000000E+00 0.  1.
         23    2    1    2    0    0  0.13082432150E+03  0.71458115907E+01  0.61255024185E+02  0.19116495848E+03  0.12500319053E+03 0.  0.
          5    1    3    3  502    0  0.14610926665E+03 -0.14547438231E+01  0.78752550452E+02  0.16604056939E+03  0.41800000000E+01 0.  1.
         -5    1    3    3    0  502 -0.15284945147E+02  0.86005554138E+01 -0.17497526268E+02  0.25124389088E+02  0.41800000000E+01 0.  1.
        -11    1    1    2    0    0 -0.73783733056E+02 -0.20908134573E+02  0.88472444290E+02  0.11708357166E+03  0.00000000000E+00 0. -1.
         11    1    1    2    0    0 -0.57040588447E+02  0.13762322982E+02 -0.12053657300E+02  0.59902595257E+02  0.00000000000E+00 0.  1.
</event>
<event>
 7    1  0.7017065E-006  0.1318986E+03  0.7561462E-02  0.1224665E+00
         -1   -1    0    0    0  501 -0.00000000000E+00  0.00000000000E+00  0.31430743101E+02  0.31430743101E+02  0.00000000000E+00 0.  1.
          1   -1    0    0  501    0  0.00000000000E+00 -0.00000000000E+00 -0.86787220809E+03  0.86787220809E+03  0.00000000000E+00 0. -1.
         23    2    1    2    0    0 -0.92275705642E+02 -0.64565984925E+02 -0.30713371339E+03  0.35023087480E+03  0.12508787111E+03 0.  0.
          5    1    3    3  502    0 -0.80281720076E+02 -0.67329141974E+02 -0.10749683725E+03  0.15017127008E+03  0.41800000000E+01 0. -1.
         -5    1    3    3    0  502 -0.11993985566E+02  0.27631570488E+01 -0.19963687614E+03  0.20005960472E+03  0.41800000000E+01 0. -1.
        -11    1    1    2    0    0  0.34516612480E+02  0.79164482335E+02 -0.30587173052E+03  0.31783002900E+03  0.00000000000E+00 0.  1.
         11    1    1    2    0    0  0.57759093162E+02 -0.14598497411E+02 -0.22343602108E+03  0.23124204740E+03  0.00000000000E+00 0. -1.
</event>
<event>
 7    1  0.7017065E-006  0.1479312E+03  0.7561462E-02  0.1203038E+00
          1   -1    0    0  501    0  0.00000000000E+00  0.00000000000E+00  0.12380849056E+03  0.12380849056E+03  0.00000000000E+00 0. -1.
         -1   -1    0    0    0  501 -0.00000000000E+00 -0.00000000000E+00 -0.21356042185E+03  0.21356042185E+03  0.00000000000E+00 0.  1.
         23    2    1    2    0    0 -0.11239003513E+03  0.17368052611E+02 -0.41562290331E+01  0.16910886960E+03  0.12508943317E+03 0.  0.
          5    1    3    3  502    0 -0.13703174978E+03  0.10094265100E+02  0.12770905895E+02  0.13805854944E+03  0.41800000000E+01 0. -1.
         -5    1    3    3    0  502  0.24641714650E+02  0.72737875113E+01 -0.16927134928E+02  0.31050320167E+02  0.41800000000E+01 0. -1.
        -11    1    1    2    0    0  0.30364414395E+01 -0.22680157145E+02 -0.46821899273E+02  0.52114295123E+02  0.00000000000E+00 0.  1.
         11    1    1    2    0    0  0.10935359369E+03  0.53121045338E+01 -0.38773802985E+02  0.11614574768E+03  0.00000000000E+00 0. -1.
</event>
<event>
 7    1  0.7017065E-006  0.5399717E+02  0.7561462E-02  0.1424902E+00
         -1   -1    0    0    0  501 -0.00000000000E+00  0.00000000000E+00  0.89503192501E+02  0.89503192501E+02  0.00000000000E+00 0. -1.
          1   -1    0    0  501    0  0.00000000000E+00 -0.00000000000E+00 -0.15516100768E+03  0.15516100768E+03  0.00000000000E+00 0.  1.
         23    2    1    2    0    0  0.22042261372E+02  0.34738285427E+02 -0.16199188479E+02  0.13267834250E+03  0.12509404103E+03 0.  0.
          5    1    3    3  502    0  0.36066129123E+02  0.94758461945E+01  0.48720811085E+02  0.61495911765E+02  0.41800000000E+01 0.  1.
         -5    1    3    3    0  502 -0.14023867751E+02  0.25262439232E+02 -0.64919999564E+02  0.71182430740E+02  0.41800000000E+01 0.  1.
        -11    1    1    2    0    0 -0.12987416054E+02 -0.17364215061E+02 -0.75979466249E+02  0.79013088991E+02  0.00000000000E+00 0.  1.
         11    1    1    2    0    0 -0.90548453181E+01 -0.17374070366E+02  0.26520839546E+02  0.32972768689E+02  0.00000000000E+00 0. -1.
</event>
<event>
 6    1  0.7017065E-006  0.1595695E+03  0.7561462E-02  0.1189184E+00
          1   -1    0    0  501    0  0.00000000000E+00  0.00000000000E+00  0.11766811573E+03  0.11766811573E+03  0.00000000000E+00 0. -1.
         -1   -1    0    0    0  501 -0.00000000000E+00 -0.00000000000E+00 -0.92439132527E+03  0.92439132527E+03  0.00000000000E+00 0.  1.
          5    1    1    2  502    0  0.98484159583E+02 -0.10305246302E+03 -0.71431789688E+02  0.15949580810E+03  0.41800000000E+01 0. -1.
         -5    1    1    2    0  502 -0.59576605490E+02  0.51703726748E+02 -0.76493701235E+03  0.76900504065E+03  0.41800000000E+01 0.  1.
        -11    1    1    2    0    0 -0.23879460699E+02 -0.15862483436E+02  0.34093215467E+02  0.44544296660E+02  0.00000000000E+00 0.  1.
         11    1    1    2    0    0 -0.15028093393E+02  0.67211219709E+02 -0.44476229707E+01  0.69014295591E+02  0.00000000000E+00 0. -1.
</event>
<event>
 7    1  0.7017065E-006  0.8261308E+02  0.7561462E-02  0.1321795E+00
         -2   -1    0    0    0  501 -0.00000000000E+00  0.00000000000E+00  0.39763283911E+03  0.39763283911E+03  0.00000000000E+00 0.  1.
          2   -1    0    0  501    0  0.00000000000E+00 -0.00000000000E+00 -0.55028425400E+02  0.55028425400E+02  0.00000000000E+00 0. -1.
         23    2    1    2    0    0 -0.19058957104E+02 -0.49118576092E+02  0.31722761506E+03  0.34504511410E+03  0.12508753993E+03 0.  0.
          5    1    3    3  502    0 -0.47125326498E+02 -0.36148695452E+02  0.30622935677E+03  0.31196380548E+03  0.41800000000E+01 0. -1.
         -5    1    3    3    0  502  0.28066369394E+02 -0.12969880641E+02  0.10998258291E+02  0.33081308624E+02  0.41800000000E+01 0. -1.
        -11    1    1    2    0    0 -0.86145749103E+01  0.45813674049E+02 -0.22849890685E+02  0.51915519212E+02  0.00000000000E+00 0. -1.
         11    1    1    2    0    0  0.27673532014E+02  0.33049020432E+01  0.48226689330E+02  0.55700631194E+02  0.00000000000E+00 0.  1.
</event>
<event>
 7    1  0.7559388E-006  0.2497073E+03  0.7561462E-02  0.1113490E+00
         -1   -1    0    0    0  501 -0.00000000000E+00  0.00000000000E+00  0.28210521342E+03  0.28210521342E+03  0.00000000000E+00 0.  1.
          1   -1    0    0  501    0  0.00000000000E+00 -0.00000000000E+00 -0.26094485359E+03  0.26094485359E+03  0.00000000000E+00 0. -1.
         23    2    1    2    0    0 -0.23146232714E+03  0.29952629511E+02  0.96207220605E+02  0.28173586228E+03  0.12508915980E+03 0.  0.
          5    1    3    3  502    0 -0.90730957099E+02 -0.49089190774E+02  0.41174927595E+02  0.11115170844E+03  0.41800000000E+01 0. -1.
         -5    1    3    3    0  502 -0.14073137004E+03  0.79041820285E+02  0.55032293010E+02  0.17058415384E+03  0.41800000000E+01 0. -1.
        -11    1    1    2    0    0  0.10611926035E+03 -0.12821749047E+01  0.10852593214E+02  0.10668045823E+03  0.00000000000E+00 0.  1.
         11    1    1    2    0    0  0.12534306679E+03 -0.28670454607E+02 -0.85899453984E+02  0.15463374650E+03  0.00000000000E+00 0. -1.
</event>
<event>
 7    1  0.7017065E-006  0.1478999E+03  0.7561462E-02  0.1203078E+00
          2   -1    0    0  501    0  0.00000000000E+00  0.00000000000E+00  0.57619128438E+03  0.57619128438E+03  0.00000000000E+00 0. -1.
         -2   -1    0    0    0  501 -0.00000000000E+00 -0.00000000000E+00 -0.97301946640E+02  0.97301946640E+02  0.00000000000E+00 0.  1.
         23    2    1    2    0    0  0.91657813817E+02  0.10074011972E+03  0.20635199856E+02  0.18607818626E+03  0.12509817494E+03 0.  0.
          5    1    3    3  502    0  0.62456889543E+02  0.91923147425E+02 -0.39908203679E+02  0.11815610524E+03  0.41800000000E+01 0. -1.
         -5    1    3    3    0  502  0.29200924274E+02  0.88169722960E+01  0.60543403535E+02  0.67922081024E+02  0.41800000000E+01 0. -1.
        -11    1    1    2    0    0 -0.84860846209E+02 -0.42033348081E+02  0.36439626441E+03  0.37650073451E+03  0.00000000000E+00 0. -1.
         11    1    1    2    0    0 -0.67969676083E+01 -0.58706771640E+02  0.93857873468E+02  0.11091431024E+03  0.00000000000E+00 0.  1.
</event>
<event>
 7    1  0.7017065E-006  0.1685428E+03  0.7561462E-02  0.1179376E+00
          1   -1    0    0  501    0  0.00000000000E+00  0.00000000000E+00  0.64933434838E+03  0.64933434838E+03  0.00000000000E+00 0. -1.
         -1   -1    0    0    0  501 -0.00000000000E+00 -0.00000000000E+00 -0.10569062163E+03  0.10569062163E+03  0.00000000000E+00 0.  1.
         23    2    1    2    0    0  0.13841392500E+03 -0.21084249233E+02  0.25278082817E+01  0.18822071159E+03  0.12576838337E+03 0.  0.
          5    1    3    3  502    0 -0.22504952564E+02 -0.93332098348E+01  0.99541858487E+01  0.26648450455E+02  0.41800000000E+01 0. -1.
         -5    1    3    3    0  502  0.16091887757E+03 -0.11751039398E+02 -0.74263775670E+01  0.16157226114E+03  0.41800000000E+01 0.  1.
        -11    1    1    2    0    0  0.99145608184E+00  0.11162543869E+02  0.41524684207E+01  0.11951082159E+02  0.00000000000E+00 0.  1.
         11    1    1    2    0    0 -0.13940538109E+03  0.99217053637E+01  0.53696345005E+03  0.55485317626E+03  0.00000000000E+00 0. -1.
</event>
<event>
 7    1  0.7017065E-006  0.1296304E+03  0.7561462E-02  0.1228005E+00
         -1   -1    0    0    0  501 -0.00000000000E+00  0.00000000000E+00  0.96802574639E+02  0.96802574639E+02  0.00000000000E+00 0.  1.
          1   -1    0    0  501    0  0.00000000000E+00 -0.00000000000E+00 -0.36322320820E+03  0.36322320820E+03  0.00000000000E+00 0. -1.
         23    2    1    2    0    0  0.83560841818E+02 -0.79355393737E+02 -0.98009663703E+01  0.16472212646E+03  0.11729291199E+03 0.  0.
          5    1    3    3  502    0  0.17574157663E+02 -0.98423735974E+01 -0.54963451700E+02  0.58687108962E+02  0.41800000000E+01 0. -1.
         -5    1    3    3    0  502  0.65986684155E+02 -0.69513020140E+02  0.45162485329E+02  0.10603501750E+03  0.41800000000E+01 0.  1.
        -11    1    1    2    0    0  0.46628525373E+01 -0.13731026617E+02 -0.10947371369E+02  0.18169431076E+02  0.00000000000E+00 0.  1.
         11    1    1    2    0    0 -0.88223694355E+02  0.93086420354E+02 -0.24567229583E+03  0.27713422531E+03  0.00000000000E+00 0. -1.
</event>
<event>
 7    1  0.7017065E-006  0.1841087E+03  0.7561462E-02  0.1163885E+00
          1   -1    0    0  501    0  0.00000000000E+00  0.00000000000E+00  0.91183808556E+02  0.91183808556E+02  0.00000000000E+00 0. -1.
         -1   -1    0    0    0  501 -0.00000000000E+00 -0.00000000000E+00 -0.92844281543E+03  0.92844281543E+03  0.00000000000E+00 0.  1.
         23    2    1    2    0    0 -0.27209548660E+02 -0.17067047249E+03 -0.79073264028E+03  0.81900820429E+03  0.12509020973E+03 0.  0.
          5    1    3    3  502    0 -0.48345082342E+02 -0.59616235746E+02 -0.15195931520E+03  0.17029518028E+03  0.41800000000E+01 0. -1.
         -5    1    3    3    0  502  0.21135533682E+02 -0.11105423675E+03 -0.63877332507E+03  0.64871302400E+03  0.41800000000E+01 0. -1.
        -11    1    1    2    0    0 -0.10170760765E+02  0.71911381450E+02 -0.59947720671E+02  0.94172290883E+02  0.00000000000E+00 0.  1.
         11    1    1    2    0    0  0.37380309425E+02  0.98759091041E+02  0.13421354069E+02  0.10644612882E+03  0.00000000000E+00 0. -1.
</event>
<event>
 7    1  0.7017065E-006  0.9443023E+02  0.7561462E-02  0.1292465E+00
         -2   -1    0    0    0  501 -0.00000000000E+00  0.00000000000E+00  0.49843646333E+02  0.49843646333E+02  0.00000000000E+00 0. -1.
          2   -1    0    0  501    0  0.00000000000E+00 -0.00000000000E+00 -0.28282762302E+03  0.28282762302E+03  0.00000000000E+00 0.  1.
         23    2    1    2    0    0  0.38935773258E+02 -0.86630647192E+01 -0.81649461174E+02  0.15461126361E+03  0.12508782992E+03 0.  0.
          5    1    3    3  502    0  0.19823910535E+02 -0.58236099713E+02 -0.80375718015E+02  0.10130231579E+03  0.41800000000E+01 0. -1.
         -5    1    3    3    0  502  0.19111862723E+02  0.49573034994E+02 -0.12737431592E+01  0.53308947813E+02  0.41800000000E+01 0. -1.
        -11    1    1    2    0    0  0.16919930848E+02  0.61228931369E+01 -0.14104051483E+01  0.18048909190E+02  0.00000000000E+00 0.  1.
         11    1    1    2    0    0 -0.55855704105E+02  0.25401715824E+01 -0.14992411036E+03  0.16001109655E+03  0.00000000000E+00 0. -1.
</event>
<event>
 7    1  0.7017065E-006  0.1535585E+03  0.7561462E-02  0.1196167E+00
          3   -1    0    0  501    0  0.00000000000E+00  0.00000000000E+00  0.49541326366E+02  0.49541326366E+02  0.00000000000E+00 0. -1.
         -3   -1    0    0    0  501 -0.00000000000E+00 -0.00000000000E+00 -0.80728125061E+03  0.80728125061E+03  0.00000000000E+00 0.  1.
         23    2    1    2    0    0  0.51645137614E+02  0.11690368768E+03 -0.61888071157E+03  0.64420431612E+03  0.12510864607E+03 0.  0.
          5    1    3    3  502    0 -0.33019301163E+02  0.43368803993E+02 -0.10687561281E+03  0.12004580968E+03  0.41800000000E+01 0. -1.
         -5    1    3    3    0  502  0.84664438777E+02  0.73534883685E+02 -0.51200509876E+03  0.52415850643E+03  0.41800000000E+01 0. -1.
        -11    1    1    2    0    0 -0.33193036593E+02 -0.11716576002E+03 -0.68168175298E+02  0.13955820693E+03  0.00000000000E+00 0. -1.
         11    1    1    2    0    0 -0.18452101021E+02  0.26207234069E+00 -0.70691037380E+02  0.73060053927E+02  0.00000000000E+00 0.  1.
</event>
<event>
 7    1  0.7017065E-006  0.1031075E+03  0.7561462E-02  0.1273894E+00
         -3   -1    0    0    0  501 -0.00000000000E+00  0.00000000000E+00  0.30854828543E+03  0.30854828543E+03  0.00000000000E+00 0.  1.
          3   -1    0    0  501    0  0.00000000000E+00 -0.00000000000E+00 -0.48353367545E+02  0.48353367545E+02  0.00000000000E+00 0. -1.
         23    2    1    2    0    0 -0.23804179624E+02 -0.41433979574E+02  0.19938213757E+03  0.24017554990E+03  0.12509054462E+03 0.  0.
          5    1    3    3  502    0  0.39447456658E+02 -0.11639832951E+02  0.14702685500E+03  0.15272837339E+03  0.41800000000E+01 0. -1.
         -5    1    3    3    0  502 -0.63251636282E+02 -0.29794146623E+02  0.52355282573E+02  0.87447176505E+02  0.41800000000E+01 0. -1.
        -11    1    1    2    0    0  0.53060204453E+02  0.14356267563E+02  0.17101179850E+02  0.57566813940E+02  0.00000000000E+00 0. -1.
         11    1    1    2    0    0 -0.29256024829E+02  0.27077712011E+02  0.43711600468E+02  0.59159289144E+02  0.00000000000E+00 0.  1.
</event>
<event>
 7    1  0.7017065E-006  0.3561428E+03  0.7561462E-02  0.1060122E+00
         -2   -1    0    0    0  501 -0.00000000000E+00  0.00000000000E+00  0.62509465807E+03  0.62509465807E+03  0.00000000000E+00 0.  1.
          2   -1    0    0  501    0  0.00000000000E+00 -0.00000000000E+00 -0.22819017484E+03  0.22819017484E+03  0.00000000000E+00 0. -1.
         23    2    1    2    0    0  0.18609655781E+03  0.29530403689E+03  0.30738810203E+03  0.48163342339E+03  0.12508759423E+03 0.  0.
          5    1    3    3  502    0  0.17637798642E+03  0.20349533049E+03  0.27169497122E+03  0.38256394683E+03  0.41800000000E+01 0.  1.
         -5    1    3    3    0  502  0.97185713938E+01  0.91808706399E+02  0.35693130801E+02  0.99069476566E+02  0.41800000000E+01 0.  1.
        -11    1    1    2    0    0 -0.29451463109E+02 -0.27525653357E+02 -0.16851620472E+02  0.43692417930E+02  0.00000000000E+00 0. -1.
         11    1    1    2    0    0 -0.15664509471E+03 -0.26777838353E+03  0.10636800168E+03  0.32795899159E+03  0.00000000000E+00 0.  1.
</event>
<event>
 7    1  0.7017065E-006  0.2752688E+03  0.7561462E-02  0.1098301E+00
          2   -1    0    0  501    0  0.00000000000E+00  0.00000000000E+00  0.19644837616E+04  0.19644837616E+04  0.00000000000E+00 0.  1.
         -2   -1    0    0    0  501 -0.00000000000E+00 -0.00000000000E+00 -0.42511724763E+02  0.42511724763E+02  0.00000000000E+00 0. -1.
         23    2    1    2    0    0  0.21842868851E+03 -0.15494480249E+03  0.10268724853E+04  0.10685664777E+04  0.12509289545E+03 0.  0.
          5    1    3    3  502    0  0.22410705254E+03 -0.15288424287E+03  0.10258815100E+04  0.10611540452E+04  0.41800000000E+01 0. -1.
         -5    1    3    3    0  502 -0.56783640327E+01 -0.20605596213E+01  0.99097531777E+00  0.74124325374E+01  0.41800000000E+01 0. -1.
        -11    1    1    2    0    0 -0.26042975149E+02  0.40097017773E+02  0.80993410559E+02  0.94052857175E+02  0.00000000000E+00 0.  1.
         11    1    1    2    0    0 -0.19238571336E+03  0.11484778472E+03  0.81410614096E+03  0.84437615143E+03  0.00000000000E+00 0. -1.
</event>
<event>
 7    1  0.7017065E-006  0.1447602E+03  0.7561462E-02  0.1207064E+00
          2   -1    0    0  501    0  0.00000000000E+00  0.00000000000E+00  0.29989411295E+03  0.29989411295E+03  0.00000000000E+00 0. -1.
         -2   -1    0    0    0  501 -0.00000000000E+00 -0.00000000000E+00 -0.84615717640E+02  0.84615717640E+02  0.00000000000E+00 0.  1.
         23    2    1    2    0    0 -0.85115749211E+02  0.63345226946E+02  0.64116478265E+02  0.17610792576E+03  0.12508305317E+03 0.  0.
          5    1    3    3  502    0 -0.46840135214E+02 -0.23334746181E+02 -0.12751076254E+02  0.54023800235E+02  0.41800000000E+01 0. -1.
         -5    1    3    3    0  502 -0.38275613997E+02  0.86679973127E+02  0.76867554519E+02  0.12208412553E+03  0.41800000000E+01 0. -1.
        -11    1    1    2    0    0  0.26930188391E+02 -0.77709635641E+02  0.73477553898E+02  0.11028587147E+03  0.00000000000E+00 0.  1.
         11    1    1    2    0    0  0.58185560820E+02  0.14364408695E+02  0.77684363147E+02  0.98116033362E+02  0.00000000000E+00 0. -1.
</event>
<event>
 7    1  0.7017065E-006  0.1028235E+03  0.7561462E-02  0.1274468E+00
          2   -1    0    0  501    0  0.00000000000E+00  0.00000000000E+00  0.21645384170E+02  0.21645384170E+02  0.00000000000E+00 0. -1.
         -2   -1    0    0    0  501 -0.00000000000E+00 -0.00000000000E+00 -0.64337703427E+03  0.64337703427E+03  0.00000000000E+00 0.  1.
         23    2    1    2    0    0  0.23270982365E+02 -0.13994596223E+02 -0.46342506847E+03  0.48077846063E+03  0.12509095404E+03 0.  0.
          5    1    3    3  502    0 -0.51012944051E+02  0.38731030010E+01 -0.19785811532E+03  0.20440799296E+03  0.41800000000E+01 0. -1.
         -5    1    3    3    0  502  0.74283926416E+02 -0.17867699224E+02 -0.26556695314E+03  0.27637046767E+03  0.41800000000E+01 0. -1.
        -11    1    1    2    0    0 -0.49744353170E+02  0.57671758672E+01 -0.44121573732E+02  0.66741847880E+02  0.00000000000E+00 0. -1.
         11    1    1    2    0    0  0.26473370805E+02  0.82274203559E+01 -0.11418500790E+03  0.11750210993E+03  0.00000000000E+00 0.  1.
</event>
<event>
 7    1  0.7017065E-006  0.1058491E+03  0.7561462E-02  0.1268456E+00
          4   -1    0    0  501    0  0.00000000000E+00  0.00000000000E+00  0.86572237933E+03  0.86572237933E+03  0.00000000000E+00 0. -1.
         -4   -1    0    0    0  501 -0.00000000000E+00 -0.00000000000E+00 -0.17883818502E+02  0.17883818502E+02  0.00000000000E+00 0.  1.
         23    2    1    2    0    0  0.57062688115E+02 -0.14474529270E+02  0.51566801860E+03  0.53387876321E+03  0.12508943214E+03 0.  0.
          5    1    3    3  502    0 -0.15924801612E+02 -0.24299851436E+02  0.36443624760E+03  0.36561637415E+03  0.41800000000E+01 0. -1.
         -5    1    3    3    0  502  0.72987489727E+02  0.98253221660E+01  0.15123177100E+03  0.16826238906E+03  0.41800000000E+01 0. -1.
        -11    1    1    2    0    0 -0.35710528527E+02  0.53367397709E+02  0.21718218754E+03  0.22647609934E+03  0.00000000000E+00 0. -1.
         11    1    1    2    0    0 -0.21352159588E+02 -0.38892868439E+02  0.11498835470E+03  0.12325133529E+03  0.00000000000E+00 0.  1.
</event>
<event>
 7    1  0.7017065E-006  0.7600844E+02  0.7561462E-02  0.1340776E+00
          2   -1    0    0  501    0  0.00000000000E+00  0.00000000000E+00  0.38863743718E+03  0.38863743718E+03  0.00000000000E+00 0. -1.
         -2   -1    0    0    0  501 -0.00000000000E+00 -0.00000000000E+00 -0.34755222452E+02  0.34755222452E+02  0.00000000000E+00 0.  1.
         23    2    1    2    0    0  0.34896044894E+02  0.10304885483E+02  0.16163756241E+03  0.20759929538E+03  0.12508733447E+03 0.  0.
          5    1    3    3  502    0  0.66175067836E+02  0.48895519259E+01  0.16249347052E+03  0.17556949531E+03  0.41800000000E+01 0. -1.
         -5    1    3    3    0  502 -0.31279022942E+02  0.54153335568E+01 -0.85590810672E+00  0.32029800069E+02  0.41800000000E+01 0. -1.
        -11    1    1    2    0    0  0.14612425324E+01 -0.16556338490E+02 -0.31757523675E+01  0.16921376334E+02  0.00000000000E+00 0.  1.
         11    1    1    2    0    0 -0.36357287426E+02  0.62514530075E+01  0.19542040468E+03  0.19887198792E+03  0.00000000000E+00 0. -1.
</event>
<event>
 7    1  0.7017065E-006  0.1190338E+03  0.7561462E-02  0.1244700E+00
          1   -1    0    0  501    0  0.00000000000E+00  0.00000000000E+00  0.89958396976E+02  0.89958396976E+02  0.00000000000E+00 0. -1.
         -1   -1    0    0    0  501 -0.00000000000E+00 -0.00000000000E+00 -0.22866340503E+03  0.22866340503E+03  0.00000000000E+00 0.  1.
         23    2    1    2    0    0 -0.82704058832E+00 -0.75332873559E+02 -0.13857512459E+03  0.20131198230E+03  0.12509085988E+03 0.  0.
          5    1    3    3  502    0 -0.49865338289E+02 -0.38737647415E+01 -0.19205182088E+02  0.53738900575E+02  0.41800000000E+01 0. -1.
         -5    1    3    3    0  502  0.49038297701E+02 -0.71459108818E+02 -0.11936994251E+03  0.14757308172E+03  0.41800000000E+01 0. -1.
        -11    1    1    2    0    0  0.26207923240E+02  0.54606069639E+01 -0.27229340816E+02  0.38185212717E+02  0.00000000000E+00 0.  1.
         11    1    1    2    0    0 -0.25380882651E+02  0.69872266596E+02  0.27099457354E+02  0.79124606996E+02  0.00000000000E+00 0. -1.
</event>
<event>
 7    1  0.7017065E-006  0.1222484E+03  0.7561462E-02  0.1239433E+00
          2   -1    0    0  501    0  0.00000000000E+00  0.00000000000E+00  0.21401475528E+02  0.21401475528E+02  0.00000000000E+00 0. -1.
         -2   -1    0    0    0  501 -0.00000000000E+00 -0.00000000000E+00 -0.80237022388E+03  0.80237022388E+03  0.00000000000E+00 0.  1.
         23    2    1    2    0    0 -0.44764477048E+02 -0.57062915081E+02 -0.46293979202E+03  0.48499603793E+03  0.12509145089E+03 0.  0.
          5    1    3    3  502    0 -0.60049386932E+02  0.16827381977E+02 -0.13977639412E+03  0.15311434423E+03  0.41800000000E+01 0. -1.
         -5    1    3    3    0  502  0.15284909884E+02 -0.73890297058E+02 -0.32316339790E+03  0.33188169369E+03  0.41800000000E+01 0. -1.
        -11    1    1    2    0    0  0.59741612207E+02  0.14745741767E+02 -0.24857341796E+03  0.25607663159E+03  0.00000000000E+00 0.  1.
         11    1    1    2    0    0 -0.14977135159E+02  0.42317173314E+02 -0.69455538364E+02  0.82699029888E+02  0.00000000000E+00 0. -1.
</event>
<event>
 7    1  0.7017065E-006  0.9834994E+02  0.7561462E-02  0.1283805E+00
         -2   -1    0    0    0  501 -0.00000000000E+00  0.00000000000E+00  0.28155482522E+02  0.28155482522E+02  0.00000000000E+00 0.  1.
          2   -1    0    0  501    0  0.00000000000E+00 -0.00000000000E+00 -0.63936289423E+03  0.63936289423E+03  0.00000000000E+00 0. -1.
         23    2    1    2    0    0  0.47410483250E+02 -0.17142385395E+02 -0.18603082075E+03  0.22977451942E+03  0.12508896117E+03 0.  0.
          5    1    3    3  502    0  0.69554707252E+02 -0.13608134012E+02 -0.19322570884E+03  0.20585598259E+03  0.41800000000E+01 0. -1.
         -5    1    3    3    0  502 -0.22144224002E+02 -0.35342513829E+01  0.71948880862E+01  0.23918536829E+02  0.41800000000E+01 0. -1.
        -11    1    1    2    0    0  0.16739307195E+02 -0.22075639182E+02 -0.14683894942E+03  0.14942963333E+03  0.00000000000E+00 0. -1.
         11    1    1    2    0    0 -0.64149790445E+02  0.39218024577E+02 -0.27833764154E+03  0.28831422400E+03  0.00000000000E+00 0.  1.
</event>
<event>
 7    1  0.7017065E-006  0.9406284E+02  0.7561462E-02  0.1293301E+00
          2   -1    0    0  501    0  0.00000000000E+00  0.00000000000E+00  0.21836950235E+03  0.21836950235E+03  0.00000000000E+00 0. -1.
         -2   -1    0    0    0  501 -0.00000000000E+00 -0.00000000000E+00 -0.65694045903E+02  0.65694045903E+02  0.00000000000E+00 0.  1.
         23    2    1    2    0    0  0.56034411593E+01 -0.50044287567E+02  0.88272758425E+02  0.16117170137E+03  0.12509359765E+03 0.  0.
          5    1    3    3  502    0  0.58106582815E+01  0.39611154431E+02  0.86075843222E+01  0.41162728443E+02  0.41800000000E+01 0.  1.
         -5    1    3    3    0  502 -0.20721712214E+00 -0.89655441997E+02  0.79665174103E+02  0.12000897293E+03  0.41800000000E+01 0.  1.
        -11    1    1    2    0    0 -0.17579188132E+02  0.29770442341E+02  0.84902443390E+02  0.91671871292E+02  0.00000000000E+00 0. -1.
         11    1    1    2    0    0  0.11975746973E+02  0.20273845226E+02 -0.20499745366E+02  0.31219975591E+02  0.00000000000E+00 0.  1.
</event>
<event>
 7    1  0.7017065E-006  0.9390946E+02  0.7561462E-02  0.1293651E+00
          4   -1    0    0  501    0  0.00000000000E+00  0.00000000000E+00  0.55970991571E+02  0.55970991571E+02  0.00000000000E+00 0. -1.
         -4   -1    0    0    0  501 -0.00000000000E+00 -0.00000000000E+00 -0.34302422235E+03  0.34302422235E+03  0.00000000000E+00 0.  1.
         23    2    1    2    0    0 -0.81544817591E+02  0.57720800535E+00 -0.11422059814E+03  0.18800132609E+03  0.12509301790E+03 0.  0.
          5    1    3    3  502    0 -0.55536568969E+02 -0.12761503225E+02  0.11991187305E+02  0.58381738844E+02  0.41800000000E+01 0.  1.
         -5    1    3    3    0  502 -0.26008248622E+02  0.13338711231E+02 -0.12621178544E+03  0.12961958725E+03  0.41800000000E+01 0.  1.
        -11    1    1    2    0    0  0.39700401430E+02  0.29637066114E+02 -0.14309170718E+03  0.15142560624E+03  0.00000000000E+00 0.  1.
         11    1    1    2    0    0  0.41844416161E+02 -0.30214274120E+02 -0.29740925466E+02  0.59568281594E+02  0.00000000000E+00 0. -1.
</event>
<event>
 7    1  0.7017065E-006  0.1016690E+03  0.7561462E-02  0.1276825E+00
         -1   -1    0    0    0  501 -0.00000000000E+00  0.00000000000E+00  0.53177522858E+02  0.53177522858E+02  0.00000000000E+00 0.  1.
          1   -1    0    0  501    0  0.00000000000E+00 -0.00000000000E+00 -0.21313298936E+03  0.21313298936E+03  0.00000000000E+00 0. -1.
         23    2    1    2    0    0  0.16288677830E+02  0.17299596775E+02 -0.80242068724E+02  0.15050073788E+03  0.12508831055E+03 0.  0.
          5    1    3    3  502    0 -0.44538801972E+02  0.40176650332E+02 -0.52095532861E+02  0.79556803965E+02  0.41800000000E+01 0. -1.
         -5    1    3    3    0  502  0.60827479803E+02 -0.22877053556E+02 -0.28146535862E+02  0.70943933917E+02  0.41800000000E+01 0. -1.
        -11    1    1    2    0    0 -0.46218561539E+02 -0.10467968816E+02 -0.68144892570E+02  0.83002772154E+02  0.00000000000E+00 0. -1.
         11    1    1    2    0    0  0.29929883709E+02 -0.68316279592E+01 -0.11568505207E+02  0.32807002181E+02  0.00000000000E+00 0.  1.
</event>
<event>
 7    1  0.7017065E-006  0.1481528E+03  0.7561462E-02  0.1202761E+00
          1   -1    0    0  501    0  0.00000000000E+00  0.00000000000E+00  0.13153259755E+03  0.13153259755E+03  0.00000000000E+00 0. -1.
         -1   -1    0    0    0  501 -0.00000000000E+00 -0.00000000000E+00 -0.32233895762E+03  0.32233895762E+03  0.00000000000E+00 0.  1.
         23    2    1    2    0    0 -0.63702011214E+02 -0.54969269388E+02 -0.14763909805E+03  0.21100850120E+03  0.12509083698E+03 0.  0.
          5    1    3    3  502    0 -0.73181689617E+02 -0.86623615820E+02 -0.91661678951E+02  0.14587167751E+03  0.41800000000E+01 0. -1.
         -5    1    3    3    0  502  0.94796784030E+01  0.31654346432E+02 -0.55977419098E+02  0.65136823683E+02  0.41800000000E+01 0. -1.
        -11    1    1    2    0    0 -0.32576687503E+02  0.40796400042E+02  0.73993375843E+02  0.90557200121E+02  0.00000000000E+00 0. -1.
         11    1    1    2    0    0  0.96278698717E+02  0.14172869346E+02 -0.11716063787E+03  0.15230585385E+03  0.00000000000E+00 0.  1.
</event>
<event>
 7    1  0.7017065E-006  0.1106594E+03  0.7561462E-02  0.1259354E+00
          1   -1    0    0  501    0  0.00000000000E+00  0.00000000000E+00  0.29466258507E+03  0.29466258507E+03  0.00000000000E+00 0. -1.
         -1   -1    0    0    0  501 -0.00000000000E+00 -0.00000000000E+00 -0.67395238537E+02  0.67395238537E+02  0.00000000000E+00 0.  1.
         23    2    1    2    0    0  0.71367380295E+02 -0.35486756468E+02  0.73656345641E+02  0.16560306297E+03  0.12508598785E+03 0.  0.
          5    1    3    3  502    0 -0.15089537309E+02 -0.16261888693E+02 -0.24509441730E+02  0.33321589007E+02  0.41800000000E+01 0.  1.
         -5    1    3    3    0  502  0.86456917604E+02 -0.19224867776E+02  0.98165787371E+02  0.13228147396E+03  0.41800000000E+01 0.  1.
        -11    1    1    2    0    0 -0.50467814616E+02 -0.17262414577E+02  0.31852868251E+02  0.62125650781E+02  0.00000000000E+00 0.  1.
         11    1    1    2    0    0 -0.20899565679E+02  0.52749171045E+02  0.12175813264E+03  0.13432910986E+03  0.00000000000E+00 0. -1.
</event>
<event>
 7    1  0.7017065E-006  0.2692817E+03  0.7561462E-02  0.1101691E+00
          1   -1    0    0  501    0  0.00000000000E+00  0.00000000000E+00  0.43967539210E+03  0.43967539210E+03  0.00000000000E+00 0. -1.
         -1   -1    0    0    0  501 -0.00000000000E+00 -0.00000000000E+00 -0.18728847094E+03  0.18728847094E+03  0.00000000000E+00 0.  1.
         23    2    1    2    0    0  0.14972855322E+03 -0.21331336188E+03  0.76648763699E+02  0.29906977958E+03  0.12508585082E+03 0.  0.
          5    1    3    3  502    0  0.41175084622E+01 -0.13086729569E+02 -0.27054093572E+02  0.30620462860E+02  0.41800000000E+01 0. -1.
         -5    1    3    3    0  502  0.14561104475E+03 -0.20022663231E+03  0.10370285727E+03  0.26844931672E+03  0.41800000000E+01 0. -1.
        -11    1    1    2    0    0 -0.71121741615E+02  0.30065706247E+02  0.54856989269E+02  0.94718203605E+02  0.00000000000E+00 0. -1.
         11    1    1    2    0    0 -0.78606811601E+02  0.18324765563E+03  0.12088116820E+03  0.23317587986E+03  0.00000000000E+00 0.  1.
</event>
<event>
 7    1  0.7017065E-006  0.1737174E+03  0.7561462E-02  0.1174026E+00
         -1   -1    0    0    0  501 -0.00000000000E+00  0.00000000000E+00  0.49046209143E+02  0.49046209143E+02  0.00000000000E+00 0.  1.
          1   -1    0    0  501    0  0.00000000000E+00 -0.00000000000E+00 -0.71575107536E+03  0.71575107536E+03  0.00000000000E+00 0. -1.
         23    2    1    2    0    0 -0.14924066174E+03  0.14709019522E+01 -0.33606476464E+03  0.38841074948E+03  0.12509374730E+03 0.  0.
          5    1    3    3  502    0 -0.49553456958E+02 -0.45463870537E+02 -0.56659501285E+02  0.88035675192E+02  0.41800000000E+01 0. -1.
         -5    1    3    3    0  502 -0.99687204782E+02  0.46934772489E+02 -0.27940526335E+03  0.30037507429E+03  0.41800000000E+01 0. -1.
        -11    1    1    2    0    0  0.79621729293E+02 -0.41185016916E+02 -0.23550654253E+03  0.25199039062E+03  0.00000000000E+00 0.  1.
         11    1    1    2    0    0  0.69618932446E+02  0.39714114964E+02 -0.95133559049E+02  0.12439614439E+03  0.00000000000E+00 0. -1.
</event>
<event>
 7    1  0.7017065E-006  0.1405343E+03  0.7561462E-02  0.1212612E+00
          2   -1    0    0  501    0  0.00000000000E+00  0.00000000000E+00  0.41753518760E+03  0.41753518760E+03  0.00000000000E+00 0. -1.
         -2   -1    0    0    0  501 -0.00000000000E+00 -0.00000000000E+00 -0.52371284674E+02  0.52371284674E+02  0.00000000000E+00 0.  1.
         23    2    1    2    0    0  0.52238242863E+02 -0.84378139845E+02  0.16990111094E+03  0.23315877032E+03  0.12509244652E+03 0.  0.
          5    1    3    3  502    0 -0.33640794963E+02 -0.31377326524E+02  0.10050709135E+03  0.11061368594E+03  0.41800000000E+01 0.  1.
         -5    1    3    3    0  502  0.85879037826E+02 -0.53000813321E+02  0.69394019595E+02  0.12254508438E+03  0.41800000000E+01 0.  1.
        -11    1    1    2    0    0  0.19415701308E+02  0.51495116608E+02  0.80191932838E+02  0.97259768579E+02  0.00000000000E+00 0. -1.
         11    1    1    2    0    0 -0.71653944171E+02  0.32883023236E+02  0.11507085914E+03  0.13948793337E+03  0.00000000000E+00 0.  1.
</event>
<event>
 7    1  0.7017065E-006  0.8521760E+02  0.7561462E-02  0.1314864E+00
          1   -1    0    0  501    0  0.00000000000E+00  0.00000000000E+00  0.14489695054E+03  0.14489695054E+03  0.00000000000E+00 0. -1.
         -1   -1    0    0    0  501 -0.00000000000E+00 -0.00000000000E+00 -0.90480354189E+02  0.90480354189E+02  0.00000000000E+00 0.  1.
         23    2    1    2    0    0 -0.35475659930E+02 -0.30642815502E+02  0.21165635182E+02  0.13525075780E+03  0.12508908339E+03 0.  0.
          5    1    3    3  502    0  0.39531788400E+02 -0.24122951958E+02  0.35491032329E+02  0.58495853537E+02  0.41800000000E+01 0. -1.
         -5    1    3    3    0  502 -0.75007448330E+02 -0.65198635442E+01 -0.14325397147E+02  0.76754904267E+02  0.41800000000E+01 0. -1.
        -11    1    1    2    0    0  0.15738239675E+02  0.21836841691E+02  0.59985824456E+02  0.65748300197E+02  0.00000000000E+00 0. -1.
         11    1    1    2    0    0  0.19737420254E+02  0.88059738106E+01 -0.26734863287E+02  0.34378246727E+02  0.00000000000E+00 0.  1.
</event>
<event>
 7    1  0.7017065E-006  0.9922114E+02  0.7561462E-02  0.1281942E+00
         -1   -1    0    0    0  501 -0.00000000000E+00  0.00000000000E+00  0.28691934825E+03  0.28691934825E+03  0.00000000000E+00 0.  1.
          1   -1    0    0  501    0  0.00000000000E+00 -0.00000000000E+00 -0.40924079650E+02  0.40924079650E+02  0.00000000000E+00 0. -1.
         23    2    1    2    0    0  0.14626312478E+02 -0.76856784004E+01  0.15406871212E+03  0.19283681408E+03  0.11478619316E+03 0.  0.
          5    1    3    3  502    0 -0.13442002662E+02 -0.52630564078E+02  0.11374218590E+03  0.12611669582E+03  0.41800000000E+01 0. -1.
         -5    1    3    3    0  502  0.28068315140E+02  0.44944885678E+02  0.40326526214E+02  0.66720118254E+02  0.41800000000E+01 0.  1.
        -11    1    1    2    0    0 -0.10257250080E+02 -0.40828476437E+02  0.16492991438E+02  0.45212768484E+02  0.00000000000E+00 0. -1.
         11    1    1    2    0    0 -0.43690623983E+01  0.48514154838E+02  0.75433565045E+02  0.89793845342E+02  0.00000000000E+00 0.  1.
</event>
<event>
 7    1  0.7017065E-006  0.9729415E+02  0.7561462E-02  0.1286091E+00
          2   -1    0    0  501    0  0.00000000000E+00  0.00000000000E+00  0.51155823942E+03  0.51155823942E+03  0.00000000000E+00 0. -1.
         -2   -1    0    0    0  501 -0.00000000000E+00 -0.00000000000E+00 -0.42700415934E+02  0.42700415934E+02  0.00000000000E+00 0.  1.
         23    2    1    2    0    0 -0.50535525067E+02  0.81327783150E+02  0.20365535682E+03  0.25747053156E+03  0.12509005817E+03 0.  0.
          5    1    3    3  502    0 -0.17068955639E+02  0.45426475626E+02  0.79317153132E+00  0.48713606472E+02  0.41800000000E+01 0.  1.
         -5    1    3    3    0  502 -0.33466569428E+02  0.35901307524E+02  0.20286218529E+03  0.20875692509E+03  0.41800000000E+01 0.  1.
        -11    1    1    2    0    0  0.19590924842E+02 -0.20379699925E+02  0.62307415842E+01  0.28947515367E+02  0.00000000000E+00 0.  1.
         11    1    1    2    0    0  0.30944600225E+02 -0.60948083225E+02  0.25897172509E+03  0.26784060843E+03  0.00000000000E+00 0. -1.
</event>
<event>
 7    1  0.7017065E-006  0.6356705E+02  0.7561462E-02  0.1383444E+00
          2   -1    0    0  501    0  0.00000000000E+00  0.00000000000E+00  0.92678443707E+02  0.92678443707E+02  0.00000000000E+00 0. -1.
         -2   -1    0    0    0  501 -0.00000000000E+00 -0.00000000000E+00 -0.15908402168E+03  0.15908402168E+03  0.00000000000E+00 0.  1.
         23    2    1    2    0    0  0.32080128354E+02  0.22608209003E+02 -0.65191934256E+02  0.14641932621E+03  0.12509342528E+03 0.  0.
          5    1    3    3  502    0  0.47991196571E+02  0.67146772890E+01  0.24073179947E+02  0.54269993847E+02  0.41800000000E+01 0.  1.
         -5    1    3    3    0  502 -0.15911068217E+02  0.15893531714E+02 -0.89265114202E+02  0.92149332367E+02  0.41800000000E+01 0.  1.
        -11    1    1    2    0    0 -0.19588162460E+02 -0.33658217315E+02  0.43044709336E+02  0.58046694163E+02  0.00000000000E+00 0. -1.
         11    1    1    2    0    0 -0.12491965894E+02  0.11050008312E+02 -0.44258353049E+02  0.47296445006E+02  0.00000000000E+00 0.  1.
</event>
<event>
 7    1  0.7017065E-006  0.1157548E+03  0.7561462E-02  0.1250269E+00
          4   -1    0    0  501    0  0.00000000000E+00  0.00000000000E+00  0.22380868817E+03  0.22380868817E+03  0.00000000000E+00 0. -1.
         -4   -1    0    0    0  501 -0.00000000000E+00 -0.00000000000E+00 -0.64767485254E+02  0.64767485254E+02  0.00000000000E+00 0.  1.
         23    2    1    2    0    0 -0.47118541962E+02  0.22399830264E+02  0.80771814436E+02  0.15778001108E+03  0.12509411056E+03 0.  0.
          5    1    3    3  502    0 -0.71162436448E+02 -0.29799885306E+02  0.38565122402E+02  0.86353150443E+02  0.41800000000E+01 0. -1.
         -5    1    3    3    0  502  0.24043894486E+02  0.52199715571E+02  0.42206692034E+02  0.71426860635E+02  0.41800000000E+01 0. -1.
        -11    1    1    2    0    0  0.62022313468E+02  0.82244178880E+01  0.24590553527E+02  0.67224279395E+02  0.00000000000E+00 0.  1.
         11    1    1    2    0    0 -0.14903771505E+02 -0.30624248152E+02  0.53678834958E+02  0.63571882955E+02  0.00000000000E+00 0. -1.
</event>
<event>
 7    1  0.7017065E-006  0.1078779E+03  0.7561462E-02  0.1264551E+00
          2   -1    0    0  501    0  0.00000000000E+00  0.00000000000E+00  0.23085994364E+03  0.23085994364E+03  0.00000000000E+00 0. -1.
         -2   -1    0    0    0  501 -0.00000000000E+00 -0.00000000000E+00 -0.55099665602E+02  0.55099665602E+02  0.00000000000E+00 0.  1.
         23    2    1    2    0    0 -0.26498497207E+01  0.30011120447E+02  0.87567829683E+02  0.15563687687E+03  0.12508806335E+03 0.  0.
          5    1    3    3  502    0  0.40183123880E+02  0.61924885641E+02  0.40405522920E+02  0.84258255316E+02  0.41800000000E+01 0. -1.
         -5    1    3    3    0  502 -0.42832973601E+02 -0.31913765194E+02  0.47162306762E+02  0.71378621558E+02  0.41800000000E+01 0. -1.
        -11    1    1    2    0    0  0.22777826372E+02 -0.52998095215E+02  0.80109941631E+02  0.98717932610E+02  0.00000000000E+00 0.  1.
         11    1    1    2    0    0 -0.20127976651E+02  0.22986974768E+02  0.80825067288E+01  0.31604799763E+02  0.00000000000E+00 0. -1.
</event>
<event>
 7    1  0.7017065E-006  0.1686058E+03  0.7561462E-02  0.1179310E+00
         -1   -1    0    0    0  501 -0.00000000000E+00  0.00000000000E+00  0.49162901213E+03  0.49162901213E+03  0.00000000000E+00 0.  1.
          1   -1    0    0  501    0  0.00000000000E+00 -0.00000000000E+00 -0.98898643911E+02  0.98898643911E+02  0.00000000000E+00 0. -1.
         23    2    1    2    0    0 -0.14487690325E+03 -0.15281514526E+02  0.37369827399E+03  0.42014374012E+03  0.12509004995E+03 0.  0.
          5    1    3    3  502    0  0.11153375559E+02  0.27255521127E+02  0.47770176397E+02  0.56273647219E+02  0.41800000000E+01 0.  1.
         -5    1    3    3    0  502 -0.15603027880E+03 -0.42537035653E+02  0.32592809759E+03  0.36387009290E+03  0.41800000000E+01 0.  1.
        -11    1    1    2    0    0  0.12647110958E+03  0.13845268732E+02  0.48044187776E+02  0.13599587128E+03  0.00000000000E+00 0.  1.
         11    1    1    2    0    0  0.18405793665E+02  0.14362457937E+01 -0.29012093550E+02  0.34388044646E+02  0.00000000000E+00 0. -1.
</event>
<event>
 7    1  0.7017065E-006  0.1238809E+03  0.7561462E-02  0.1236829E+00
          1   -1    0    0  501    0  0.00000000000E+00  0.00000000000E+00  0.66772322336E+02  0.66772322336E+02  0.00000000000E+00 0. -1.
         -1   -1    0    0    0  501 -0.00000000000E+00 -0.00000000000E+00 -0.39120432610E+03  0.39120432610E+03  0.00000000000E+00 0.  1.
         23    2    1    2    0    0  0.11046742000E+03 -0.46470468404E+02 -0.16849761693E+03  0.24166431881E+03  0.12509053026E+03 0.  0.
          5    1    3    3  502    0  0.45584025314E+02 -0.42972233977E+02 -0.16490542941E+03  0.17645336297E+03  0.41800000000E+01 0. -1.
         -5    1    3    3    0  502  0.64883394687E+02 -0.34982344269E+01 -0.35921875270E+01  0.65210955840E+02  0.41800000000E+01 0. -1.
        -11    1    1    2    0    0 -0.59423544347E+02  0.26199959666E+02 -0.14695001100E+03  0.16066082672E+03  0.00000000000E+00 0.  1.
         11    1    1    2    0    0 -0.51043875655E+02  0.20270508737E+02 -0.89843758287E+01  0.55651502903E+02  0.00000000000E+00 0. -1.
</event>
<event>
 7    1  0.7017065E-006  0.1724460E+03  0.7561462E-02  0.1175321E+00
         -1   -1    0    0    0  501 -0.00000000000E+00  0.00000000000E+00  0.86133012616E+02  0.86133012616E+02  0.00000000000E+00 0.  1.
          1   -1    0    0  501    0  0.00000000000E+00 -0.00000000000E+00 -0.38525284996E+03  0.38525284996E+03  0.00000000000E+00 0. -1.
         23    2    1    2    0    0 -0.12456467516E+03  0.75880701439E+02 -0.14867019405E+03  0.24295093683E+03  0.12509233375E+03 0.  0.
          5    1    3    3  502    0  0.15276204201E+02  0.45579985894E+01  0.10350779533E+02  0.19461469699E+02  0.41800000000E+01 0.  1.
         -5    1    3    3    0  502 -0.13984087936E+03  0.71322702849E+02 -0.15902097358E+03  0.22348946713E+03  0.41800000000E+01 0.  1.
        -11    1    1    2    0    0  0.10079664467E+03 -0.99427350015E+01 -0.97539382858E+02  0.14061562062E+03  0.00000000000E+00 0.  1.
         11    1    1    2    0    0  0.23768030494E+02 -0.65937966437E+02 -0.52910260435E+02  0.87819305114E+02  0.00000000000E+00 0. -1.
</event>
<event>
 7    1  0.7017065E-006  0.3073621E+03  0.7561462E-02  0.1081617E+00
         -2   -1    0    0    0  501 -0.00000000000E+00  0.00000000000E+00  0.14730505670E+03  0.14730505670E+03  0.00000000000E+00 0.  1.
          2   -1    0    0  501    0  0.00000000000E+00 -0.00000000000E+00 -0.72076716209E+03  0.72076716209E+03  0.00000000000E+00 0. -1.
         23    2    1    2    0    0  0.22993818582E+03 -0.18094200467E+03 -0.17231935798E+03  0.36187493571E+03  0.12509168480E+03 0.  0.
          5    1    3    3  502    0  0.24447215675E+03 -0.17832493610E+03 -0.16088465608E+03  0.34273570462E+03  0.41800000000E+01 0. -1.
         -5    1    3    3    0  502 -0.14533970934E+02 -0.26170685763E+01 -0.11434701901E+02  0.19139231087E+02  0.41800000000E+01 0. -1.
        -11    1    1    2    0    0 -0.64846008719E+02  0.24539234369E+02 -0.16186622730E+03  0.17609047224E+03  0.00000000000E+00 0. -1.
         11    1    1    2    0    0 -0.16509217710E+03  0.15640277031E+03 -0.23927652010E+03  0.33010681085E+03  0.00000000000E+00 0.  1.
</event>
<event>
 7    1  0.7017065E-006  0.1187752E+03  0.7561462E-02  0.1245131E+00
          1   -1    0    0  501    0  0.00000000000E+00  0.00000000000E+00  0.51764555257E+03  0.51764555257E+03  0.00000000000E+00 0. -1.
         -1   -1    0    0    0  501 -0.00000000000E+00 -0.00000000000E+00 -0.37037282644E+02  0.37037282644E+02  0.00000000000E+00 0.  1.
         23    2    1    2    0    0  0.67926499590E+02 -0.33618467466E+02  0.17846983990E+03  0.23074290610E+03  0.12508634722E+03 0.  0.
          5    1    3    3  502    0  0.84764568300E+02  0.40880734989E+01  0.56838076882E+02  0.10222418387E+03  0.41800000000E+01 0.  1.
         -5    1    3    3    0  502 -0.16838068711E+02 -0.37706540964E+02  0.12163176302E+03  0.12851872223E+03  0.41800000000E+01 0.  1.
        -11    1    1    2    0    0 -0.60091739086E+01  0.47289217210E+02  0.81978131610E+02  0.94830344815E+02  0.00000000000E+00 0. -1.
         11    1    1    2    0    0 -0.61917325681E+02 -0.13670749744E+02  0.22016029842E+03  0.22910958430E+03  0.00000000000E+00 0.  1.
</event>
<event>
 7    1  0.7017065E-006  0.1305323E+03  0.7561462E-02  0.1226668E+00
          2   -1    0    0  501    0  0.00000000000E+00  0.00000000000E+00  0.58233664243E+03  0.58233664243E+03  0.00000000000E+00 0. -1.
         -2   -1    0    0    0  501 -0.00000000000E+00 -0.00000000000E+00 -0.33568339444E+02  0.33568339444E+02  0.00000000000E+00 0.  1.
         23    2    1    2    0    0  0.53479106200E+02  0.63257473062E+02  0.23351843778E+03  0.27755956581E+03  0.12508768561E+03 0.  0.
          5    1    3    3  502    0  0.22150588893E+02 -0.34792241441E+02  0.10473900369E+03  0.11264492864E+03  0.41800000000E+01 0.  1.
         -5    1    3    3    0  502  0.31328517306E+02  0.98049714503E+02  0.12877943409E+03  0.16491463718E+03  0.41800000000E+01 0.  1.
        -11    1    1    2    0    0 -0.72836629254E+02 -0.64365233463E+02  0.21106159915E+03  0.23236836376E+03  0.00000000000E+00 0.  1.
         11    1    1    2    0    0  0.19357523054E+02  0.11077604015E+01  0.10418826604E+03  0.10597705230E+03  0.00000000000E+00 0. -1.
</event>
<event>
 7    1  0.7017065E-006  0.1187450E+03  0.7561462E-02  0.1245182E+00
         -1   -1    0    0    0  501 -0.00000000000E+00  0.00000000000E+00  0.10551986924E+03  0.10551986924E+03  0.00000000000E+00 0.  1.
          1   -1    0    0  501    0  0.00000000000E+00 -0.00000000000E+00 -0.15744442167E+03  0.15744442167E+03  0.00000000000E+00 0. -1.
         23    2    1    2    0    0  0.46337113786E+02  0.52410812046E+02  0.75227850789E+01  0.13278869019E+03  0.11261537468E+03 0.  0.
          5    1    3    3  502    0 -0.34004152762E+02  0.18200118494E+02 -0.16452614519E+02  0.42138908894E+02  0.41800000000E+01 0. -1.
         -5    1    3    3    0  502  0.80341266548E+02  0.34210693552E+02  0.23975399598E+02  0.90649781300E+02  0.41800000000E+01 0.  1.
        -11    1    1    2    0    0  0.24688240374E+02 -0.32651952777E+01  0.72063872683E+00  0.24913651542E+02  0.00000000000E+00 0.  1.
         11    1    1    2    0    0 -0.71025354160E+02 -0.49145616768E+02 -0.60167976232E+02  0.10526194918E+03  0.00000000000E+00 0. -1.
</event>
<event>
 7    1  0.7017065E-006  0.1130126E+03  0.7561462E-02  0.1255091E+00
          2   -1    0    0  501    0  0.00000000000E+00  0.00000000000E+00  0.21026628158E+03  0.21026628158E+03  0.00000000000E+00 0. -1.
         -2   -1    0    0    0  501 -0.00000000000E+00 -0.00000000000E+00 -0.64588862640E+02  0.64588862640E+02  0.00000000000E+00 0.  1.
         23    2    1    2    0    0  0.94861388937E+01  0.46330402696E+02  0.50351617730E+02  0.13548027946E+03  0.11654667592E+03 0.  0.
          5    1    3    3  502    0  0.35044179750E+02 -0.28955363472E+02  0.24271993882E+02  0.51702124668E+02  0.41800000000E+01 0. -1.
         -5    1    3    3    0  502 -0.25558040856E+02  0.75285766168E+02  0.26079623847E+02  0.83778154789E+02  0.41800000000E+01 0.  1.
        -11    1    1    2    0    0 -0.10798838269E+02  0.26136918498E+02  0.18714332722E+02  0.33911350102E+02  0.00000000000E+00 0.  1.
         11    1    1    2    0    0  0.13126993753E+01 -0.72467321194E+02  0.76611468488E+02  0.10546351466E+03  0.00000000000E+00 0. -1.
</event>
<event>
 7    1  0.7017065E-006  0.1869786E+03  0.7561462E-02  0.1161215E+00
          1   -1    0    0  501    0  0.00000000000E+00  0.00000000000E+00  0.13531931400E+03  0.13531931400E+03  0.00000000000E+00 0.  1.
         -1   -1    0    0    0  501 -0.00000000000E+00 -0.00000000000E+00 -0.30183583533E+03  0.30183583533E+03  0.00000000000E+00 0. -1.
         23    2    1    2    0    0 -0.27580366548E+01 -0.16761129356E+03 -0.13764177036E+03  0.25038867507E+03  0.12509228258E+03 0.  0.
          5    1    3    3  502    0 -0.38650055399E+02 -0.13960703883E+03 -0.14392313128E+03  0.20424321822E+03  0.41800000000E+01 0.  1.
         -5    1    3    3    0  502  0.35892018744E+02 -0.28004254726E+02  0.62813609220E+01  0.46145456844E+02  0.41800000000E+01 0.  1.
        -11    1    1    2    0    0  0.37726922505E+02  0.10551717917E+03 -0.27971291679E+02  0.11549713823E+03  0.00000000000E+00 0.  1.
         11    1    1    2    0    0 -0.34968885850E+02  0.62094114385E+02 -0.90345929320E+00  0.71269336025E+02  0.00000000000E+00 0. -1.
</event>
<event>
 7    1  0.7017065E-006  0.1339034E+03  0.7561462E-02  0.1221776E+00
         -2   -1    0    0    0  501 -0.00000000000E+00  0.00000000000E+00  0.89045807557E+02  0.89045807557E+02  0.00000000000E+00 0.  1.
          2   -1    0    0  501    0  0.00000000000E+00 -0.00000000000E+00 -0.27625807348E+03  0.27625807348E+03  0.00000000000E+00 0. -1.
         23    2    1    2    0    0  0.68784192010E+02  0.81022541633E+02 -0.57521849841E+02  0.17392854075E+03  0.12508579758E+03 0.  0.
          5    1    3    3  502    0  0.33232980322E+02 -0.13227306616E+02 -0.63426815907E+02  0.72937137300E+02  0.41800000000E+01 0.  1.
         -5    1    3    3    0  502  0.35551211688E+02  0.94249848249E+02  0.59049660658E+01  0.10099140345E+03  0.41800000000E+01 0.  1.
        -11    1    1    2    0    0 -0.82510684736E+02 -0.48581181113E+02 -0.12240104969E+03  0.15540322139E+03  0.00000000000E+00 0. -1.
         11    1    1    2    0    0  0.13726492726E+02 -0.32441360519E+02 -0.72893663868E+01  0.35972118887E+02  0.00000000000E+00 0.  1.
</event>
<event>
 7    1  0.7017065E-006  0.2021894E+03  0.7561462E-02  0.1147905E+00
         -1   -1    0    0    0  501 -0.00000000000E+00  0.00000000000E+00  0.26253412284E+02  0.26253412284E+02  0.00000000000E+00 0.  1.
          1   -1    0    0  501    0  0.00000000000E+00 -0.00000000000E+00 -0.16696564524E+04  0.16696564524E+04  0.00000000000E+00 0. -1.
         23    2    1    2    0    0  0.14772239029E+03 -0.11025913256E+03 -0.90535771200E+03  0.93236216175E+03  0.12509049954E+03 0.  0.
          5    1    3    3  502    0  0.12495399640E+03 -0.13040668427E+03 -0.85077053096E+03  0.86973983080E+03  0.41800000000E+01 0. -1.
         -5    1    3    3    0  502  0.22768393891E+02  0.20147551710E+02 -0.54587181041E+02  0.62622330955E+02  0.41800000000E+01 0. -1.
        -11    1    1    2    0    0 -0.11866649717E+03  0.55415073839E+02 -0.43852303622E+03  0.45766256266E+03  0.00000000000E+00 0.  1.
         11    1    1    2    0    0 -0.29055893120E+02  0.54844058720E+02 -0.29952229188E+03  0.30588514026E+03  0.00000000000E+00 0. -1.
</event>
<event>
 7    1  0.7017065E-006  0.7267830E+02  0.7561462E-02  0.1351215E+00
         -2   -1    0    0    0  501 -0.00000000000E+00  0.00000000000E+00  0.99016139725E+02  0.99016139725E+02  0.00000000000E+00 0.  1.
          2   -1    0    0  501    0  0.00000000000E+00 -0.00000000000E+00 -0.12125591186E+03  0.12125591186E+03  0.00000000000E+00 0. -1.
         23    2    1    2    0    0  0.14923673570E+02 -0.23722084053E+02  0.58672815731E+02  0.13444282723E+03  0.11767294159E+03 0.  0.
          5    1    3    3  502    0  0.46367984201E+02 -0.55296954196E+02  0.52328568039E+02  0.89238414011E+02  0.41800000000E+01 0. -1.
         -5    1    3    3    0  502 -0.31444310631E+02  0.31574870143E+02  0.63442476917E+01  0.45204413218E+02  0.41800000000E+01 0.  1.
        -11    1    1    2    0    0 -0.98362730894E+01  0.11868246334E+02 -0.37613439842E+02  0.40649457512E+02  0.00000000000E+00 0.  1.
         11    1    1    2    0    0 -0.50874004804E+01  0.11853837719E+02 -0.43299148020E+02  0.45179766839E+02  0.00000000000E+00 0. -1.
</event>
<event>
 7    1  0.7017065E-006  0.1325402E+03  0.7561462E-02  0.1223735E+00
         -2   -1    0    0    0  501 -0.00000000000E+00  0.00000000000E+00  0.88391270954E+02  0.88391270954E+02  0.00000000000E+00 0.  1.
          2   -1    0    0  501    0  0.00000000000E+00 -0.00000000000E+00 -0.24261569537E+03  0.24261569537E+03  0.00000000000E+00 0. -1.
         23    2    1    2    0    0 -0.66208461845E+02  0.55250910900E+02 -0.28920040894E+02  0.15466043586E+03  0.12508900063E+03 0.  0.
          5    1    3    3  502    0 -0.93376597513E+02  0.63523894878E+02  0.12447177386E+01  0.11301989164E+03  0.41800000000E+01 0. -1.
         -5    1    3    3    0  502  0.27168135668E+02 -0.82729839786E+01 -0.30164758633E+02  0.41640544220E+02  0.41800000000E+01 0. -1.
        -11    1    1    2    0    0  0.35874819610E+01  0.22921216995E+02 -0.16565172213E+02  0.28507142013E+02  0.00000000000E+00 0.  1.
         11    1    1    2    0    0  0.62620979884E+02 -0.78172127895E+02 -0.10873921131E+03  0.14783938845E+03  0.00000000000E+00 0. -1.
</event>
<event>
 7    1  0.7017065E-006  0.7915763E+02  0.7561462E-02  0.1331459E+00
         -2   -1    0    0    0  501 -0.00000000000E+00  0.00000000000E+00  0.26636033298E+03  0.26636033298E+03  0.00000000000E+00 0.  1.
          2   -1    0    0  501    0  0.00000000000E+00 -0.00000000000E+00 -0.59004163075E+02  0.59004163075E+02  0.00000000000E+00 0. -1.
         23    2    1    2    0    0  0.12986481169E+02 -0.45596010112E+02  0.15914095727E+03  0.20789519631E+03  0.12508766342E+03 0.  0.
          5    1    3    3  502    0  0.38093865642E+00  0.20051982930E+02 -0.12258455872E+02  0.23874029280E+02  0.41800000000E+01 0.  1.
         -5    1    3    3    0  502  0.12605542512E+02 -0.65647993042E+02  0.17139941314E+03  0.18402116703E+03  0.41800000000E+01 0.  1.
        -11    1    1    2    0    0 -0.31933361372E+02  0.16020085813E+02 -0.19853654471E+02  0.40872366139E+02  0.00000000000E+00 0. -1.
         11    1    1    2    0    0  0.18946880203E+02  0.29575924300E+02  0.68068867109E+02  0.76596933602E+02  0.00000000000E+00 0.  1.
</event>
<event>
 7    1  0.7017065E-006  0.1411874E+03  0.7561462E-02  0.1211740E+00
          2   -1    0    0  501    0  0.00000000000E+00  0.00000000000E+00  0.10919215547E+03  0.10919215547E+03  0.00000000000E+00 0. -1.
         -2   -1    0    0    0  501 -0.00000000000E+00 -0.00000000000E+00 -0.19425644098E+03  0.19425644098E+03  0.00000000000E+00 0.  1.
         23    2    1    2    0    0 -0.60872802508E+02 -0.70841749206E+02 -0.73056262821E+02  0.17236254628E+03  0.12509028063E+03 0.  0.
          5    1    3    3  502    0  0.36568665828E+02 -0.24631563655E+02 -0.45269839246E+01  0.44519065938E+02  0.41800000000E+01 0.  1.
         -5    1    3    3    0  502 -0.97441468336E+02 -0.46210185551E+02 -0.68529278897E+02  0.12784348034E+03  0.41800000000E+01 0.  1.
        -11    1    1    2    0    0  0.64337013776E+02  0.53284984193E+01 -0.10059367812E+01  0.64565131037E+02  0.00000000000E+00 0. -1.
         11    1    1    2    0    0 -0.34642112680E+01  0.65513250786E+02 -0.11002085911E+02  0.66520919136E+02  0.00000000000E+00 0.  1.
</event>
<event>
 7    1  0.7017065E-006  0.8826128E+02  0.7561462E-02  0.1307118E+00
          1   -1    0    0  501    0  0.00000000000E+00  0.00000000000E+00  0.44734900374E+02  0.44734900374E+02  0.00000000000E+00 0. -1.
         -1   -1    0    0    0  501 -0.00000000000E+00 -0.00000000000E+00 -0.27502235890E+03  0.27502235890E+03  0.00000000000E+00 0.  1.
         23    2    1    2    0    0 -0.17887313131E+02 -0.10586235289E+02 -0.16140904464E+03  0.20526445969E+03  0.12509434189E+03 0.  0.
          5    1    3    3  502    0  0.43493862704E+02 -0.28881460479E+02 -0.11403703594E+03  0.12549013036E+03  0.41800000000E+01 0.  1.
         -5    1    3    3    0  502 -0.61381175835E+02  0.18295225191E+02 -0.47372008701E+02  0.79774329330E+02  0.41800000000E+01 0.  1.
        -11    1    1    2    0    0  0.28836365963E+01 -0.22997187096E+02 -0.73826256627E+02  0.77378951543E+02  0.00000000000E+00 0.  1.
         11    1    1    2    0    0  0.15003676534E+02  0.33583422385E+02  0.49478427408E+01  0.37113848041E+02  0.00000000000E+00 0. -1.
</event>
<event>
 7    1  0.7017065E-006  0.1181910E+03  0.7561462E-02  0.1246112E+00
          1   -1    0    0  501    0  0.00000000000E+00  0.00000000000E+00  0.35682260065E+03  0.35682260065E+03  0.00000000000E+00 0. -1.
         -1   -1    0    0    0  501 -0.00000000000E+00 -0.00000000000E+00 -0.67544494631E+02  0.67544494631E+02  0.00000000000E+00 0.  1.
         23    2    1    2    0    0 -0.31527156643E+02 -0.72023242517E+02  0.48533922026E+02  0.15552481439E+03  0.12510442532E+03 0.  0.
          5    1    3    3  502    0  0.32833290219E+02 -0.57298145091E+02 -0.10330175588E+02  0.66972287590E+02  0.41800000000E+01 0. -1.
         -5    1    3    3    0  502 -0.64360446862E+02 -0.14725097427E+02  0.58864097613E+02  0.88552526798E+02  0.41800000000E+01 0. -1.
        -11    1    1    2    0    0  0.52884748490E+02  0.58077788248E+02  0.10727558661E+03  0.13295817987E+03  0.00000000000E+00 0.  1.
         11    1    1    2    0    0 -0.21357591847E+02  0.13945454270E+02  0.13346859738E+03  0.13588410103E+03  0.00000000000E+00 0. -1.
</event>
<event>
 7    1  0.7017065E-006  0.1067550E+03  0.7561462E-02  0.1266700E+00
         -2   -1    0    0    0  501 -0.00000000000E+00  0.00000000000E+00  0.51121001048E+02  0.51121001048E+02  0.00000000000E+00 0.  1.
          2   -1    0    0  501    0  0.00000000000E+00 -0.00000000000E+00 -0.33980329241E+03  0.33980329241E+03  0.00000000000E+00 0. -1.
         23    2    1    2    0    0  0.71875934202E+02 -0.18301065002E+02 -0.15249152054E+03  0.21071900375E+03  0.12509099011E+03 0.  0.
          5    1    3    3  502    0 -0.24567898310E+02 -0.32186452142E+02 -0.78049984587E+02  0.88027392457E+02  0.41800000000E+01 0. -1.
         -5    1    3    3    0  502  0.96443832512E+02  0.13885387139E+02 -0.74441535952E+02  0.12269161129E+03  0.41800000000E+01 0. -1.
        -11    1    1    2    0    0 -0.52433865943E+02  0.73077854789E+01 -0.12344074782E+02  0.54360741428E+02  0.00000000000E+00 0.  1.
         11    1    1    2    0    0 -0.19442068260E+02  0.10993279524E+02 -0.12384669604E+03  0.12584454828E+03  0.00000000000E+00 0. -1.
</event>
<event>
 7    1  0.7017065E-006  0.1440063E+03  0.7561462E-02  0.1208038E+00
         -2   -1    0    0    0  501 -0.00000000000E+00  0.00000000000E+00  0.37103720745E+02  0.37103720745E+02  0.00000000000E+00 0. -1.
          2   -1    0    0  501    0  0.00000000000E+00 -0.00000000000E+00 -0.74099664215E+03  0.74099664215E+03  0.00000000000E+00 0.  1.
         23    2    1    2    0    0  0.79552849962E+02  0.94729436898E+02 -0.33485569244E+03  0.37825721539E+03  0.12509142290E+03 0.  0.
          5    1    3    3  502    0 -0.25070572029E+02  0.30792451716E+02 -0.30936651946E+02  0.50509974245E+02  0.41800000000E+01 0.  1.
         -5    1    3    3    0  502  0.10462342199E+03  0.63936985182E+02 -0.30391904049E+03  0.32774724114E+03  0.41800000000E+01 0.  1.
        -11    1    1    2    0    0 -0.57397667965E+02 -0.52854436877E+02 -0.32804120239E+03  0.33719299259E+03  0.00000000000E+00 0.  1.
         11    1    1    2    0    0 -0.22155181997E+02 -0.41875000022E+02 -0.40996026575E+02  0.62650154917E+02  0.00000000000E+00 0. -1.
</event>
<event>
 7    1  0.7017065E-006  0.1557519E+03  0.7561462E-02  0.1193578E+00
         -1   -1    0    0    0  501 -0.00000000000E+00  0.00000000000E+00  0.13286621503E+03  0.13286621503E+03  0.00000000000E+00 0.  1.
          1   -1    0    0  501    0  0.00000000000E+00 -0.00000000000E+00 -0.19312739580E+03  0.19312739580E+03  0.00000000000E+00 0. -1.
         23    2    1    2    0    0 -0.10902166656E+03  0.23549951028E+02  0.44517095892E+01  0.16765506435E+03  0.12509228159E+03 0.  0.
          5    1    3    3  502    0 -0.13670444108E+03  0.25655840939E+02  0.78464183666E+01  0.13937490831E+03  0.41800000000E+01 0. -1.
         -5    1    3    3    0  502  0.27682774527E+02 -0.21058899112E+01 -0.33947087774E+01  0.28280156038E+02  0.41800000000E+01 0. -1.
        -11    1    1    2    0    0  0.10429016507E+03  0.15063091058E+02 -0.51234903876E+02  0.11716804435E+03  0.00000000000E+00 0. -1.
         11    1    1    2    0    0  0.47315014854E+01 -0.38613042086E+02 -0.13477986483E+02  0.41170502123E+02  0.00000000000E+00 0.  1.
</event>
<event>
 7    1  0.7017065E-006  0.9747901E+02  0.7561462E-02  0.1285688E+00
          2   -1    0    0  501    0  0.00000000000E+00  0.00000000000E+00  0.32084032688E+03  0.32084032688E+03  0.00000000000E+00 0. -1.
         -2   -1    0    0    0  501 -0.00000000000E+00 -0.00000000000E+00 -0.39891774303E+02  0.39891774303E+02  0.00000000000E+00 0.  1.
         23    2    1    2    0    0  0.14814340764E+02 -0.29595267942E+02  0.16172071001E+03  0.20711795471E+03  0.12509562159E+03 0.  0.
          5    1    3    3  502    0  0.21666118956E+02  0.34850535305E+02  0.12688474900E+03  0.13342110946E+03  0.41800000000E+01 0.  1.
         -5    1    3    3    0  502 -0.68517781918E+01 -0.64445803247E+02  0.34835961014E+02  0.73696845254E+02  0.41800000000E+01 0.  1.
        -11    1    1    2    0    0 -0.16558223847E+02  0.57994990876E+02  0.10661165220E+03  0.12248933884E+03  0.00000000000E+00 0. -1.
         11    1    1    2    0    0  0.17438830832E+01 -0.28399722934E+02  0.12616190368E+02  0.31124807635E+02  0.00000000000E+00 0.  1.
</event>
<event>
 7    1  0.7017065E-006  0.6464149E+02  0.7561462E-02  0.1379325E+00
          2   -1    0    0  501    0  0.00000000000E+00  0.00000000000E+00  0.20504002769E+03  0.20504002769E+03  0.00000000000E+00 0. -1.
         -2   -1    0    0    0  501 -0.00000000000E+00 -0.00000000000E+00 -0.31907426509E+02  0.31907426509E+02  0.00000000000E+00 0.  1.
         23    2    1    2    0    0  0.29521103810E+02 -0.98868878452E+01  0.93287791476E+02  0.14944074437E+03  0.11251967791E+03 0.  0.
          5    1    3    3  502    0  0.53615638748E+02 -0.31694022004E+02  0.98147834125E+02  0.11631688395E+03  0.41800000000E+01 0. -1.
         -5    1    3    3    0  502 -0.24094534938E+02  0.21807134158E+02 -0.48600426497E+01  0.33123860413E+02  0.41800000000E+01 0.  1.
        -11    1    1    2    0    0 -0.10881352795E+02 -0.31736003133E+01  0.15120066130E+02  0.18896877450E+02  0.00000000000E+00 0. -1.
         11    1    1    2    0    0 -0.18639751015E+02  0.13060488158E+02  0.64724743575E+02  0.68609832384E+02  0.00000000000E+00 0.  1.
</event>
<event>
 6    1  0.7017065E-006  0.9615973E+02  0.7561462E-02  0.1288585E+00
          2   -1    0    0  501    0  0.00000000000E+00  0.00000000000E+00  0.39736163390E+02  0.39736163390E+02  0.00000000000E+00 0. -1.
         -2   -1    0    0    0  501 -0.00000000000E+00 -0.00000000000E+00 -0.57945867076E+03  0.57945867076E+03  0.00000000000E+00 0.  1.
          5    1    1    2  502    0 -0.20626714163E+02 -0.16010700097E+02  0.54667621943E+01  0.27002995087E+02  0.41800000000E+01 0. -1.
         -5    1    1    2    0  502 -0.57640159249E+02  0.17222009935E+02 -0.39551376957E+03  0.40008449096E+03  0.41800000000E+01 0.  1.
        -11    1    1    2    0    0 -0.10985931678E+02  0.10930946429E+02 -0.70493730019E+02  0.72177158829E+02  0.00000000000E+00 0.  1.
         11    1    1    2    0    0  0.89252805090E+02 -0.12142256268E+02 -0.79181769974E+02  0.11993018928E+03  0.00000000000E+00 0. -1.
</event>
<event>
 7    1  0.7017065E-006  0.1937331E+03  0.7561462E-02  0.1155137E+00
          2   -1    0    0  501    0  0.00000000000E+00  0.00000000000E+00  0.62440046243E+03  0.62440046243E+03  0.00000000000E+00 0. -1.
         -2   -1    0    0    0  501 -0.00000000000E+00 -0.00000000000E+00 -0.10347061591E+03  0.10347061591E+03  0.00000000000E+00 0.  1.
         23    2    1    2    0    0  0.39272335687E+02 -0.16238049420E+03  0.42500718203E+02  0.21298731275E+03  0.12509013990E+03 0.  0.
          5    1    3    3  502    0  0.14016605373E+02  0.17940831099E+02 -0.71227606919E+01  0.24218686310E+02  0.41800000000E+01 0. -1.
         -5    1    3    3    0  502  0.25255730314E+02 -0.18032132530E+03  0.49623478895E+02  0.18876862644E+03  0.41800000000E+01 0. -1.
        -11    1    1    2    0    0 -0.49307084031E+02  0.53151216206E+02  0.26734335829E+03  0.27699947932E+03  0.00000000000E+00 0. -1.
         11    1    1    2    0    0  0.10034748344E+02  0.10922927799E+03  0.21108577002E+03  0.23788428627E+03  0.00000000000E+00 0.  1.
</event>
<event>
 6    1  0.7017065E-006  0.1857880E+03  0.7561462E-02  0.1162316E+00
         -1   -1    0    0    0  501 -0.00000000000E+00  0.00000000000E+00  0.11995291645E+03  0.11995291645E+03  0.00000000000E+00 0.  1.
          1   -1    0    0  501    0  0.00000000000E+00 -0.00000000000E+00 -0.45233541480E+03  0.45233541480E+03  0.00000000000E+00 0. -1.
          5    1    1    2  502    0  0.12492220432E+03  0.57669962486E+02 -0.53281143411E+02  0.14760668802E+03  0.41800000000E+01 0. -1.
         -5    1    1    2    0  502 -0.13225648275E+03 -0.64028354665E+02 -0.17873743418E+02  0.14808224247E+03  0.41800000000E+01 0.  1.
        -11    1    1    2    0    0 -0.35081917102E+02  0.22343869492E+02 -0.84932433908E+02  0.94570120762E+02  0.00000000000E+00 0.  1.
         11    1    1    2    0    0  0.42416195532E+02 -0.15985477313E+02 -0.17629517761E+03  0.18202928000E+03  0.00000000000E+00 0. -1.
</event>
<event>
 7    1  0.7017065E-006  0.1140171E+03  0.7561462E-02  0.1253307E+00
         -1   -1    0    0    0  501 -0.00000000000E+00  0.00000000000E+00  0.13082046979E+03  0.13082046979E+03  0.00000000000E+00 0.  1.
          1   -1    0    0  501    0  0.00000000000E+00 -0.00000000000E+00 -0.18031645004E+03  0.18031645004E+03  0.00000000000E+00 0. -1.
         23    2    1    2    0    0  0.62206057472E+00  0.88884852921E+02  0.36167855168E+02  0.15765141308E+03  0.12507977558E+03 0.  0.
          5    1    3    3  502    0  0.26176855771E+02 -0.99086573102E+01  0.47088808333E+02  0.54938488676E+02  0.41800000000E+01 0.  1.
         -5    1    3    3    0  502 -0.25554795196E+02  0.98793510231E+02 -0.10920953166E+02  0.10271292440E+03  0.41800000000E+01 0.  1.
        -11    1    1    2    0    0 -0.17229861543E+02 -0.18478804143E+02  0.15108096882E+02  0.29437882443E+02  0.00000000000E+00 0.  1.
         11    1    1    2    0    0  0.16607800968E+02 -0.70406048778E+02 -0.10077193229E+03  0.12404762431E+03  0.00000000000E+00 0. -1.
</event>
<event>
 7    1  0.7017065E-006  0.1408786E+03  0.7561462E-02  0.1212152E+00
         -2   -1    0    0    0  501 -0.00000000000E+00  0.00000000000E+00  0.30005364994E+03  0.30005364994E+03  0.00000000000E+00 0. -1.
          2   -1    0    0  501    0  0.00000000000E+00 -0.00000000000E+00 -0.87870665511E+02  0.87870665511E+02  0.00000000000E+00 0.  1.
         23    2    1    2    0    0 -0.11876648691E+03  0.18054236565E+02  0.12108074499E+03  0.21151603731E+03  0.12508818233E+03 0.  0.
          5    1    3    3  502    0 -0.10776106023E+03  0.56239046110E+02  0.53208693791E+02  0.13275508994E+03  0.41800000000E+01 0.  1.
         -5    1    3    3    0  502 -0.11005426680E+02 -0.38184809546E+02  0.67872051200E+02  0.78760947369E+02  0.41800000000E+01 0.  1.
        -11    1    1    2    0    0  0.37893844539E+02 -0.72698151025E+01  0.86470186177E+02  0.94688366567E+02  0.00000000000E+00 0. -1.
         11    1    1    2    0    0  0.80872642372E+02 -0.10784421462E+02  0.46320532605E+01  0.81719911576E+02  0.00000000000E+00 0.  1.
</event>
<event>
 7    1  0.7017065E-006  0.1064547E+03  0.7561462E-02  0.1267280E+00
         -1   -1    0    0    0  501 -0.00000000000E+00  0.00000000000E+00  0.58749160097E+02  0.58749160097E+02  0.00000000000E+00 0.  1.
          1   -1    0    0  501    0  0.00000000000E+00 -0.00000000000E+00 -0.20933299637E+03  0.20933299637E+03  0.00000000000E+00 0. -1.
         23    2    1    2    0    0  0.97171584793E+00  0.92074309892E+01 -0.67841359944E+02  0.14260350618E+03  0.12509032272E+03 0.  0.
          5    1    3    3  502    0  0.62789298275E+02  0.10343882504E+01 -0.33902084580E+02  0.71486989556E+02  0.41800000000E+01 0.  1.
         -5    1    3    3    0  502 -0.61817582427E+02  0.81730427389E+01 -0.33939275364E+02  0.71116516626E+02  0.41800000000E+01 0.  1.
        -11    1    1    2    0    0 -0.71182174874E+00 -0.48339210000E+02 -0.68485363413E+02  0.83829773443E+02  0.00000000000E+00 0. -1.
         11    1    1    2    0    0 -0.25989409918E+00  0.39131779011E+02 -0.14257112915E+02  0.41648876842E+02  0.00000000000E+00 0.  1.
</event>
<event>
 7    1  0.7017065E-006  0.1122509E+03  0.7561462E-02  0.1256457E+00
          2   -1    0    0  501    0  0.00000000000E+00  0.00000000000E+00  0.99459325551E+02  0.99459325551E+02  0.00000000000E+00 0. -1.
         -2   -1    0    0    0  501 -0.00000000000E+00 -0.00000000000E+00 -0.16455871123E+03  0.16455871123E+03  0.00000000000E+00 0.  1.
         23    2    1    2    0    0  0.45844438753E+02 -0.20402892893E+02 -0.79788547694E+02  0.15662623098E+03  0.12509026055E+03 0.  0.
          5    1    3    3  502    0 -0.31293303028E+02 -0.31335642144E+02  0.75715975157E+00  0.44488638705E+02  0.41800000000E+01 0.  1.
         -5    1    3    3    0  502  0.77137741781E+02  0.10932749251E+02 -0.80545707446E+02  0.11213759228E+03  0.41800000000E+01 0.  1.
        -11    1    1    2    0    0  0.85090771370E+01  0.42486671306E+02 -0.87663648388E+01  0.44208266024E+02  0.00000000000E+00 0.  1.
         11    1    1    2    0    0 -0.54353515890E+02 -0.22083778413E+02  0.23455526855E+02  0.63183539776E+02  0.00000000000E+00 0. -1.
</event>
<event>
 7    1  0.7017065E-006  0.1016753E+03  0.7561462E-02  0.1276812E+00
         -1   -1    0    0    0  501 -0.00000000000E+00  0.00000000000E+00  0.34699283773E+02  0.34699283773E+02  0.00000000000E+00 0.  1.
          1   -1    0    0  501    0  0.00000000000E+00 -0.00000000000E+00 -0.39657545977E+03  0.39657545977E+03  0.00000000000E+00 0. -1.
         23    2    1    2    0    0  0.13432939533E+02 -0.36266086760E+02 -0.15772583422E+03  0.20499007797E+03  0.12509124819E+03 0.  0.
          5    1    3    3  502    0 -0.42711617199E+02 -0.26367558802E+02 -0.17103820474E+02  0.53193453317E+02  0.41800000000E+01 0. -1.
         -5    1    3    3    0  502  0.56144556733E+02 -0.98985279579E+01 -0.14062201375E+03  0.15179662465E+03  0.41800000000E+01 0. -1.
        -11    1    1    2    0    0  0.31100596038E+02  0.40523052982E+02 -0.13011147641E+03  0.13977968804E+03  0.00000000000E+00 0.  1.
         11    1    1    2    0    0 -0.44533535571E+02 -0.42569662218E+01 -0.74038865372E+02  0.86504977530E+02  0.00000000000E+00 0. -1.
</event>
<event>
 7    1  0.7017065E-006  0.1193487E+03  0.7561462E-02  0.1244175E+00
          1   -1    0    0  501    0  0.00000000000E+00  0.00000000000E+00  0.15216621874E+03  0.15216621874E+03  0.00000000000E+00 0. -1.
         -1   -1    0    0    0  501 -0.00000000000E+00 -0.00000000000E+00 -0.15206705817E+03  0.15206705817E+03  0.00000000000E+00 0.  1.
         23    2    1    2    0    0  0.47283604915E+02  0.20168645395E+02 -0.91422618109E+02  0.16324164339E+03  0.12508887034E+03 0.  0.
          5    1    3    3  502    0 -0.41133714571E+02  0.79135190230E+01 -0.48144167403E+02  0.63952634916E+02  0.41800000000E+01 0. -1.
         -5    1    3    3    0  502  0.88417319486E+02  0.12255126372E+02 -0.43278450706E+02  0.99289008471E+02  0.41800000000E+01 0. -1.
        -11    1    1    2    0    0  0.37178296393E+01 -0.48672790967E+02  0.40782009321E+02  0.63608451655E+02  0.00000000000E+00 0.  1.
         11    1    1    2    0    0 -0.51001434555E+02  0.28504145572E+02  0.50739769365E+02  0.77383181872E+02  0.00000000000E+00 0. -1.
</event>
<event>
 7    1  0.7017065E-006  0.1053893E+03  0.7561462E-02  0.1269354E+00
          3   -1    0    0  501    0  0.00000000000E+00  0.00000000000E+00  0.11999800195E+03  0.11999800195E+03  0.00000000000E+00 0. -1.
         -3   -1    0    0    0  501 -0.00000000000E+00 -0.00000000000E+00 -0.10695911333E+03  0.10695911333E+03  0.00000000000E+00 0.  1.
         23    2    1    2    0    0 -0.27866665950E+02  0.11214604728E+02  0.18834836623E+02  0.13001459356E+03  0.12508686996E+03 0.  0.
          5    1    3    3  502    0 -0.76603821005E+02  0.18887304236E+02  0.88377639162E+01  0.79501283794E+02  0.41800000000E+01 0.  1.
         -5    1    3    3    0  502  0.48737155055E+02 -0.76726995078E+01  0.99970727072E+01  0.50513309764E+02  0.41800000000E+01 0.  1.
        -11    1    1    2    0    0  0.21594620954E+02 -0.43926817129E+02 -0.28492484015E+02  0.56636689192E+02  0.00000000000E+00 0.  1.
         11    1    1    2    0    0  0.62720449956E+01  0.32712212401E+02  0.22696536015E+02  0.40305832527E+02  0.00000000000E+00 0. -1.
</event>
<event>
 6    1  0.7017065E-006  0.1153215E+03  0.7561462E-02  0.1251021E+00
          3   -1    0    0  501    0  0.00000000000E+00  0.00000000000E+00  0.41982560001E+03  0.41982560001E+03  0.00000000000E+00 0. -1.
         -3   -1    0    0    0  501 -0.00000000000E+00 -0.00000000000E+00 -0.38066712713E+02  0.38066712713E+02  0.00000000000E+00 0.  1.
          5    1    1    2  502    0 -0.46270010062E+02  0.29426098863E+02  0.12673024880E+03  0.13814788267E+03  0.41800000000E+01 0. -1.
         -5    1    1    2    0  502  0.77402435846E+02  0.60075302214E+01  0.63795327286E+02  0.10057108768E+03  0.41800000000E+01 0.  1.
        -11    1    1    2    0    0 -0.27337276999E+02 -0.63733336353E+02  0.16996895784E+03  0.18357208804E+03  0.00000000000E+00 0.  1.
         11    1    1    2    0    0 -0.37951487839E+01  0.28299707269E+02  0.21264353369E+02  0.35601254332E+02  0.00000000000E+00 0. -1.
</event>
<event>
 6    1  0.7017065E-006  0.7741116E+02  0.7561462E-02  0.1336563E+00
         -2   -1    0    0    0  501 -0.00000000000E+00  0.00000000000E+00  0.32463192313E+02  0.32463192313E+02  0.00000000000E+00 0.  1.
          2   -1    0    0  501    0  0.00000000000E+00 -0.00000000000E+00 -0.10983476678E+04  0.10983476678E+04  0.00000000000E+00 0. -1.
          5    1    1    2  502    0 -0.33718428723E+02 -0.53103603912E+01 -0.66570182671E+03  0.66658947400E+03  0.41800000000E+01 0. -1.
         -5    1    1    2    0  502 -0.17026239248E+02 -0.75123879126E+01  0.21808838622E+02  0.28972860355E+02  0.41800000000E+01 0.  1.
        -11    1    1    2    0    0  0.49561744848E+02 -0.30385870602E+02 -0.17229871550E+03  0.18184200573E+03  0.00000000000E+00 0. -1.
         11    1    1    2    0    0  0.11829231230E+01  0.43208618906E+02 -0.24969277188E+03  0.25340652001E+03  0.00000000000E+00 0.  1.
</event>
<event>
 7    1  0.7017065E-006  0.1888789E+03  0.7561462E-02  0.1159476E+00
          2   -1    0    0  501    0  0.00000000000E+00  0.00000000000E+00  0.30888793680E+03  0.30888793680E+03  0.00000000000E+00 0. -1.
         -2   -1    0    0    0  501 -0.00000000000E+00 -0.00000000000E+00 -0.12704830257E+03  0.12704830257E+03  0.00000000000E+00 0.  1.
         23    2    1    2    0    0  0.25470088519E+02  0.16311747344E+03  0.74727669052E+02  0.22019827587E+03  0.12508805147E+03 0.  0.
          5    1    3    3  502    0 -0.41455525290E+02  0.11829909850E+03  0.56226886150E+02  0.13744879923E+03  0.41800000000E+01 0.  1.
         -5    1    3    3    0  502  0.66925613810E+02  0.44818374943E+02  0.18500782902E+02  0.82749476641E+02  0.41800000000E+01 0.  1.
        -11    1    1    2    0    0 -0.42329214258E+01 -0.14083619975E+03  0.47575485354E+02  0.14871509537E+03  0.00000000000E+00 0.  1.
         11    1    1    2    0    0 -0.21237167093E+02 -0.22281273691E+02  0.59536479819E+02  0.67022868133E+02  0.00000000000E+00 0. -1.
</event>
<event>
 7    1  0.7017065E-006  0.1056118E+03  0.7561462E-02  0.1268919E+00
         -1   -1    0    0    0  501 -0.00000000000E+00  0.00000000000E+00  0.53534882431E+02  0.53534882431E+02  0.00000000000E+00 0.  1.
          1   -1    0    0  501    0  0.00000000000E+00 -0.00000000000E+00 -0.34585478698E+03  0.34585478698E+03  0.00000000000E+00 0. -1.
         23    2    1    2    0    0 -0.67466367235E+02 -0.35927315895E+02 -0.11941723488E+03  0.18907806054E+03  0.12509018449E+03 0.  0.
          5    1    3    3  502    0 -0.83540547907E+02 -0.59893690652E+02 -0.12225527315E+03  0.15978141800E+03  0.41800000000E+01 0. -1.
         -5    1    3    3    0  502  0.16074180672E+02  0.23966374757E+02  0.28380382672E+01  0.29296642546E+02  0.41800000000E+01 0. -1.
        -11    1    1    2    0    0  0.36876800299E+02  0.31057160823E+02 -0.16631948365E+02  0.51000660242E+02  0.00000000000E+00 0.  1.
         11    1    1    2    0    0  0.30589566936E+02  0.48701550717E+01 -0.15627072130E+03  0.15931094863E+03  0.00000000000E+00 0. -1.
</event>
<event>
 7    1  0.7017065E-006  0.1288773E+03  0.7561462E-02  0.1229131E+00
         -2   -1    0    0    0  501 -0.00000000000E+00  0.00000000000E+00  0.61250388285E+02  0.61250388285E+02  0.00000000000E+00 0. -1.
          2   -1    0    0  501    0  0.00000000000E+00 -0.00000000000E+00 -0.38300786258E+03  0.38300786258E+03  0.00000000000E+00 0.  1.
         23    2    1    2    0    0  0.80798374229E+02 -0.62779794084E+02 -0.14744438693E+03  0.21876739952E+03  0.12509855327E+03 0.  0.
          5    1    3    3  502    0  0.33573243029E+01  0.12480935021E+02 -0.99701827011E+02  0.10062292023E+03  0.41800000000E+01 0. -1.
         -5    1    3    3    0  502  0.77441049926E+02 -0.75260729105E+02 -0.47742559918E+02  0.11814447929E+03  0.41800000000E+01 0. -1.
        -11    1    1    2    0    0 -0.99696717875E+02  0.61546524652E+02 -0.16932112410E+03  0.20590544752E+03  0.00000000000E+00 0.  1.
         11    1    1    2    0    0  0.18898343646E+02  0.12332694318E+01 -0.49919632720E+01  0.19585403834E+02  0.00000000000E+00 0. -1.
</event>
<event>
 6    1  0.7017065E-006  0.1147813E+03  0.7561462E-02  0.1251963E+00
         -3   -1    0    0    0  501 -0.00000000000E+00  0.00000000000E+00  0.58045713074E+02  0.58045713074E+02  0.00000000000E+00 0.  1.
          3   -1    0    0  501    0  0.00000000000E+00 -0.00000000000E+00 -0.50854818589E+03  0.50854818589E+03  0.00000000000E+00 0. -1.
          5    1    1    2  502    0  0.28328522639E+01 -0.80199287981E+02 -0.18534241151E+03  0.20201295193E+03  0.41800000000E+01 0. -1.
         -5    1    1    2    0  502 -0.13861283562E+01  0.58340622412E+02  0.21692368820E+02  0.62398564409E+02  0.41800000000E+01 0.  1.
        -11    1    1    2    0    0  0.17293398399E+02 -0.30513765452E+02 -0.69809285090E+02  0.78124821888E+02  0.00000000000E+00 0. -1.
         11    1    1    2    0    0 -0.18740122306E+02  0.52372431020E+02 -0.21704314504E+03  0.22405756074E+03  0.00000000000E+00 0.  1.
</event>
<event>
 7    1  0.7017065E-006  0.6777119E+02  0.7561462E-02  0.1367840E+00
         -2   -1    0    0    0  501 -0.00000000000E+00  0.00000000000E+00  0.73309228657E+02  0.73309228657E+02  0.00000000000E+00 0.  1.
          2   -1    0    0  501    0  0.00000000000E+00 -0.00000000000E+00 -0.27514642359E+03  0.27514642359E+03  0.00000000000E+00 0. -1.
         23    2    1    2    0    0 -0.33944491726E+02  0.55981472985E+01 -0.65250906055E+01  0.12991295129E+03  0.12510487734E+03 0.  0.
          5    1    3    3  502    0 -0.37174253369E+02  0.12102990425E+02 -0.62214282682E+02  0.73596853604E+02  0.41800000000E+01 0.  1.
         -5    1    3    3    0  502  0.32297616425E+01 -0.65048431267E+01  0.55689192076E+02  0.56316097685E+02  0.41800000000E+01 0.  1.
        -11    1    1    2    0    0  0.52490976831E+02 -0.27408050675E+02 -0.17106841692E+03  0.18102736577E+03  0.00000000000E+00 0. -1.
         11    1    1    2    0    0 -0.18546485104E+02  0.21809903376E+02 -0.24243687401E+02  0.37515335182E+02  0.00000000000E+00 0.  1.
</event>
<event>
 7    1  0.7017065E-006  0.1365619E+03  0.7561462E-02  0.1218031E+00
          1   -1    0    0  501    0  0.00000000000E+00  0.00000000000E+00  0.20261879229E+02  0.20261879229E+02  0.00000000000E+00 0. -1.
         -1   -1    0    0    0  501 -0.00000000000E+00 -0.00000000000E+00 -0.10052408404E+04  0.10052408404E+04  0.00000000000E+00 0.  1.
         23    2    1    2    0    0 -0.84523043576E+02  0.20315966107E+02 -0.65724609705E+03  0.67466892851E+03  0.12509535415E+03 0.  0.
          5    1    3    3  502    0 -0.40189173614E+02 -0.52815962614E+02 -0.30508551366E+03  0.31224884088E+03  0.41800000000E+01 0.  1.
         -5    1    3    3    0  502 -0.44333869962E+02  0.73131928721E+02 -0.35216058339E+03  0.36242008763E+03  0.41800000000E+01 0.  1.
        -11    1    1    2    0    0 -0.16775090606E+02  0.30340785643E+01 -0.86368915265E+02  0.88035213532E+02  0.00000000000E+00 0.  1.
         11    1    1    2    0    0  0.10129813418E+03 -0.23350044672E+02 -0.24136394881E+03  0.26279857755E+03  0.00000000000E+00 0. -1.
</event>
<event>
 7    1  0.7017065E-006  0.1213849E+03  0.7561462E-02  0.1240830E+00
          2   -1    0    0  501    0  0.00000000000E+00  0.00000000000E+00  0.10157374838E+03  0.10157374838E+03  0.00000000000E+00 0. -1.
         -2   -1    0    0    0  501 -0.00000000000E+00 -0.00000000000E+00 -0.22928112122E+03  0.22928112122E+03  0.00000000000E+00 0.  1.
         23    2    1    2    0    0 -0.70728114112E+02  0.74720970916E+02 -0.98546638251E+02  0.18958765084E+03  0.12508536213E+03 0.  0.
          5    1    3    3  502    0 -0.25022034252E+02  0.15117636492E+01  0.27065050640E+02  0.37126499883E+02  0.41800000000E+01 0. -1.
         -5    1    3    3    0  502 -0.45706079860E+02  0.73209207267E+02 -0.12561168889E+03  0.15246115096E+03  0.41800000000E+01 0. -1.
        -11    1    1    2    0    0 -0.75321212356E-01 -0.58256878808E+02 -0.35627740433E+02  0.68287667188E+02  0.00000000000E+00 0.  1.
         11    1    1    2    0    0  0.70803435324E+02 -0.16464092108E+02  0.64670058385E+01  0.72979551569E+02  0.00000000000E+00 0. -1.
</event>
<event>
 7    1  0.7017065E-006  0.1465928E+03  0.7561462E-02  0.1204723E+00
         -2   -1    0    0    0  501 -0.00000000000E+00  0.00000000000E+00  0.27224955271E+03  0.27224955271E+03  0.00000000000E+00 0.  1.
          2   -1    0    0  501    0  0.00000000000E+00 -0.00000000000E+00 -0.14423216696E+03  0.14423216696E+03  0.00000000000E+00 0. -1.
         23    2    1    2    0    0 -0.11133013401E+03 -0.16694725198E+02  0.19432580102E+03  0.25706498981E+03  0.12508708749E+03 0.  0.
          5    1    3    3  502    0 -0.88586523633E+02 -0.68166740770E+02  0.12963833258E+03  0.17122454961E+03  0.41800000000E+01 0.  1.
         -5    1    3    3    0  502 -0.22743610375E+02  0.51472015572E+02  0.64687468437E+02  0.85840440194E+02  0.41800000000E+01 0.  1.
        -11    1    1    2    0    0  0.93736890375E+02  0.34487301384E+02 -0.82556487953E+02  0.12958222207E+03  0.00000000000E+00 0. -1.
         11    1    1    2    0    0  0.17593243633E+02 -0.17792576186E+02  0.16248072693E+02  0.29834507791E+02  0.00000000000E+00 0.  1.
</event>
<event>
 7    1  0.7017065E-006  0.9376194E+02  0.7561462E-02  0.1293989E+00
         -2   -1    0    0    0  501 -0.00000000000E+00  0.00000000000E+00  0.14474349897E+03  0.14474349897E+03  0.00000000000E+00 0.  1.
          2   -1    0    0  501    0  0.00000000000E+00 -0.00000000000E+00 -0.11371073878E+03  0.11371073878E+03  0.00000000000E+00 0. -1.
         23    2    1    2    0    0  0.44373977037E+02 -0.35437031084E+02  0.56323397757E+02  0.14846924505E+03  0.12508380623E+03 0.  0.
          5    1    3    3  502    0 -0.32513002251E-01 -0.50202986942E+02  0.81009128505E+02  0.95395451968E+02  0.41800000000E+01 0. -1.
         -5    1    3    3    0  502  0.44406490039E+02  0.14765955859E+02 -0.24685730748E+02  0.53073793086E+02  0.41800000000E+01 0. -1.
        -11    1    1    2    0    0 -0.10985570801E+02  0.51820607535E+02  0.15097172400E+02  0.55081600790E+02  0.00000000000E+00 0.  1.
         11    1    1    2    0    0 -0.33388406235E+02 -0.16383576451E+02 -0.40387809971E+02  0.54903391904E+02  0.00000000000E+00 0. -1.
</event>
<event>
 7    1  0.7017065E-006  0.1189373E+03  0.7561462E-02  0.1244861E+00
          2   -1    0    0  501    0  0.00000000000E+00  0.00000000000E+00  0.35068828163E+02  0.35068828163E+02  0.00000000000E+00 0. -1.
         -2   -1    0    0    0  501 -0.00000000000E+00 -0.00000000000E+00 -0.48469889659E+03  0.48469889659E+03  0.00000000000E+00 0.  1.
         23    2    1    2    0    0  0.50244826318E+02  0.53730275538E+02 -0.29941778879E+03  0.33273305222E+03  0.12509511068E+03 0.  0.
          5    1    3    3  502    0  0.28031287995E+02  0.85511902482E+02 -0.26773888211E+03  0.28248826518E+03  0.41800000000E+01 0.  1.
         -5    1    3    3    0  502  0.22213538323E+02 -0.31781626944E+02 -0.31678906675E+02  0.50244787035E+02  0.41800000000E+01 0.  1.
        -11    1    1    2    0    0  0.21737676773E+02 -0.64772502321E+01 -0.50039924010E+02  0.54940653045E+02  0.00000000000E+00 0.  1.
         11    1    1    2    0    0 -0.71982503091E+02 -0.47253025306E+02 -0.10017235563E+03  0.13209401949E+03  0.00000000000E+00 0. -1.
</event>
<event>
 7    1  0.7017065E-006  0.1889664E+03  0.7561462E-02  0.1159397E+00
          1   -1    0    0  501    0  0.00000000000E+00  0.00000000000E+00  0.19794314821E+03  0.19794314821E+03  0.00000000000E+00 0. -1.
         -1   -1    0    0    0  501 -0.00000000000E+00 -0.00000000000E+00 -0.22770089639E+03  0.22770089639E+03  0.00000000000E+00 0.  1.
         23    2    1    2    0    0 -0.21460748516E+02 -0.16779085318E+03 -0.83660474945E+02  0.22641591531E+03  0.12510298757E+03 0.  0.
          5    1    3    3  502    0 -0.59828659108E+02 -0.15067546162E+03 -0.87052318243E+02  0.18406015782E+03  0.41800000000E+01 0.  1.
         -5    1    3    3    0  502  0.38367910592E+02 -0.17115391564E+02  0.33918432971E+01  0.42355757490E+02  0.41800000000E+01 0.  1.
        -11    1    1    2    0    0  0.30111908315E+02  0.82714816081E+02 -0.15143339151E+02  0.89318466972E+02  0.00000000000E+00 0.  1.
         11    1    1    2    0    0 -0.86511597997E+01  0.85076037100E+02  0.69046065910E+02  0.10990966232E+03  0.00000000000E+00 0. -1.
</event>
<event>
 7    1  0.7017065E-006  0.1799711E+03  0.7561462E-02  0.1167831E+00
          2   -1    0    0  501    0  0.00000000000E+00  0.00000000000E+00  0.53632964464E+03  0.53632964464E+03  0.00000000000E+00 0. -1.
         -2   -1    0    0    0  501 -0.00000000000E+00 -0.00000000000E+00 -0.67588114232E+02  0.67588114232E+02  0.00000000000E+00 0.  1.
         23    2    1    2    0    0 -0.10547272834E+03  0.11480755297E+03  0.23978138428E+03  0.31199634535E+03  0.12466489732E+03 0.  0.
          5    1    3    3  502    0 -0.74596346649E+02  0.20367341392E+01  0.13792571987E+03  0.15687491776E+03  0.41800000000E+01 0. -1.
         -5    1    3    3    0  502 -0.30876381695E+02  0.11277081884E+03  0.10185566440E+03  0.15512142759E+03  0.41800000000E+01 0.  1.
        -11    1    1    2    0    0 -0.76766303924E+01 -0.16957418312E+02  0.74924259851E+02  0.77201874357E+02  0.00000000000E+00 0. -1.
         11    1    1    2    0    0  0.11314935874E+03 -0.97850134662E+02  0.15403588628E+03  0.21471953916E+03  0.00000000000E+00 0.  1.
</event>
<event>
 7    1  0.7017065E-006  0.1558415E+03  0.7561462E-02  0.1193473E+00
         -2   -1    0    0    0  501 -0.00000000000E+00  0.00000000000E+00  0.16915923691E+03  0.16915923691E+03  0.00000000000E+00 0. -1.
          2   -1    0    0  501    0  0.00000000000E+00 -0.00000000000E+00 -0.15397340359E+03  0.15397340359E+03  0.00000000000E+00 0.  1.
         23    2    1    2    0    0 -0.51039253930E+02 -0.10460049218E+03  0.34046773539E+02  0.17422568720E+03  0.12509651827E+03 0.  0.
          5    1    3    3  502    0  0.31264807897E+02 -0.78112062257E+02  0.14414463597E+02  0.85464797687E+02  0.41800000000E+01 0. -1.
         -5    1    3    3    0  502 -0.82304061827E+02 -0.26488429928E+02  0.19632309942E+02  0.88760889511E+02  0.41800000000E+01 0. -1.
        -11    1    1    2    0    0 -0.21582030106E+02  0.20533437418E+02 -0.23160061284E+02  0.37733201750E+02  0.00000000000E+00 0.  1.
         11    1    1    2    0    0  0.72621284035E+02  0.84067054766E+02  0.42991210691E+01  0.11117375155E+03  0.00000000000E+00 0. -1.
</event>
<event>
 7    1  0.7017065E-006  0.9277667E+02  0.7561462E-02  0.1296264E+00
          2   -1    0    0  501    0  0.00000000000E+00  0.00000000000E+00  0.65380197643E+02  0.65380197643E+02  0.00000000000E+00 0. -1.
         -2   -1    0    0    0  501 -0.00000000000E+00 -0.00000000000E+00 -0.24710258241E+03  0.24710258241E+03  0.00000000000E+00 0.  1.
         23    2    1    2    0    0 -0.51106821212E+02 -0.25404830181E+02 -0.14469158732E+03  0.19959992947E+03  0.12508862391E+03 0.  0.
          5    1    3    3  502    0 -0.47000194239E+02  0.26490391834E+02 -0.98556580541E+01  0.55003322751E+02  0.41800000000E+01 0.  1.
         -5    1    3    3    0  502 -0.41066269736E+01 -0.51895222015E+02 -0.13483592927E+03  0.14459660672E+03  0.41800000000E+01 0.  1.
        -11    1    1    2    0    0 -0.11961846201E+02  0.41486838807E+01 -0.44168090843E+02  0.45946899691E+02  0.00000000000E+00 0. -1.
         11    1    1    2    0    0  0.63068667414E+02  0.21256146300E+02  0.71372933968E+01  0.66935950893E+02  0.00000000000E+00 0.  1.
</event>
<event>
 7    1  0.7017065E-006  0.1444516E+03  0.7561462E-02  0.1207461E+00
         -2   -1    0    0    0  501 -0.00000000000E+00  0.00000000000E+00  0.15159553177E+02  0.15159553177E+02  0.00000000000E+00 0.  1.
          2   -1    0    0  501    0  0.00000000000E+00 -0.00000000000E+00 -0.16145135465E+04  0.16145135465E+04  0.00000000000E+00 0. -1.
         23    2    1    2    0    0  0.15883038543E+02  0.97069639698E+02 -0.11515461170E+04  0.11624888690E+04  0.12508846914E+03 0.  0.
          5    1    3    3  502    0 -0.51344921736E+02  0.19406634116E+02 -0.47443815492E+03  0.47762114032E+03  0.41800000000E+01 0. -1.
         -5    1    3    3    0  502  0.67227960279E+02  0.77663005583E+02 -0.67710796204E+03  0.68486772864E+03  0.41800000000E+01 0. -1.
        -11    1    1    2    0    0 -0.20844347411E+02  0.10518519535E+02 -0.52315596447E+02  0.57289158694E+02  0.00000000000E+00 0. -1.
         11    1    1    2    0    0  0.49613088678E+01 -0.10758815923E+03 -0.39549227989E+03  0.40989507199E+03  0.00000000000E+00 0.  1.
</event>
<event>
 7    1  0.7017065E-006  0.8429791E+02  0.7561462E-02  0.1317279E+00
          1   -1    0    0  501    0  0.00000000000E+00  0.00000000000E+00  0.16115951671E+03  0.16115951671E+03  0.00000000000E+00 0. -1.
         -1   -1    0    0    0  501 -0.00000000000E+00 -0.00000000000E+00 -0.73960831181E+02  0.73960831181E+02  0.00000000000E+00 0.  1.
         23    2    1    2    0    0  0.12013501014E+02 -0.42930466501E+01  0.47229680708E+02  0.13431592554E+03  0.12508945063E+03 0.  0.
          5    1    3    3  502    0  0.56300986622E+00 -0.40985226641E+02 -0.27942630797E+02  0.49783218044E+02  0.41800000000E+01 0. -1.
         -5    1    3    3    0  502  0.11450491148E+02  0.36692179991E+02  0.75172311505E+02  0.84532707499E+02  0.41800000000E+01 0. -1.
        -11    1    1    2    0    0  0.36097261761E+02 -0.11835315774E+02  0.31637013917E+01  0.38119496490E+02  0.00000000000E+00 0.  1.
         11    1    1    2    0    0 -0.48110762776E+02  0.16128362424E+02  0.36805303430E+02  0.62684925859E+02  0.00000000000E+00 0. -1.
</event>
<event>
 7    1  0.7017065E-006  0.1039413E+03  0.7561462E-02  0.1272220E+00
         -1   -1    0    0    0  501 -0.00000000000E+00  0.00000000000E+00  0.37976181744E+02  0.37976181744E+02  0.00000000000E+00 0.  1.
          1   -1    0    0  501    0  0.00000000000E+00 -0.00000000000E+00 -0.45571993814E+03  0.45571993814E+03  0.00000000000E+00 0. -1.
         23    2    1    2    0    0  0.59052366181E+02 -0.29743923709E+02 -0.16544460682E+03  0.21769489244E+03  0.12508902956E+03 0.  0.
          5    1    3    3  502    0  0.44286680334E+02 -0.78580665998E+02 -0.10571848261E+03  0.13903273388E+03  0.41800000000E+01 0. -1.
         -5    1    3    3    0  502  0.14765685847E+02  0.48836742289E+02 -0.59726124211E+02  0.78662158559E+02  0.41800000000E+01 0. -1.
        -11    1    1    2    0    0 -0.14971949045E+02  0.46827553091E+01  0.27794901317E+01  0.15931510314E+02  0.00000000000E+00 0.  1.
         11    1    1    2    0    0 -0.44080417136E+02  0.25061168400E+02 -0.25507863970E+03  0.26006971713E+03  0.00000000000E+00 0. -1.
</event>
<event>
 7    1  0.7017065E-006  0.2589369E+03  0.7561462E-02  0.1107784E+00
         -2   -1    0    0    0  501 -0.00000000000E+00  0.00000000000E+00  0.11270913305E+03  0.11270913305E+03  0.00000000000E+00 0.  1.
          2   -1    0    0  501    0  0.00000000000E+00 -0.00000000000E+00 -0.67604004820E+03  0.67604004820E+03  0.00000000000E+00 0. -1.
         23    2    1    2    0    0 -0.22229554713E+03 -0.11971894168E+03 -0.31770686030E+03  0.42465542768E+03  0.12508656164E+03 0.  0.
          5    1    3    3  502    0 -0.36503234965E+02  0.75811671690E+01 -0.29957294843E+01  0.37635183721E+02  0.41800000000E+01 0.  1.
         -5    1    3    3    0  502 -0.18579231216E+03 -0.12730010885E+03 -0.31471113082E+03  0.38702024396E+03  0.41800000000E+01 0.  1.
        -11    1    1    2    0    0  0.11703353914E+03  0.83549687102E+02 -0.80020179488E+02  0.16456192945E+03  0.00000000000E+00 0. -1.
         11    1    1    2    0    0  0.10526200798E+03  0.36169254579E+02 -0.16560387536E+03  0.19953182412E+03  0.00000000000E+00 0.  1.
</event>
<event>
 7    1  0.7017065E-006  0.1825987E+03  0.7561462E-02  0.1165311E+00
          1   -1    0    0  501    0  0.00000000000E+00  0.00000000000E+00  0.32284095218E+03  0.32284095218E+03  0.00000000000E+00 0. -1.
         -1   -1    0    0    0  501 -0.00000000000E+00 -0.00000000000E+00 -0.11214759377E+03  0.11214759377E+03  0.00000000000E+00 0.  1.
         23    2    1    2    0    0  0.12303709086E+03 -0.94912847432E+02  0.11433284899E+03  0.22992496943E+03  0.12508763678E+03 0.  0.
          5    1    3    3  502    0  0.14529146873E+03 -0.99795309762E+02  0.10164177566E+03  0.20351225441E+03  0.41800000000E+01 0.  1.
         -5    1    3    3    0  502 -0.22254377867E+02  0.48824623300E+01  0.12691073322E+02  0.26412715020E+02  0.41800000000E+01 0.  1.
        -11    1    1    2    0    0 -0.95343002718E+02  0.38397175892E+02  0.98124871618E+02  0.14210250425E+03  0.00000000000E+00 0. -1.
         11    1    1    2    0    0 -0.27694088141E+02  0.56515671540E+02 -0.17643621920E+01  0.62961072271E+02  0.00000000000E+00 0.  1.
</event>
<event>
 7    1  0.7017065E-006  0.1978936E+03  0.7561462E-02  0.1151528E+00
         -1   -1    0    0    0  501 -0.00000000000E+00  0.00000000000E+00  0.24524651577E+03  0.24524651577E+03  0.00000000000E+00 0.  1.
          1   -1    0    0  501    0  0.00000000000E+00 -0.00000000000E+00 -0.18381641889E+03  0.18381641889E+03  0.00000000000E+00 0. -1.
         23    2    1    2    0    0  0.17196211349E+03 -0.31947036924E+02 -0.18763310122E+02  0.21584808687E+03  0.12508698236E+03 0.  0.
          5    1    3    3  502    0  0.18403594708E+03 -0.36388477245E+02  0.58786633641E+01  0.18773753534E+03  0.41800000000E+01 0.  1.
         -5    1    3    3    0  502 -0.12073833594E+02  0.44414403203E+01 -0.24641973486E+02  0.28110551526E+02  0.41800000000E+01 0.  1.
        -11    1    1    2    0    0 -0.77379420556E+02  0.57775399590E+02  0.58137353492E+02  0.11271878013E+03  0.00000000000E+00 0.  1.
         11    1    1    2    0    0 -0.94582692930E+02 -0.25828362665E+02  0.22056053507E+02  0.10049606767E+03  0.00000000000E+00 0. -1.
</event>
<event>
 7    1  0.7017065E-006  0.2614839E+03  0.7561462E-02  0.1106255E+00
          2   -1    0    0  501    0  0.00000000000E+00  0.00000000000E+00  0.18641487887E+04  0.18641487887E+04  0.00000000000E+00 0.  1.
         -2   -1    0    0    0  501 -0.00000000000E+00 -0.00000000000E+00 -0.39631608277E+02  0.39631608277E+02  0.00000000000E+00 0. -1.
         23    2    1    2    0    0  0.21687371685E+03 -0.12157848107E+03  0.97539493213E+03  0.10143261094E+04  0.12508655583E+03 0.  0.
          5    1    3    3  502    0  0.21939114332E+03 -0.85743344918E+02  0.75250634968E+03  0.78852246237E+03  0.41800000000E+01 0.  1.
         -5    1    3    3    0  502 -0.25174264662E+01 -0.35835136148E+02  0.22288858245E+03  0.22580364702E+03  0.41800000000E+01 0.  1.
        -11    1    1    2    0    0 -0.91639062993E+02  0.71926532752E+02  0.53714507985E+03  0.54963258708E+03  0.00000000000E+00 0.  1.
         11    1    1    2    0    0 -0.12523465386E+03  0.49651948314E+02  0.31197716843E+03  0.33982170048E+03  0.00000000000E+00 0. -1.
</event>
<event>
 7    1  0.7017065E-006  0.7348963E+02  0.7561462E-02  0.1348613E+00
         -3   -1    0    0    0  501 -0.00000000000E+00  0.00000000000E+00  0.10356162439E+03  0.10356162439E+03  0.00000000000E+00 0.  1.
          3   -1    0    0  501    0  0.00000000000E+00 -0.00000000000E+00 -0.11702637277E+03  0.11702637277E+03  0.00000000000E+00 0. -1.
         23    2    1    2    0    0  0.11197055032E+02 -0.12484356627E+02 -0.17677284752E+02  0.12745511854E+03  0.12510430706E+03 0.  0.
          5    1    3    3  502    0 -0.24890493099E+02 -0.40300988881E+02 -0.51845298245E+02  0.70349937467E+02  0.41800000000E+01 0. -1.
         -5    1    3    3    0  502  0.36087548130E+02  0.27816632254E+02  0.34168013492E+02  0.57105181078E+02  0.41800000000E+01 0. -1.
        -11    1    1    2    0    0 -0.31427431119E+02  0.37993951766E+01 -0.35599688119E+02  0.47638814265E+02  0.00000000000E+00 0. -1.
         11    1    1    2    0    0  0.20230376087E+02  0.86849614509E+01  0.39812224489E+02  0.45494064347E+02  0.00000000000E+00 0.  1.
</event>
<event>
 7    1  0.7017065E-006  0.2033771E+03  0.7561462E-02  0.1146921E+00
         -1   -1    0    0    0  501 -0.00000000000E+00  0.00000000000E+00  0.76509478005E+03  0.76509478005E+03  0.00000000000E+00 0.  1.
          1   -1    0    0  501    0  0.00000000000E+00 -0.00000000000E+00 -0.78104240683E+02  0.78104240683E+02  0.00000000000E+00 0. -1.
         23    2    1    2    0    0 -0.13038417063E+03  0.14752720181E+03  0.51829167839E+03  0.56836248793E+03  0.12508135981E+03 0.  0.
          5    1    3    3  502    0 -0.29393153931E+02  0.20398302913E+02  0.26523489705E+03  0.26766970556E+03  0.41800000000E+01 0.  1.
         -5    1    3    3    0  502 -0.10099101670E+03  0.12712889889E+03  0.25305678134E+03  0.30069278237E+03  0.41800000000E+01 0.  1.
        -11    1    1    2    0    0  0.89581081790E+02 -0.49977496574E+02  0.44757651003E+02  0.11191857621E+03  0.00000000000E+00 0.  1.
         11    1    1    2    0    0  0.40803088838E+02 -0.97549705232E+02  0.12394120997E+03  0.16291795659E+03  0.00000000000E+00 0. -1.
</event>
<event>
 6    1  0.7017065E-006  0.2025961E+03  0.7561462E-02  0.1147567E+00
         -2   -1    0    0    0  501 -0.00000000000E+00  0.00000000000E+00  0.60399784964E+02  0.60399784964E+02  0.00000000000E+00 0.  1.
          2   -1    0    0  501    0  0.00000000000E+00 -0.00000000000E+00 -0.10504846164E+04  0.10504846164E+04  0.00000000000E+00 0. -1.
          5    1    1    2  502    0  0.31152850508E+02  0.20330050765E+02 -0.20661422927E+02  0.42757196543E+02  0.41800000000E+01 0. -1.
         -5    1    1    2    0  502  0.20131415846E+02 -0.18351804827E+03 -0.18987201803E+03  0.26486412285E+03  0.41800000000E+01 0.  1.
        -11    1    1    2    0    0  0.87818902751E+01  0.80026088201E+02 -0.21739185821E+03  0.23182000864E+03  0.00000000000E+00 0.  1.
         11    1    1    2    0    0 -0.60066156629E+02  0.83161909303E+02 -0.56215953228E+03  0.57144307334E+03  0.00000000000E+00 0. -1.
</event>
<event>
 7    1  0.7017065E-006  0.2341073E+03  0.7561462E-02  0.1123782E+00
         -1   -1    0    0    0  501 -0.00000000000E+00  0.00000000000E+00  0.49576511776E+02  0.49576511776E+02  0.00000000000E+00 0.  1.
          1   -1    0    0  501    0  0.00000000000E+00 -0.00000000000E+00 -0.11360314627E+04  0.11360314627E+04  0.00000000000E+00 0. -1.
         23    2    1    2    0    0 -0.17364554050E+03 -0.11181151755E+03 -0.62350135349E+03  0.66862227415E+03  0.12508884242E+03 0.  0.
          5    1    3    3  502    0 -0.50440988277E+02  0.25695396596E+02 -0.15021617875E+03  0.16058306095E+03  0.41800000000E+01 0. -1.
         -5    1    3    3    0  502 -0.12320455223E+03 -0.13750691415E+03 -0.47328517473E+03  0.50803921320E+03  0.41800000000E+01 0. -1.
        -11    1    1    2    0    0  0.13959153283E+03  0.36745199521E+02 -0.33505326219E+03  0.36482419633E+03  0.00000000000E+00 0.  1.
         11    1    1    2    0    0  0.34054007674E+02  0.75066318031E+02 -0.12790033526E+03  0.15216150400E+03  0.00000000000E+00 0. -1.
</event>
<event>
 7    1  0.7017065E-006  0.1006399E+03  0.7561462E-02  0.1278956E+00
          1   -1    0    0  501    0  0.00000000000E+00  0.00000000000E+00  0.30201628522E+03  0.30201628522E+03  0.00000000000E+00 0. -1.
         -1   -1    0    0    0  501 -0.00000000000E+00 -0.00000000000E+00 -0.49884585870E+02  0.49884585870E+02  0.00000000000E+00 0.  1.
         23    2    1    2    0    0  0.17786417832E+02 -0.18144255321E+02  0.68050243823E+02  0.14465616780E+03  0.12509596532E+03 0.  0.
          5    1    3    3  502    0  0.49258653167E+02 -0.56063575410E+02  0.56951235970E+02  0.93970501106E+02  0.41800000000E+01 0. -1.
         -5    1    3    3    0  502 -0.31472235336E+02  0.37919320089E+02  0.11099007853E+02  0.50685666696E+02  0.41800000000E+01 0. -1.
        -11    1    1    2    0    0 -0.34635300225E+02 -0.16641964564E+02  0.31037048666E+02  0.49394912654E+02  0.00000000000E+00 0.  1.
         11    1    1    2    0    0  0.16848882393E+02  0.34786219885E+02  0.15304440686E+03  0.15784979063E+03  0.00000000000E+00 0. -1.
</event>
<event>
 7    1  0.7017065E-006  0.1397536E+03  0.7561462E-02  0.1213661E+00
          2   -1    0    0  501    0  0.00000000000E+00  0.00000000000E+00  0.96666928975E+03  0.96666928975E+03  0.00000000000E+00 0.  1.
         -2   -1    0    0    0  501 -0.00000000000E+00 -0.00000000000E+00 -0.24504005459E+02  0.24504005459E+02  0.00000000000E+00 0. -1.
         23    2    1    2    0    0  0.14440732765E+02 -0.10614647760E+03  0.57768062274E+03  0.60069763234E+03  0.12508850524E+03 0.  0.
          5    1    3    3  502    0 -0.25938129990E+02  0.10482113841E+02  0.39831982569E+02  0.48854073866E+02  0.41800000000E+01 0. -1.
         -5    1    3    3    0  502  0.40378862755E+02 -0.11662859144E+03  0.53784864017E+03  0.55184355847E+03  0.41800000000E+01 0. -1.
        -11    1    1    2    0    0 -0.27769899652E+02  0.83068801781E+01  0.16899956056E+03  0.17146726526E+03  0.00000000000E+00 0.  1.
         11    1    1    2    0    0  0.13329166886E+02  0.97839597422E+02  0.19548510099E+03  0.21900839761E+03  0.00000000000E+00 0. -1.
</event>
<event>
 7    1  0.7017065E-006  0.1312940E+03  0.7561462E-02  0.1225548E+00
         -2   -1    0    0    0  501 -0.00000000000E+00  0.00000000000E+00  0.11804885985E+03  0.11804885985E+03  0.00000000000E+00 0.  1.
          2   -1    0    0  501    0  0.00000000000E+00 -0.00000000000E+00 -0.61795923494E+03  0.61795923494E+03  0.00000000000E+00 0. -1.
         23    2    1    2    0    0 -0.99410629745E+02  0.21670967927E+02  0.50195047513E+02  0.16929858783E+03  0.12565971864E+03 0.  0.
          5    1    3    3  502    0 -0.15140612677E+01 -0.19615949280E+02 -0.29999618976E+02  0.36118241740E+02  0.41800000000E+01 0. -1.
         -5    1    3    3    0  502 -0.97896568478E+02  0.41286917206E+02  0.80194666489E+02  0.13318034609E+03  0.41800000000E+01 0.  1.
        -11    1    1    2    0    0  0.11435146898E+03 -0.31066339258E+02 -0.47474088768E+03  0.48930592304E+03  0.00000000000E+00 0. -1.
         11    1    1    2    0    0 -0.14940839232E+02  0.93953713316E+01 -0.75364534923E+02  0.77403583919E+02  0.00000000000E+00 0.  1.
</event>
<event>
 7    1  0.7017065E-006  0.1225559E+03  0.7561462E-02  0.1238939E+00
          3   -1    0    0  501    0  0.00000000000E+00  0.00000000000E+00  0.14951056062E+03  0.14951056062E+03  0.00000000000E+00 0. -1.
         -3   -1    0    0    0  501 -0.00000000000E+00 -0.00000000000E+00 -0.21677970743E+03  0.21677970743E+03  0.00000000000E+00 0.  1.
         23    2    1    2    0    0  0.33399729856E+02  0.10317037890E+03 -0.12439928254E+03  0.20708066495E+03  0.12509017253E+03 0.  0.
          5    1    3    3  502    0  0.38273814518E+02  0.41757494726E+02 -0.13311011487E+03  0.14472162356E+03  0.41800000000E+01 0. -1.
         -5    1    3    3    0  502 -0.48740846622E+01  0.61412884173E+02  0.87108323334E+01  0.62359041395E+02  0.41800000000E+01 0. -1.
        -11    1    1    2    0    0  0.19290938710E+02 -0.17823862491E+02  0.52615723247E+02  0.58806842486E+02  0.00000000000E+00 0. -1.
         11    1    1    2    0    0 -0.52690668565E+02 -0.85346516407E+02  0.45144124833E+01  0.10040276060E+03  0.00000000000E+00 0.  1.
</event>
<event>
 7    1  0.7017065E-006  0.2817489E+03  0.7561462E-02  0.1094738E+00
          2   -1    0    0  501    0  0.00000000000E+00  0.00000000000E+00  0.84478384713E+03  0.84478384713E+03  0.00000000000E+00 0.  1.
         -2   -1    0    0    0  501 -0.00000000000E+00 -0.00000000000E+00 -0.10023506761E+03  0.10023506761E+03  0.00000000000E+00 0. -1.
         23    2    1    2    0    0 -0.12315128619E+03  0.23532788873E+03  0.30748182915E+03  0.42513676819E+03  0.12510292523E+03 0.  0.
          5    1    3    3  502    0 -0.10276657965E+03  0.89706337115E+02  0.20337812285E+03  0.24492515197E+03  0.41800000000E+01 0.  1.
         -5    1    3    3    0  502 -0.20384706543E+02  0.14562155162E+03  0.10410370630E+03  0.18021161622E+03  0.41800000000E+01 0.  1.
        -11    1    1    2    0    0  0.84441899031E+02 -0.68706355776E+02  0.14359751763E+03  0.18019779328E+03  0.00000000000E+00 0. -1.
         11    1    1    2    0    0  0.38709387162E+02 -0.16662153295E+03  0.29346943274E+03  0.33968435326E+03  0.00000000000E+00 0.  1.
</event>
<event>
 7    1  0.7017065E-006  0.1271366E+03  0.7561462E-02  0.1231767E+00
         -1   -1    0    0    0  501 -0.00000000000E+00  0.00000000000E+00  0.41477908382E+02  0.41477908382E+02  0.00000000000E+00 0.  1.
          1   -1    0    0  501    0  0.00000000000E+00 -0.00000000000E+00 -0.55885141962E+03  0.55885141962E+03  0.00000000000E+00 0. -1.
         23    2    1    2    0    0 -0.18501789254E+01  0.93144852202E+02 -0.18036236728E+03  0.23844881529E+03  0.12509143588E+03 0.  0.
          5    1    3    3  502    0  0.31372624676E+02  0.10630010983E+02 -0.13391317800E+03  0.13801250072E+03  0.41800000000E+01 0.  1.
         -5    1    3    3    0  502 -0.33222803602E+02  0.82514841220E+02 -0.46449189274E+02  0.10043631457E+03  0.41800000000E+01 0.  1.
        -11    1    1    2    0    0  0.32513154634E+02 -0.95694434362E+02 -0.25768849873E+03  0.27679937206E+03  0.00000000000E+00 0.  1.
         11    1    1    2    0    0 -0.30662975709E+02  0.25495821595E+01 -0.79322645231E+02  0.85081140654E+02  0.00000000000E+00 0. -1.
</event>
<event>
 7    1  0.7017065E-006  0.1137251E+03  0.7561462E-02  0.1253823E+00
         -1   -1    0    0    0  501 -0.00000000000E+00  0.00000000000E+00  0.60798453775E+02  0.60798453775E+02  0.00000000000E+00 0.  1.
          1   -1    0    0  501    0  0.00000000000E+00 -0.00000000000E+00 -0.31535375632E+03  0.31535375632E+03  0.00000000000E+00 0. -1.
         23    2    1    2    0    0  0.43782451682E+02 -0.72922760383E+02 -0.12068171313E+03  0.19350991879E+03  0.12508949089E+03 0.  0.
          5    1    3    3  502    0 -0.44022828065E+01  0.27487449095E+02 -0.60776235032E+02  0.66978825731E+02  0.41800000000E+01 0.  1.
         -5    1    3    3    0  502  0.48184734489E+02 -0.10041020948E+03 -0.59905478098E+02  0.12653109306E+03  0.41800000000E+01 0.  1.
        -11    1    1    2    0    0 -0.38921225894E+02  0.44959524905E+02 -0.16255168468E+02  0.61647799691E+02  0.00000000000E+00 0.  1.
         11    1    1    2    0    0 -0.48612257881E+01  0.27963235478E+02 -0.11761842095E+03  0.12099449161E+03  0.00000000000E+00 0. -1.
</event>
<event>
 7    1  0.7017065E-006  0.1120262E+03  0.7561462E-02  0.1256863E+00
          1   -1    0    0  501    0  0.00000000000E+00  0.00000000000E+00  0.20681057457E+03  0.20681057457E+03  0.00000000000E+00 0. -1.
         -1   -1    0    0    0  501 -0.00000000000E+00 -0.00000000000E+00 -0.75914297648E+02  0.75914297648E+02  0.00000000000E+00 0.  1.
         23    2    1    2    0    0  0.49282109313E+02  0.14300776140E+02  0.69566814373E+02  0.15210761559E+03  0.12515568929E+03 0.  0.
          5    1    3    3  502    0  0.41020832795E+02  0.68466282640E+02  0.35498603754E+02  0.87452637755E+02  0.41800000000E+01 0.  1.
         -5    1    3    3    0  502  0.82612765179E+01 -0.54165506501E+02  0.34068210619E+02  0.64654977836E+02  0.41800000000E+01 0.  1.
        -11    1    1    2    0    0 -0.68650879879E+02 -0.10815485940E+02  0.35611576818E+01  0.69588791398E+02  0.00000000000E+00 0.  1.
         11    1    1    2    0    0  0.19368770566E+02 -0.34852901999E+01  0.57768304870E+02  0.61028465232E+02  0.00000000000E+00 0. -1.
</event>
<event>
 7    1  0.7017065E-006  0.1124998E+03  0.7561462E-02  0.1256009E+00
         -1   -1    0    0    0  501 -0.00000000000E+00  0.00000000000E+00  0.98559357147E+03  0.98559357147E+03  0.00000000000E+00 0.  1.
          1   -1    0    0  501    0  0.00000000000E+00 -0.00000000000E+00 -0.16641691386E+02  0.16641691386E+02  0.00000000000E+00 0. -1.
         23    2    1    2    0    0 -0.14390518435E+02 -0.61488276051E+02  0.64818407808E+03  0.66316035044E+03  0.12510458104E+03 0.  0.
          5    1    3    3  502    0 -0.55496873674E+02 -0.64768424321E+02  0.54994259287E+03  0.55653317927E+03  0.41800000000E+01 0. -1.
         -5    1    3    3    0  502  0.41106355239E+02  0.32801482703E+01  0.98241485215E+02  0.10662717117E+03  0.41800000000E+01 0. -1.
        -11    1    1    2    0    0 -0.20785698632E+02  0.59384559797E+02  0.12263658437E+03  0.13783433184E+03  0.00000000000E+00 0. -1.
         11    1    1    2    0    0  0.35176217067E+02  0.21037162541E+01  0.19813121763E+03  0.20124058057E+03  0.00000000000E+00 0.  1.
</event>
<event>
 7    1  0.7017065E-006  0.8921060E+02  0.7561462E-02  0.1304775E+00
         -1   -1    0    0    0  501 -0.00000000000E+00  0.00000000000E+00  0.27834863868E+02  0.27834863868E+02  0.00000000000E+00 0.  1.
          1   -1    0    0  501    0  0.00000000000E+00 -0.00000000000E+00 -0.53070066399E+03  0.53070066399E+03  0.00000000000E+00 0. -1.
         23    2    1    2    0    0 -0.19000245900E+02 -0.54914172527E+02 -0.26955545282E+03  0.30279330642E+03  0.12508824316E+03 0.  0.
          5    1    3    3  502    0 -0.86026354275E+01  0.90902178380E+01 -0.22170549981E+03  0.22209781278E+03  0.41800000000E+01 0.  1.
         -5    1    3    3    0  502 -0.10397610472E+02 -0.64004390365E+02 -0.47849953009E+02  0.80695493632E+02  0.41800000000E+01 0.  1.
        -11    1    1    2    0    0  0.20828270071E+02  0.76143197771E+02 -0.20902384429E+03  0.22343359390E+03  0.00000000000E+00 0. -1.
         11    1    1    2    0    0 -0.18280241713E+01 -0.21229025243E+02 -0.24286503009E+02  0.32308627541E+02  0.00000000000E+00 0.  1.
</event>
<event>
 7    1  0.7017065E-006  0.9770031E+02  0.7561462E-02  0.1285208E+00
         -1   -1    0    0    0  501 -0.00000000000E+00  0.00000000000E+00  0.93145894494E+02  0.93145894494E+02  0.00000000000E+00 0.  1.
          1   -1    0    0  501    0  0.00000000000E+00 -0.00000000000E+00 -0.13518488263E+03  0.13518488263E+03  0.00000000000E+00 0. -1.
         23    2    1    2    0    0  0.16789074767E+02 -0.28164784926E+02 -0.38094600322E+02  0.13234238417E+03  0.12242622240E+03 0.  0.
          5    1    3    3  502    0  0.38851225672E+02 -0.68799847083E+02 -0.32664086037E+02  0.85599366888E+02  0.41800000000E+01 0. -1.
         -5    1    3    3    0  502 -0.22062150905E+02  0.40635062157E+02 -0.54305142847E+01  0.46743017280E+02  0.41800000000E+01 0.  1.
        -11    1    1    2    0    0 -0.37369279214E+02  0.32117961459E+01 -0.34888821511E+02  0.51225077158E+02  0.00000000000E+00 0.  1.
         11    1    1    2    0    0  0.20580204446E+02  0.24952988780E+02  0.30944433699E+02  0.44763315796E+02  0.00000000000E+00 0. -1.
</event>
<event>
 7    1  0.7017065E-006  0.7141308E+02  0.7561462E-02  0.1355353E+00
         -3   -1    0    0    0  501 -0.00000000000E+00  0.00000000000E+00  0.35172971135E+02  0.35172971135E+02  0.00000000000E+00 0.  1.
          3   -1    0    0  501    0  0.00000000000E+00 -0.00000000000E+00 -0.34997522460E+03  0.34997522460E+03  0.00000000000E+00 0. -1.
         23    2    1    2    0    0  0.18253099905E+02  0.33567600041E+02 -0.13680883476E+03  0.18122305937E+03  0.11253968433E+03 0.  0.
          5    1    3    3  502    0  0.27799252321E+01 -0.27929767656E+02 -0.10760243730E+03  0.11128143069E+03  0.41800000000E+01 0. -1.
         -5    1    3    3    0  502  0.15473174673E+02  0.61497367697E+02 -0.29206397468E+02  0.69941628671E+02  0.41800000000E+01 0.  1.
        -11    1    1    2    0    0 -0.28242703169E+02 -0.25617904359E+02 -0.18532228890E+03  0.18920432888E+03  0.00000000000E+00 0. -1.
         11    1    1    2    0    0  0.99896032641E+01 -0.79496956819E+01  0.73288701930E+01  0.14720807488E+02  0.00000000000E+00 0.  1.
</event>
<event>
 7    1  0.7017065E-006  0.1335491E+03  0.7561462E-02  0.1222282E+00
          3   -1    0    0  501    0  0.00000000000E+00  0.00000000000E+00  0.18437481088E+03  0.18437481088E+03  0.00000000000E+00 0. -1.
         -3   -1    0    0    0  501 -0.00000000000E+00 -0.00000000000E+00 -0.12580448297E+03  0.12580448297E+03  0.00000000000E+00 0.  1.
         23    2    1    2    0    0 -0.73321689069E+02 -0.67197666877E+02  0.68896598410E+02  0.17402723563E+03  0.12508853243E+03 0.  0.
          5    1    3    3  502    0  0.15928745603E+02  0.75253385882E+01 -0.20388344416E+02  0.27267428287E+02  0.41800000000E+01 0. -1.
         -5    1    3    3    0  502 -0.89250434672E+02 -0.74723005466E+02  0.89284942826E+02  0.14675980734E+03  0.41800000000E+01 0. -1.
        -11    1    1    2    0    0  0.62728214431E+02 -0.17568810798E+01 -0.19675047785E+02  0.65764907224E+02  0.00000000000E+00 0.  1.
         11    1    1    2    0    0  0.10593474638E+02  0.68954547957E+02  0.93487772886E+01  0.70387150998E+02  0.00000000000E+00 0. -1.
</event>
<event>
 7    1  0.7017065E-006  0.1841673E+03  0.7561462E-02  0.1163830E+00
         -1   -1    0    0    0  501 -0.00000000000E+00  0.00000000000E+00  0.41160876219E+03  0.41160876219E+03  0.00000000000E+00 0.  1.
          1   -1    0    0  501    0  0.00000000000E+00 -0.00000000000E+00 -0.11162613815E+03  0.11162613815E+03  0.00000000000E+00 0. -1.
         23    2    1    2    0    0  0.17397571385E+03 -0.32396433348E+02  0.22336006382E+03  0.31121450241E+03  0.12509064912E+03 0.  0.
          5    1    3    3  502    0  0.10590561834E+03 -0.39649606646E+02  0.48001545115E+02  0.12292156864E+03  0.41800000000E+01 0.  1.
         -5    1    3    3    0  502  0.68070095513E+02  0.72531732978E+01  0.17535851871E+03  0.18829293377E+03  0.41800000000E+01 0.  1.
        -11    1    1    2    0    0 -0.77339202334E+02  0.44452820592E+02  0.71808513932E+02  0.11451579869E+03  0.00000000000E+00 0.  1.
         11    1    1    2    0    0 -0.96636511517E+02 -0.12056387243E+02  0.48140462846E+01  0.97504599242E+02  0.00000000000E+00 0. -1.
</event>
<event>
 7    1  0.7017065E-006  0.9602065E+02  0.7561462E-02  0.1288894E+00
         -1   -1    0    0    0  501 -0.00000000000E+00  0.00000000000E+00  0.12848657773E+03  0.12848657773E+03  0.00000000000E+00 0.  1.
          1   -1    0    0  501    0  0.00000000000E+00 -0.00000000000E+00 -0.21686810045E+03  0.21686810045E+03  0.00000000000E+00 0. -1.
         23    2    1    2    0    0  0.39051943675E+02 -0.20599125914E+02  0.75192609618E+02  0.15247864324E+03  0.12508568987E+03 0.  0.
          5    1    3    3  502    0  0.24738524577E+02  0.30278337513E+02 -0.19547335892E+02  0.43912903130E+02  0.41800000000E+01 0. -1.
         -5    1    3    3    0  502  0.14313419098E+02 -0.50877463428E+02  0.94739945510E+02  0.10856574011E+03  0.41800000000E+01 0. -1.
        -11    1    1    2    0    0  0.25341842743E+02  0.24421839658E+02 -0.38601786924E+02  0.52237277873E+02  0.00000000000E+00 0.  1.
         11    1    1    2    0    0 -0.64393786418E+02 -0.38227137434E+01 -0.12497234542E+03  0.14063875706E+03  0.00000000000E+00 0. -1.
</event>
<event>
 7    1  0.7017065E-006  0.1240478E+03  0.7561462E-02  0.1236565E+00
         -1   -1    0    0    0  501 -0.00000000000E+00  0.00000000000E+00  0.28621940127E+02  0.28621940127E+02  0.00000000000E+00 0.  1.
          1   -1    0    0  501    0  0.00000000000E+00 -0.00000000000E+00 -0.72178504212E+03  0.72178504212E+03  0.00000000000E+00 0. -1.
         23    2    1    2    0    0  0.83107284267E+02  0.22908084713E+02 -0.38931402539E+03  0.41544217360E+03  0.11659840563E+03 0.  0.
          5    1    3    3  502    0  0.68006047219E+02  0.47037914190E+02 -0.12731562923E+03  0.15186879099E+03  0.41800000000E+01 0. -1.
         -5    1    3    3    0  502  0.15101237048E+02 -0.24129829477E+02 -0.26199839616E+03  0.26357338261E+03  0.41800000000E+01 0.  1.
        -11    1    1    2    0    0 -0.97631629179E+02 -0.47033746207E+02 -0.20127146811E+03  0.22859202124E+03  0.00000000000E+00 0.  1.
         11    1    1    2    0    0  0.14524344911E+02  0.24125661494E+02 -0.10257760849E+03  0.10637278741E+03  0.00000000000E+00 0. -1.
</event>
<event>
 7    1  0.9682609E-006  0.2828646E+03  0.7561462E-02  0.1094135E+00
         -2   -1    0    0    0  501 -0.00000000000E+00  0.00000000000E+00  0.51053744375E+02  0.51053744375E+02  0.00000000000E+00 0.  1.
          2   -1    0    0  501    0  0.00000000000E+00 -0.00000000000E+00 -0.18542476021E+04  0.18542476021E+04  0.00000000000E+00 0. -1.
         23    2    1    2    0    0  0.26148532772E+03 -0.12659421215E+02 -0.55066517601E+03  0.62242581565E+03  0.12508765870E+03 0.  0.
          5    1    3    3  502    0  0.22375148763E+03  0.36062636014E+02 -0.45856032307E+03  0.51152740320E+03  0.41800000000E+01 0. -1.
         -5    1    3    3    0  502  0.37733840092E+02 -0.48722057229E+02 -0.92104852940E+02  0.11089841245E+03  0.41800000000E+01 0. -1.
        -11    1    1    2    0    0 -0.21913579958E+03 -0.25071243558E+02 -0.10098612323E+04  0.10336676324E+04  0.00000000000E+00 0.  1.
         11    1    1    2    0    0 -0.42349528143E+02  0.37730664773E+02 -0.24266744942E+03  0.24920789837E+03  0.00000000000E+00 0. -1.
</event>
<event>
 7    1  0.7017065E-006  0.9913081E+02  0.7561462E-02  0.1282134E+00
          2   -1    0    0  501    0  0.00000000000E+00  0.00000000000E+00  0.51658633183E+03  0.51658633183E+03  0.00000000000E+00 0. -1.
         -2   -1    0    0    0  501 -0.00000000000E+00 -0.00000000000E+00 -0.30229436764E+02  0.30229436764E+02  0.00000000000E+00 0.  1.
         23    2    1    2    0    0  0.14671917226E+02 -0.51871973636E+02  0.20702101987E+03  0.24781559883E+03  0.12509556965E+03 0.  0.
          5    1    3    3  502    0  0.36949188220E+02  0.27006733826E+02  0.11851586561E+03  0.12711447196E+03  0.41800000000E+01 0. -1.
         -5    1    3    3    0  502 -0.22277270995E+02 -0.78878707461E+02  0.88505154268E+02  0.12070112686E+03  0.41800000000E+01 0. -1.
        -11    1    1    2    0    0  0.15951825243E+02  0.12015832982E+02  0.56748299150E+01  0.20761615193E+02  0.00000000000E+00 0.  1.
         11    1    1    2    0    0 -0.30623742469E+02  0.39856140654E+02  0.27366104528E+03  0.27823855458E+03  0.00000000000E+00 0. -1.
</event>
<event>
 7    1  0.7017065E-006  0.1245607E+03  0.7561462E-02  0.1235757E+00
         -1   -1    0    0    0  501 -0.00000000000E+00  0.00000000000E+00  0.57073661677E+02  0.57073661677E+02  0.00000000000E+00 0.  1.
          1   -1    0    0  501    0  0.00000000000E+00 -0.00000000000E+00 -0.29242942808E+03  0.29242942808E+03  0.00000000000E+00 0. -1.
         23    2    1    2    0    0  0.38505152301E+02 -0.52307663380E+02 -0.10342631830E+03  0.17481525165E+03  0.12507849732E+03 0.  0.
          5    1    3    3  502    0 -0.19391100284E+02  0.28974677698E+02 -0.66470747766E+01  0.35737973096E+02  0.41800000000E+01 0.  1.
         -5    1    3    3    0  502  0.57896252585E+02 -0.81282341078E+02 -0.96779243522E+02  0.13907727856E+03  0.41800000000E+01 0.  1.
        -11    1    1    2    0    0 -0.66903939644E+02  0.53556379600E+02 -0.92735376876E+02  0.12627063420E+03  0.00000000000E+00 0.  1.
         11    1    1    2    0    0  0.28398787343E+02 -0.12487162206E+01 -0.39194071224E+02  0.48417203903E+02  0.00000000000E+00 0. -1.
</event>
<event>
 7    1  0.7017065E-006  0.1694551E+03  0.7561462E-02  0.1178417E+00
         -2   -1    0    0    0  501 -0.00000000000E+00  0.00000000000E+00  0.36153445662E+03  0.36153445662E+03  0.00000000000E+00 0.  1.
          2   -1    0    0  501    0  0.00000000000E+00 -0.00000000000E+00 -0.10351507536E+03  0.10351507536E+03  0.00000000000E+00 0. -1.
         23    2    1    2    0    0 -0.25730919798E+02  0.14032878899E+03  0.23845803625E+03  0.30473604466E+03  0.12509025785E+03 0.  0.
          5    1    3    3  502    0 -0.22414685450E+01 -0.19314218295E+02  0.43239405295E+01  0.20352691991E+02  0.41800000000E+01 0.  1.
         -5    1    3    3    0  502 -0.23489451253E+02  0.15964300728E+03  0.23413409572E+03  0.28438335267E+03  0.41800000000E+01 0.  1.
        -11    1    1    2    0    0  0.41641443493E+02 -0.46425665073E+02  0.18555915467E+02  0.65066690345E+02  0.00000000000E+00 0. -1.
         11    1    1    2    0    0 -0.15910523696E+02 -0.93903123915E+02  0.10054295491E+01  0.95246796974E+02  0.00000000000E+00 0.  1.
</event>
<event>
 7    1  0.7017065E-006  0.1125660E+03  0.7561462E-02  0.1255891E+00
         -4   -1    0    0    0  501 -0.00000000000E+00  0.00000000000E+00  0.43391119844E+03  0.43391119844E+03  0.00000000000E+00 0.  1.
          4   -1    0    0  501    0  0.00000000000E+00 -0.00000000000E+00 -0.38958018058E+02  0.38958018058E+02  0.00000000000E+00 0. -1.
         23    2    1    2    0    0  0.64943925483E+02 -0.85431013583E+01  0.24599992681E+03  0.28364454711E+03  0.12509023572E+03 0.  0.
          5    1    3    3  502    0  0.69960509218E+02  0.46799586419E+02  0.12957063826E+03  0.15456615684E+03  0.41800000000E+01 0. -1.
         -5    1    3    3    0  502 -0.50165837351E+01 -0.55342687777E+02  0.11642928855E+03  0.12907839027E+03  0.41800000000E+01 0. -1.
        -11    1    1    2    0    0 -0.63553886743E+01 -0.19259141563E+02 -0.60816312131E+01  0.21172901010E+02  0.00000000000E+00 0. -1.
         11    1    1    2    0    0 -0.58588536809E+02  0.27802242921E+02  0.15503488478E+03  0.16805176838E+03  0.00000000000E+00 0.  1.
</event>
<event>
 7    1  0.7017065E-006  0.9419997E+02  0.7561462E-02  0.1292988E+00
          3   -1    0    0  501    0  0.00000000000E+00  0.00000000000E+00  0.17091691750E+03  0.17091691750E+03  0.00000000000E+00 0. -1.
         -3   -1    0    0    0  501 -0.00000000000E+00 -0.00000000000E+00 -0.21646241178E+03  0.21646241178E+03  0.00000000000E+00 0.  1.
         23    2    1    2    0    0  0.59000531949E+01 -0.74337691486E+02 -0.16564945589E+03  0.22056446334E+03  0.12509211506E+03 0.  0.
          5    1    3    3  502    0  0.17096783695E+02 -0.68317620038E+02 -0.18445359966E+03  0.19748468307E+03  0.41800000000E+01 0.  1.
         -5    1    3    3    0  502 -0.11196730500E+02 -0.60200714488E+01  0.18804143774E+02  0.23079780267E+02  0.41800000000E+01 0.  1.
        -11    1    1    2    0    0 -0.23480964587E+02 -0.43164775071E+01  0.21706609429E+01  0.23972889791E+02  0.00000000000E+00 0.  1.
         11    1    1    2    0    0  0.17580911392E+02  0.78654168994E+02  0.11793330067E+03  0.14284197615E+03  0.00000000000E+00 0. -1.
</event>
<event>
 7    1  0.7017065E-006  0.1072444E+03  0.7561462E-02  0.1265760E+00
          1   -1    0    0  501    0  0.00000000000E+00  0.00000000000E+00  0.17770975844E+03  0.17770975844E+03  0.00000000000E+00 0. -1.
         -1   -1    0    0    0  501 -0.00000000000E+00 -0.00000000000E+00 -0.66652107215E+02  0.66652107215E+02  0.00000000000E+00 0.  1.
         23    2    1    2    0    0 -0.23214578527E+02  0.16039917230E+02  0.47186212283E+02  0.13663823800E+03  0.12508906368E+03 0.  0.
          5    1    3    3  502    0 -0.17713345507E+02 -0.54414306297E+02  0.19002840427E+02  0.60442201177E+02  0.41800000000E+01 0. -1.
         -5    1    3    3    0  502 -0.55012330206E+01  0.70454223527E+02  0.28183371856E+02  0.76196036818E+02  0.41800000000E+01 0. -1.
        -11    1    1    2    0    0 -0.13055702884E+02 -0.40512995228E+02  0.26166318950E+02  0.49964291324E+02  0.00000000000E+00 0.  1.
         11    1    1    2    0    0  0.36270281412E+02  0.24473077997E+02  0.37705119990E+02  0.57759336334E+02  0.00000000000E+00 0. -1.
</event>
<event>
 7    1  0.7017065E-006  0.1036816E+03  0.7561462E-02  0.1272739E+00
         -2   -1    0    0    0  501 -0.00000000000E+00  0.00000000000E+00  0.13841013948E+02  0.13841013948E+02  0.00000000000E+00 0.  1.
          2   -1    0    0  501    0  0.00000000000E+00 -0.00000000000E+00 -0.85506207813E+03  0.85506207813E+03  0.00000000000E+00 0. -1.
         23    2    1    2    0    0 -0.10773767755E+02  0.79019827339E+00 -0.46502513674E+03  0.48167704516E+03  0.12509076523E+03 0.  0.
          5    1    3    3  502    0  0.18350692002E+02 -0.54359760446E+02 -0.29428057864E+03  0.29985040073E+03  0.41800000000E+01 0.  1.
         -5    1    3    3    0  502 -0.29124459758E+02  0.55149958719E+02 -0.17074455810E+03  0.18182664443E+03  0.41800000000E+01 0.  1.
        -11    1    1    2    0    0  0.83675794152E+01  0.42831805634E+02 -0.24746466472E+03  0.25128338633E+03  0.00000000000E+00 0. -1.
         11    1    1    2    0    0  0.24061883403E+01 -0.43622003907E+02 -0.12873126272E+03  0.13594266059E+03  0.00000000000E+00 0.  1.
</event>
<event>
 7    1  0.7017065E-006  0.8398792E+02  0.7561462E-02  0.1318101E+00
          1   -1    0    0  501    0  0.00000000000E+00  0.00000000000E+00  0.91640781273E+02  0.91640781273E+02  0.00000000000E+00 0. -1.
         -1   -1    0    0    0  501 -0.00000000000E+00 -0.00000000000E+00 -0.16207890998E+03  0.16207890998E+03  0.00000000000E+00 0.  1.
         23    2    1    2    0    0 -0.33881252411E+02  0.42345005443E+02 -0.53374328254E+02  0.14641439408E+03  0.12508923665E+03 0.  0.
          5    1    3    3  502    0 -0.46987350645E+02  0.67637683094E+02  0.36393879095E+01  0.82543230124E+02  0.41800000000E+01 0. -1.
         -5    1    3    3    0  502  0.13106098233E+02 -0.25292677651E+02 -0.57013716163E+02  0.63871163951E+02  0.41800000000E+01 0. -1.
        -11    1    1    2    0    0  0.13334186388E+02 -0.52790823655E+01  0.36375824846E+02  0.39100765599E+02  0.00000000000E+00 0. -1.
         11    1    1    2    0    0  0.20547066023E+02 -0.37065923077E+02 -0.53439625299E+02  0.68204531579E+02  0.00000000000E+00 0.  1.
</event>
<event>
 7    1  0.7017065E-006  0.1274295E+03  0.7561462E-02  0.1231320E+00
          4   -1    0    0  501    0  0.00000000000E+00  0.00000000000E+00  0.17511061822E+03  0.17511061822E+03  0.00000000000E+00 0. -1.
         -4   -1    0    0    0  501 -0.00000000000E+00 -0.00000000000E+00 -0.10250176421E+03  0.10250176421E+03  0.00000000000E+00 0.  1.
         23    2    1    2    0    0 -0.69037964935E+02  0.48954792939E+01  0.14166786591E+01  0.14296952717E+03  0.12509225556E+03 0.  0.
          5    1    3    3  502    0 -0.38251828328E+02 -0.58583998195E+02  0.13188936448E+02  0.71321158569E+02  0.41800000000E+01 0.  1.
         -5    1    3    3    0  502 -0.30786136607E+02  0.63479477489E+02 -0.11772257789E+02  0.71648368600E+02  0.41800000000E+01 0.  1.
        -11    1    1    2    0    0 -0.12144032794E+02  0.24829743757E+02  0.13992457508E+02  0.30980357884E+02  0.00000000000E+00 0.  1.
         11    1    1    2    0    0  0.81181997729E+02 -0.29725223051E+02  0.57199717840E+02  0.10366249737E+03  0.00000000000E+00 0. -1.
</event>
<event>
 7    1  0.7017065E-006  0.9871622E+02  0.7561462E-02  0.1283019E+00
         -1   -1    0    0    0  501 -0.00000000000E+00  0.00000000000E+00  0.80871427364E+02  0.80871427364E+02  0.00000000000E+00 0.  1.
          1   -1    0    0  501    0  0.00000000000E+00 -0.00000000000E+00 -0.46262889639E+03  0.46262889639E+03  0.00000000000E+00 0. -1.
         23    2    1    2    0    0 -0.70789685687E+02 -0.38443927153E+02 -0.66439081320E+01  0.14893385503E+03  0.12509211216E+03 0.  0.
          5    1    3    3  502    0 -0.48712109802E+01  0.38549831621E+01  0.51030918505E+02  0.51577287977E+02  0.41800000000E+01 0. -1.
         -5    1    3    3    0  502 -0.65918474707E+02 -0.42298910315E+02 -0.57674826637E+02  0.97356567057E+02  0.41800000000E+01 0. -1.
        -11    1    1    2    0    0  0.23358493597E+02  0.56203193222E+02 -0.12088989342E+03  0.13534690422E+03  0.00000000000E+00 0.  1.
         11    1    1    2    0    0  0.47431192089E+02 -0.17759266069E+02 -0.25422366748E+03  0.25921956450E+03  0.00000000000E+00 0. -1.
</event>
<event>
 7    1  0.7017065E-006  0.1486619E+03  0.7561462E-02  0.1202127E+00
          2   -1    0    0  501    0  0.00000000000E+00  0.00000000000E+00  0.32864977575E+03  0.32864977575E+03  0.00000000000E+00 0. -1.
         -2   -1    0    0    0  501 -0.00000000000E+00 -0.00000000000E+00 -0.11297715427E+03  0.11297715427E+03  0.00000000000E+00 0.  1.
         23    2    1    2    0    0 -0.91999291001E+02  0.79644321532E+02 -0.39267683799E+01  0.17455802452E+03  0.12509195385E+03 0.  0.
          5    1    3    3  502    0  0.23261375937E+02  0.14926154438E+02 -0.28635000557E+02  0.40016463533E+02  0.41800000000E+01 0.  1.
         -5    1    3    3    0  502 -0.11526066694E+03  0.64718167094E+02  0.24708232177E+02  0.13454156099E+03  0.41800000000E+01 0.  1.
        -11    1    1    2    0    0  0.20531176033E+02 -0.59384640099E+02  0.44886276391E+02  0.77219443648E+02  0.00000000000E+00 0.  1.
         11    1    1    2    0    0  0.71468114968E+02 -0.20259681434E+02  0.17471311347E+03  0.18984946185E+03  0.00000000000E+00 0. -1.
</event>
<event>
 7    1  0.7017065E-006  0.7962808E+02  0.7561462E-02  0.1330110E+00
         -2   -1    0    0    0  501 -0.00000000000E+00  0.00000000000E+00  0.55350766126E+02  0.55350766126E+02  0.00000000000E+00 0.  1.
          2   -1    0    0  501    0  0.00000000000E+00 -0.00000000000E+00 -0.21799848242E+03  0.21799848242E+03  0.00000000000E+00 0. -1.
         23    2    1    2    0    0 -0.21351345435E+02 -0.88373518781E+00 -0.81926802146E+02  0.15104170431E+03  0.12507971294E+03 0.  0.
          5    1    3    3  502    0  0.29361517613E+02 -0.37346445000E+02 -0.73867724321E+02  0.87924790401E+02  0.41800000000E+01 0. -1.
         -5    1    3    3    0  502 -0.50712863049E+02  0.36462709812E+02 -0.80590778249E+01  0.63116913904E+02  0.41800000000E+01 0. -1.
        -11    1    1    2    0    0 -0.71334651709E+01  0.15417350345E+02  0.14202384910E+02  0.22142464952E+02  0.00000000000E+00 0.  1.
         11    1    1    2    0    0  0.28484810606E+02 -0.14533615158E+02 -0.94923299055E+02  0.10016507929E+03  0.00000000000E+00 0. -1.
</event>
<event>
 7    1  0.7017065E-006  0.5668273E+02  0.7561462E-02  0.1412305E+00
          1   -1    0    0  501    0  0.00000000000E+00  0.00000000000E+00  0.96906210666E+02  0.96906210666E+02  0.00000000000E+00 0. -1.
         -1   -1    0    0    0  501 -0.00000000000E+00 -0.00000000000E+00 -0.13518880485E+03  0.13518880485E+03  0.00000000000E+00 0.  1.
         23    2    1    2    0    0 -0.18553567891E+02  0.63247710730E+01 -0.57595984777E+02  0.13909522150E+03  0.12508375422E+03 0.  0.
          5    1    3    3  502    0  0.76180975010E+01 -0.16195035914E+00 -0.93553937952E+02  0.93956763162E+02  0.41800000000E+01 0. -1.
         -5    1    3    3    0  502 -0.26171665392E+02  0.64867214321E+01  0.35957953176E+02  0.45138458336E+02  0.41800000000E+01 0. -1.
        -11    1    1    2    0    0  0.46215521765E+02  0.69005539324E+01  0.35167129802E+02  0.58482639433E+02  0.00000000000E+00 0. -1.
         11    1    1    2    0    0 -0.27661953874E+02 -0.13225325005E+02 -0.15853739204E+02  0.34517154581E+02  0.00000000000E+00 0.  1.
</event>
<event>
 7    1  0.7017065E-006  0.9321306E+02  0.7561462E-02  0.1295252E+00
          1   -1    0    0  501    0  0.00000000000E+00  0.00000000000E+00  0.14472778820E+03  0.14472778820E+03  0.00000000000E+00 0. -1.
         -1   -1    0    0    0  501 -0.00000000000E+00 -0.00000000000E+00 -0.39720680752E+03  0.39720680752E+03  0.00000000000E+00 0.  1.
         23    2    1    2    0    0  0.58693438896E+02 -0.28427720736E+02 -0.36128427246E+03  0.38459227044E+03  0.11459421396E+03 0.  0.
          5    1    3    3  502    0  0.53078749475E+02 -0.40331108641E+02 -0.85665629556E+02  0.10862791749E+03  0.41800000000E+01 0. -1.
         -5    1    3    3    0  502  0.56146894205E+01  0.11903387904E+02 -0.27561864291E+03  0.27596435295E+03  0.41800000000E+01 0.  1.
        -11    1    1    2    0    0 -0.75296526173E+02  0.28764311013E+01  0.10077347591E+03  0.12582978247E+03  0.00000000000E+00 0.  1.
         11    1    1    2    0    0  0.16603087278E+02  0.25551289635E+02  0.80317772362E+01  0.31512542816E+02  0.00000000000E+00 0. -1.
</event>
<event>
 7    1  0.7017065E-006  0.1147926E+03  0.7561462E-02  0.1251944E+00
         -1   -1    0    0    0  501 -0.00000000000E+00  0.00000000000E+00  0.17072198131E+03  0.17072198131E+03  0.00000000000E+00 0.  1.
          1   -1    0    0  501    0  0.00000000000E+00 -0.00000000000E+00 -0.12833190425E+03  0.12833190425E+03  0.00000000000E+00 0. -1.
         23    2    1    2    0    0  0.50253758556E+02 -0.62602799604E+02  0.82354523946E+02  0.16992426795E+03  0.12508972163E+03 0.  0.
          5    1    3    3  502    0  0.60918787303E+02 -0.22473993840E+02 -0.12535489778E+02  0.66263036072E+02  0.41800000000E+01 0. -1.
         -5    1    3    3    0  502 -0.10665028747E+02 -0.40128805764E+02  0.94890013724E+02  0.10366123188E+03  0.41800000000E+01 0. -1.
        -11    1    1    2    0    0  0.34047240471E+00  0.71428036491E+02 -0.22829875199E+02  0.74988555927E+02  0.00000000000E+00 0.  1.
         11    1    1    2    0    0 -0.50594230961E+02 -0.88252368871E+01 -0.17134571683E+02  0.54141061676E+02  0.00000000000E+00 0. -1.
</event>
<event>
 7    1  0.7017065E-006  0.1408301E+03  0.7561462E-02  0.1212216E+00
          1   -1    0    0  501    0  0.00000000000E+00  0.00000000000E+00  0.16257621742E+03  0.16257621742E+03  0.00000000000E+00 0. -1.
         -1   -1    0    0    0  501 -0.00000000000E+00 -0.00000000000E+00 -0.18302064998E+03  0.18302064998E+03  0.00000000000E+00 0.  1.
         23    2    1    2    0    0 -0.11923338430E+03  0.18374635553E+02 -0.68574386970E+02  0.18682249578E+03  0.12508385675E+03 0.  0.
          5    1    3    3  502    0 -0.10783148998E+02 -0.35370274169E+02  0.14522788982E+02  0.39946419075E+02  0.41800000000E+01 0. -1.
         -5    1    3    3    0  502 -0.10845023530E+03  0.53744909722E+02 -0.83097175953E+02  0.14687607671E+03  0.41800000000E+01 0. -1.
        -11    1    1    2    0    0  0.85395869047E+02 -0.24739204454E+02  0.74027074582E+02  0.11569135862E+03  0.00000000000E+00 0. -1.
         11    1    1    2    0    0  0.33837515252E+02  0.63645689016E+01 -0.25897120178E+02  0.43083013001E+02  0.00000000000E+00 0.  1.
</event>
<event>
 7    1  0.7017065E-006  0.1009378E+03  0.7561462E-02  0.1278336E+00
          1   -1    0    0  501    0  0.00000000000E+00  0.00000000000E+00  0.19174372145E+03  0.19174372145E+03  0.00000000000E+00 0. -1.
         -1   -1    0    0    0  501 -0.00000000000E+00 -0.00000000000E+00 -0.11759144903E+03  0.11759144903E+03  0.00000000000E+00 0.  1.
         23    2    1    2    0    0 -0.61538358299E+01  0.79621344335E+02 -0.28613432824E+02  0.15114351130E+03  0.12509278277E+03 0.  0.
          5    1    3    3  502    0 -0.55060244746E+01  0.75830012367E+02  0.37436552382E+02  0.84849719713E+02  0.41800000000E+01 0.  1.
         -5    1    3    3    0  502 -0.64781135532E+00  0.37913319680E+01 -0.66049985207E+02  0.66293791590E+02  0.41800000000E+01 0.  1.
        -11    1    1    2    0    0 -0.41559546178E+02 -0.43864378331E+02  0.56450379682E+02  0.82691746451E+02  0.00000000000E+00 0.  1.
         11    1    1    2    0    0  0.47713382008E+02 -0.35756966004E+02  0.46315325555E+02  0.75499912726E+02  0.00000000000E+00 0. -1.
</event>
<event>
 7    1  0.7017065E-006  0.1218484E+03  0.7561462E-02  0.1240078E+00
         -2   -1    0    0    0  501 -0.00000000000E+00  0.00000000000E+00  0.50545971453E+02  0.50545971453E+02  0.00000000000E+00 0.  1.
          2   -1    0    0  501    0  0.00000000000E+00 -0.00000000000E+00 -0.34789257834E+03  0.34789257834E+03  0.00000000000E+00 0. -1.
         23    2    1    2    0    0 -0.73679754353E+02  0.15810651028E+02 -0.14368081390E+03  0.20486626307E+03  0.12508927441E+03 0.  0.
          5    1    3    3  502    0 -0.35517360417E+02 -0.46194078495E+02 -0.10997024903E+03  0.12452431028E+03  0.41800000000E+01 0. -1.
         -5    1    3    3    0  502 -0.38162393937E+02  0.62004729523E+02 -0.33710564877E+02  0.80341952792E+02  0.41800000000E+01 0. -1.
        -11    1    1    2    0    0  0.41922693153E+02 -0.50291245745E+02 -0.11694407950E+03  0.13402477133E+03  0.00000000000E+00 0. -1.
         11    1    1    2    0    0  0.31757061201E+02  0.34480594717E+02 -0.36721713480E+02  0.59547515390E+02  0.00000000000E+00 0.  1.
</event>
<event>
 7    1  0.7017065E-006  0.1519135E+03  0.7561462E-02  0.1198141E+00
          2   -1    0    0  501    0  0.00000000000E+00  0.00000000000E+00  0.52090982047E+03  0.52090982047E+03  0.00000000000E+00 0. -1.
         -2   -1    0    0    0  501 -0.00000000000E+00 -0.00000000000E+00 -0.62415732752E+02  0.62415732752E+02  0.00000000000E+00 0.  1.
         23    2    1    2    0    0  0.12635856672E+03 -0.22691786907E+02  0.13912519497E+03  0.22690372121E+03  0.12509226294E+03 0.  0.
          5    1    3    3  502    0  0.66173776281E+01 -0.51323792740E+02  0.20293544485E+02  0.55742459003E+02  0.41800000000E+01 0.  1.
         -5    1    3    3    0  502  0.11974118910E+03  0.28632005833E+02  0.11883165048E+03  0.17116126221E+03  0.41800000000E+01 0.  1.
        -11    1    1    2    0    0 -0.68613227891E+02  0.75699017016E+01  0.27081996138E+03  0.27947903308E+03  0.00000000000E+00 0. -1.
         11    1    1    2    0    0 -0.57745338834E+02  0.15121885206E+02  0.48548931376E+02  0.76942798929E+02  0.00000000000E+00 0.  1.
</event>
<event>
 7    1  0.7017065E-006  0.1448925E+03  0.7561462E-02  0.1206893E+00
         -1   -1    0    0    0  501 -0.00000000000E+00  0.00000000000E+00  0.45020496338E+02  0.45020496338E+02  0.00000000000E+00 0.  1.
          1   -1    0    0  501    0  0.00000000000E+00 -0.00000000000E+00 -0.60517614994E+03  0.60517614994E+03  0.00000000000E+00 0. -1.
         23    2    1    2    0    0  0.11624989274E+03  0.32157905896E+02 -0.24029960732E+03  0.29655115383E+03  0.12510202672E+03 0.  0.
          5    1    3    3  502    0 -0.12354610325E+01 -0.25504634664E+02 -0.37028843763E+01  0.26138027967E+02  0.41800000000E+01 0. -1.
         -5    1    3    3    0  502  0.11748535377E+03  0.57662540560E+02 -0.23659672294E+03  0.27041312587E+03  0.41800000000E+01 0. -1.
        -11    1    1    2    0    0 -0.57037825940E+02 -0.44673668700E+02 -0.25432502364E+03  0.26444331701E+03  0.00000000000E+00 0. -1.
         11    1    1    2    0    0 -0.59212066796E+02  0.12515762803E+02 -0.65531022640E+02  0.89202175428E+02  0.00000000000E+00 0.  1.
</event>
<event>
 7    1  0.7017065E-006  0.1099566E+03  0.7561462E-02  0.1260650E+00
          1   -1    0    0  501    0  0.00000000000E+00  0.00000000000E+00  0.21634578689E+03  0.21634578689E+03  0.00000000000E+00 0. -1.
         -1   -1    0    0    0  501 -0.00000000000E+00 -0.00000000000E+00 -0.61276859637E+02  0.61276859637E+02  0.00000000000E+00 0.  1.
         23    2    1    2    0    0  0.33506781354E+02  0.16144493834E+02  0.94374581987E+02  0.16105188738E+03  0.12509116526E+03 0.  0.
          5    1    3    3  502    0  0.67461539294E+01  0.68134876821E+02  0.32800171835E+02  0.76034174584E+02  0.41800000000E+01 0. -1.
         -5    1    3    3    0  502  0.26760627425E+02 -0.51990382988E+02  0.61574410152E+02  0.85017712795E+02  0.41800000000E+01 0. -1.
        -11    1    1    2    0    0  0.20121959976E+02  0.19724215833E+02  0.39778320538E+02  0.48746822956E+02  0.00000000000E+00 0. -1.
         11    1    1    2    0    0 -0.53628741330E+02 -0.35868709667E+02  0.20916024725E+02  0.67823936188E+02  0.00000000000E+00 0.  1.
</event>
<event>
 7    1  0.7017065E-006  0.1039117E+03  0.7561462E-02  0.1272279E+00
         -1   -1    0    0    0  501 -0.00000000000E+00  0.00000000000E+00  0.86004250198E+02  0.86004250198E+02  0.00000000000E+00 0.  1.
          1   -1    0    0  501    0  0.00000000000E+00 -0.00000000000E+00 -0.19588537428E+03  0.19588537428E+03  0.00000000000E+00 0. -1.
         23    2    1    2    0    0  0.44153314200E+02  0.49939739657E+02 -0.88260852931E+02  0.16697631285E+03  0.12509043985E+03 0.  0.
          5    1    3    3  502    0  0.61320905102E+02  0.29942412583E+02  0.63606943809E+01  0.68663908328E+02  0.41800000000E+01 0.  1.
         -5    1    3    3    0  502 -0.17167590902E+02  0.19997327074E+02 -0.94621547311E+02  0.98312404523E+02  0.41800000000E+01 0.  1.
        -11    1    1    2    0    0 -0.23140410249E+02 -0.75912614716E+02 -0.17318850490E+02  0.81228974152E+02  0.00000000000E+00 0.  1.
         11    1    1    2    0    0 -0.21012903952E+02  0.25972875059E+02 -0.43014206601E+01  0.33684337473E+02  0.00000000000E+00 0. -1.
</event>
<event>
 7    1  0.7017065E-006  0.1051759E+03  0.7561462E-02  0.1269773E+00
         -2   -1    0    0    0  501 -0.00000000000E+00  0.00000000000E+00  0.16086421345E+02  0.16086421345E+02  0.00000000000E+00 0.  1.
          2   -1    0    0  501    0  0.00000000000E+00 -0.00000000000E+00 -0.88980340843E+03  0.88980340843E+03  0.00000000000E+00 0. -1.
         23    2    1    2    0    0  0.22061360950E+02 -0.43808364048E+02 -0.50947375301E+03  0.52689382879E+03  0.12509086860E+03 0.  0.
          5    1    3    3  502    0  0.13421432272E+01  0.34863886941E+02 -0.55641423911E+02  0.65808300510E+02  0.41800000000E+01 0. -1.
         -5    1    3    3    0  502  0.20719217723E+02 -0.78672250989E+02 -0.45383232910E+03  0.46108552829E+03  0.41800000000E+01 0. -1.
        -11    1    1    2    0    0 -0.52154570179E+02  0.33283008945E+02 -0.30969482336E+03  0.31581440989E+03  0.00000000000E+00 0. -1.
         11    1    1    2    0    0  0.30093209229E+02  0.10525355103E+02 -0.54548410717E+02  0.63181591097E+02  0.00000000000E+00 0.  1.
</event>
<event>
 7    1  0.7017065E-006  0.1168681E+03  0.7561462E-02  0.1248355E+00
          2   -1    0    0  501    0  0.00000000000E+00  0.00000000000E+00  0.18777004373E+02  0.18777004373E+02  0.00000000000E+00 0. -1.
         -2   -1    0    0    0  501 -0.00000000000E+00 -0.00000000000E+00 -0.92418898932E+03  0.92418898932E+03  0.00000000000E+00 0.  1.
         23    2    1    2    0    0  0.18799038384E+02 -0.62764871911E+02 -0.62256328622E+03  0.63837708895E+03  0.12508968522E+03 0.  0.
          5    1    3    3  502    0  0.61967891410E+02 -0.73510005299E+02 -0.44381574341E+03  0.45412952662E+03  0.41800000000E+01 0. -1.
         -5    1    3    3    0  502 -0.43168853026E+02  0.10745133388E+02 -0.17874754281E+03  0.18424756233E+03  0.41800000000E+01 0. -1.
        -11    1    1    2    0    0 -0.83460839979E+01 -0.13483440700E+02 -0.55378637774E+01  0.16796673076E+02  0.00000000000E+00 0. -1.
         11    1    1    2    0    0 -0.10452954386E+02  0.76248312612E+02 -0.27731083495E+03  0.28779223167E+03  0.00000000000E+00 0.  1.
</event>
<event>
 7    1  0.7017065E-006  0.1082023E+03  0.7561462E-02  0.1263936E+00
         -2   -1    0    0    0  501 -0.00000000000E+00  0.00000000000E+00  0.37760634077E+03  0.37760634077E+03  0.00000000000E+00 0.  1.
          2   -1    0    0  501    0  0.00000000000E+00 -0.00000000000E+00 -0.42966161192E+02  0.42966161192E+02  0.00000000000E+00 0. -1.
         23    2    1    2    0    0 -0.59074741839E+02 -0.24835513589E+02  0.15846351028E+03  0.21181173128E+03  0.12508755957E+03 0.  0.
          5    1    3    3  502    0 -0.95065419687E+02 -0.24668203740E+02  0.14021837763E+03  0.17124432873E+03  0.41800000000E+01 0. -1.
         -5    1    3    3    0  502  0.35990677848E+02 -0.16730984947E+00  0.18245132652E+02  0.40567402554E+02  0.41800000000E+01 0. -1.
        -11    1    1    2    0    0  0.24432934520E+02 -0.15317726668E+02  0.14372185307E+03  0.14658639804E+03  0.00000000000E+00 0. -1.
         11    1    1    2    0    0  0.34641807320E+02  0.40153240257E+02  0.32454816230E+02  0.62174372647E+02  0.00000000000E+00 0.  1.
</event>
<event>
 7    1  0.7017065E-006  0.5314469E+02  0.7561462E-02  0.1429082E+00
         -4   -1    0    0    0  501 -0.00000000000E+00  0.00000000000E+00  0.11616762053E+03  0.11616762053E+03  0.00000000000E+00 0.  1.
          4   -1    0    0  501    0  0.00000000000E+00 -0.00000000000E+00 -0.10778875999E+03  0.10778875999E+03  0.00000000000E+00 0. -1.
         23    2    1    2    0    0 -0.14220093752E+02  0.21482995407E+02  0.21603704949E+02  0.12952821788E+03  0.12508840475E+03 0.  0.
          5    1    3    3  502    0 -0.59928731645E+01  0.12803952825E+01 -0.52061616411E+02  0.52587434280E+02  0.41800000000E+01 0. -1.
         -5    1    3    3    0  502 -0.82272205878E+01  0.20202600124E+02  0.73665321360E+02  0.76940783603E+02  0.41800000000E+01 0. -1.
        -11    1    1    2    0    0 -0.22022681266E+01 -0.46599800261E+02 -0.34174534340E+02  0.57829838031E+02  0.00000000000E+00 0. -1.
         11    1    1    2    0    0  0.16422361879E+02  0.25116804855E+02  0.20949689931E+02  0.36598324607E+02  0.00000000000E+00 0.  1.
</event>
<event>
 6    1  0.7017065E-006  0.1552072E+03  0.7561462E-02  0.1194217E+00
         -1   -1    0    0    0  501 -0.00000000000E+00  0.00000000000E+00  0.65483173937E+02  0.65483173937E+02  0.00000000000E+00 0.  1.
          1   -1    0    0  501    0  0.00000000000E+00 -0.00000000000E+00 -0.44291171983E+03  0.44291171983E+03  0.00000000000E+00 0. -1.
          5    1    1    2  502    0 -0.80713349014E+02 -0.83064596922E+02 -0.10326900347E+03  0.15522993090E+03  0.41800000000E+01 0. -1.
         -5    1    1    2    0  502  0.46147165386E+02  0.88377493449E+02 -0.55934903964E+02  0.11439548987E+03  0.41800000000E+01 0.  1.
        -11    1    1    2    0    0 -0.29970409270E+02 -0.34384076448E+01 -0.47781316110E+02  0.56507541516E+02  0.00000000000E+00 0.  1.
         11    1    1    2    0    0  0.64536592898E+02 -0.18744888828E+01 -0.17044332235E+03  0.18226193148E+03  0.00000000000E+00 0. -1.
</event>
<event>
 7    1  0.7017065E-006  0.7310055E+02  0.7561462E-02  0.1349856E+00
         -3   -1    0    0    0  501 -0.00000000000E+00  0.00000000000E+00  0.27160507103E+03  0.27160507103E+03  0.00000000000E+00 0.  1.
          3   -1    0    0  501    0  0.00000000000E+00 -0.00000000000E+00 -0.52225572390E+02  0.52225572390E+02  0.00000000000E+00 0. -1.
         23    2    1    2    0    0  0.16313611091E+02  0.24024883580E+02  0.17613315124E+03  0.21797710087E+03  0.12509116915E+03 0.  0.
          5    1    3    3  502    0  0.26348028537E+02  0.27856359766E+02 -0.28012444939E+01  0.38671885885E+02  0.41800000000E+01 0.  1.
         -5    1    3    3    0  502 -0.10034417446E+02 -0.38314761856E+01  0.17893439574E+03  0.17930521498E+03  0.41800000000E+01 0.  1.
        -11    1    1    2    0    0  0.17532328693E+02 -0.50293204822E+02  0.29348512481E+02  0.60812204249E+02  0.00000000000E+00 0.  1.
         11    1    1    2    0    0 -0.33845939784E+02  0.26268321242E+02  0.13897834919E+02  0.45041338304E+02  0.00000000000E+00 0. -1.
</event>
<event>
 7    1  0.7017065E-006  0.1530582E+03  0.7561462E-02  0.1196765E+00
         -2   -1    0    0    0  501 -0.00000000000E+00  0.00000000000E+00  0.24953541688E+04  0.24953541688E+04  0.00000000000E+00 0.  1.
          2   -1    0    0  501    0  0.00000000000E+00 -0.00000000000E+00 -0.14206398575E+02  0.14206398575E+02  0.00000000000E+00 0. -1.
         23    2    1    2    0    0  0.58424762936E+02  0.11465967343E+03  0.18586974974E+04  0.18673416148E+04  0.12509206912E+03 0.  0.
          5    1    3    3  502    0  0.76013549395E+02  0.85500081520E+02  0.17406187989E+04  0.17443794310E+04  0.41800000000E+01 0.  1.
         -5    1    3    3    0  502 -0.17588786458E+02  0.29159591907E+02  0.11807869847E+03  0.12296218379E+03  0.41800000000E+01 0.  1.
        -11    1    1    2    0    0 -0.72901261321E+02 -0.12120446829E+03  0.57660432760E+03  0.59369829681E+03  0.00000000000E+00 0.  1.
         11    1    1    2    0    0  0.14476498385E+02  0.65447948604E+01  0.45845945257E+02  0.48520655826E+02  0.00000000000E+00 0. -1.
</event>
<event>
 7    1  0.7017065E-006  0.1141373E+03  0.7561462E-02  0.1253094E+00
          2   -1    0    0  501    0  0.00000000000E+00  0.00000000000E+00  0.30278018508E+02  0.30278018508E+02  0.00000000000E+00 0. -1.
         -2   -1    0    0    0  501 -0.00000000000E+00 -0.00000000000E+00 -0.46112377486E+03  0.46112377486E+03  0.00000000000E+00 0.  1.
         23    2    1    2    0    0 -0.33534439584E+02 -0.28867673388E+02 -0.27568094381E+03  0.30595029655E+03  0.12509076693E+03 0.  0.
          5    1    3    3  502    0  0.12319772212E+02 -0.67473573759E+02 -0.10988577700E+03  0.12960253211E+03  0.41800000000E+01 0.  1.
         -5    1    3    3    0  502 -0.45854211795E+02  0.38605900371E+02 -0.16579516681E+03  0.17634776444E+03  0.41800000000E+01 0.  1.
        -11    1    1    2    0    0  0.54497255655E+02 -0.99088824712E+01 -0.10467382797E+03  0.11842612502E+03  0.00000000000E+00 0. -1.
         11    1    1    2    0    0 -0.20962816071E+02  0.38776555859E+02 -0.50490984573E+02  0.67025371801E+02  0.00000000000E+00 0.  1.
</event>
<event>
 7    1  0.7017065E-006  0.9881873E+02  0.7561462E-02  0.1282800E+00
          2   -1    0    0  501    0  0.00000000000E+00  0.00000000000E+00  0.11161138017E+02  0.11161138017E+02  0.00000000000E+00 0. -1.
         -2   -1    0    0    0  501 -0.00000000000E+00 -0.00000000000E+00 -0.11983836743E+04  0.11983836743E+04  0.00000000000E+00 0.  1.
         23    2    1    2    0    0  0.87495197035E-01 -0.27457475663E+02 -0.83437274433E+03  0.84414437073E+03  0.12509165252E+03 0.  0.
          5    1    3    3  502    0 -0.41027015669E+02  0.19979334599E+02 -0.59091090900E+03  0.59268504671E+03  0.41800000000E+01 0. -1.
         -5    1    3    3    0  502  0.41114510866E+02 -0.47436810262E+02 -0.24346183534E+03  0.25145932402E+03  0.41800000000E+01 0. -1.
        -11    1    1    2    0    0  0.26487060431E+02  0.48327206760E+02 -0.15100685447E+03  0.16074872746E+03  0.00000000000E+00 0. -1.
         11    1    1    2    0    0 -0.26574555628E+02 -0.20869731097E+02 -0.20184293749E+03  0.20465171413E+03  0.00000000000E+00 0.  1.
</event>
<event>
 7    1  0.7017065E-006  0.1329128E+03  0.7561462E-02  0.1223197E+00
          1   -1    0    0  501    0  0.00000000000E+00  0.00000000000E+00  0.73245070090E+02  0.73245070090E+02  0.00000000000E+00 0. -1.
         -1   -1    0    0    0  501 -0.00000000000E+00 -0.00000000000E+00 -0.26450522097E+03  0.26450522097E+03  0.00000000000E+00 0.  1.
         23    2    1    2    0    0 -0.87279860779E+02  0.47222440700E+01 -0.90830888146E+02  0.17759151391E+03  0.12509365246E+03 0.  0.
          5    1    3    3  502    0 -0.72820781920E+02  0.54102510277E+02 -0.25501994900E+02  0.94328002426E+02  0.41800000000E+01 0.  1.
         -5    1    3    3    0  502 -0.14459078859E+02 -0.49380266207E+02 -0.65328893246E+02  0.83263511486E+02  0.41800000000E+01 0.  1.
        -11    1    1    2    0    0  0.62204267107E+02 -0.44417699938E+02 -0.73457684339E+02  0.10601101029E+03  0.00000000000E+00 0. -1.
         11    1    1    2    0    0  0.25075593673E+02  0.39695455868E+02 -0.26971578393E+02  0.54147766857E+02  0.00000000000E+00 0.  1.
</event>
<event>
 7    1  0.7017065E-006  0.1037992E+03  0.7561462E-02  0.1272504E+00
          1   -1    0    0  501    0  0.00000000000E+00  0.00000000000E+00  0.17905979975E+03  0.17905979975E+03  0.00000000000E+00 0. -1.
         -1   -1    0    0    0  501 -0.00000000000E+00 -0.00000000000E+00 -0.92094893043E+02  0.92094893043E+02  0.00000000000E+00 0.  1.
         23    2    1    2    0    0 -0.13475960180E+02  0.29408543810E+02 -0.16711480685E+02  0.13027491677E+03  0.12508323789E+03 0.  0.
          5    1    3    3  502    0 -0.60744939413E+02  0.80259887324E+00  0.19667243109E+02  0.63991129704E+02  0.41800000000E+01 0.  1.
         -5    1    3    3    0  502  0.47268979233E+02  0.28605944937E+02 -0.36378723794E+02  0.66283787070E+02  0.41800000000E+01 0.  1.
        -11    1    1    2    0    0  0.18471331711E+02 -0.58722624199E+02  0.49156416815E+02  0.78777471412E+02  0.00000000000E+00 0.  1.
         11    1    1    2    0    0 -0.49953715314E+01  0.29314080389E+02  0.54519970580E+02  0.62102304610E+02  0.00000000000E+00 0. -1.
</event>
<event>
 7    1  0.7017065E-006  0.1102742E+03  0.7561462E-02  0.1260063E+00
          1   -1    0    0  501    0  0.00000000000E+00  0.00000000000E+00  0.17934708493E+03  0.17934708493E+03  0.00000000000E+00 0. -1.
         -1   -1    0    0    0  501 -0.00000000000E+00 -0.00000000000E+00 -0.21574864928E+03  0.21574864928E+03  0.00000000000E+00 0.  1.
         23    2    1    2    0    0  0.21160310364E+02 -0.21259738299E+02 -0.18050289927E+03  0.22164809741E+03  0.12508735840E+03 0.  0.
          5    1    3    3  502    0 -0.51174787633E+02 -0.27189099354E+01 -0.53096356637E+02  0.73911750410E+02  0.41800000000E+01 0. -1.
         -5    1    3    3    0  502  0.72335097997E+02 -0.18540828364E+02 -0.12740654264E+03  0.14773634700E+03  0.41800000000E+01 0. -1.
        -11    1    1    2    0    0 -0.46288860240E+02 -0.16364800957E+02  0.56492558810E+02  0.74845671175E+02  0.00000000000E+00 0. -1.
         11    1    1    2    0    0  0.25128549876E+02  0.37624539256E+02  0.87608776109E+02  0.98601965622E+02  0.00000000000E+00 0.  1.
</event>
<event>
 7    1  0.7017065E-006  0.1347953E+03  0.7561462E-02  0.1220509E+00
         -1   -1    0    0    0  501 -0.00000000000E+00  0.00000000000E+00  0.20464847575E+02  0.20464847575E+02  0.00000000000E+00 0.  1.
          1   -1    0    0  501    0  0.00000000000E+00 -0.00000000000E+00 -0.12138582634E+04  0.12138582634E+04  0.00000000000E+00 0. -1.
         23    2    1    2    0    0  0.38106865439E+02 -0.97379581061E+02 -0.81265644734E+03  0.82886243967E+03  0.12516999037E+03 0.  0.
          5    1    3    3  502    0 -0.38401482056E+02 -0.17918572283E+02 -0.11711341264E+03  0.12461449705E+03  0.41800000000E+01 0.  1.
         -5    1    3    3    0  502  0.76508347494E+02 -0.79461008778E+02 -0.69554303470E+03  0.70424794261E+03  0.41800000000E+01 0.  1.
        -11    1    1    2    0    0 -0.24555633413E+02  0.74258094198E+01 -0.17619658101E+02  0.31121923614E+02  0.00000000000E+00 0.  1.
         11    1    1    2    0    0 -0.13551232026E+02  0.89953771641E+02 -0.36311731036E+03  0.37433874767E+03  0.00000000000E+00 0. -1.
</event>
<event>
 7    1  0.7017065E-006  0.1495974E+03  0.7561462E-02  0.1200969E+00
         -2   -1    0    0    0  501 -0.00000000000E+00  0.00000000000E+00  0.26135429467E+02  0.26135429467E+02  0.00000000000E+00 0.  1.
          2   -1    0    0  501    0  0.00000000000E+00 -0.00000000000E+00 -0.11054818233E+04  0.11054818233E+04  0.00000000000E+00 0. -1.
         23    2    1    2    0    0  0.54803690157E+02  0.11416556168E+03 -0.46857777481E+03  0.50124855889E+03  0.12509103408E+03 0.  0.
          5    1    3    3  502    0  0.31600277916E+02  0.23297984316E+01 -0.27190591111E+03  0.27377783406E+03  0.41800000000E+01 0.  1.
         -5    1    3    3    0  502  0.23203412241E+02  0.11183576324E+03 -0.19667186371E+03  0.22747072483E+03  0.41800000000E+01 0.  1.
        -11    1    1    2    0    0 -0.15547189296E+02 -0.11258341818E+03 -0.39382274582E+03  0.40989400614E+03  0.00000000000E+00 0.  1.
         11    1    1    2    0    0 -0.39256500861E+02 -0.15821434962E+01 -0.21694587323E+03  0.22047468778E+03  0.00000000000E+00 0. -1.
</event>
<event>
 7    1  0.7017065E-006  0.1055258E+03  0.7561462E-02  0.1269087E+00
         -2   -1    0    0    0  501 -0.00000000000E+00  0.00000000000E+00  0.11213584461E+03  0.11213584461E+03  0.00000000000E+00 0.  1.
          2   -1    0    0  501    0  0.00000000000E+00 -0.00000000000E+00 -0.14556936903E+03  0.14556936903E+03  0.00000000000E+00 0. -1.
         23    2    1    2    0    0  0.14959316320E+02  0.72624338625E+02 -0.13856413929E+02  0.14607428730E+03  0.12509045326E+03 0.  0.
          5    1    3    3  502    0  0.52664435036E+02  0.43535424475E+02 -0.51139754319E+02  0.85449533490E+02  0.41800000000E+01 0. -1.
         -5    1    3    3    0  502 -0.37705118716E+02  0.29088914150E+02  0.37283340390E+02  0.60624753809E+02  0.41800000000E+01 0. -1.
        -11    1    1    2    0    0 -0.16940549160E+02  0.45889833222E+01  0.18513469291E+02  0.25510576610E+02  0.00000000000E+00 0.  1.
         11    1    1    2    0    0  0.19812328403E+01 -0.77213321947E+02 -0.38090579776E+02  0.86120349728E+02  0.00000000000E+00 0. -1.
</event>
<event>
 7    1  0.7017065E-006  0.9722074E+02  0.7561462E-02  0.1286251E+00
          2   -1    0    0  501    0  0.00000000000E+00  0.00000000000E+00  0.12445388371E+03  0.12445388371E+03  0.00000000000E+00 0. -1.
         -2   -1    0    0    0  501 -0.00000000000E+00 -0.00000000000E+00 -0.10367049536E+03  0.10367049536E+03  0.00000000000E+00 0.  1.
         23    2    1    2    0    0 -0.46295087740E+00 -0.29902827975E+02 -0.35606343865E+02  0.12630756831E+03  0.11743677722E+03 0.  0.
          5    1    3    3  502    0  0.35154519688E+02  0.30985668592E+02  0.29076908169E+00  0.47047942136E+02  0.41800000000E+01 0. -1.
         -5    1    3    3    0  502 -0.35617470565E+02 -0.60888496567E+02 -0.35897112947E+02  0.79259626176E+02  0.41800000000E+01 0.  1.
        -11    1    1    2    0    0 -0.22630948199E+01  0.53212851332E+02  0.16896942757E+02  0.55876970387E+02  0.00000000000E+00 0. -1.
         11    1    1    2    0    0  0.27260456973E+01 -0.23310023358E+02  0.39492789462E+02  0.45939840374E+02  0.00000000000E+00 0.  1.
</event>
<event>
 7    1  0.7017065E-006  0.8674738E+02  0.7561462E-02  0.1310925E+00
         -1   -1    0    0    0  501 -0.00000000000E+00  0.00000000000E+00  0.42290327200E+03  0.42290327200E+03  0.00000000000E+00 0.  1.
          1   -1    0    0  501    0  0.00000000000E+00 -0.00000000000E+00 -0.47094674677E+02  0.47094674677E+02  0.00000000000E+00 0. -1.
         23    2    1    2    0    0 -0.27443661674E+02 -0.46906498891E+02  0.32216780251E+03  0.34985001347E+03  0.12509822038E+03 0.  0.
          5    1    3    3  502    0 -0.34549655690E+02 -0.66353611547E+02  0.31995618269E+03  0.32861209916E+03  0.41800000000E+01 0. -1.
         -5    1    3    3    0  502  0.71059940159E+01  0.19447112657E+02  0.22116198169E+01  0.21237914301E+02  0.41800000000E+01 0. -1.
        -11    1    1    2    0    0  0.33973327246E+02  0.41870131614E+01  0.66726731249E+02  0.74994497842E+02  0.00000000000E+00 0.  1.
         11    1    1    2    0    0 -0.65296655721E+01  0.42719485730E+02 -0.13085936434E+02  0.45153435371E+02  0.00000000000E+00 0. -1.
</event>
<event>
 6    1  0.7017065E-006  0.1051727E+03  0.7561462E-02  0.1269780E+00
          1   -1    0    0  501    0  0.00000000000E+00  0.00000000000E+00  0.26185500625E+02  0.26185500625E+02  0.00000000000E+00 0. -1.
         -1   -1    0    0    0  501 -0.00000000000E+00 -0.00000000000E+00 -0.12390541284E+04  0.12390541284E+04  0.00000000000E+00 0.  1.
          5    1    1    2  502    0  0.34404441481E+02  0.10568311465E+02 -0.11788416995E+03  0.12332682079E+03  0.41800000000E+01 0. -1.
         -5    1    1    2    0  502 -0.64036596156E+02 -0.38193886840E+02 -0.10037584168E+04  0.10065326077E+04  0.41800000000E+01 0.  1.
        -11    1    1    2    0    0  0.21473602969E+02 -0.32392411767E+02 -0.42966595548E+02  0.57935414882E+02  0.00000000000E+00 0. -1.
         11    1    1    2    0    0  0.81585517064E+01  0.60017987141E+02 -0.48259445421E+02  0.77444785614E+02  0.00000000000E+00 0.  1.
</event>
<event>
 6    1  0.7017065E-006  0.1662412E+03  0.7561462E-02  0.1181825E+00
         -2   -1    0    0    0  501 -0.00000000000E+00  0.00000000000E+00  0.16745785484E+03  0.16745785484E+03  0.00000000000E+00 0.  1.
          2   -1    0    0  501    0  0.00000000000E+00 -0.00000000000E+00 -0.26736960342E+03  0.26736960342E+03  0.00000000000E+00 0. -1.
          5    1    1    2  502    0 -0.36525697777E+02  0.73161412863E+02 -0.10755099166E+03  0.13517176901E+03  0.41800000000E+01 0. -1.
         -5    1    1    2    0  502 -0.29457479044E+02  0.74328116911E+02  0.67352730362E+02  0.10462444610E+03  0.41800000000E+01 0.  1.
        -11    1    1    2    0    0  0.74757500287E+02 -0.11725063204E+03 -0.77166269652E+02  0.15903153063E+03  0.00000000000E+00 0.  1.
         11    1    1    2    0    0 -0.87743234658E+01 -0.30238897735E+02  0.17452782377E+02  0.35999712516E+02  0.00000000000E+00 0. -1.
</event>
<event>
 7    1  0.7017065E-006  0.1079682E+03  0.7561462E-02  0.1264379E+00
         -1   -1    0    0    0  501 -0.00000000000E+00  0.00000000000E+00  0.18486549421E+03  0.18486549421E+03  0.00000000000E+00 0.  1.
          1   -1    0    0  501    0  0.00000000000E+00 -0.00000000000E+00 -0.69877015222E+02  0.69877015222E+02  0.00000000000E+00 0. -1.
         23    2    1    2    0    0  0.27590323577E+02 -0.13668384103E+00  0.87773913070E+02  0.15528297609E+03  0.12508916105E+03 0.  0.
          5    1    3    3  502    0  0.72360334437E+02 -0.22935626354E+02  0.40346550232E+02  0.86066122671E+02  0.41800000000E+01 0.  1.
         -5    1    3    3    0  502 -0.44770010859E+02  0.22798942513E+02  0.47427362838E+02  0.69216853424E+02  0.41800000000E+01 0.  1.
        -11    1    1    2    0    0  0.29943653023E+02  0.90433524516E+01  0.26875089001E+02  0.41239240885E+02  0.00000000000E+00 0.  1.
         11    1    1    2    0    0 -0.57533976601E+02 -0.89066686106E+01  0.33947692160E+00  0.58220292457E+02  0.00000000000E+00 0. -1.
</event>
<event>
 6    1  0.7017065E-006  0.2395031E+03  0.7561462E-02  0.1120124E+00
         -1   -1    0    0    0  501 -0.00000000000E+00  0.00000000000E+00  0.72945287385E+02  0.72945287385E+02  0.00000000000E+00 0.  1.
          1   -1    0    0  501    0  0.00000000000E+00 -0.00000000000E+00 -0.13606859830E+04  0.13606859830E+04  0.00000000000E+00 0. -1.
          5    1    1    2  502    0 -0.31646687548E+02 -0.50981697150E+02 -0.19057263267E+03  0.19984005355E+03  0.41800000000E+01 0. -1.
         -5    1    1    2    0  502 -0.10908606703E+03 -0.13244868620E+03 -0.85289997928E+02  0.19166189147E+03  0.41800000000E+01 0.  1.
        -11    1    1    2    0    0  0.92508426869E+00  0.62086880188E+02 -0.20021819172E+03  0.20962576361E+03  0.00000000000E+00 0.  1.
         11    1    1    2    0    0  0.13980767031E+03  0.12134350316E+03 -0.81165987329E+03  0.83250356176E+03  0.00000000000E+00 0. -1.
</event>
<event>
 7    1  0.7017065E-006  0.1201806E+03  0.7561462E-02  0.1242799E+00
         -2   -1    0    0    0  501 -0.00000000000E+00  0.00000000000E+00  0.57256693628E+02  0.57256693628E+02  0.00000000000E+00 0.  1.
          2   -1    0    0  501    0  0.00000000000E+00 -0.00000000000E+00 -0.26988034837E+03  0.26988034837E+03  0.00000000000E+00 0. -1.
         23    2    1    2    0    0 -0.45283548414E+02  0.38827416100E+02 -0.13816726023E+03  0.19569279216E+03  0.12508920459E+03 0.  0.
          5    1    3    3  502    0 -0.56205466845E+02 -0.32194412014E+02 -0.50352332345E+02  0.82148429326E+02  0.41800000000E+01 0.  1.
         -5    1    3    3    0  502  0.10921918431E+02  0.71021828114E+02 -0.87814927887E+02  0.11354436283E+03  0.41800000000E+01 0.  1.
        -11    1    1    2    0    0 -0.25238378442E+02 -0.76789419805E+01 -0.34003040695E+01  0.26598946673E+02  0.00000000000E+00 0.  1.
         11    1    1    2    0    0  0.70521926856E+02 -0.31148474119E+02 -0.71056090438E+02  0.10484530317E+03  0.00000000000E+00 0. -1.
</event>
<event>
 7    1  0.7017065E-006  0.1567166E+03  0.7561462E-02  0.1192454E+00
         -1   -1    0    0    0  501 -0.00000000000E+00  0.00000000000E+00  0.33989112690E+02  0.33989112690E+02  0.00000000000E+00 0.  1.
          1   -1    0    0  501    0  0.00000000000E+00 -0.00000000000E+00 -0.10588183112E+04  0.10588183112E+04  0.00000000000E+00 0. -1.
         23    2    1    2    0    0  0.76987506333E+02  0.11831879856E+03 -0.34350009471E+03  0.39187547591E+03  0.12509060448E+03 0.  0.
          5    1    3    3  502    0  0.12004405637E+01  0.38906840937E+02 -0.23226184902E+03  0.23553815453E+03  0.41800000000E+01 0. -1.
         -5    1    3    3    0  502  0.75787065770E+02  0.79411957620E+02 -0.11123824569E+03  0.15633732138E+03  0.41800000000E+01 0. -1.
        -11    1    1    2    0    0 -0.95229040173E+02 -0.10558677043E+03 -0.57749252796E+03  0.59473923364E+03  0.00000000000E+00 0. -1.
         11    1    1    2    0    0  0.18241533839E+02 -0.12732028131E+02 -0.10383657579E+03  0.10619271430E+03  0.00000000000E+00 0.  1.
</event>
<event>
 7    1  0.7017065E-006  0.1476918E+03  0.7561462E-02  0.1203338E+00
          3   -1    0    0  501    0  0.00000000000E+00  0.00000000000E+00  0.37067612677E+02  0.37067612677E+02  0.00000000000E+00 0. -1.
         -3   -1    0    0    0  501 -0.00000000000E+00 -0.00000000000E+00 -0.74267905842E+03  0.74267905842E+03  0.00000000000E+00 0.  1.
         23    2    1    2    0    0  0.23775925274E+02 -0.10161296483E+03 -0.54107278061E+03  0.56506419778E+03  0.12508918596E+03 0.  0.
          5    1    3    3  502    0 -0.25537024813E+02 -0.10513946021E+03 -0.30008171363E+03  0.31901873453E+03  0.41800000000E+01 0. -1.
         -5    1    3    3    0  502  0.49312950087E+02  0.35264953749E+01 -0.24099106699E+03  0.24604546325E+03  0.41800000000E+01 0. -1.
        -11    1    1    2    0    0 -0.20889664075E+01 -0.16890809516E+02 -0.15291171853E+02  0.22879754444E+02  0.00000000000E+00 0. -1.
         11    1    1    2    0    0 -0.21686958867E+02  0.11850377435E+03 -0.14924749328E+03  0.19180271888E+03  0.00000000000E+00 0.  1.
</event>
<event>
 6    1  0.7017065E-006  0.1914852E+03  0.7561462E-02  0.1157129E+00
          1   -1    0    0  501    0  0.00000000000E+00  0.00000000000E+00  0.13041739155E+04  0.13041739155E+04  0.00000000000E+00 0. -1.
         -1   -1    0    0    0  501 -0.00000000000E+00 -0.00000000000E+00 -0.45102518747E+02  0.45102518747E+02  0.00000000000E+00 0.  1.
          5    1    1    2  502    0  0.45442859089E+01 -0.10563894500E+03  0.45000863594E+03  0.46228290262E+03  0.41800000000E+01 0. -1.
         -5    1    1    2    0  502  0.12019229436E+03  0.83040387700E+02  0.14905587003E+03  0.20875109198E+03  0.41800000000E+01 0.  1.
        -11    1    1    2    0    0 -0.66838654419E+01  0.10344118436E+02  0.62716109459E+01  0.13820562482E+02  0.00000000000E+00 0.  1.
         11    1    1    2    0    0 -0.11805271482E+03  0.12254438869E+02  0.65373527986E+03  0.66442187719E+03  0.00000000000E+00 0. -1.
</event>
<event>
 7    1  0.7017065E-006  0.9678155E+02  0.7561462E-02  0.1287213E+00
         -2   -1    0    0    0  501 -0.00000000000E+00  0.00000000000E+00  0.73067153357E+02  0.73067153357E+02  0.00000000000E+00 0.  1.
          2   -1    0    0  501    0  0.00000000000E+00 -0.00000000000E+00 -0.33888281594E+03  0.33888281594E+03  0.00000000000E+00 0. -1.
         23    2    1    2    0    0 -0.51852155446E+02 -0.46096853263E+02 -0.24581068049E+02  0.14514376787E+03  0.12509563757E+03 0.  0.
          5    1    3    3  502    0  0.17949133475E+02  0.37754516801E+01 -0.51747369277E+02  0.55060766931E+02  0.41800000000E+01 0.  1.
         -5    1    3    3    0  502 -0.69801288920E+02 -0.49872304943E+02  0.27166301228E+02  0.90083000936E+02  0.41800000000E+01 0.  1.
        -11    1    1    2    0    0 -0.22350948582E+01  0.33177897899E+02 -0.20253088254E+02  0.38935281454E+02  0.00000000000E+00 0.  1.
         11    1    1    2    0    0  0.54087250304E+02  0.12918955363E+02 -0.22098150628E+03  0.22787091997E+03  0.00000000000E+00 0. -1.
</event>
<event>
 7    1  0.7017065E-006  0.1165823E+03  0.7561462E-02  0.1248844E+00
          2   -1    0    0  501    0  0.00000000000E+00  0.00000000000E+00  0.54536517626E+02  0.54536517626E+02  0.00000000000E+00 0. -1.
         -2   -1    0    0    0  501 -0.00000000000E+00 -0.00000000000E+00 -0.29062342369E+03  0.29062342369E+03  0.00000000000E+00 0.  1.
         23    2    1    2    0    0 -0.39883746993E+02  0.55086363107E+02 -0.15690144049E+03  0.21187358390E+03  0.12508850008E+03 0.  0.
          5    1    3    3  502    0  0.62557751828E+01 -0.29268086349E+02 -0.30127002746E+01  0.30369464345E+02  0.41800000000E+01 0.  1.
         -5    1    3    3    0  502 -0.46139522175E+02  0.84354449456E+02 -0.15388874022E+03  0.18150411956E+03  0.41800000000E+01 0.  1.
        -11    1    1    2    0    0  0.47589567951E+02  0.34027175126E+01 -0.41894363167E+02  0.63493961362E+02  0.00000000000E+00 0.  1.
         11    1    1    2    0    0 -0.77058209583E+01 -0.58489080620E+02 -0.37291102403E+02  0.69792396053E+02  0.00000000000E+00 0. -1.
</event>
<event>
 7    1  0.7017065E-006  0.1134272E+03  0.7561462E-02  0.1254352E+00
         -1   -1    0    0    0  501 -0.00000000000E+00  0.00000000000E+00  0.62338382624E+03  0.62338382624E+03  0.00000000000E+00 0.  1.
          1   -1    0    0  501    0  0.00000000000E+00 -0.00000000000E+00 -0.38217415707E+02  0.38217415707E+02  0.00000000000E+00 0. -1.
         23    2    1    2    0    0 -0.19166539920E+02 -0.76805365811E+02  0.47791069798E+03  0.50031225400E+03  0.12508915136E+03 0.  0.
          5    1    3    3  502    0  0.38103646194E+02 -0.70101706741E+02  0.18136790522E+03  0.19818659537E+03  0.41800000000E+01 0. -1.
         -5    1    3    3    0  502 -0.57270186114E+02 -0.67036590692E+01  0.29654279276E+03  0.30212565862E+03  0.41800000000E+01 0. -1.
        -11    1    1    2    0    0 -0.39897030788E+01  0.60949054084E+02  0.12343270267E+02  0.62314213830E+02  0.00000000000E+00 0. -1.
         11    1    1    2    0    0  0.23156242999E+02  0.15856311727E+02  0.94912442281E+02  0.98974774116E+02  0.00000000000E+00 0.  1.
</event>
<event>
 7    1  0.7017065E-006  0.1084203E+03  0.7561462E-02  0.1263523E+00
          3   -1    0    0  501    0  0.00000000000E+00  0.00000000000E+00  0.29162067571E+03  0.29162067571E+03  0.00000000000E+00 0. -1.
         -3   -1    0    0    0  501 -0.00000000000E+00 -0.00000000000E+00 -0.48242819391E+02  0.48242819391E+02  0.00000000000E+00 0.  1.
         23    2    1    2    0    0  0.43583708242E+02  0.13988730977E+02  0.15623171124E+03  0.20530641574E+03  0.12508857873E+03 0.  0.
          5    1    3    3  502    0  0.84571739055E+01  0.58572921546E+02  0.29234266483E+02  0.66139441075E+02  0.41800000000E+01 0.  1.
         -5    1    3    3    0  502  0.35126534337E+02 -0.44584190570E+02  0.12699744476E+03  0.13916697467E+03  0.41800000000E+01 0.  1.
        -11    1    1    2    0    0 -0.21840720506E+02  0.38233514042E+02  0.25469556530E+02  0.50867641759E+02  0.00000000000E+00 0. -1.
         11    1    1    2    0    0 -0.21742987736E+02 -0.52222245019E+02  0.61676588545E+02  0.83689437596E+02  0.00000000000E+00 0.  1.
</event>
<event>
 7    1  0.7017065E-006  0.1107438E+03  0.7561462E-02  0.1259199E+00
         -2   -1    0    0    0  501 -0.00000000000E+00  0.00000000000E+00  0.61410959081E+02  0.61410959081E+02  0.00000000000E+00 0.  1.
          2   -1    0    0  501    0  0.00000000000E+00 -0.00000000000E+00 -0.21188267607E+03  0.21188267607E+03  0.00000000000E+00 0. -1.
         23    2    1    2    0    0  0.36385764587E+02  0.49317782404E+01 -0.84424029218E+02  0.15531704326E+03  0.12509085065E+03 0.  0.
          5    1    3    3  502    0  0.69114147654E+02 -0.34583886832E+02 -0.39024514923E+02  0.86678692880E+02  0.41800000000E+01 0.  1.
         -5    1    3    3    0  502 -0.32728383067E+02  0.39515665072E+02 -0.45399514295E+02  0.68638350378E+02  0.41800000000E+01 0.  1.
        -11    1    1    2    0    0 -0.47879031456E+02 -0.35728244514E+02 -0.23467198791E+02  0.64184254520E+02  0.00000000000E+00 0.  1.
         11    1    1    2    0    0  0.11493266869E+02  0.30796466274E+02 -0.42580488980E+02  0.53792337373E+02  0.00000000000E+00 0. -1.
</event>
<event>
 7    1  0.7017065E-006  0.1255121E+03  0.7561462E-02  0.1234271E+00
          2   -1    0    0  501    0  0.00000000000E+00  0.00000000000E+00  0.50782215571E+03  0.50782215571E+03  0.00000000000E+00 0. -1.
         -2   -1    0    0    0  501 -0.00000000000E+00 -0.00000000000E+00 -0.52386222163E+02  0.52386222163E+02  0.00000000000E+00 0.  1.
         23    2    1    2    0    0  0.10905373436E+03 -0.71317618759E+01  0.15245014495E+03  0.22546517896E+03  0.12509964517E+03 0.  0.
          5    1    3    3  502    0  0.57528802581E+02  0.24831095791E+02  0.15856130293E+01  0.62818253822E+02  0.41800000000E+01 0.  1.
         -5    1    3    3    0  502  0.51524931782E+02 -0.31962857667E+02  0.15086453192E+03  0.16264692514E+03  0.41800000000E+01 0.  1.
        -11    1    1    2    0    0 -0.17409373785E+02  0.28453002473E+02  0.16094011585E+03  0.16436052001E+03  0.00000000000E+00 0. -1.
         11    1    1    2    0    0 -0.91644360578E+02 -0.21321240597E+02  0.14204567274E+03  0.17038267891E+03  0.00000000000E+00 0.  1.
</event>
<event>
 7    1  0.7017065E-006  0.1307072E+03  0.7561462E-02  0.1226410E+00
          1   -1    0    0  501    0  0.00000000000E+00  0.00000000000E+00  0.61961591438E+03  0.61961591438E+03  0.00000000000E+00 0. -1.
         -1   -1    0    0    0  501 -0.00000000000E+00 -0.00000000000E+00 -0.29507576567E+02  0.29507576567E+02  0.00000000000E+00 0.  1.
         23    2    1    2    0    0  0.75425149252E+02  0.27554685289E+02  0.30481278465E+03  0.33912956318E+03  0.12509921308E+03 0.  0.
          5    1    3    3  502    0  0.58039770303E+02  0.71840853033E+02  0.24935024994E+03  0.26593747883E+03  0.41800000000E+01 0.  1.
         -5    1    3    3    0  502  0.17385378949E+02 -0.44286167745E+02  0.55462534708E+02  0.73192084346E+02  0.41800000000E+01 0.  1.
        -11    1    1    2    0    0 -0.35169503492E+02  0.33172421701E+02  0.11821972799E+03  0.12772316792E+03  0.00000000000E+00 0. -1.
         11    1    1    2    0    0 -0.40255645760E+02 -0.60727106990E+02  0.16707582518E+03  0.18227075985E+03  0.00000000000E+00 0.  1.
</event>
<event>
 7    1  0.7017065E-006  0.1519735E+03  0.7561462E-02  0.1198069E+00
         -2   -1    0    0    0  501 -0.00000000000E+00  0.00000000000E+00  0.22820468847E+03  0.22820468847E+03  0.00000000000E+00 0.  1.
          2   -1    0    0  501    0  0.00000000000E+00 -0.00000000000E+00 -0.18275543736E+03  0.18275543736E+03  0.00000000000E+00 0. -1.
         23    2    1    2    0    0 -0.57518057568E+02  0.11547523784E+03  0.14531826448E+03  0.23269653936E+03  0.12801337406E+03 0.  0.
          5    1    3    3  502    0  0.35149996824E+01  0.10049484993E+03  0.36675846441E+02  0.10711750649E+03  0.41800000000E+01 0. -1.
         -5    1    3    3    0  502 -0.61033057251E+02  0.14980387913E+02  0.10864241804E+03  0.12557903287E+03  0.41800000000E+01 0.  1.
        -11    1    1    2    0    0  0.45676646765E+02 -0.11940549595E+03 -0.10433205903E+03  0.16501274819E+03  0.00000000000E+00 0. -1.
         11    1    1    2    0    0  0.11841410803E+02  0.39302581063E+01  0.44630456688E+01  0.13250838284E+02  0.00000000000E+00 0.  1.
</event>
<event>
 7    1  0.7017065E-006  0.8995996E+02  0.7561462E-02  0.1302949E+00
          1   -1    0    0  501    0  0.00000000000E+00  0.00000000000E+00  0.42201255041E+03  0.42201255041E+03  0.00000000000E+00 0. -1.
         -1   -1    0    0    0  501 -0.00000000000E+00 -0.00000000000E+00 -0.46373907804E+02  0.46373907804E+02  0.00000000000E+00 0.  1.
         23    2    1    2    0    0  0.66136904365E+02 -0.56020544435E+02  0.18057485302E+03  0.23614833528E+03  0.12508543958E+03 0.  0.
          5    1    3    3  502    0  0.64597163628E+02 -0.56343636627E+02  0.19925045102E+03  0.21694610752E+03  0.41800000000E+01 0.  1.
         -5    1    3    3    0  502  0.15397407364E+01  0.32309219207E+00 -0.18675598002E+02  0.19202227757E+02  0.41800000000E+01 0.  1.
        -11    1    1    2    0    0 -0.55130891063E+02  0.56063003996E+02  0.20363508644E+03  0.21828816733E+03  0.00000000000E+00 0. -1.
         11    1    1    2    0    0 -0.11006013302E+02 -0.42459560807E-01 -0.85712968535E+01  0.13949955604E+02  0.00000000000E+00 0.  1.
</event>
<event>
 7    1  0.7017065E-006  0.1794995E+03  0.7561462E-02  0.1168288E+00
          1   -1    0    0  501    0  0.00000000000E+00  0.00000000000E+00  0.19505959656E+03  0.19505959656E+03  0.00000000000E+00 0.  1.
         -1   -1    0    0    0  501 -0.00000000000E+00 -0.00000000000E+00 -0.23363193243E+03  0.23363193243E+03  0.00000000000E+00 0. -1.
         23    2    1    2    0    0 -0.43750829457E+02  0.15392490783E+03 -0.11085464779E+03  0.23139466640E+03  0.12509087247E+03 0.  0.
          5    1    3    3  502    0  0.15343965159E+02  0.84332585362E+02  0.24133951201E+01  0.85852892186E+02  0.41800000000E+01 0.  1.
         -5    1    3    3    0  502 -0.59094794616E+02  0.69592322466E+02 -0.11326804291E+03  0.14554177422E+03  0.41800000000E+01 0.  1.
        -11    1    1    2    0    0  0.50284706852E+02 -0.31819690553E+02  0.10980418353E+02  0.60511271985E+02  0.00000000000E+00 0. -1.
         11    1    1    2    0    0 -0.65338773943E+01 -0.12210521727E+03  0.61301893580E+02  0.13678559060E+03  0.00000000000E+00 0.  1.
</event>
<event>
 7    1  0.7017065E-006  0.1266584E+03  0.7561462E-02  0.1232500E+00
          1   -1    0    0  501    0  0.00000000000E+00  0.00000000000E+00  0.33376460188E+03  0.33376460188E+03  0.00000000000E+00 0. -1.
         -1   -1    0    0    0  501 -0.00000000000E+00 -0.00000000000E+00 -0.60756793236E+02  0.60756793236E+02  0.00000000000E+00 0.  1.
         23    2    1    2    0    0 -0.43592661238E+02 -0.71874267165E+02  0.94336791051E+02  0.17781466302E+03  0.12510952739E+03 0.  0.
          5    1    3    3  502    0  0.32468325976E+02 -0.41884198614E+02  0.33437446439E+00  0.53160723204E+02  0.41800000000E+01 0. -1.
         -5    1    3    3    0  502 -0.76060987214E+02 -0.29990068550E+02  0.94002416587E+02  0.12465393982E+03  0.41800000000E+01 0. -1.
        -11    1    1    2    0    0  0.19890061925E+02 -0.17089429192E+02  0.67173181858E+02  0.72110328763E+02  0.00000000000E+00 0. -1.
         11    1    1    2    0    0  0.23702599313E+02  0.88963696356E+02  0.11149783574E+03  0.14459640334E+03  0.00000000000E+00 0.  1.
</event>
<event>
 7    1  0.7017065E-006  0.9759831E+02  0.7561462E-02  0.1285429E+00
         -2   -1    0    0    0  501 -0.00000000000E+00  0.00000000000E+00  0.26602854788E+02  0.26602854788E+02  0.00000000000E+00 0.  1.
          2   -1    0    0  501    0  0.00000000000E+00 -0.00000000000E+00 -0.48801489023E+03  0.48801489023E+03  0.00000000000E+00 0. -1.
         23    2    1    2    0    0  0.11678016593E+02 -0.10662625759E+02 -0.18862484348E+03  0.22688899964E+03  0.12509683817E+03 0.  0.
          5    1    3    3  502    0 -0.47463388882E+02  0.85777701742E+01 -0.13907746743E+03  0.14726291377E+03  0.41800000000E+01 0.  1.
         -5    1    3    3    0  502  0.59141405475E+02 -0.19240395934E+02 -0.49547376051E+02  0.79626085869E+02  0.41800000000E+01 0.  1.
        -11    1    1    2    0    0  0.36000646236E+02  0.65867852197E+01 -0.17591900444E+03  0.17968563769E+03  0.00000000000E+00 0. -1.
         11    1    1    2    0    0 -0.47678662829E+02  0.40758405396E+01 -0.96868187518E+02  0.10804310769E+03  0.00000000000E+00 0.  1.
</event>
<event>
 7    1  0.7017065E-006  0.6944315E+02  0.7561462E-02  0.1361997E+00
         -3   -1    0    0    0  501 -0.00000000000E+00  0.00000000000E+00  0.24382168855E+03  0.24382168855E+03  0.00000000000E+00 0.  1.
          3   -1    0    0  501    0  0.00000000000E+00 -0.00000000000E+00 -0.31309291677E+02  0.31309291677E+02  0.00000000000E+00 0. -1.
         23    2    1    2    0    0  0.17579368155E+02 -0.11475868472E+02  0.15385910350E+03  0.19939569584E+03  0.12508113386E+03 0.  0.
          5    1    3    3  502    0  0.18364722471E+02  0.44092767084E+02  0.13038716791E+03  0.13892343609E+03  0.41800000000E+01 0. -1.
         -5    1    3    3    0  502 -0.78535431612E+00 -0.55568635556E+02  0.23471935596E+02  0.60472259752E+02  0.41800000000E+01 0. -1.
        -11    1    1    2    0    0 -0.23500906166E+02  0.14267363394E+01  0.59551437906E+02  0.64036723245E+02  0.00000000000E+00 0.  1.
         11    1    1    2    0    0  0.59215380114E+01  0.10049132132E+02 -0.89814454015E+00  0.11698561136E+02  0.00000000000E+00 0. -1.
</event>
<event>
 7    1  0.7017065E-006  0.1151087E+03  0.7561462E-02  0.1251392E+00
         -1   -1    0    0    0  501 -0.00000000000E+00  0.00000000000E+00  0.26280253827E+03  0.26280253827E+03  0.00000000000E+00 0.  1.
          1   -1    0    0  501    0  0.00000000000E+00 -0.00000000000E+00 -0.64884934399E+02  0.64884934399E+02  0.00000000000E+00 0. -1.
         23    2    1    2    0    0  0.53620338755E+02 -0.13412425452E+02  0.17942737630E+03  0.21817732658E+03  0.11114013039E+03 0.  0.
          5    1    3    3  502    0 -0.33938366308E+02  0.20733700975E+01  0.38955875900E+02  0.51876239632E+02  0.41800000000E+01 0. -1.
         -5    1    3    3    0  502  0.87558705062E+02 -0.15485795550E+02  0.14047150040E+03  0.16630108695E+03  0.41800000000E+01 0.  1.
        -11    1    1    2    0    0  0.12138307591E+02 -0.27109256904E+02 -0.14450694578E+01  0.29737830231E+02  0.00000000000E+00 0.  1.
         11    1    1    2    0    0 -0.65758646346E+02  0.40521682357E+02  0.19935297035E+02  0.79772315863E+02  0.00000000000E+00 0. -1.
</event>
<event>
 7    1  0.7017065E-006  0.1545433E+03  0.7561462E-02  0.1194999E+00
         -1   -1    0    0    0  501 -0.00000000000E+00  0.00000000000E+00  0.81761640336E+02  0.81761640336E+02  0.00000000000E+00 0.  1.
          1   -1    0    0  501    0  0.00000000000E+00 -0.00000000000E+00 -0.32201060682E+03  0.32201060682E+03  0.00000000000E+00 0. -1.
         23    2    1    2    0    0 -0.87313708429E+02  0.82161096416E+02 -0.11866693528E+03  0.21000932891E+03  0.12509175534E+03 0.  0.
          5    1    3    3  502    0  0.21931097239E+02  0.50411719086E+02 -0.17872992754E+02  0.57958870911E+02  0.41800000000E+01 0. -1.
         -5    1    3    3    0  502 -0.10924480567E+03  0.31749377329E+02 -0.10079394253E+03  0.15205045800E+03  0.41800000000E+01 0. -1.
        -11    1    1    2    0    0  0.22200106062E+01 -0.48579769409E+02 -0.10305419149E+02  0.49710402400E+02  0.00000000000E+00 0.  1.
         11    1    1    2    0    0  0.85093697823E+02 -0.33581327007E+02 -0.11127661205E+03  0.14405251585E+03  0.00000000000E+00 0. -1.
</event>
<event>
 7    1  0.7017065E-006  0.2787691E+03  0.7561462E-02  0.1096363E+00
         -1   -1    0    0    0  501 -0.00000000000E+00  0.00000000000E+00  0.12759019467E+03  0.12759019467E+03  0.00000000000E+00 0.  1.
          1   -1    0    0  501    0  0.00000000000E+00 -0.00000000000E+00 -0.67295294528E+03  0.67295294528E+03  0.00000000000E+00 0. -1.
         23    2    1    2    0    0 -0.11452980620E+02 -0.27138487390E+03 -0.28989694421E+03  0.41649548975E+03  0.12508930479E+03 0.  0.
          5    1    3    3  502    0 -0.34584303513E+01 -0.23574851326E+01  0.11170869669E+02  0.12640379971E+02  0.41800000000E+01 0. -1.
         -5    1    3    3    0  502 -0.79945502685E+01 -0.26902738877E+03 -0.30106781388E+03  0.40385510978E+03  0.41800000000E+01 0. -1.
        -11    1    1    2    0    0  0.29811245558E+02  0.25801976559E+03 -0.25040061303E+03  0.36078161927E+03  0.00000000000E+00 0. -1.
         11    1    1    2    0    0 -0.18358264938E+02  0.13365108317E+02 -0.50651933670E+01  0.23266030940E+02  0.00000000000E+00 0.  1.
</event>
<event>
 7    1  0.7017065E-006  0.1598982E+03  0.7561462E-02  0.1188812E+00
          2   -1    0    0  501    0  0.00000000000E+00  0.00000000000E+00  0.40150652455E+03  0.40150652455E+03  0.00000000000E+00 0. -1.
         -2   -1    0    0    0  501 -0.00000000000E+00 -0.00000000000E+00 -0.94304462235E+02  0.94304462235E+02  0.00000000000E+00 0.  1.
         23    2    1    2    0    0 -0.85102143144E+02 -0.10482455088E+03  0.49631248009E+02  0.19059836149E+03  0.12503564847E+03 0.  0.
          5    1    3    3  502    0  0.19905052883E+02 -0.70200686621E+02  0.24977002463E+02  0.77237753620E+02  0.41800000000E+01 0.  1.
         -5    1    3    3    0  502 -0.10500719603E+03 -0.34623864261E+02  0.24654245546E+02  0.11336060787E+03  0.41800000000E+01 0.  1.
        -11    1    1    2    0    0  0.41535277283E+02  0.64378824996E+02  0.55569307344E+02  0.94645445139E+02  0.00000000000E+00 0.  1.
         11    1    1    2    0    0  0.43566865860E+02  0.40445725886E+02  0.20200150696E+03  0.21056718015E+03  0.00000000000E+00 0. -1.
</event>
<event>
 7    1  0.7017065E-006  0.1254002E+03  0.7561462E-02  0.1234445E+00
          2   -1    0    0  501    0  0.00000000000E+00  0.00000000000E+00  0.10345930403E+04  0.10345930403E+04  0.00000000000E+00 0.  1.
         -2   -1    0    0    0  501 -0.00000000000E+00 -0.00000000000E+00 -0.19400281122E+02  0.19400281122E+02  0.00000000000E+00 0. -1.
         23    2    1    2    0    0  0.81563734288E+02 -0.39770730922E+02  0.53863487303E+03  0.56036698507E+03  0.12509707317E+03 0.  0.
          5    1    3    3  502    0  0.10089862088E+03 -0.58638546127E+02  0.33213542214E+03  0.35206593392E+03  0.41800000000E+01 0. -1.
         -5    1    3    3    0  502 -0.19334886588E+02  0.18867815205E+02  0.20649945089E+03  0.20830105115E+03  0.41800000000E+01 0. -1.
        -11    1    1    2    0    0 -0.85642747907E+02  0.21955994599E+02  0.46165446200E+03  0.47004424074E+03  0.00000000000E+00 0.  1.
         11    1    1    2    0    0  0.40790136194E+01  0.17814736323E+02  0.14903424142E+02  0.23582095614E+02  0.00000000000E+00 0. -1.
</event>
<event>
 7    1  0.7017065E-006  0.1260119E+03  0.7561462E-02  0.1233496E+00
          2   -1    0    0  501    0  0.00000000000E+00  0.00000000000E+00  0.19681708522E+03  0.19681708522E+03  0.00000000000E+00 0. -1.
         -2   -1    0    0    0  501 -0.00000000000E+00 -0.00000000000E+00 -0.13958944159E+03  0.13958944159E+03  0.00000000000E+00 0.  1.
         23    2    1    2    0    0 -0.98060648946E+02  0.52022093815E+02 -0.31039211633E+02  0.17009775106E+03  0.12509045983E+03 0.  0.
          5    1    3    3  502    0 -0.93412022775E+02  0.24381745941E+02  0.31336821882E+02  0.10158614246E+03  0.41800000000E+01 0. -1.
         -5    1    3    3    0  502 -0.46486261710E+01  0.27640347874E+02 -0.62376033516E+02  0.68511608600E+02  0.41800000000E+01 0. -1.
        -11    1    1    2    0    0  0.69430036350E+02 -0.65462686096E+02  0.30031805877E+02  0.10003900531E+03  0.00000000000E+00 0.  1.
         11    1    1    2    0    0  0.28630612596E+02  0.13440592282E+02  0.58235049387E+02  0.66269770451E+02  0.00000000000E+00 0. -1.
</event>
<event>
 6    1  0.7017065E-006  0.3273003E+03  0.7561462E-02  0.1072338E+00
          2   -1    0    0  501    0  0.00000000000E+00  0.00000000000E+00  0.36501888171E+03  0.36501888171E+03  0.00000000000E+00 0. -1.
         -2   -1    0    0    0  501 -0.00000000000E+00 -0.00000000000E+00 -0.63522014629E+03  0.63522014629E+03  0.00000000000E+00 0.  1.
          5    1    1    2  502    0  0.20823244517E+03 -0.16371853860E+03  0.86409376870E+02  0.27865491906E+03  0.41800000000E+01 0. -1.
         -5    1    1    2    0  502  0.70318518252E+02  0.10684309275E+02 -0.38356536887E+03  0.39012653469E+03  0.41800000000E+01 0.  1.
        -11    1    1    2    0    0 -0.17148767943E+02  0.15212699135E+02 -0.22172339622E+02  0.31892304734E+02  0.00000000000E+00 0. -1.
         11    1    1    2    0    0 -0.26140219548E+03  0.13782153019E+03  0.49127067033E+02  0.29956526952E+03  0.00000000000E+00 0.  1.
</event>
<event>
 7    1  0.7017065E-006  0.9828474E+02  0.7561462E-02  0.1283945E+00
          1   -1    0    0  501    0  0.00000000000E+00  0.00000000000E+00  0.34644590104E+02  0.34644590104E+02  0.00000000000E+00 0. -1.
         -1   -1    0    0    0  501 -0.00000000000E+00 -0.00000000000E+00 -0.30736305484E+03  0.30736305484E+03  0.00000000000E+00 0.  1.
         23    2    1    2    0    0  0.23044063107E+00  0.15102921127E+02 -0.20904975386E+03  0.24408662759E+03  0.12509328859E+03 0.  0.
          5    1    3    3  502    0  0.61379161657E+02  0.14954154230E+02 -0.88058369538E+02  0.10845633711E+03  0.41800000000E+01 0.  1.
         -5    1    3    3    0  502 -0.61148721026E+02  0.14876689698E+00 -0.12099138432E+03  0.13563029047E+03  0.41800000000E+01 0.  1.
        -11    1    1    2    0    0 -0.17014294748E+02 -0.39122796183E+02 -0.25151716265E+02  0.49524622543E+02  0.00000000000E+00 0. -1.
         11    1    1    2    0    0  0.16783854117E+02  0.24019875056E+02 -0.38516994617E+02  0.48396394815E+02  0.00000000000E+00 0.  1.
</event>
<event>
 7    1  0.7017065E-006  0.8216324E+02  0.7561462E-02  0.1323022E+00
         -2   -1    0    0    0  501 -0.00000000000E+00  0.00000000000E+00  0.76108158520E+02  0.76108158520E+02  0.00000000000E+00 0. -1.
          2   -1    0    0  501    0  0.00000000000E+00 -0.00000000000E+00 -0.30739119590E+03  0.30739119590E+03  0.00000000000E+00 0.  1.
         23    2    1    2    0    0 -0.36846642457E+02 -0.17113868003E+02  0.85953649716E+00  0.13153575457E+03  0.12510138444E+03 0.  0.
          5    1    3    3  502    0  0.68335838645E+01 -0.24115078174E+02  0.55540137765E+02  0.61077116556E+02  0.41800000000E+01 0.  1.
         -5    1    3    3    0  502 -0.43680226322E+02  0.70012101710E+01 -0.54680601268E+02  0.70458638012E+02  0.41800000000E+01 0.  1.
        -11    1    1    2    0    0  0.39827860896E+02  0.48610797299E+02 -0.12020740173E+03  0.13564323628E+03  0.00000000000E+00 0. -1.
         11    1    1    2    0    0 -0.29812184384E+01 -0.31496929296E+02 -0.11193517215E+03  0.11632036358E+03  0.00000000000E+00 0.  1.
</event>
<event>
 7    1  0.7017065E-006  0.9298385E+02  0.7561462E-02  0.1295783E+00
          1   -1    0    0  501    0  0.00000000000E+00  0.00000000000E+00  0.95330726483E+02  0.95330726483E+02  0.00000000000E+00 0. -1.
         -1   -1    0    0    0  501 -0.00000000000E+00 -0.00000000000E+00 -0.13707322249E+03  0.13707322249E+03  0.00000000000E+00 0.  1.
         23    2    1    2    0    0 -0.14246629816E+02 -0.28974248055E+02 -0.41603904457E+02  0.13573287831E+03  0.12510018336E+03 0.  0.
          5    1    3    3  502    0 -0.45592478063E+02  0.93365900522E+01  0.24724559668E+02  0.52864186559E+02  0.41800000000E+01 0.  1.
         -5    1    3    3    0  502  0.31345848247E+02 -0.38310838108E+02 -0.66328464125E+02  0.82868691748E+02  0.41800000000E+01 0.  1.
        -11    1    1    2    0    0 -0.18342688253E+02  0.48307524044E+02 -0.18081669007E+02  0.54745025762E+02  0.00000000000E+00 0.  1.
         11    1    1    2    0    0  0.32589318069E+02 -0.19333275989E+02  0.17943077457E+02  0.41926044904E+02  0.00000000000E+00 0. -1.
</event>
<event>
 7    1  0.7017065E-006  0.1118579E+03  0.7561462E-02  0.1257168E+00
         -1   -1    0    0    0  501 -0.00000000000E+00  0.00000000000E+00  0.61568796564E+02  0.61568796564E+02  0.00000000000E+00 0.  1.
          1   -1    0    0  501    0  0.00000000000E+00 -0.00000000000E+00 -0.26316149756E+03  0.26316149756E+03  0.00000000000E+00 0. -1.
         23    2    1    2    0    0 -0.24488765983E+02  0.62689518296E+02 -0.11156914907E+03  0.18062448751E+03  0.12509138700E+03 0.  0.
          5    1    3    3  502    0 -0.57525192551E+02  0.55741341495E+02 -0.12113881794E+03  0.14528706254E+03  0.41800000000E+01 0. -1.
         -5    1    3    3    0  502  0.33036426568E+02  0.69481768008E+01  0.95696688759E+01  0.35337424972E+02  0.41800000000E+01 0. -1.
        -11    1    1    2    0    0  0.32440929788E+02 -0.82226654732E+02 -0.57877910564E+02  0.10565741434E+03  0.00000000000E+00 0.  1.
         11    1    1    2    0    0 -0.79521638057E+01  0.19537136436E+02 -0.32145641366E+02  0.38448392270E+02  0.00000000000E+00 0. -1.
</event>
<event>
 7    1  0.7017065E-006  0.1123894E+03  0.7561462E-02  0.1256208E+00
         -2   -1    0    0    0  501 -0.00000000000E+00  0.00000000000E+00  0.74689701145E+02  0.74689701145E+02  0.00000000000E+00 0. -1.
          2   -1    0    0  501    0  0.00000000000E+00 -0.00000000000E+00 -0.39043668370E+03  0.39043668370E+03  0.00000000000E+00 0.  1.
         23    2    1    2    0    0 -0.52344448851E+02  0.61923986561E+02 -0.26721623397E+02  0.15143582726E+03  0.12507694905E+03 0.  0.
          5    1    3    3  502    0  0.35871623453E+02  0.36187188845E+02 -0.30205307827E+02  0.59381133591E+02  0.41800000000E+01 0.  1.
         -5    1    3    3    0  502 -0.88216072304E+02  0.25736797716E+02  0.34836844297E+01  0.92054693669E+02  0.41800000000E+01 0.  1.
        -11    1    1    2    0    0  0.26217028818E+02 -0.38475271503E+02 -0.26955456136E+03  0.27354586575E+03  0.00000000000E+00 0.  1.
         11    1    1    2    0    0  0.26127420033E+02 -0.23448715058E+02 -0.19470797790E+02  0.40144691829E+02  0.00000000000E+00 0. -1.
</event>
<event>
 7    1  0.7017065E-006  0.8198470E+02  0.7561462E-02  0.1323512E+00
         -3   -1    0    0    0  501 -0.00000000000E+00  0.00000000000E+00  0.11403366154E+03  0.11403366154E+03  0.00000000000E+00 0.  1.
          3   -1    0    0  501    0  0.00000000000E+00 -0.00000000000E+00 -0.10722764955E+03  0.10722764955E+03  0.00000000000E+00 0. -1.
         23    2    1    2    0    0  0.14814561138E+02 -0.11935811043E+02  0.12243408337E+02  0.12712358709E+03  0.12509424663E+03 0.  0.
          5    1    3    3  502    0  0.60258736638E+02 -0.14138036375E+02  0.39858675334E+02  0.73737275601E+02  0.41800000000E+01 0. -1.
         -5    1    3    3    0  502 -0.45444175500E+02  0.22022253326E+01 -0.27615266997E+02  0.53386311491E+02  0.41800000000E+01 0. -1.
        -11    1    1    2    0    0  0.15334399114E+02  0.19841043842E+02  0.35016572752E+02  0.43069376408E+02  0.00000000000E+00 0.  1.
         11    1    1    2    0    0 -0.30148960252E+02 -0.79052327994E+01 -0.40453969101E+02  0.51068347593E+02  0.00000000000E+00 0. -1.
</event>
<event>
 7    1  0.7017065E-006  0.1007351E+03  0.7561462E-02  0.1278758E+00
          1   -1    0    0  501    0  0.00000000000E+00  0.00000000000E+00  0.26317330265E+03  0.26317330265E+03  0.00000000000E+00 0. -1.
         -1   -1    0    0    0  501 -0.00000000000E+00 -0.00000000000E+00 -0.64746967913E+02  0.64746967913E+02  0.00000000000E+00 0.  1.
         23    2    1    2    0    0 -0.23822482973E+02  0.62814643952E+02  0.74374673014E+02  0.16028239080E+03  0.12508262319E+03 0.  0.
          5    1    3    3  502    0 -0.65499003600E+02  0.28124592346E+02  0.42378137314E+01  0.71530019101E+02  0.41800000000E+01 0.  1.
         -5    1    3    3    0  502  0.41676520627E+02  0.34690051606E+02  0.70136859283E+02  0.88752371698E+02  0.41800000000E+01 0.  1.
        -11    1    1    2    0    0  0.23844595770E+02 -0.15663629225E+02  0.11643060243E+03  0.11987493154E+03  0.00000000000E+00 0. -1.
         11    1    1    2    0    0 -0.22112796842E-01 -0.47151014727E+02  0.76210592905E+01  0.47762948229E+02  0.00000000000E+00 0.  1.
</event>
<event>
 7    1  0.7017065E-006  0.1339376E+03  0.7561462E-02  0.1221727E+00
          3   -1    0    0  501    0  0.00000000000E+00  0.00000000000E+00  0.51190139136E+02  0.51190139136E+02  0.00000000000E+00 0. -1.
         -3   -1    0    0    0  501 -0.00000000000E+00 -0.00000000000E+00 -0.41756737869E+03  0.41756737869E+03  0.00000000000E+00 0.  1.
         23    2    1    2    0    0 -0.41374714566E+02 -0.85660117383E+02 -0.23470912600E+03  0.28246272251E+03  0.12508914049E+03 0.  0.
          5    1    3    3  502    0  0.43730807976E+02 -0.40128682254E+02 -0.10560827974E+03  0.12121582346E+03  0.41800000000E+01 0. -1.
         -5    1    3    3    0  502 -0.85105522542E+02 -0.45531435129E+02 -0.12910084625E+03  0.16124689906E+03  0.41800000000E+01 0. -1.
        -11    1    1    2    0    0  0.14416492682E+02 -0.64485414060E+01 -0.71043797102E+02  0.72778019032E+02  0.00000000000E+00 0.  1.
         11    1    1    2    0    0  0.26958221884E+02  0.92108658789E+02 -0.60624316449E+02  0.11351677628E+03  0.00000000000E+00 0. -1.
</event>
<event>
 7    1  0.7017065E-006  0.1027236E+03  0.7561462E-02  0.1274671E+00
         -3   -1    0    0    0  501 -0.00000000000E+00  0.00000000000E+00  0.11518281989E+03  0.11518281989E+03  0.00000000000E+00 0.  1.
          3   -1    0    0  501    0  0.00000000000E+00 -0.00000000000E+00 -0.18180662055E+03  0.18180662055E+03  0.00000000000E+00 0. -1.
         23    2    1    2    0    0 -0.41827136417E+02  0.40394487770E+02  0.43354283328E+02  0.14460067302E+03  0.12509411166E+03 0.  0.
          5    1    3    3  502    0  0.24571555039E+02  0.62377678188E+02  0.28535874753E+02  0.72982906225E+02  0.41800000000E+01 0. -1.
         -5    1    3    3    0  502 -0.66398691456E+02 -0.21983190418E+02  0.14818408575E+02  0.71617766795E+02  0.41800000000E+01 0. -1.
        -11    1    1    2    0    0  0.33702479274E+02 -0.77717260977E+01  0.28060183186E+01  0.34700584643E+02  0.00000000000E+00 0.  1.
         11    1    1    2    0    0  0.81246571425E+01 -0.32622761672E+02 -0.11278410231E+03  0.11768818278E+03  0.00000000000E+00 0. -1.
</event>
<event>
 7    1  0.7017065E-006  0.1708626E+03  0.7561462E-02  0.1176951E+00
          2   -1    0    0  501    0  0.00000000000E+00  0.00000000000E+00  0.95698099073E+03  0.95698099073E+03  0.00000000000E+00 0. -1.
         -2   -1    0    0    0  501 -0.00000000000E+00 -0.00000000000E+00 -0.35275490536E+02  0.35275490536E+02  0.00000000000E+00 0.  1.
         23    2    1    2    0    0  0.13924907413E+03  0.13057622978E+02  0.35252283066E+03  0.39936006718E+03  0.12512118508E+03 0.  0.
          5    1    3    3  502    0  0.29514176986E+02 -0.51043907498E+02  0.13547231199E+03  0.14780658596E+03  0.41800000000E+01 0.  1.
         -5    1    3    3    0  502  0.10973489714E+03  0.64101530476E+02  0.21705051867E+03  0.25155348122E+03  0.41800000000E+01 0.  1.
        -11    1    1    2    0    0 -0.35009531688E+02 -0.34374166924E+02  0.94977149173E+02  0.10690140095E+03  0.00000000000E+00 0.  1.
         11    1    1    2    0    0 -0.10423954244E+03  0.21316543946E+02  0.47420552036E+03  0.48599501314E+03  0.00000000000E+00 0. -1.
</event>
<event>
 7    1  0.7017065E-006  0.1292453E+03  0.7561462E-02  0.1228580E+00
         -3   -1    0    0    0  501 -0.00000000000E+00  0.00000000000E+00  0.78724946912E+02  0.78724946912E+02  0.00000000000E+00 0.  1.
          3   -1    0    0  501    0  0.00000000000E+00 -0.00000000000E+00 -0.33135120409E+03  0.33135120409E+03  0.00000000000E+00 0. -1.
         23    2    1    2    0    0  0.14172135625E+02 -0.96036779475E+02 -0.54591096534E+02  0.16748935676E+03  0.12509430190E+03 0.  0.
          5    1    3    3  502    0  0.54262084370E+02 -0.44345370141E+02 -0.71074391336E+02  0.99899585369E+02  0.41800000000E+01 0. -1.
         -5    1    3    3    0  502 -0.40089948745E+02 -0.51691409335E+02  0.16483294802E+02  0.67589771393E+02  0.41800000000E+01 0. -1.
        -11    1    1    2    0    0  0.12637903698E+02  0.95075666295E+02 -0.19267795945E+03  0.21522986547E+03  0.00000000000E+00 0. -1.
         11    1    1    2    0    0 -0.26810039323E+02  0.96111318003E+00 -0.53572011885E+01  0.27356928768E+02  0.00000000000E+00 0.  1.
</event>
<event>
 7    1  0.7017065E-006  0.5677971E+02  0.7561462E-02  0.1411865E+00
          2   -1    0    0  501    0  0.00000000000E+00  0.00000000000E+00  0.32045433437E+02  0.32045433437E+02  0.00000000000E+00 0. -1.
         -2   -1    0    0    0  501 -0.00000000000E+00 -0.00000000000E+00 -0.43869649722E+03  0.43869649722E+03  0.00000000000E+00 0.  1.
         23    2    1    2    0    0  0.28862293062E+02 -0.21559415444E+02 -0.29107876360E+03  0.31886288197E+03  0.12509536572E+03 0.  0.
          5    1    3    3  502    0  0.80155952949E+01  0.87828183941E+00  0.11530981024E+02  0.14678455991E+02  0.41800000000E+01 0. -1.
         -5    1    3    3    0  502  0.20846697767E+02 -0.22437697284E+02 -0.30260974462E+03  0.30418442598E+03  0.41800000000E+01 0. -1.
        -11    1    1    2    0    0 -0.49425395935E+02  0.18509133442E+02 -0.11957925690E+03  0.13070828767E+03  0.00000000000E+00 0.  1.
         11    1    1    2    0    0  0.20563102873E+02  0.30502820017E+01  0.40069567162E+01  0.21170761021E+02  0.00000000000E+00 0. -1.
</event>
<event>
 7    1  0.7017065E-006  0.1812323E+03  0.7561462E-02  0.1166616E+00
          2   -1    0    0  501    0  0.00000000000E+00  0.00000000000E+00  0.32808589156E+03  0.32808589156E+03  0.00000000000E+00 0. -1.
         -2   -1    0    0    0  501 -0.00000000000E+00 -0.00000000000E+00 -0.10480190617E+03  0.10480190617E+03  0.00000000000E+00 0.  1.
         23    2    1    2    0    0  0.10655466917E+03  0.10415240304E+03  0.88427835383E+02  0.21370343266E+03  0.12509218393E+03 0.  0.
          5    1    3    3  502    0  0.12189935302E+03  0.11969982403E+03  0.86048766094E+02  0.19133573290E+03  0.41800000000E+01 0.  1.
         -5    1    3    3    0  502 -0.15344683848E+02 -0.15547420988E+02  0.23790692891E+01  0.22367699758E+02  0.41800000000E+01 0.  1.
        -11    1    1    2    0    0 -0.87704221190E+02 -0.11721531202E+03  0.99378683375E+02  0.17693948823E+03  0.00000000000E+00 0. -1.
         11    1    1    2    0    0 -0.18850447982E+02  0.13062908978E+02  0.35477466632E+02  0.42244876834E+02  0.00000000000E+00 0.  1.
</event>
<event>
 7    1  0.7017065E-006  0.8964495E+02  0.7561462E-02  0.1303714E+00
          2   -1    0    0  501    0  0.00000000000E+00  0.00000000000E+00  0.69721918026E+02  0.69721918026E+02  0.00000000000E+00 0. -1.
         -2   -1    0    0    0  501 -0.00000000000E+00 -0.00000000000E+00 -0.20283167479E+03  0.20283167479E+03  0.00000000000E+00 0.  1.
         23    2    1    2    0    0 -0.26665315065E+02 -0.40727588097E+02 -0.80981568581E+02  0.15676173836E+03  0.12508578139E+03 0.  0.
          5    1    3    3  502    0 -0.34188406893E+02  0.24030773431E+01  0.24594707290E+02  0.42390965704E+02  0.41800000000E+01 0.  1.
         -5    1    3    3    0  502  0.75230918287E+01 -0.43130665440E+02 -0.10557627587E+03  0.11437077266E+03  0.41800000000E+01 0.  1.
        -11    1    1    2    0    0  0.12599690857E+02  0.68501033602E+02 -0.47529449753E+02  0.84321956856E+02  0.00000000000E+00 0.  1.
         11    1    1    2    0    0  0.14065624208E+02 -0.27773445505E+02 -0.45987384292E+01  0.31469897596E+02  0.00000000000E+00 0. -1.
</event>
<event>
 7    1  0.7017065E-006  0.1109791E+03  0.7561462E-02  0.1258767E+00
          2   -1    0    0  501    0  0.00000000000E+00  0.00000000000E+00  0.70603167223E+02  0.70603167223E+02  0.00000000000E+00 0.  1.
         -2   -1    0    0    0  501 -0.00000000000E+00 -0.00000000000E+00 -0.19589749638E+03  0.19589749638E+03  0.00000000000E+00 0. -1.
         23    2    1    2    0    0 -0.61938581607E+01 -0.42706952790E+02 -0.93841439462E+02  0.16219766806E+03  0.12505846660E+03 0.  0.
          5    1    3    3  502    0 -0.27875651042E+02 -0.77558589021E+02 -0.33416851782E+02  0.89031146432E+02  0.41800000000E+01 0.  1.
         -5    1    3    3    0  502  0.21681792881E+02  0.34851636232E+02 -0.60424587680E+02  0.73166521626E+02  0.41800000000E+01 0.  1.
        -11    1    1    2    0    0 -0.37952420180E+02  0.38125013097E+02 -0.25463878600E+02  0.59517324659E+02  0.00000000000E+00 0.  1.
         11    1    1    2    0    0  0.44146278341E+02  0.45819396927E+01 -0.59890110915E+01  0.44785670884E+02  0.00000000000E+00 0. -1.
</event>
<event>
 7    1  0.7017065E-006  0.4064959E+03  0.7561462E-02  0.1041553E+00
          1   -1    0    0  501    0  0.00000000000E+00  0.00000000000E+00  0.19021616919E+04  0.19021616919E+04  0.00000000000E+00 0. -1.
         -1   -1    0    0    0  501 -0.00000000000E+00 -0.00000000000E+00 -0.10665950083E+03  0.10665950083E+03  0.00000000000E+00 0.  1.
         23    2    1    2    0    0 -0.20633347059E+03 -0.33728166369E+03  0.48886345779E+03  0.64106921385E+03  0.12509929990E+03 0.  0.
          5    1    3    3  502    0  0.11523329828E+02 -0.14324206818E+01  0.28024198267E+02  0.30621349543E+02  0.41800000000E+01 0.  1.
         -5    1    3    3    0  502 -0.21785680042E+03 -0.33584924301E+03  0.46083925952E+03  0.61044786431E+03  0.41800000000E+01 0.  1.
        -11    1    1    2    0    0  0.66347290761E+02  0.16810918606E+03  0.68630847869E+03  0.70970556525E+03  0.00000000000E+00 0. -1.
         11    1    1    2    0    0  0.13998617983E+03  0.16917247763E+03  0.62033025462E+03  0.65804641366E+03  0.00000000000E+00 0.  1.
</event>
<event>
 7    1  0.7017065E-006  0.8830635E+02  0.7561462E-02  0.1307006E+00
         -2   -1    0    0    0  501 -0.00000000000E+00  0.00000000000E+00  0.19777849747E+02  0.19777849747E+02  0.00000000000E+00 0.  1.
          2   -1    0    0  501    0  0.00000000000E+00 -0.00000000000E+00 -0.73892315375E+03  0.73892315375E+03  0.00000000000E+00 0. -1.
         23    2    1    2    0    0 -0.40498086248E+02  0.10177964296E+02 -0.30275074529E+03  0.33022481714E+03  0.12508689033E+03 0.  0.
          5    1    3    3  502    0 -0.50029451796E+02  0.27227892809E+02 -0.47751827797E+02  0.74444701973E+02  0.41800000000E+01 0.  1.
         -5    1    3    3    0  502  0.95313655480E+01 -0.17049928513E+02 -0.25499891750E+03  0.25578011517E+03  0.41800000000E+01 0.  1.
        -11    1    1    2    0    0 -0.41700490031E+01 -0.43561444305E+02 -0.22042680062E+03  0.22472864341E+03  0.00000000000E+00 0.  1.
         11    1    1    2    0    0  0.44668135251E+02  0.33383480009E+02 -0.19596775809E+03  0.20374754294E+03  0.00000000000E+00 0. -1.
</event>
<event>
 7    1  0.7017065E-006  0.9734627E+02  0.7561462E-02  0.1285977E+00
         -4   -1    0    0    0  501 -0.00000000000E+00  0.00000000000E+00  0.16793023574E+03  0.16793023574E+03  0.00000000000E+00 0.  1.
          4   -1    0    0  501    0  0.00000000000E+00 -0.00000000000E+00 -0.91015968472E+02  0.91015968472E+02  0.00000000000E+00 0. -1.
         23    2    1    2    0    0  0.23247169110E+02  0.58373225823E+02  0.37932970714E+02  0.14503375013E+03  0.12509202230E+03 0.  0.
          5    1    3    3  502    0  0.45281877627E+02  0.49884647158E+02 -0.29349424723E+02  0.73605622034E+02  0.41800000000E+01 0.  1.
         -5    1    3    3    0  502 -0.22034708517E+02  0.84885786651E+01  0.67282395437E+02  0.71428128094E+02  0.41800000000E+01 0.  1.
        -11    1    1    2    0    0 -0.51153482529E+02 -0.54984533030E+02  0.41297894096E+02  0.85705855717E+02  0.00000000000E+00 0. -1.
         11    1    1    2    0    0  0.27906313419E+02 -0.33886927929E+01 -0.23165975399E+01  0.28206598371E+02  0.00000000000E+00 0.  1.
</event>
<event>
 7    1  0.7017065E-006  0.9251620E+02  0.7561462E-02  0.1296870E+00
         -1   -1    0    0    0  501 -0.00000000000E+00  0.00000000000E+00  0.26934916390E+02  0.26934916390E+02  0.00000000000E+00 0.  1.
          1   -1    0    0  501    0  0.00000000000E+00 -0.00000000000E+00 -0.44701976775E+03  0.44701976775E+03  0.00000000000E+00 0. -1.
         23    2    1    2    0    0 -0.13055874149E+02  0.13013067079E+01 -0.15822487480E+03  0.20213576261E+03  0.12510637982E+03 0.  0.
          5    1    3    3  502    0 -0.12872193536E+02  0.56549156621E+02 -0.37190617024E+02  0.69022567872E+02  0.41800000000E+01 0.  1.
         -5    1    3    3    0  502 -0.18368061293E+00 -0.55247849913E+02 -0.12103425777E+03  0.13311319474E+03  0.41800000000E+01 0.  1.
        -11    1    1    2    0    0  0.16658441029E+02  0.33012712306E+02 -0.16199447519E+03  0.16616122539E+03  0.00000000000E+00 0. -1.
         11    1    1    2    0    0 -0.36025668800E+01 -0.34314019014E+02 -0.99865501372E+02  0.10565769614E+03  0.00000000000E+00 0.  1.
</event>
<event>
 7    1  0.7017065E-006  0.1134700E+03  0.7561462E-02  0.1254276E+00
         -2   -1    0    0    0  501 -0.00000000000E+00  0.00000000000E+00  0.36349280002E+02  0.36349280002E+02  0.00000000000E+00 0.  1.
          2   -1    0    0  501    0  0.00000000000E+00 -0.00000000000E+00 -0.45477600428E+03  0.45477600428E+03  0.00000000000E+00 0. -1.
         23    2    1    2    0    0 -0.57323771259E+01  0.49400434138E+02 -0.14146296769E+03  0.19527292097E+03  0.12508588808E+03 0.  0.
          5    1    3    3  502    0  0.19289251879E+02 -0.32603952340E+02 -0.12035726984E+02  0.39967787909E+02  0.41800000000E+01 0.  1.
         -5    1    3    3    0  502 -0.25021629005E+02  0.82004386478E+02 -0.12942724070E+03  0.15530513306E+03  0.41800000000E+01 0.  1.
        -11    1    1    2    0    0  0.36682093889E+02  0.82113842874E+01 -0.12182574821E+03  0.12749319892E+03  0.00000000000E+00 0. -1.
         11    1    1    2    0    0 -0.30949716763E+02 -0.57611818425E+02 -0.15513800839E+03  0.16835916440E+03  0.00000000000E+00 0.  1.
</event>
<event>
 7    1  0.7017065E-006  0.1211690E+03  0.7561462E-02  0.1241181E+00
          2   -1    0    0  501    0  0.00000000000E+00  0.00000000000E+00  0.44714341217E+02  0.44714341217E+02  0.00000000000E+00 0. -1.
         -2   -1    0    0    0  501 -0.00000000000E+00 -0.00000000000E+00 -0.55215621605E+03  0.55215621605E+03  0.00000000000E+00 0.  1.
         23    2    1    2    0    0 -0.49866920127E+02  0.36376649791E+02 -0.45828692219E+03  0.47904727756E+03  0.12509764473E+03 0.  0.
          5    1    3    3  502    0 -0.10921478509E+02 -0.45483646047E+02 -0.12187163322E+03  0.13060707536E+03  0.41800000000E+01 0.  1.
         -5    1    3    3    0  502 -0.38945441617E+02  0.81860295838E+02 -0.33641528897E+03  0.34844020221E+03  0.41800000000E+01 0.  1.
        -11    1    1    2    0    0  0.66420675634E+02 -0.19760238537E+01 -0.18824361288E+02  0.69064950589E+02  0.00000000000E+00 0. -1.
         11    1    1    2    0    0 -0.16553755507E+02 -0.34400625938E+02 -0.30330591358E+02  0.48758329118E+02  0.00000000000E+00 0.  1.
</event>
<event>
 7    1  0.7017065E-006  0.2291271E+03  0.7561462E-02  0.1127256E+00
         -3   -1    0    0    0  501 -0.00000000000E+00  0.00000000000E+00  0.10617606274E+04  0.10617606274E+04  0.00000000000E+00 0.  1.
          3   -1    0    0  501    0  0.00000000000E+00 -0.00000000000E+00 -0.70529551617E+02  0.70529551617E+02  0.00000000000E+00 0. -1.
         23    2    1    2    0    0 -0.16640397015E+03  0.12614112695E+03  0.79647776246E+03  0.83244763182E+03  0.12243516013E+03 0.  0.
          5    1    3    3  502    0 -0.14094792848E+02  0.64093712287E+02  0.12654658333E+03  0.14261198159E+03  0.41800000000E+01 0. -1.
         -5    1    3    3    0  502 -0.15230917730E+03  0.62047414666E+02  0.66993117913E+03  0.68983565023E+03  0.41800000000E+01 0.  1.
        -11    1    1    2    0    0  0.12522141705E+02 -0.58609269765E+02  0.50434082705E+02  0.78329095703E+02  0.00000000000E+00 0.  1.
         11    1    1    2    0    0  0.15388182844E+03 -0.67531857188E+02  0.14431923057E+03  0.22151345145E+03  0.00000000000E+00 0. -1.
</event>
<event>
 7    1  0.7017065E-006  0.9226783E+02  0.7561462E-02  0.1297451E+00
         -2   -1    0    0    0  501 -0.00000000000E+00  0.00000000000E+00  0.13812678734E+03  0.13812678734E+03  0.00000000000E+00 0.  1.
          2   -1    0    0  501    0  0.00000000000E+00 -0.00000000000E+00 -0.91764608283E+02  0.91764608283E+02  0.00000000000E+00 0. -1.
         23    2    1    2    0    0  0.62631130814E+01  0.27090231029E+02  0.41975462186E+02  0.13484285794E+03  0.12509016632E+03 0.  0.
          5    1    3    3  502    0  0.16830286282E+02 -0.40734469348E+02  0.48615076946E+02  0.65752974350E+02  0.41800000000E+01 0. -1.
         -5    1    3    3    0  502 -0.10567173201E+02  0.67824700377E+02 -0.66396147606E+01  0.69089883593E+02  0.41800000000E+01 0. -1.
        -11    1    1    2    0    0 -0.27058101793E+02 -0.39047049187E+02  0.32900921169E+02  0.57786534216E+02  0.00000000000E+00 0.  1.
         11    1    1    2    0    0  0.20794988712E+02  0.11956818157E+02 -0.28514204294E+02  0.37262003469E+02  0.00000000000E+00 0. -1.
</event>
<event>
 7    1  0.7017065E-006  0.9917141E+02  0.7561462E-02  0.1282048E+00
         -2   -1    0    0    0  501 -0.00000000000E+00  0.00000000000E+00  0.16114780493E+02  0.16114780493E+02  0.00000000000E+00 0.  1.
          2   -1    0    0  501    0  0.00000000000E+00 -0.00000000000E+00 -0.10886523724E+04  0.10886523724E+04  0.00000000000E+00 0. -1.
         23    2    1    2    0    0 -0.45530880757E+02  0.60540259500E+02 -0.62477042497E+03  0.64165736041E+03  0.12509156700E+03 0.  0.
          5    1    3    3  502    0  0.86897049116E+00  0.55646317892E+00 -0.46220385227E+03  0.46222390485E+03  0.41800000000E+01 0.  1.
         -5    1    3    3    0  502 -0.46399851249E+02  0.59983796321E+02 -0.16256657270E+03  0.17943345557E+03  0.41800000000E+01 0.  1.
        -11    1    1    2    0    0 -0.27424710657E+02 -0.93946448344E+01 -0.11952411861E+03  0.12298938586E+03  0.00000000000E+00 0.  1.
         11    1    1    2    0    0  0.72955591415E+02 -0.51145614665E+02 -0.32824304830E+03  0.34012040658E+03  0.00000000000E+00 0. -1.
</event>
<event>
 7    1  0.7017065E-006  0.1150644E+03  0.7561462E-02  0.1251469E+00
          2   -1    0    0  501    0  0.00000000000E+00  0.00000000000E+00  0.30870307988E+03  0.30870307988E+03  0.00000000000E+00 0. -1.
         -2   -1    0    0    0  501 -0.00000000000E+00 -0.00000000000E+00 -0.82748692869E+02  0.82748692869E+02  0.00000000000E+00 0.  1.
         23    2    1    2    0    0  0.88305811170E+02 -0.62256853446E+02  0.66919648052E+02  0.17829887766E+03  0.12505366205E+03 0.  0.
          5    1    3    3  502    0  0.63785747213E+02 -0.11705718573E+02  0.95195600070E+02  0.11526196280E+03  0.41800000000E+01 0. -1.
         -5    1    3    3    0  502  0.24520063956E+02 -0.50551134873E+02 -0.28275952017E+02  0.63036914866E+02  0.41800000000E+01 0. -1.
        -11    1    1    2    0    0 -0.40868987110E+02  0.21063819452E+02  0.43341104702E+01  0.46181631747E+02  0.00000000000E+00 0.  1.
         11    1    1    2    0    0 -0.47436824060E+02  0.41193033994E+02  0.15470062849E+03  0.16697126334E+03  0.00000000000E+00 0. -1.
</event>
<event>
 6    1  0.7017065E-006  0.1573384E+03  0.7561462E-02  0.1191735E+00
         -2   -1    0    0    0  501 -0.00000000000E+00  0.00000000000E+00  0.84025369747E+02  0.84025369747E+02  0.00000000000E+00 0.  1.
          2   -1    0    0  501    0  0.00000000000E+00 -0.00000000000E+00 -0.38970439705E+03  0.38970439705E+03  0.00000000000E+00 0. -1.
          5    1    1    2  502    0  0.27049537848E+00  0.17204510922E+02 -0.59925575130E+02  0.62486921179E+02  0.41800000000E+01 0. -1.
         -5    1    1    2    0  502 -0.74373542548E+02 -0.12099995649E+03 -0.31302518870E+02  0.14549822470E+03  0.41800000000E+01 0.  1.
        -11    1    1    2    0    0 -0.15838590483E+02 -0.20606662213E+01 -0.10987574910E+02  0.19386441039E+02  0.00000000000E+00 0.  1.
         11    1    1    2    0    0  0.89941637652E+02  0.10585611179E+03 -0.20346335840E+03  0.24635817989E+03  0.00000000000E+00 0. -1.
</event>
<event>
 7    1  0.7017065E-006  0.1071155E+03  0.7561462E-02  0.1266007E+00
          2   -1    0    0  501    0  0.00000000000E+00  0.00000000000E+00  0.24204210806E+03  0.24204210806E+03  0.00000000000E+00 0.  1.
         -2   -1    0    0    0  501 -0.00000000000E+00 -0.00000000000E+00 -0.53013149016E+02  0.53013149016E+02  0.00000000000E+00 0. -1.
         23    2    1    2    0    0 -0.21116889430E+02 -0.61845407360E+02  0.10369389464E+03  0.17752109973E+03  0.12841549608E+03 0.  0.
          5    1    3    3  502    0  0.39124775156E+02 -0.64822802050E+02  0.28438755467E+02  0.80987523170E+02  0.41800000000E+01 0. -1.
         -5    1    3    3    0  502 -0.60241664586E+02  0.29773946900E+01  0.75255139177E+02  0.96533576561E+02  0.41800000000E+01 0.  1.
        -11    1    1    2    0    0  0.13571029693E+02 -0.19415151906E+01  0.48082764095E+01  0.14527967862E+02  0.00000000000E+00 0.  1.
         11    1    1    2    0    0  0.75458597370E+01  0.63786922551E+02  0.80526787989E+02  0.10300618948E+03  0.00000000000E+00 0. -1.
</event>
<event>
 7    1  0.7017065E-006  0.1603892E+03  0.7561462E-02  0.1188258E+00
         -2   -1    0    0    0  501 -0.00000000000E+00  0.00000000000E+00  0.72539230136E+02  0.72539230136E+02  0.00000000000E+00 0.  1.
          2   -1    0    0  501    0  0.00000000000E+00 -0.00000000000E+00 -0.41998223813E+03  0.41998223813E+03  0.00000000000E+00 0. -1.
         23    2    1    2    0    0 -0.56740494727E+02  0.12208052299E+03 -0.15877388523E+03  0.24285823365E+03  0.12509131538E+03 0.  0.
          5    1    3    3  502    0  0.24343268615E+02  0.91782681680E+02 -0.10108366297E+03  0.13875170162E+03  0.41800000000E+01 0.  1.
         -5    1    3    3    0  502 -0.81083763342E+02  0.30297841307E+02 -0.57690222258E+02  0.10410653202E+03  0.41800000000E+01 0.  1.
        -11    1    1    2    0    0  0.10256741354E+02 -0.63325583497E+02 -0.23540109886E+02  0.68333498680E+02  0.00000000000E+00 0.  1.
         11    1    1    2    0    0  0.46483753373E+02 -0.58754939490E+02 -0.16512901287E+03  0.18132973593E+03  0.00000000000E+00 0. -1.
</event>
<event>
 7    1  0.7017065E-006  0.3508086E+03  0.7561462E-02  0.1062284E+00
          2   -1    0    0  501    0  0.00000000000E+00  0.00000000000E+00  0.20254322167E+03  0.20254322167E+03  0.00000000000E+00 0. -1.
         -2   -1    0    0    0  501 -0.00000000000E+00 -0.00000000000E+00 -0.65731483090E+03  0.65731483090E+03  0.00000000000E+00 0.  1.
         23    2    1    2    0    0 -0.30884371975E+03  0.15842452059E+03 -0.19996963967E+03  0.41966485805E+03  0.12509182364E+03 0.  0.
          5    1    3    3  502    0 -0.27745820172E+03  0.13366686612E+03 -0.21620835622E+03  0.37631557302E+03  0.41800000000E+01 0.  1.
         -5    1    3    3    0  502 -0.31385518031E+02  0.24757654474E+02  0.16238716558E+02  0.43349285030E+02  0.41800000000E+01 0.  1.
        -11    1    1    2    0    0  0.10146597647E+03 -0.18207878123E+02 -0.11105063068E+03  0.15152265105E+03  0.00000000000E+00 0.  1.
         11    1    1    2    0    0  0.20737774328E+03 -0.14021664247E+03 -0.14375133889E+03  0.28867054347E+03  0.00000000000E+00 0. -1.
</event>
<event>
 7    1  0.7017065E-006  0.9746291E+02  0.7561462E-02  0.1285723E+00
         -4   -1    0    0    0  501 -0.00000000000E+00  0.00000000000E+00  0.93900199145E+02  0.93900199145E+02  0.00000000000E+00 0.  1.
          4   -1    0    0  501    0  0.00000000000E+00 -0.00000000000E+00 -0.13567517479E+03  0.13567517479E+03  0.00000000000E+00 0. -1.
         23    2    1    2    0    0  0.76784352898E+00  0.29057907653E+02 -0.14992870569E+02  0.12929502928E+03  0.12508983511E+03 0.  0.
          5    1    3    3  502    0  0.31320831885E+02  0.70211646460E+02 -0.85686215569E+01  0.77469758512E+02  0.41800000000E+01 0. -1.
         -5    1    3    3    0  502 -0.30552988356E+02 -0.41153738806E+02 -0.64242490118E+01  0.51825270772E+02  0.41800000000E+01 0. -1.
        -11    1    1    2    0    0 -0.19094294395E+02 -0.40587248690E+02  0.19710003187E+02  0.48993887989E+02  0.00000000000E+00 0.  1.
         11    1    1    2    0    0  0.18326450866E+02  0.11529341037E+02 -0.46492108267E+02  0.51286456664E+02  0.00000000000E+00 0. -1.
</event>
<event>
 7    1  0.7017065E-006  0.1712172E+03  0.7561462E-02  0.1176584E+00
          2   -1    0    0  501    0  0.00000000000E+00  0.00000000000E+00  0.19867317811E+03  0.19867317811E+03  0.00000000000E+00 0. -1.
         -2   -1    0    0    0  501 -0.00000000000E+00 -0.00000000000E+00 -0.15449943751E+03  0.15449943751E+03  0.00000000000E+00 0.  1.
         23    2    1    2    0    0 -0.58707859449E+02 -0.12963358267E+03  0.13436033245E+02  0.18994751079E+03  0.12509217141E+03 0.  0.
          5    1    3    3  502    0 -0.96321194442E+02 -0.91125321383E+02  0.24312766204E+02  0.13487097425E+03  0.41800000000E+01 0. -1.
         -5    1    3    3    0  502  0.37613334993E+02 -0.38508261289E+02 -0.10876732959E+02  0.55076536535E+02  0.41800000000E+01 0. -1.
        -11    1    1    2    0    0  0.32966937201E+02  0.12544136715E+03  0.10334197355E+02  0.13011207160E+03  0.00000000000E+00 0.  1.
         11    1    1    2    0    0  0.25740922248E+02  0.41922155187E+01  0.20403509999E+02  0.33113033226E+02  0.00000000000E+00 0. -1.
</event>
<event>
 7    1  0.7017065E-006  0.1336187E+03  0.7561462E-02  0.1222183E+00
          2   -1    0    0  501    0  0.00000000000E+00  0.00000000000E+00  0.33538441512E+03  0.33538441512E+03  0.00000000000E+00 0. -1.
         -2   -1    0    0    0  501 -0.00000000000E+00 -0.00000000000E+00 -0.14398079627E+03  0.14398079627E+03  0.00000000000E+00 0.  1.
         23    2    1    2    0    0  0.65949395377E+02 -0.85185016497E+02 -0.74357019924E+02  0.18105979801E+03  0.12509146356E+03 0.  0.
          5    1    3    3  502    0 -0.15903927835E+02 -0.26408022610E+02 -0.73922366034E+02  0.80201665686E+02  0.41800000000E+01 0. -1.
         -5    1    3    3    0  502  0.81853323212E+02 -0.58776993887E+02 -0.43465388969E+00  0.10085813232E+03  0.41800000000E+01 0. -1.
        -11    1    1    2    0    0 -0.16786511174E+01  0.68964483027E+02  0.12705585602E+03  0.14457561460E+03  0.00000000000E+00 0. -1.
         11    1    1    2    0    0 -0.64270744259E+02  0.16220533470E+02  0.13870478276E+03  0.15372979878E+03  0.00000000000E+00 0.  1.
</event>
<event>
 7    1  0.7017065E-006  0.1040047E+03  0.7561462E-02  0.1272093E+00
          2   -1    0    0  501    0  0.00000000000E+00  0.00000000000E+00  0.24308510954E+03  0.24308510954E+03  0.00000000000E+00 0. -1.
         -2   -1    0    0    0  501 -0.00000000000E+00 -0.00000000000E+00 -0.98625353853E+02  0.98625353853E+02  0.00000000000E+00 0.  1.
         23    2    1    2    0    0 -0.77715526808E+02 -0.28207371776E+02 -0.27690915709E+01  0.14996772734E+03  0.12508913801E+03 0.  0.
          5    1    3    3  502    0 -0.26214881565E+02 -0.52884905606E+02 -0.48640593479E+02  0.76599040401E+02  0.41800000000E+01 0. -1.
         -5    1    3    3    0  502 -0.51500645243E+02  0.24677533830E+02  0.45871501908E+02  0.73368686943E+02  0.41800000000E+01 0. -1.
        -11    1    1    2    0    0  0.52562265407E+02 -0.15830475995E+01  0.16183168210E+02  0.55019930186E+02  0.00000000000E+00 0.  1.
         11    1    1    2    0    0  0.25153261402E+02  0.29790419376E+02  0.13104567904E+03  0.13672280586E+03  0.00000000000E+00 0. -1.
</event>
<event>
 6    1  0.7017065E-006  0.1174419E+03  0.7561462E-02  0.1247378E+00
          1   -1    0    0  501    0  0.00000000000E+00  0.00000000000E+00  0.23328749387E+02  0.23328749387E+02  0.00000000000E+00 0. -1.
         -1   -1    0    0    0  501 -0.00000000000E+00 -0.00000000000E+00 -0.88647372314E+03  0.88647372314E+03  0.00000000000E+00 0.  1.
          5    1    1    2  502    0 -0.29112037658E+02  0.27635846993E+02 -0.23651283572E+03  0.23993133317E+03  0.41800000000E+01 0. -1.
         -5    1    1    2    0  502  0.20027597846E+02 -0.10808992342E+03 -0.35906359180E+03  0.37553784307E+03  0.41800000000E+01 0.  1.
        -11    1    1    2    0    0 -0.70639566256E+01  0.45098001593E+02 -0.24535305421E+03  0.24956331951E+03  0.00000000000E+00 0.  1.
         11    1    1    2    0    0  0.16148396438E+02  0.35356074836E+02 -0.22215492014E+02  0.44769976779E+02  0.00000000000E+00 0. -1.
</event>
<event>
 7    1  0.7017065E-006  0.1121178E+03  0.7561462E-02  0.1256698E+00
          1   -1    0    0  501    0  0.00000000000E+00  0.00000000000E+00  0.67149669203E+02  0.67149669203E+02  0.00000000000E+00 0. -1.
         -1   -1    0    0    0  501 -0.00000000000E+00 -0.00000000000E+00 -0.34446641376E+03  0.34446641376E+03  0.00000000000E+00 0.  1.
         23    2    1    2    0    0  0.68662403981E+02  0.29472686253E+02 -0.25146621428E+03  0.29063074768E+03  0.12509120519E+03 0.  0.
          5    1    3    3  502    0  0.87568104765E+02  0.55338023237E+02 -0.22871508667E+03  0.25111458153E+03  0.41800000000E+01 0. -1.
         -5    1    3    3    0  502 -0.18905700784E+02 -0.25865336984E+02 -0.22751127611E+02  0.39516166148E+02  0.41800000000E+01 0. -1.
        -11    1    1    2    0    0 -0.15765464701E+02 -0.31599445084E+02  0.28301371789E+02  0.45255303026E+02  0.00000000000E+00 0. -1.
         11    1    1    2    0    0 -0.52896939279E+02  0.21267588302E+01 -0.54151902063E+02  0.75730032255E+02  0.00000000000E+00 0.  1.
</event>
<event>
 7    1  0.7017065E-006  0.1208241E+03  0.7561462E-02  0.1241744E+00
          1   -1    0    0  501    0  0.00000000000E+00  0.00000000000E+00  0.29793972093E+03  0.29793972093E+03  0.00000000000E+00 0. -1.
         -1   -1    0    0    0  501 -0.00000000000E+00 -0.00000000000E+00 -0.63565388567E+02  0.63565388567E+02  0.00000000000E+00 0.  1.
         23    2    1    2    0    0  0.81829517501E+02  0.36263596577E+01  0.91115988863E+02  0.17509015951E+03  0.12508085429E+03 0.  0.
          5    1    3    3  502    0  0.70690081134E+02 -0.37180013496E+02  0.10351431272E+03  0.13081332621E+03  0.41800000000E+01 0. -1.
         -5    1    3    3    0  502  0.11139436367E+02  0.40806373153E+02 -0.12398323862E+02  0.44276833300E+02  0.41800000000E+01 0. -1.
        -11    1    1    2    0    0 -0.10030197819E+03  0.17690969196E+00  0.11746816060E+03  0.15446451657E+03  0.00000000000E+00 0.  1.
         11    1    1    2    0    0  0.18472460686E+02 -0.38032693497E+01  0.25790182904E+02  0.31950433420E+02  0.00000000000E+00 0. -1.
</event>
<event>
 7    1  0.7017065E-006  0.1061179E+03  0.7561462E-02  0.1267933E+00
          3   -1    0    0  501    0  0.00000000000E+00  0.00000000000E+00  0.23610547748E+03  0.23610547748E+03  0.00000000000E+00 0. -1.
         -3   -1    0    0    0  501 -0.00000000000E+00 -0.00000000000E+00 -0.53099766801E+02  0.53099766801E+02  0.00000000000E+00 0.  1.
         23    2    1    2    0    0  0.20322080320E+02  0.13695182501E+02  0.11047782138E+03  0.16868257876E+03  0.12509163996E+03 0.  0.
          5    1    3    3  502    0  0.56877409305E+02  0.41211352161E+02  0.31018025420E+02  0.76896069712E+02  0.41800000000E+01 0. -1.
         -5    1    3    3    0  502 -0.36555328985E+02 -0.27516169660E+02  0.79459795956E+02  0.91786509048E+02  0.41800000000E+01 0. -1.
        -11    1    1    2    0    0 -0.47740882643E+02 -0.36636504251E+02  0.50245593827E+02  0.78396715609E+02  0.00000000000E+00 0.  1.
         11    1    1    2    0    0  0.27418802323E+02  0.22941321750E+02  0.22282295481E+02  0.42125949917E+02  0.00000000000E+00 0. -1.
</event>
<event>
 7    1  0.7017065E-006  0.6414394E+02  0.7561462E-02  0.1381221E+00
          1   -1    0    0  501    0  0.00000000000E+00  0.00000000000E+00  0.58641858336E+03  0.58641858336E+03  0.00000000000E+00 0. -1.
         -1   -1    0    0    0  501 -0.00000000000E+00 -0.00000000000E+00 -0.20854416276E+02  0.20854416276E+02  0.00000000000E+00 0.  1.
         23    2    1    2    0    0  0.81525987475E+01  0.65907690095E+01  0.27028114518E+03  0.29799710432E+03  0.12506187923E+03 0.  0.
          5    1    3    3  502    0 -0.13357837765E+02  0.81547060067E+01 -0.85397826511E+01  0.18312054705E+02  0.41800000000E+01 0. -1.
         -5    1    3    3    0  502  0.21510436512E+02 -0.15639369972E+01  0.27882092783E+03  0.27968504961E+03  0.41800000000E+01 0. -1.
        -11    1    1    2    0    0 -0.48104540232E+02  0.54031180906E+01  0.12734959222E+03  0.13623934496E+03  0.00000000000E+00 0.  1.
         11    1    1    2    0    0  0.39951941484E+02 -0.11993887100E+02  0.16793342969E+03  0.17303655036E+03  0.00000000000E+00 0. -1.
</event>
<event>
 7    1  0.7017065E-006  0.1304967E+03  0.7561462E-02  0.1226721E+00
         -1   -1    0    0    0  501 -0.00000000000E+00  0.00000000000E+00  0.15234836473E+03  0.15234836473E+03  0.00000000000E+00 0. -1.
          1   -1    0    0  501    0  0.00000000000E+00 -0.00000000000E+00 -0.19630014210E+03  0.19630014210E+03  0.00000000000E+00 0.  1.
         23    2    1    2    0    0 -0.86401844822E+02  0.16559900257E+02  0.79136514585E+02  0.17220075473E+03  0.12510396838E+03 0.  0.
          5    1    3    3  502    0 -0.90903076717E+02  0.47762017549E+02  0.19486136078E+02  0.10460287556E+03  0.41800000000E+01 0. -1.
         -5    1    3    3    0  502  0.45012318954E+01 -0.31202117292E+02  0.59650378507E+02  0.67597879169E+02  0.41800000000E+01 0. -1.
        -11    1    1    2    0    0  0.51624678551E+02 -0.54420708651E+02 -0.73694412459E+02  0.10515506356E+03  0.00000000000E+00 0. -1.
         11    1    1    2    0    0  0.34777166271E+02  0.37860808394E+02 -0.49393879495E+02  0.71292688529E+02  0.00000000000E+00 0.  1.
</event>
<event>
 7    1  0.7017065E-006  0.9062871E+02  0.7561462E-02  0.1301336E+00
         -1   -1    0    0    0  501 -0.00000000000E+00  0.00000000000E+00  0.13118851255E+03  0.13118851255E+03  0.00000000000E+00 0.  1.
          1   -1    0    0  501    0  0.00000000000E+00 -0.00000000000E+00 -0.93899790765E+02  0.93899790765E+02  0.00000000000E+00 0. -1.
         23    2    1    2    0    0 -0.12887027231E+02 -0.26178566946E+02  0.23812913954E+02  0.13063831647E+03  0.12509165448E+03 0.  0.
          5    1    3    3  502    0 -0.65825681620E+02 -0.34494786182E+02  0.17960550751E+02  0.76569996851E+02  0.41800000000E+01 0.  1.
         -5    1    3    3    0  502  0.52938654389E+02  0.83162192358E+01  0.58523632029E+01  0.54068319615E+02  0.41800000000E+01 0.  1.
        -11    1    1    2    0    0 -0.45182576670E+01  0.33779566652E+02 -0.31011528237E+02  0.46078071348E+02  0.00000000000E+00 0. -1.
         11    1    1    2    0    0  0.17405284898E+02 -0.76009997068E+01  0.44487336064E+02  0.48371915498E+02  0.00000000000E+00 0.  1.
</event>
<event>
 7    1  0.7017065E-006  0.1099544E+03  0.7561462E-02  0.1260654E+00
         -1   -1    0    0    0  501 -0.00000000000E+00  0.00000000000E+00  0.76491365336E+02  0.76491365336E+02  0.00000000000E+00 0.  1.
          1   -1    0    0  501    0  0.00000000000E+00 -0.00000000000E+00 -0.20056981453E+03  0.20056981453E+03  0.00000000000E+00 0. -1.
         23    2    1    2    0    0  0.42570450821E+02 -0.12565276225E+02 -0.22452009748E+02  0.13461951442E+03  0.12509273148E+03 0.  0.
          5    1    3    3  502    0 -0.41197554545E+02  0.15463692706E+02 -0.50245088044E+01  0.44486878754E+02  0.41800000000E+01 0.  1.
         -5    1    3    3    0  502  0.83768005366E+02 -0.28028968931E+02 -0.17427500944E+02  0.90132635662E+02  0.41800000000E+01 0.  1.
        -11    1    1    2    0    0 -0.43227072485E+02  0.40557645169E+02 -0.31922646145E+02  0.67324272845E+02  0.00000000000E+00 0.  1.
         11    1    1    2    0    0  0.65662166341E+00 -0.27992368944E+02 -0.69703793306E+02  0.75117392609E+02  0.00000000000E+00 0. -1.
</event>
<event>
 7    1  0.7017065E-006  0.1071196E+03  0.7561462E-02  0.1265999E+00
         -1   -1    0    0    0  501 -0.00000000000E+00  0.00000000000E+00  0.32452139634E+02  0.32452139634E+02  0.00000000000E+00 0.  1.
          1   -1    0    0  501    0  0.00000000000E+00 -0.00000000000E+00 -0.48616506795E+03  0.48616506795E+03  0.00000000000E+00 0. -1.
         23    2    1    2    0    0  0.45839566587E+02 -0.18590942548E+02 -0.17022595695E+03  0.21695620708E+03  0.12508489262E+03 0.  0.
          5    1    3    3  502    0 -0.30087447823E+02  0.30656641599E+02 -0.66017800429E+02  0.78872723829E+02  0.41800000000E+01 0. -1.
         -5    1    3    3    0  502  0.75927014410E+02 -0.49247584147E+02 -0.10420815652E+03  0.13808348325E+03  0.41800000000E+01 0. -1.
        -11    1    1    2    0    0 -0.11127145733E+02  0.38769092894E+02 -0.47642776601E+02  0.62423473936E+02  0.00000000000E+00 0.  1.
         11    1    1    2    0    0 -0.34712420854E+02 -0.20178150347E+02 -0.23584419477E+03  0.23923752657E+03  0.00000000000E+00 0. -1.
</event>
<event>
 7    1  0.7017065E-006  0.1402028E+03  0.7561462E-02  0.1213056E+00
         -2   -1    0    0    0  501 -0.00000000000E+00  0.00000000000E+00  0.49887747833E+02  0.49887747833E+02  0.00000000000E+00 0.  1.
          2   -1    0    0  501    0  0.00000000000E+00 -0.00000000000E+00 -0.55517928706E+03  0.55517928706E+03  0.00000000000E+00 0. -1.
         23    2    1    2    0    0  0.10455509108E+03 -0.51676516524E+02 -0.19053072026E+03  0.25603143300E+03  0.12509160599E+03 0.  0.
          5    1    3    3  502    0  0.38442661493E+02  0.27744709249E+02 -0.12460455723E+03  0.13338431391E+03  0.41800000000E+01 0. -1.
         -5    1    3    3    0  502  0.66112429584E+02 -0.79421225772E+02 -0.65926163026E+02  0.12264711909E+03  0.41800000000E+01 0. -1.
        -11    1    1    2    0    0 -0.40803087425E+02  0.51415235252E+02 -0.69383954271E+02  0.95512048820E+02  0.00000000000E+00 0.  1.
         11    1    1    2    0    0 -0.63752003652E+02  0.26128127151E+00 -0.24537686470E+03  0.25352355308E+03  0.00000000000E+00 0. -1.
</event>
<event>
 7    1  0.7017065E-006  0.1171796E+03  0.7561462E-02  0.1247824E+00
         -2   -1    0    0    0  501 -0.00000000000E+00  0.00000000000E+00  0.43958535077E+02  0.43958535077E+02  0.00000000000E+00 0.  1.
          2   -1    0    0  501    0  0.00000000000E+00 -0.00000000000E+00 -0.44212255268E+03  0.44212255268E+03  0.00000000000E+00 0. -1.
         23    2    1    2    0    0 -0.25870521468E+02 -0.78947306144E+02 -0.22934001091E+03  0.27412736809E+03  0.12508801822E+03 0.  0.
          5    1    3    3  502    0 -0.72864334819E+02 -0.23770356453E+02 -0.10363352439E+03  0.12896364182E+03  0.41800000000E+01 0.  1.
         -5    1    3    3    0  502  0.46993813350E+02 -0.55176949691E+02 -0.12570648652E+03  0.14516372627E+03  0.41800000000E+01 0.  1.
        -11    1    1    2    0    0  0.21316480462E+02  0.36160613664E+02 -0.16325667547E+03  0.16856667644E+03  0.00000000000E+00 0. -1.
         11    1    1    2    0    0  0.45540410068E+01  0.42786692480E+02 -0.55673312166E+01  0.43387043224E+02  0.00000000000E+00 0.  1.
</event>
<event>
 7    1  0.7017065E-006  0.1055967E+03  0.7561462E-02  0.1268948E+00
         -1   -1    0    0    0  501 -0.00000000000E+00  0.00000000000E+00  0.11232333358E+03  0.11232333358E+03  0.00000000000E+00 0.  1.
          1   -1    0    0  501    0  0.00000000000E+00 -0.00000000000E+00 -0.11372174064E+03  0.11372174064E+03  0.00000000000E+00 0. -1.
         23    2    1    2    0    0  0.70353290294E+01 -0.55133644051E+01  0.35786260695E+02  0.13039265563E+03  0.12506676276E+03 0.  0.
          5    1    3    3  502    0  0.59273271017E+02 -0.28993562261E+02  0.80008365354E+01  0.66599047252E+02  0.41800000000E+01 0.  1.
         -5    1    3    3    0  502 -0.52237941988E+02  0.23480197856E+02  0.27785424159E+02  0.63793608380E+02  0.41800000000E+01 0.  1.
        -11    1    1    2    0    0  0.12177747597E+02 -0.38097496725E+02 -0.12035762402E+02  0.41768126242E+02  0.00000000000E+00 0. -1.
         11    1    1    2    0    0 -0.19213076626E+02  0.43610861130E+02 -0.25148905354E+02  0.53884292353E+02  0.00000000000E+00 0.  1.
</event>
<event>
 7    1  0.7017065E-006  0.1170524E+03  0.7561462E-02  0.1248040E+00
          2   -1    0    0  501    0  0.00000000000E+00  0.00000000000E+00  0.20099387543E+03  0.20099387543E+03  0.00000000000E+00 0. -1.
         -2   -1    0    0    0  501 -0.00000000000E+00 -0.00000000000E+00 -0.15196709542E+03  0.15196709542E+03  0.00000000000E+00 0.  1.
         23    2    1    2    0    0  0.61995040000E+02  0.44334340583E+02 -0.89668779743E+02  0.17176621341E+03  0.12511683847E+03 0.  0.
          5    1    3    3  502    0 -0.36274631850E+02  0.23191032117E+02 -0.12662269658E+02  0.45071924292E+02  0.41800000000E+01 0. -1.
         -5    1    3    3    0  502  0.98269671850E+02  0.21143308466E+02 -0.77006510085E+02  0.12669428911E+03  0.41800000000E+01 0. -1.
        -11    1    1    2    0    0 -0.34917897036E+02 -0.51511074770E+02  0.30256644075E+02  0.69196205590E+02  0.00000000000E+00 0.  1.
         11    1    1    2    0    0 -0.27077142964E+02  0.71767341866E+01  0.10843891568E+03  0.11199855186E+03  0.00000000000E+00 0. -1.
</event>
<event>
 7    1  0.7017065E-006  0.1085400E+03  0.7561462E-02  0.1263298E+00
         -3   -1    0    0    0  501 -0.00000000000E+00  0.00000000000E+00  0.34468310789E+02  0.34468310789E+02  0.00000000000E+00 0.  1.
          3   -1    0    0  501    0  0.00000000000E+00 -0.00000000000E+00 -0.53641371073E+03  0.53641371073E+03  0.00000000000E+00 0. -1.
         23    2    1    2    0    0 -0.58838896095E+02  0.49843018175E+02 -0.21656740626E+03  0.26171699618E+03  0.12509197608E+03 0.  0.
          5    1    3    3  502    0 -0.39328051384E+02 -0.56528919083E+01 -0.19479894278E+03  0.19885359268E+03  0.41800000000E+01 0.  1.
         -5    1    3    3    0  502 -0.19510844711E+02  0.55495910084E+02 -0.21768463480E+02  0.62863403500E+02  0.41800000000E+01 0.  1.
        -11    1    1    2    0    0  0.80109181089E+02 -0.21922117962E+02 -0.21590093898E+03  0.23132504318E+03  0.00000000000E+00 0. -1.
         11    1    1    2    0    0 -0.21270284994E+02 -0.27920900214E+02 -0.69477054702E+02  0.77839982160E+02  0.00000000000E+00 0.  1.
</event>
<event>
 7    1  0.7017065E-006  0.8882190E+02  0.7561462E-02  0.1305730E+00
         -2   -1    0    0    0  501 -0.00000000000E+00  0.00000000000E+00  0.17894267505E+02  0.17894267505E+02  0.00000000000E+00 0. -1.
          2   -1    0    0  501    0  0.00000000000E+00 -0.00000000000E+00 -0.80705801019E+03  0.80705801019E+03  0.00000000000E+00 0.  1.
         23    2    1    2    0    0 -0.31288930118E+02 -0.13920965872E+02 -0.31536515782E+03  0.34099176663E+03  0.12508961470E+03 0.  0.
          5    1    3    3  502    0  0.18159213750E+02 -0.24769294302E+02 -0.27326353419E+03  0.27501582955E+03  0.41800000000E+01 0.  1.
         -5    1    3    3    0  502 -0.49448143868E+02  0.10848328430E+02 -0.42101623623E+02  0.65975937079E+02  0.41800000000E+01 0.  1.
        -11    1    1    2    0    0 -0.26257522462E+02  0.26108558770E+02 -0.13019558739E+03  0.13535880209E+03  0.00000000000E+00 0.  1.
         11    1    1    2    0    0  0.57546452579E+02 -0.12187592898E+02 -0.34360299748E+03  0.34860170898E+03  0.00000000000E+00 0. -1.
</event>
<event>
 7    1  0.7017065E-006  0.1061441E+03  0.7561462E-02  0.1267882E+00
          4   -1    0    0  501    0  0.00000000000E+00  0.00000000000E+00  0.19180074902E+03  0.19180074902E+03  0.00000000000E+00 0. -1.
         -4   -1    0    0    0  501 -0.00000000000E+00 -0.00000000000E+00 -0.79630418099E+02  0.79630418099E+02  0.00000000000E+00 0.  1.
         23    2    1    2    0    0  0.28113231035E+02 -0.27460373022E+02  0.15180886538E+02  0.13199468247E+03  0.12509081117E+03 0.  0.
          5    1    3    3  502    0 -0.10748376337E+02  0.45192907334E+02  0.16530704003E+02  0.49483967525E+02  0.41800000000E+01 0.  1.
         -5    1    3    3    0  502  0.38861607372E+02 -0.72653280355E+02 -0.13498174651E+01  0.82510714947E+02  0.41800000000E+01 0.  1.
        -11    1    1    2    0    0  0.47420615662E+01 -0.22697034084E+02  0.69891321199E+02  0.73637213983E+02  0.00000000000E+00 0. -1.
         11    1    1    2    0    0 -0.32855292601E+02  0.50157407106E+02  0.27098123179E+02  0.65799270659E+02  0.00000000000E+00 0.  1.
</event>
<event>
 7    1  0.7017065E-006  0.1827508E+03  0.7561462E-02  0.1165167E+00
          2   -1    0    0  501    0  0.00000000000E+00  0.00000000000E+00  0.78564577292E+03  0.78564577292E+03  0.00000000000E+00 0. -1.
         -2   -1    0    0    0  501 -0.00000000000E+00 -0.00000000000E+00 -0.55662763860E+02  0.55662763860E+02  0.00000000000E+00 0.  1.
         23    2    1    2    0    0  0.14679737494E+03 -0.99111880449E+02  0.36333509408E+03  0.42312495226E+03  0.12509876298E+03 0.  0.
          5    1    3    3  502    0  0.96875714790E+02 -0.33005788116E+02  0.30495001594E+03  0.32169282054E+03  0.41800000000E+01 0. -1.
         -5    1    3    3    0  502  0.49921660152E+02 -0.66106092333E+02  0.58385078138E+02  0.10143213172E+03  0.41800000000E+01 0. -1.
        -11    1    1    2    0    0 -0.11650589076E+03  0.93356652142E+02  0.35518875060E+03  0.38528967756E+03  0.00000000000E+00 0. -1.
         11    1    1    2    0    0 -0.30291484183E+02  0.57552283067E+01  0.11459164381E+02  0.32893906962E+02  0.00000000000E+00 0.  1.
</event>
<event>
 7    1  0.7017065E-006  0.1043129E+03  0.7561462E-02  0.1271479E+00
         -2   -1    0    0    0  501 -0.00000000000E+00  0.00000000000E+00  0.73125614509E+02  0.73125614509E+02  0.00000000000E+00 0.  1.
          2   -1    0    0  501    0  0.00000000000E+00 -0.00000000000E+00 -0.21984559422E+03  0.21984559422E+03  0.00000000000E+00 0. -1.
         23    2    1    2    0    0  0.60773270396E+02  0.22794947271E+02 -0.66364141559E+02  0.15576899215E+03  0.12508708812E+03 0.  0.
          5    1    3    3  502    0  0.47523668019E+02 -0.33012153551E+02  0.11324170040E+02  0.59110155905E+02  0.41800000000E+01 0.  1.
         -5    1    3    3    0  502  0.13249602377E+02  0.55807100822E+02 -0.77688311599E+02  0.96658836246E+02  0.41800000000E+01 0.  1.
        -11    1    1    2    0    0  0.14175758593E+02 -0.92772111703E+01  0.94921661978E+01  0.19419577697E+02  0.00000000000E+00 0.  1.
         11    1    1    2    0    0 -0.74949028990E+02 -0.13517736101E+02 -0.89848004347E+02  0.11778263888E+03  0.00000000000E+00 0. -1.
</event>
<event>
 7    1  0.7017065E-006  0.7977576E+02  0.7561462E-02  0.1329689E+00
          1   -1    0    0  501    0  0.00000000000E+00  0.00000000000E+00  0.21181522412E+03  0.21181522412E+03  0.00000000000E+00 0. -1.
         -1   -1    0    0    0  501 -0.00000000000E+00 -0.00000000000E+00 -0.66288922673E+02  0.66288922673E+02  0.00000000000E+00 0.  1.
         23    2    1    2    0    0  0.41104418416E+02  0.14111131733E+02  0.58759380250E+02  0.14487544536E+03  0.12509009812E+03 0.  0.
          5    1    3    3  502    0 -0.15029449446E+02  0.14359503164E+02 -0.31816093496E+02  0.38233700934E+02  0.41800000000E+01 0.  1.
         -5    1    3    3    0  502  0.56133867862E+02 -0.24837143130E+00  0.90575473746E+02  0.10664174442E+03  0.41800000000E+01 0.  1.
        -11    1    1    2    0    0 -0.37412794487E+02  0.23556364899E+02  0.67649069448E+01  0.44725646832E+02  0.00000000000E+00 0.  1.
         11    1    1    2    0    0 -0.36916239287E+01 -0.37667496632E+02  0.80002014255E+02  0.88503054606E+02  0.00000000000E+00 0. -1.
</event>
<event>
 7    1  0.7017065E-006  0.8667409E+02  0.7561462E-02  0.1311112E+00
         -4   -1    0    0    0  501 -0.00000000000E+00  0.00000000000E+00  0.14534606499E+04  0.14534606499E+04  0.00000000000E+00 0. -1.
          4   -1    0    0  501    0  0.00000000000E+00 -0.00000000000E+00 -0.94836147797E+01  0.94836147797E+01  0.00000000000E+00 0.  1.
         23    2    1    2    0    0 -0.16954726145E+02  0.31290900941E+02  0.95015505492E+03  0.95901479482E+03  0.12509262598E+03 0.  0.
          5    1    3    3  502    0  0.19803611146E+02 -0.64998672182E+01  0.27085292784E+02  0.34431334181E+02  0.41800000000E+01 0.  1.
         -5    1    3    3    0  502 -0.36758337291E+02  0.37790768159E+02  0.92306976214E+03  0.92458346064E+03  0.41800000000E+01 0.  1.
        -11    1    1    2    0    0  0.12383094893E+02  0.32744152462E+02  0.13858378991E+03  0.14293700495E+03  0.00000000000E+00 0. -1.
         11    1    1    2    0    0  0.45716312521E+01 -0.64035053403E+02  0.35523819026E+03  0.36099246488E+03  0.00000000000E+00 0.  1.
</event>
<event>
 7    1  0.7017065E-006  0.1522919E+03  0.7561462E-02  0.1197685E+00
          2   -1    0    0  501    0  0.00000000000E+00  0.00000000000E+00  0.28930315599E+03  0.28930315599E+03  0.00000000000E+00 0. -1.
         -2   -1    0    0    0  501 -0.00000000000E+00 -0.00000000000E+00 -0.11741361864E+03  0.11741361864E+03  0.00000000000E+00 0.  1.
         23    2    1    2    0    0  0.28517734534E+02  0.14128474619E+03  0.53527732962E+02  0.19821013508E+03  0.12508956297E+03 0.  0.
          5    1    3    3  502    0  0.36651188419E+02  0.10501186020E+03  0.92108022594E+02  0.14447200636E+03  0.41800000000E+01 0.  1.
         -5    1    3    3    0  502 -0.81334538846E+01  0.36272885985E+02 -0.38580289632E+02  0.53738128716E+02  0.41800000000E+01 0.  1.
        -11    1    1    2    0    0 -0.20631925286E+02 -0.76474788881E+01  0.57278557494E+02  0.61359542232E+02  0.00000000000E+00 0. -1.
         11    1    1    2    0    0 -0.78858092480E+01 -0.13363726730E+03  0.61083246895E+02  0.14714709732E+03  0.00000000000E+00 0.  1.
</event>
<event>
 7    1  0.7017065E-006  0.1269568E+03  0.7561462E-02  0.1232043E+00
          2   -1    0    0  501    0  0.00000000000E+00  0.00000000000E+00  0.14389050274E+03  0.14389050274E+03  0.00000000000E+00 0. -1.
         -2   -1    0    0    0  501 -0.00000000000E+00 -0.00000000000E+00 -0.14055120034E+03  0.14055120034E+03  0.00000000000E+00 0.  1.
         23    2    1    2    0    0 -0.36968162310E+02  0.58022230066E+02 -0.59269450366E+02  0.15458160785E+03  0.12509748812E+03 0.  0.
          5    1    3    3  502    0 -0.69252661634E+02  0.77692213559E+02 -0.37181584998E+02  0.11059816388E+03  0.41800000000E+01 0. -1.
         -5    1    3    3    0  502  0.32284499323E+02 -0.19669983493E+02 -0.22087865368E+02  0.43983443972E+02  0.41800000000E+01 0. -1.
        -11    1    1    2    0    0 -0.24500386498E+02 -0.41290976422E+02  0.14902029247E+02  0.50272101091E+02  0.00000000000E+00 0.  1.
         11    1    1    2    0    0  0.61468548808E+02 -0.16731253644E+02  0.47706723516E+02  0.79587994131E+02  0.00000000000E+00 0. -1.
</event>
<event>
 6    1  0.7017065E-006  0.9834616E+02  0.7561462E-02  0.1283813E+00
          1   -1    0    0  501    0  0.00000000000E+00  0.00000000000E+00  0.37970824210E+02  0.37970824210E+02  0.00000000000E+00 0. -1.
         -1   -1    0    0    0  501 -0.00000000000E+00 -0.00000000000E+00 -0.56835603327E+03  0.56835603327E+03  0.00000000000E+00 0.  1.
          5    1    1    2  502    0 -0.86527091150E+01 -0.32212786448E+02 -0.12924797806E+01  0.33640390749E+02  0.41800000000E+01 0. -1.
         -5    1    1    2    0  502 -0.45529262042E+02 -0.14807832643E+02 -0.38061086985E+03  0.38363301768E+03  0.41800000000E+01 0.  1.
        -11    1    1    2    0    0 -0.18525883815E+02 -0.11395524760E+02 -0.15855900954E+02  0.26916090926E+02  0.00000000000E+00 0.  1.
         11    1    1    2    0    0  0.72707854972E+02  0.58416143851E+02 -0.13262595848E+03  0.16213735812E+03  0.00000000000E+00 0. -1.
</event>
<event>
 7    1  0.7017065E-006  0.2739545E+03  0.7561462E-02  0.1099037E+00
          2   -1    0    0  501    0  0.00000000000E+00  0.00000000000E+00  0.12099983209E+04  0.12099983209E+04  0.00000000000E+00 0. -1.
         -2   -1    0    0    0  501 -0.00000000000E+00 -0.00000000000E+00 -0.67144170836E+02  0.67144170836E+02  0.00000000000E+00 0.  1.
         23    2    1    2    0    0  0.17522838192E+03  0.19072781674E+03  0.48318904767E+03  0.56231991957E+03  0.12509976115E+03 0.  0.
          5    1    3    3  502    0  0.13119651981E+03  0.78042625365E+02  0.18118211610E+03  0.23695486866E+03  0.41800000000E+01 0.  1.
         -5    1    3    3    0  502  0.44031862108E+02  0.11268519138E+03  0.30200693157E+03  0.32536505091E+03  0.41800000000E+01 0.  1.
        -11    1    1    2    0    0 -0.69449662426E+02 -0.18241580451E+02  0.14481462471E+03  0.16163937143E+03  0.00000000000E+00 0.  1.
         11    1    1    2    0    0 -0.10577871950E+03 -0.17248623629E+03  0.51485047773E+03  0.55318320078E+03  0.00000000000E+00 0. -1.
</event>
<event>
 7    1  0.7017065E-006  0.1623259E+03  0.7561462E-02  0.1186096E+00
          1   -1    0    0  501    0  0.00000000000E+00  0.00000000000E+00  0.16993079496E+03  0.16993079496E+03  0.00000000000E+00 0. -1.
         -1   -1    0    0    0  501 -0.00000000000E+00 -0.00000000000E+00 -0.17798717526E+03  0.17798717526E+03  0.00000000000E+00 0.  1.
         23    2    1    2    0    0 -0.12663990740E+03 -0.21787314509E+02 -0.48992178321E+02  0.18513210527E+03  0.12394075055E+03 0.  0.
          5    1    3    3  502    0 -0.99262077982E+02  0.34351777551E+02  0.83344479131E+00  0.10512455363E+03  0.41800000000E+01 0. -1.
         -5    1    3    3    0  502 -0.27377829413E+02 -0.56139092060E+02 -0.49825623113E+02  0.80007551639E+02  0.41800000000E+01 0.  1.
        -11    1    1    2    0    0  0.27188105890E+02 -0.33500673727E+02  0.48634695460E+01  0.43418217122E+02  0.00000000000E+00 0.  1.
         11    1    1    2    0    0  0.99451801506E+02  0.55287988236E+02  0.36072328472E+02  0.11936764783E+03  0.00000000000E+00 0. -1.
</event>
<event>
 7    1  0.7017065E-006  0.1368988E+03  0.7561462E-02  0.1217564E+00
         -1   -1    0    0    0  501 -0.00000000000E+00  0.00000000000E+00  0.11496932506E+03  0.11496932506E+03  0.00000000000E+00 0.  1.
          1   -1    0    0  501    0  0.00000000000E+00 -0.00000000000E+00 -0.21785429177E+03  0.21785429177E+03  0.00000000000E+00 0. -1.
         23    2    1    2    0    0  0.10273892310E+03 -0.52222383251E+02 -0.51591310288E+02  0.17774061686E+03  0.12509036714E+03 0.  0.
          5    1    3    3  502    0  0.51528329704E+02 -0.57283365219E+02  0.28662455038E+02  0.82313798489E+02  0.41800000000E+01 0.  1.
         -5    1    3    3    0  502  0.51210593400E+02  0.50609819679E+01 -0.80253765325E+02  0.95426818368E+02  0.41800000000E+01 0.  1.
        -11    1    1    2    0    0 -0.10878177192E+03  0.18008608344E+02 -0.29761007266E+02  0.11420814958E+03  0.00000000000E+00 0. -1.
         11    1    1    2    0    0  0.60428488134E+01  0.34213774907E+02 -0.21532649157E+02  0.40874850396E+02  0.00000000000E+00 0.  1.
</event>
<event>
 7    1  0.7017065E-006  0.1304319E+03  0.7561462E-02  0.1226816E+00
         -4   -1    0    0    0  501 -0.00000000000E+00  0.00000000000E+00  0.18149741664E+03  0.18149741664E+03  0.00000000000E+00 0.  1.
          4   -1    0    0  501    0  0.00000000000E+00 -0.00000000000E+00 -0.10171084857E+03  0.10171084857E+03  0.00000000000E+00 0. -1.
         23    2    1    2    0    0  0.91699633781E+02  0.52777385287E+01  0.39333758693E+02  0.16010120272E+03  0.12509425718E+03 0.  0.
          5    1    3    3  502    0  0.95146139001E+02 -0.42764605823E+02  0.39866140289E+02  0.11175142424E+03  0.41800000000E+01 0. -1.
         -5    1    3    3    0  502 -0.34465052197E+01  0.48042344352E+02 -0.53238159531E+00  0.48349778482E+02  0.41800000000E+01 0. -1.
        -11    1    1    2    0    0 -0.27831623473E+02 -0.28805597730E+02  0.37671576948E+02  0.54986447744E+02  0.00000000000E+00 0.  1.
         11    1    1    2    0    0 -0.63868010308E+02  0.23527859201E+02  0.27812324317E+01  0.68120614744E+02  0.00000000000E+00 0. -1.
</event>
<event>
 7    1  0.7017065E-006  0.1813367E+03  0.7561462E-02  0.1166516E+00
          1   -1    0    0  501    0  0.00000000000E+00  0.00000000000E+00  0.86586941768E+03  0.86586941768E+03  0.00000000000E+00 0. -1.
         -1   -1    0    0    0  501 -0.00000000000E+00 -0.00000000000E+00 -0.46342080671E+02  0.46342080671E+02  0.00000000000E+00 0.  1.
         23    2    1    2    0    0 -0.11634711048E+03  0.10941213925E+03  0.30594602513E+03  0.36709293355E+03  0.12508631114E+03 0.  0.
          5    1    3    3  502    0 -0.13514485432E+03  0.82622477662E+02  0.19455041929E+03  0.25091421544E+03  0.41800000000E+01 0. -1.
         -5    1    3    3    0  502  0.18797743835E+02  0.26789661586E+02  0.11139560584E+03  0.11617871811E+03  0.41800000000E+01 0. -1.
        -11    1    1    2    0    0  0.12226282502E+03 -0.92508780833E+02  0.49900752478E+03  0.52202929295E+03  0.00000000000E+00 0. -1.
         11    1    1    2    0    0 -0.59157145438E+01 -0.16903358415E+02  0.14573787105E+02  0.23089271857E+02  0.00000000000E+00 0.  1.
</event>
<event>
 7    1  0.7017065E-006  0.1125508E+03  0.7561462E-02  0.1255918E+00
         -4   -1    0    0    0  501 -0.00000000000E+00  0.00000000000E+00  0.10138459445E+03  0.10138459445E+03  0.00000000000E+00 0.  1.
          4   -1    0    0  501    0  0.00000000000E+00 -0.00000000000E+00 -0.13936469211E+03  0.13936469211E+03  0.00000000000E+00 0. -1.
         23    2    1    2    0    0 -0.49762183262E+00  0.63807360824E+02 -0.20337554350E+02  0.14190009742E+03  0.12510153719E+03 0.  0.
          5    1    3    3  502    0 -0.54539810649E+02  0.65768710652E+02 -0.57620317081E+01  0.85736734577E+02  0.41800000000E+01 0.  1.
         -5    1    3    3    0  502  0.54042188816E+02 -0.19613498285E+01 -0.14575522642E+02  0.56163362840E+02  0.41800000000E+01 0.  1.
        -11    1    1    2    0    0 -0.26586478077E+02 -0.18007843274E+02  0.16021009008E+02  0.35885874179E+02  0.00000000000E+00 0.  1.
         11    1    1    2    0    0  0.27084099910E+02 -0.45799517550E+02 -0.33663552322E+02  0.62963314959E+02  0.00000000000E+00 0. -1.
</event>
<event>
 7    1  0.7017065E-006  0.1363900E+03  0.7561462E-02  0.1218271E+00
          1   -1    0    0  501    0  0.00000000000E+00  0.00000000000E+00  0.16917668590E+03  0.16917668590E+03  0.00000000000E+00 0. -1.
         -1   -1    0    0    0  501 -0.00000000000E+00 -0.00000000000E+00 -0.17474246788E+03  0.17474246788E+03  0.00000000000E+00 0.  1.
         23    2    1    2    0    0 -0.94173241215E+02  0.61040395981E+02 -0.73894623700E+02  0.18358114201E+03  0.12508833274E+03 0.  0.
          5    1    3    3  502    0 -0.39434655884E+02  0.88158940065E+02 -0.13550376053E+02  0.97612375697E+02  0.41800000000E+01 0.  1.
         -5    1    3    3    0  502 -0.54738585331E+02 -0.27118544084E+02 -0.60344247647E+02  0.85968766313E+02  0.41800000000E+01 0.  1.
        -11    1    1    2    0    0  0.53705803862E+02 -0.48899680317E+02 -0.80249343982E+01  0.73074562438E+02  0.00000000000E+00 0.  1.
         11    1    1    2    0    0  0.40467437354E+02 -0.12140715664E+02  0.76353776120E+02  0.87263449340E+02  0.00000000000E+00 0. -1.
</event>
<event>
 7    1  0.7017065E-006  0.7893097E+02  0.7561462E-02  0.1332113E+00
          1   -1    0    0  501    0  0.00000000000E+00  0.00000000000E+00  0.98551430310E+02  0.98551430310E+02  0.00000000000E+00 0. -1.
         -1   -1    0    0    0  501 -0.00000000000E+00 -0.00000000000E+00 -0.13432940138E+03  0.13432940138E+03  0.00000000000E+00 0.  1.
         23    2    1    2    0    0  0.14967292201E+02  0.66613357741E+01 -0.56282367842E+02  0.13814389013E+03  0.12509051212E+03 0.  0.
          5    1    3    3  502    0  0.51874465598E+02 -0.37789994751E+02 -0.12468015617E+02  0.65513110884E+02  0.41800000000E+01 0.  1.
         -5    1    3    3    0  502 -0.36907173397E+02  0.44451330525E+02 -0.43814352224E+02  0.72630779250E+02  0.41800000000E+01 0.  1.
        -11    1    1    2    0    0 -0.61202082983E+00 -0.17575476072E+02 -0.33481374019E+02  0.37818967925E+02  0.00000000000E+00 0.  1.
         11    1    1    2    0    0 -0.14355271371E+02  0.10914140298E+02  0.53985770790E+02  0.56917973632E+02  0.00000000000E+00 0. -1.
</event>
<event>
 7    1  0.7017065E-006  0.1039312E+03  0.7561462E-02  0.1272240E+00
          1   -1    0    0  501    0  0.00000000000E+00  0.00000000000E+00  0.21246306798E+03  0.21246306798E+03  0.00000000000E+00 0. -1.
         -1   -1    0    0    0  501 -0.00000000000E+00 -0.00000000000E+00 -0.10007921874E+03  0.10007921874E+03  0.00000000000E+00 0.  1.
         23    2    1    2    0    0  0.87178097668E+01 -0.72749678197E+02 -0.88668829764E+01  0.14523453443E+03  0.12508370195E+03 0.  0.
          5    1    3    3  502    0  0.29058522872E+02 -0.64228085344E+02 -0.57891508774E+02  0.91315627833E+02  0.41800000000E+01 0. -1.
         -5    1    3    3    0  502 -0.20340713106E+02 -0.85215928534E+01  0.49024625798E+02  0.53918906601E+02  0.41800000000E+01 0. -1.
        -11    1    1    2    0    0  0.28895613737E+02 -0.41488729860E+01  0.24390248286E+02  0.38040161037E+02  0.00000000000E+00 0.  1.
         11    1    1    2    0    0 -0.37613423504E+02  0.76898551183E+02  0.96860483925E+02  0.12926759125E+03  0.00000000000E+00 0. -1.
</event>
<event>
 7    1  0.7017065E-006  0.1188476E+03  0.7561462E-02  0.1245010E+00
         -4   -1    0    0    0  501 -0.00000000000E+00  0.00000000000E+00  0.10665996426E+03  0.10665996426E+03  0.00000000000E+00 0.  1.
          4   -1    0    0  501    0  0.00000000000E+00 -0.00000000000E+00 -0.16217142970E+03  0.16217142970E+03  0.00000000000E+00 0. -1.
         23    2    1    2    0    0 -0.42176352552E+02  0.61786428788E+02 -0.19529203827E+02  0.14706086227E+03  0.12509636250E+03 0.  0.
          5    1    3    3  502    0 -0.58279336896E+02  0.91659904047E+02 -0.27127938411E+02  0.11203310476E+03  0.41800000000E+01 0.  1.
         -5    1    3    3    0  502  0.16102984344E+02 -0.29873475260E+02  0.75987345836E+01  0.35027757510E+02  0.41800000000E+01 0.  1.
        -11    1    1    2    0    0  0.58770202699E+01  0.11558358795E+02  0.19127642551E+02  0.23108477554E+02  0.00000000000E+00 0.  1.
         11    1    1    2    0    0  0.36299332282E+02 -0.73344787583E+02 -0.55109904168E+02  0.98662054140E+02  0.00000000000E+00 0. -1.
</event>
<event>
 7    1  0.7017065E-006  0.8266676E+02  0.7561462E-02  0.1321649E+00
         -1   -1    0    0    0  501 -0.00000000000E+00  0.00000000000E+00  0.20052303948E+03  0.20052303948E+03  0.00000000000E+00 0. -1.
          1   -1    0    0  501    0  0.00000000000E+00 -0.00000000000E+00 -0.16804778545E+03  0.16804778545E+03  0.00000000000E+00 0.  1.
         23    2    1    2    0    0  0.72416888073E+02 -0.31126983636E+02  0.10751355539E+03  0.18280664430E+03  0.12508401104E+03 0.  0.
          5    1    3    3  502    0  0.41198077279E+02 -0.72239685243E+01 -0.21963129470E+02  0.47426983341E+02  0.41800000000E+01 0.  1.
         -5    1    3    3    0  502  0.31218810794E+02 -0.23903015111E+02  0.12947668486E+03  0.13537966096E+03  0.41800000000E+01 0.  1.
        -11    1    1    2    0    0 -0.39094568910E+02  0.14261600059E+01  0.43854746351E+02  0.58767831576E+02  0.00000000000E+00 0. -1.
         11    1    1    2    0    0 -0.33322319163E+02  0.29700823630E+02 -0.11889304772E+03  0.12699634906E+03  0.00000000000E+00 0.  1.
</event>
<event>
 7    1  0.7017065E-006  0.2197432E+03  0.7561462E-02  0.1134075E+00
         -2   -1    0    0    0  501 -0.00000000000E+00  0.00000000000E+00  0.87408512647E+02  0.87408512647E+02  0.00000000000E+00 0.  1.
          2   -1    0    0  501    0  0.00000000000E+00 -0.00000000000E+00 -0.57274062584E+03  0.57274062584E+03  0.00000000000E+00 0. -1.
         23    2    1    2    0    0 -0.15907747539E+03 -0.10833207678E+03 -0.20933175106E+03  0.31066050760E+03  0.12509471190E+03 0.  0.
          5    1    3    3  502    0 -0.33088675993E+02 -0.93156268891E+02 -0.64787123007E+02  0.11827000727E+03  0.41800000000E+01 0.  1.
         -5    1    3    3    0  502 -0.12598879939E+03 -0.15175807890E+02 -0.14454462805E+03  0.19239050033E+03  0.41800000000E+01 0.  1.
        -11    1    1    2    0    0  0.11715772147E+03  0.24281727049E+02 -0.16970256504E+03  0.20764030088E+03  0.00000000000E+00 0.  1.
         11    1    1    2    0    0  0.41919753921E+02  0.84050349733E+02 -0.10629779709E+03  0.14184833001E+03  0.00000000000E+00 0. -1.
</event>
<event>
 7    1  0.7017065E-006  0.7726884E+02  0.7561462E-02  0.1336986E+00
          3   -1    0    0  501    0  0.00000000000E+00  0.00000000000E+00  0.13178208174E+03  0.13178208174E+03  0.00000000000E+00 0. -1.
         -3   -1    0    0    0  501 -0.00000000000E+00 -0.00000000000E+00 -0.94965515326E+02  0.94965515326E+02  0.00000000000E+00 0.  1.
         23    2    1    2    0    0  0.35687561219E+01 -0.85185484209E+01 -0.13033518762E+02  0.12610723850E+03  0.12509141179E+03 0.  0.
          5    1    3    3  502    0  0.47689241071E+02 -0.36461192582E+02 -0.34641320880E+02  0.69434687231E+02  0.41800000000E+01 0. -1.
         -5    1    3    3    0  502 -0.44120484949E+02  0.27942644161E+02  0.21607802119E+02  0.56672551269E+02  0.41800000000E+01 0. -1.
        -11    1    1    2    0    0 -0.22024182910E+02  0.10150394975E+01 -0.18913751240E+02  0.29048664755E+02  0.00000000000E+00 0.  1.
         11    1    1    2    0    0  0.18455426788E+02  0.75035089234E+01  0.68763836412E+02  0.71591693808E+02  0.00000000000E+00 0. -1.
</event>
<event>
 7    1  0.7017065E-006  0.1620261E+03  0.7561462E-02  0.1186428E+00
          2   -1    0    0  501    0  0.00000000000E+00  0.00000000000E+00  0.82038473092E+03  0.82038473092E+03  0.00000000000E+00 0. -1.
         -2   -1    0    0    0  501 -0.00000000000E+00 -0.00000000000E+00 -0.38019517742E+02  0.38019517742E+02  0.00000000000E+00 0.  1.
         23    2    1    2    0    0 -0.80849733971E+01  0.13791854791E+03  0.37213700229E+03  0.41620142782E+03  0.12510310706E+03 0.  0.
          5    1    3    3  502    0  0.41836345125E+02  0.82264929514E+02  0.29314713078E+03  0.30736055552E+03  0.41800000000E+01 0.  1.
         -5    1    3    3    0  502 -0.49921318522E+02  0.55653618396E+02  0.78989871502E+02  0.10884087230E+03  0.41800000000E+01 0.  1.
        -11    1    1    2    0    0 -0.33106126442E+02 -0.68142495916E+02  0.12967680643E+03  0.15018485104E+03  0.00000000000E+00 0.  1.
         11    1    1    2    0    0  0.41191099839E+02 -0.69776051994E+02  0.28055140447E+03  0.29201796980E+03  0.00000000000E+00 0. -1.
</event>
<event>
 7    1  0.7017065E-006  0.1184900E+03  0.7561462E-02  0.1245609E+00
         -2   -1    0    0    0  501 -0.00000000000E+00  0.00000000000E+00  0.12769688567E+02  0.12769688567E+02  0.00000000000E+00 0.  1.
          2   -1    0    0  501    0  0.00000000000E+00 -0.00000000000E+00 -0.13927992792E+04  0.13927992792E+04  0.00000000000E+00 0. -1.
         23    2    1    2    0    0  0.18389917244E+01 -0.62984972958E+02 -0.99551443883E+03  0.10053195050E+04  0.12509124877E+03 0.  0.
          5    1    3    3  502    0  0.56536938966E+02 -0.33827077979E+02 -0.71327989063E+03  0.71632839637E+03  0.41800000000E+01 0.  1.
         -5    1    3    3    0  502 -0.54697947241E+02 -0.29157894979E+02 -0.28223454820E+03  0.28899110864E+03  0.41800000000E+01 0.  1.
        -11    1    1    2    0    0  0.41366406719E+02  0.14351462943E+02 -0.19581819518E+03  0.20065370582E+03  0.00000000000E+00 0.  1.
         11    1    1    2    0    0 -0.43205398443E+02  0.48633510015E+02 -0.18869695658E+03  0.19959575690E+03  0.00000000000E+00 0. -1.
</event>
<event>
 7    1  0.7017065E-006  0.8769496E+02  0.7561462E-02  0.1308532E+00
         -3   -1    0    0    0  501 -0.00000000000E+00  0.00000000000E+00  0.33810000987E+03  0.33810000987E+03  0.00000000000E+00 0.  1.
          3   -1    0    0  501    0  0.00000000000E+00 -0.00000000000E+00 -0.44759241216E+02  0.44759241216E+02  0.00000000000E+00 0. -1.
         23    2    1    2    0    0  0.19381072943E+02  0.29204875620E+02  0.23523409268E+03  0.26872224471E+03  0.12509202890E+03 0.  0.
          5    1    3    3  502    0 -0.35465130084E+02  0.39979020531E+02  0.18777953951E+03  0.19528114449E+03  0.41800000000E+01 0. -1.
         -5    1    3    3    0  502  0.54846203027E+02 -0.10774144910E+02  0.47454553168E+02  0.73441100219E+02  0.41800000000E+01 0. -1.
        -11    1    1    2    0    0  0.15523778148E+02  0.55410483060E+01  0.62550920078E+02  0.64686231201E+02  0.00000000000E+00 0.  1.
         11    1    1    2    0    0 -0.34904851092E+02 -0.34745923926E+02 -0.44442441097E+01  0.49450775170E+02  0.00000000000E+00 0. -1.
</event>
<event>
 7    1  0.7017065E-006  0.1284096E+03  0.7561462E-02  0.1229835E+00
         -1   -1    0    0    0  501 -0.00000000000E+00  0.00000000000E+00  0.18237626224E+02  0.18237626224E+02  0.00000000000E+00 0.  1.
          1   -1    0    0  501    0  0.00000000000E+00 -0.00000000000E+00 -0.92147597170E+03  0.92147597170E+03  0.00000000000E+00 0. -1.
         23    2    1    2    0    0  0.43613619054E+02 -0.56159505921E+02 -0.46303996310E+03  0.48488092812E+03  0.12508984432E+03 0.  0.
          5    1    3    3  502    0  0.81293620568E+02 -0.68504714578E+01 -0.26297409686E+03  0.27536962382E+03  0.41800000000E+01 0. -1.
         -5    1    3    3    0  502 -0.37680001514E+02 -0.49309034463E+02 -0.20006586624E+03  0.20951130429E+03  0.41800000000E+01 0. -1.
        -11    1    1    2    0    0  0.72199191263E+01 -0.20058016006E+02 -0.57594083703E+02  0.61412781372E+02  0.00000000000E+00 0.  1.
         11    1    1    2    0    0 -0.50833538180E+02  0.76217521927E+02 -0.38260429868E+03  0.39341988844E+03  0.00000000000E+00 0. -1.
</event>
<event>
 7    1  0.7017065E-006  0.9065951E+02  0.7561462E-02  0.1301262E+00
          1   -1    0    0  501    0  0.00000000000E+00  0.00000000000E+00  0.61596433948E+03  0.61596433948E+03  0.00000000000E+00 0. -1.
         -1   -1    0    0    0  501 -0.00000000000E+00 -0.00000000000E+00 -0.21541639497E+02  0.21541639497E+02  0.00000000000E+00 0.  1.
         23    2    1    2    0    0 -0.33266980861E+02  0.17717159574E+02  0.29986549410E+03  0.32708867207E+03  0.12508834912E+03 0.  0.
          5    1    3    3  502    0  0.53221983036E+01 -0.28220511289E+02  0.24165336131E+03  0.24338969265E+03  0.41800000000E+01 0.  1.
         -5    1    3    3    0  502 -0.38589179164E+02  0.45937670863E+02  0.58212132787E+02  0.83698979423E+02  0.41800000000E+01 0.  1.
        -11    1    1    2    0    0  0.58843315737E+02  0.34705336616E+01  0.13293128429E+03  0.14541425911E+03  0.00000000000E+00 0.  1.
         11    1    1    2    0    0 -0.25576334876E+02 -0.21187693236E+02  0.16162592159E+03  0.16500304780E+03  0.00000000000E+00 0. -1.
</event>
<event>
 7    1  0.7017065E-006  0.2028413E+03  0.7561462E-02  0.1147364E+00
         -1   -1    0    0    0  501 -0.00000000000E+00  0.00000000000E+00  0.84026651442E+03  0.84026651442E+03  0.00000000000E+00 0.  1.
          1   -1    0    0  501    0  0.00000000000E+00 -0.00000000000E+00 -0.85455011754E+02  0.85455011754E+02  0.00000000000E+00 0. -1.
         23    2    1    2    0    0 -0.15913894332E+03  0.67155714067E+02  0.68044523424E+03  0.71308616992E+03  0.12510425937E+03 0.  0.
          5    1    3    3  502    0 -0.28405530824E+01  0.50146106132E+02  0.24443244440E+03  0.24957442373E+03  0.41800000000E+01 0.  1.
         -5    1    3    3    0  502 -0.15629839024E+03  0.17009607935E+02  0.43601278984E+03  0.46351174619E+03  0.41800000000E+01 0.  1.
        -11    1    1    2    0    0  0.90398323648E+01 -0.45455928916E+02  0.77478952278E+01  0.46989253274E+02  0.00000000000E+00 0. -1.
         11    1    1    2    0    0  0.15009911096E+03 -0.21699785150E+02  0.66618373194E+02  0.16564610298E+03  0.00000000000E+00 0.  1.
</event>
<event>
 6    1  0.7017065E-006  0.7390450E+02  0.7561462E-02  0.1347297E+00
          2   -1    0    0  501    0  0.00000000000E+00  0.00000000000E+00  0.12455480481E+03  0.12455480481E+03  0.00000000000E+00 0. -1.
         -2   -1    0    0    0  501 -0.00000000000E+00 -0.00000000000E+00 -0.16787820240E+03  0.16787820240E+03  0.00000000000E+00 0.  1.
          5    1    1    2  502    0  0.11665691005E+02 -0.11042406547E+02  0.42373021948E+02  0.45507894678E+02  0.41800000000E+01 0. -1.
         -5    1    1    2    0  502 -0.30607433356E+02 -0.34837892870E+02 -0.12674565404E+03  0.13502750451E+03  0.41800000000E+01 0.  1.
        -11    1    1    2    0    0  0.63749822582E+01 -0.18233459089E+02  0.42354232122E+02  0.46550836811E+02  0.00000000000E+00 0.  1.
         11    1    1    2    0    0  0.12566760093E+02  0.64113758506E+02 -0.13049976250E+01  0.65346771212E+02  0.00000000000E+00 0. -1.
</event>
<event>
 7    1  0.7017065E-006  0.2072264E+03  0.7561462E-02  0.1143781E+00
          1   -1    0    0  501    0  0.00000000000E+00  0.00000000000E+00  0.10984457683E+04  0.10984457683E+04  0.00000000000E+00 0. -1.
         -1   -1    0    0    0  501 -0.00000000000E+00 -0.00000000000E+00 -0.50886127541E+02  0.50886127541E+02  0.00000000000E+00 0.  1.
         23    2    1    2    0    0 -0.12825766569E+03 -0.12173985533E+03  0.26704320963E+03  0.34384735716E+03  0.12509319737E+03 0.  0.
          5    1    3    3  502    0  0.22220645989E+02 -0.35220328156E+02  0.66610054590E+02  0.78667657878E+02  0.41800000000E+01 0. -1.
         -5    1    3    3    0  502 -0.15047831168E+03 -0.86519527177E+02  0.20043315504E+03  0.26517969928E+03  0.41800000000E+01 0. -1.
        -11    1    1    2    0    0 -0.67738338785E+01  0.41181773059E+02  0.16898184622E+03  0.17405943700E+03  0.00000000000E+00 0. -1.
         11    1    1    2    0    0  0.13503149957E+03  0.80558082275E+02  0.61153458493E+03  0.63142510171E+03  0.00000000000E+00 0.  1.
</event>
<event>
 7    1  0.7017065E-006  0.1007500E+03  0.7561462E-02  0.1278727E+00
         -4   -1    0    0    0  501 -0.00000000000E+00  0.00000000000E+00  0.12829260463E+03  0.12829260463E+03  0.00000000000E+00 0.  1.
          4   -1    0    0  501    0  0.00000000000E+00 -0.00000000000E+00 -0.13561829431E+03  0.13561829431E+03  0.00000000000E+00 0. -1.
         23    2    1    2    0    0  0.50951118478E+02 -0.51352445080E+02  0.44913313631E+01  0.14662408989E+03  0.12745729320E+03 0.  0.
          5    1    3    3  502    0  0.58734598708E+02 -0.41671625443E+02 -0.51811825454E+02  0.88815624241E+02  0.41800000000E+01 0. -1.
         -5    1    3    3    0  502 -0.77834802302E+01 -0.96808196365E+01  0.56303156817E+02  0.57808465650E+02  0.41800000000E+01 0.  1.
        -11    1    1    2    0    0 -0.57626575765E+02 -0.65257358600E+01 -0.84644749772E+00  0.58001068407E+02  0.00000000000E+00 0. -1.
         11    1    1    2    0    0  0.66754572872E+01  0.57878180940E+02 -0.10970573542E+02  0.59285740636E+02  0.00000000000E+00 0.  1.
</event>
<event>
 7    1  0.7017065E-006  0.8667038E+02  0.7561462E-02  0.1311121E+00
          2   -1    0    0  501    0  0.00000000000E+00  0.00000000000E+00  0.48123768840E+03  0.48123768840E+03  0.00000000000E+00 0. -1.
         -2   -1    0    0    0  501 -0.00000000000E+00 -0.00000000000E+00 -0.34529899860E+02  0.34529899860E+02  0.00000000000E+00 0.  1.
         23    2    1    2    0    0  0.15207146135E+02  0.54705920993E+02  0.16663349847E+03  0.21595841565E+03  0.12508924571E+03 0.  0.
          5    1    3    3  502    0  0.53736359968E+02  0.16176881419E+02  0.14780834947E+03  0.15815836509E+03  0.41800000000E+01 0.  1.
         -5    1    3    3    0  502 -0.38529213833E+02  0.38529039575E+02  0.18825148993E+02  0.57800050551E+02  0.41800000000E+01 0.  1.
        -11    1    1    2    0    0 -0.16780676257E+01 -0.46633984771E+02  0.28019540889E+03  0.28405459266E+03  0.00000000000E+00 0. -1.
         11    1    1    2    0    0 -0.13529078510E+02 -0.80719362223E+01 -0.12111882184E+00  0.15754579952E+02  0.00000000000E+00 0.  1.
</event>
<event>
 7    1  0.7017065E-006  0.1214262E+03  0.7561462E-02  0.1240763E+00
         -1   -1    0    0    0  501 -0.00000000000E+00  0.00000000000E+00  0.42389038787E+02  0.42389038787E+02  0.00000000000E+00 0.  1.
          1   -1    0    0  501    0  0.00000000000E+00 -0.00000000000E+00 -0.51422819349E+03  0.51422819349E+03  0.00000000000E+00 0. -1.
         23    2    1    2    0    0 -0.66960006338E+02 -0.60948781557E+02 -0.16678704000E+03  0.22729772292E+03  0.12509173318E+03 0.  0.
          5    1    3    3  502    0 -0.83725375305E+02 -0.44388221451E+02 -0.17736041139E+03  0.20113289289E+03  0.41800000000E+01 0.  1.
         -5    1    3    3    0  502  0.16765368967E+02 -0.16560560105E+02  0.10573371394E+02  0.26164830025E+02  0.41800000000E+01 0.  1.
        -11    1    1    2    0    0  0.28869593817E+02 -0.19646046316E+02 -0.83821488369E+02  0.90804529047E+02  0.00000000000E+00 0. -1.
         11    1    1    2    0    0  0.38090412521E+02  0.80594827872E+02 -0.22123062634E+03  0.23851498032E+03  0.00000000000E+00 0.  1.
</event>
<event>
 7    1  0.7017065E-006  0.6759535E+02  0.7561462E-02  0.1368466E+00
          4   -1    0    0  501    0  0.00000000000E+00  0.00000000000E+00  0.18105968978E+03  0.18105968978E+03  0.00000000000E+00 0. -1.
         -4   -1    0    0    0  501 -0.00000000000E+00 -0.00000000000E+00 -0.72381664783E+02  0.72381664783E+02  0.00000000000E+00 0.  1.
         23    2    1    2    0    0  0.20571024665E+02 -0.73402756900E+01  0.27222364419E+02  0.12986633228E+03  0.12508861032E+03 0.  0.
          5    1    3    3  502    0  0.37110454687E+02 -0.25897845467E+01 -0.43251347262E+02  0.57201785558E+02  0.41800000000E+01 0. -1.
         -5    1    3    3    0  502 -0.16539430021E+02 -0.47504911433E+01  0.70473711681E+02  0.72664546718E+02  0.41800000000E+01 0. -1.
        -11    1    1    2    0    0  0.29549469317E+02  0.39502905692E+01  0.23999369748E+01  0.29908788508E+02  0.00000000000E+00 0.  1.
         11    1    1    2    0    0 -0.50120493982E+02  0.33899851208E+01  0.79055723602E+02  0.93666233779E+02  0.00000000000E+00 0. -1.
</event>
<event>
 7    1  0.7017065E-006  0.1423784E+03  0.7561462E-02  0.1210164E+00
          2   -1    0    0  501    0  0.00000000000E+00  0.00000000000E+00  0.73125880187E+02  0.73125880187E+02  0.00000000000E+00 0. -1.
         -2   -1    0    0    0  501 -0.00000000000E+00 -0.00000000000E+00 -0.34925508265E+03  0.34925508265E+03  0.00000000000E+00 0.  1.
         23    2    1    2    0    0  0.88368324103E+02 -0.50989803421E+02 -0.22380811345E+03  0.27594864723E+03  0.12509461821E+03 0.  0.
          5    1    3    3  502    0  0.32922480927E+01 -0.72760756176E+02 -0.11291533798E+03  0.13443330126E+03  0.41800000000E+01 0. -1.
         -5    1    3    3    0  502  0.85076076010E+02  0.21770952755E+02 -0.11089277547E+03  0.14151534596E+03  0.41800000000E+01 0. -1.
        -11    1    1    2    0    0 -0.54652658621E+02 -0.86905030135E+01 -0.54747013420E+02  0.77843904163E+02  0.00000000000E+00 0.  1.
         11    1    1    2    0    0 -0.33715665482E+02  0.59680306435E+02  0.24259244084E+01  0.68588411443E+02  0.00000000000E+00 0. -1.
</event>
<event>
 7    1  0.7017065E-006  0.1170856E+03  0.7561462E-02  0.1247984E+00
         -2   -1    0    0    0  501 -0.00000000000E+00  0.00000000000E+00  0.51055350202E+02  0.51055350202E+02  0.00000000000E+00 0.  1.
          2   -1    0    0  501    0  0.00000000000E+00 -0.00000000000E+00 -0.32360369911E+03  0.32360369911E+03  0.00000000000E+00 0. -1.
         23    2    1    2    0    0 -0.33866746764E+02  0.22331499055E+02 -0.16148784804E+03  0.20821740113E+03  0.12502203279E+03 0.  0.
          5    1    3    3  502    0  0.30436825859E+02 -0.19526016053E+02 -0.10962857631E+03  0.11551434030E+03  0.41800000000E+01 0.  1.
         -5    1    3    3    0  502 -0.64303572623E+02  0.41857515108E+02 -0.51859271728E+02  0.92703060830E+02  0.41800000000E+01 0.  1.
        -11    1    1    2    0    0 -0.28730251244E+01 -0.64748448069E+02 -0.77604915593E+02  0.10110953825E+03  0.00000000000E+00 0. -1.
         11    1    1    2    0    0  0.36739771888E+02  0.42416949014E+02 -0.33455585278E+02  0.65332109934E+02  0.00000000000E+00 0.  1.
</event>
<event>
 7    1  0.7017065E-006  0.1710333E+03  0.7561462E-02  0.1176775E+00
         -4   -1    0    0    0  501 -0.00000000000E+00  0.00000000000E+00  0.50945774264E+03  0.50945774264E+03  0.00000000000E+00 0.  1.
          4   -1    0    0  501    0  0.00000000000E+00 -0.00000000000E+00 -0.59476908801E+02  0.59476908801E+02  0.00000000000E+00 0. -1.
         23    2    1    2    0    0 -0.10573922384E+03 -0.84665757089E+02  0.26098333125E+03  0.31954288730E+03  0.12508510603E+03 0.  0.
          5    1    3    3  502    0 -0.12292878794E+03 -0.35228996451E+02  0.15282046843E+03  0.19930914948E+03  0.41800000000E+01 0.  1.
         -5    1    3    3    0  502  0.17189564099E+02 -0.49436760638E+02  0.10816286282E+03  0.12023373782E+03  0.41800000000E+01 0.  1.
        -11    1    1    2    0    0  0.84157304619E+02  0.10320150293E+03  0.16598477035E+03  0.21280024933E+03  0.00000000000E+00 0. -1.
         11    1    1    2    0    0  0.21581919221E+02 -0.18535745841E+02  0.23012732239E+02  0.36591514812E+02  0.00000000000E+00 0.  1.
</event>
<event>
 7    1  0.7017065E-006  0.1302035E+03  0.7561462E-02  0.1227154E+00
          2   -1    0    0  501    0  0.00000000000E+00  0.00000000000E+00  0.85757539300E+03  0.85757539300E+03  0.00000000000E+00 0. -1.
         -2   -1    0    0    0  501 -0.00000000000E+00 -0.00000000000E+00 -0.22656017901E+02  0.22656017901E+02  0.00000000000E+00 0.  1.
         23    2    1    2    0    0  0.80296845991E+02 -0.33093140158E+02  0.50325416726E+03  0.52578871099E+03  0.12508506041E+03 0.  0.
          5    1    3    3  502    0  0.10708158908E+03 -0.41569111310E+02  0.45923684886E+03  0.47340301381E+03  0.41800000000E+01 0. -1.
         -5    1    3    3    0  502 -0.26784743092E+02  0.84759711515E+01  0.44017318398E+02  0.52385697174E+02  0.41800000000E+01 0. -1.
        -11    1    1    2    0    0 -0.19232785215E+02 -0.25829674685E+02  0.15683496976E+03  0.16010708873E+03  0.00000000000E+00 0.  1.
         11    1    1    2    0    0 -0.61064060777E+02  0.58922814843E+02  0.17483023808E+03  0.19433561118E+03  0.00000000000E+00 0. -1.
</event>
<event>
 7    1  0.7017065E-006  0.2091431E+03  0.7561462E-02  0.1142246E+00
          1   -1    0    0  501    0  0.00000000000E+00  0.00000000000E+00  0.47961370601E+03  0.47961370601E+03  0.00000000000E+00 0. -1.
         -1   -1    0    0    0  501 -0.00000000000E+00 -0.00000000000E+00 -0.12428291840E+03  0.12428291840E+03  0.00000000000E+00 0.  1.
         23    2    1    2    0    0 -0.12811808757E+03 -0.14220227067E+03  0.51174246797E+02  0.23431844872E+03  0.12510236500E+03 0.  0.
          5    1    3    3  502    0 -0.39597100821E+02 -0.10546971445E+03  0.75086877625E+02  0.13545221538E+03  0.41800000000E+01 0.  1.
         -5    1    3    3    0  502 -0.88520986749E+02 -0.36732556220E+02 -0.23912630827E+02  0.98866233338E+02  0.41800000000E+01 0.  1.
        -11    1    1    2    0    0  0.13343083063E+02 -0.11622113665E+02  0.20333524324E+02  0.26954843778E+02  0.00000000000E+00 0.  1.
         11    1    1    2    0    0  0.11477500451E+03  0.15382438434E+03  0.28382301649E+03  0.34262333191E+03  0.00000000000E+00 0. -1.
</event>
<event>
 7    1  0.7017065E-006  0.1102372E+03  0.7561462E-02  0.1260131E+00
          2   -1    0    0  501    0  0.00000000000E+00  0.00000000000E+00  0.15605159464E+02  0.15605159464E+02  0.00000000000E+00 0.  1.
         -2   -1    0    0    0  501 -0.00000000000E+00 -0.00000000000E+00 -0.96617958417E+03  0.96617958417E+03  0.00000000000E+00 0. -1.
         23    2    1    2    0    0 -0.36250329770E+02 -0.34251717876E+02 -0.63411948356E+03  0.64826348569E+03  0.12510300099E+03 0.  0.
          5    1    3    3  502    0 -0.10258137846E+02  0.41018781914E+02 -0.36825376206E+03  0.37069674335E+03  0.41800000000E+01 0.  1.
         -5    1    3    3    0  502 -0.25992191924E+02 -0.75270499790E+02 -0.26586572150E+03  0.27756674233E+03  0.41800000000E+01 0.  1.
        -11    1    1    2    0    0 -0.27166622529E+02  0.18602769904E+02 -0.17001634765E+03  0.17317519134E+03  0.00000000000E+00 0.  1.
         11    1    1    2    0    0  0.63416952299E+02  0.15648947972E+02 -0.14643859350E+03  0.16034606661E+03  0.00000000000E+00 0. -1.
</event>
<event>
 7    1  0.7017065E-006  0.1423973E+03  0.7561462E-02  0.1210139E+00
         -3   -1    0    0    0  501 -0.00000000000E+00  0.00000000000E+00  0.12983944914E+03  0.12983944914E+03  0.00000000000E+00 0.  1.
          3   -1    0    0  501    0  0.00000000000E+00 -0.00000000000E+00 -0.19480743153E+03  0.19480743153E+03  0.00000000000E+00 0. -1.
         23    2    1    2    0    0  0.87779471294E+02 -0.73417962495E+02 -0.11450555963E+02  0.16992379593E+03  0.12509016106E+03 0.  0.
          5    1    3    3  502    0  0.11132378124E+03 -0.85923412282E+02 -0.18842030840E+02  0.14194474831E+03  0.41800000000E+01 0.  1.
         -5    1    3    3    0  502 -0.23544309941E+02  0.12505449787E+02  0.73914748769E+01  0.27979047622E+02  0.41800000000E+01 0.  1.
        -11    1    1    2    0    0 -0.26832604530E+02  0.38351195417E+02  0.21844156255E+02  0.51652396056E+02  0.00000000000E+00 0.  1.
         11    1    1    2    0    0 -0.60946866764E+02  0.35066767079E+02 -0.75361582678E+02  0.10307068868E+03  0.00000000000E+00 0. -1.
</event>
<event>
 7    1  0.7017065E-006  0.2087671E+03  0.7561462E-02  0.1142546E+00
         -2   -1    0    0    0  501 -0.00000000000E+00  0.00000000000E+00  0.77833255102E+02  0.77833255102E+02  0.00000000000E+00 0.  1.
          2   -1    0    0  501    0  0.00000000000E+00 -0.00000000000E+00 -0.93713281057E+03  0.93713281057E+03  0.00000000000E+00 0. -1.
         23    2    1    2    0    0 -0.17850785505E+03  0.44674832590E+02 -0.12772572998E+03  0.25655731722E+03  0.12508756908E+03 0.  0.
          5    1    3    3  502    0 -0.12036725757E+03 -0.32057140557E+02 -0.57130774707E+02  0.13710337259E+03  0.41800000000E+01 0. -1.
         -5    1    3    3    0  502 -0.58140597479E+02  0.76731973148E+02 -0.70594955274E+02  0.11945394463E+03  0.41800000000E+01 0. -1.
        -11    1    1    2    0    0  0.77025626173E+02  0.15482943197E+02 -0.22647157595E+03  0.23971241798E+03  0.00000000000E+00 0.  1.
         11    1    1    2    0    0  0.10148222888E+03 -0.60157775787E+02 -0.50510224953E+03  0.51869633047E+03  0.00000000000E+00 0. -1.
</event>
<event>
 7    1  0.7017065E-006  0.2125510E+03  0.7561462E-02  0.1139562E+00
         -1   -1    0    0    0  501 -0.00000000000E+00  0.00000000000E+00  0.12236813632E+03  0.12236813632E+03  0.00000000000E+00 0.  1.
          1   -1    0    0  501    0  0.00000000000E+00 -0.00000000000E+00 -0.42972632800E+03  0.42972632800E+03  0.00000000000E+00 0. -1.
         23    2    1    2    0    0 -0.31202007792E+02 -0.18782456976E+03 -0.79659097753E+02  0.24133886260E+03  0.12508893015E+03 0.  0.
          5    1    3    3  502    0  0.28730978662E+02 -0.30985246193E+01  0.46774196217E+01  0.29570604391E+02  0.41800000000E+01 0. -1.
         -5    1    3    3    0  502 -0.59932986455E+02 -0.18472604514E+03 -0.84336517374E+02  0.21176825820E+03  0.41800000000E+01 0. -1.
        -11    1    1    2    0    0 -0.31445503003E+01  0.15196905948E+03 -0.12543320378E+03  0.19707351889E+03  0.00000000000E+00 0.  1.
         11    1    1    2    0    0  0.34346558093E+02  0.35855510281E+02 -0.10226589015E+03  0.11368208284E+03  0.00000000000E+00 0. -1.
</event>
<event>
 7    1  0.7017065E-006  0.1593427E+03  0.7561462E-02  0.1189441E+00
          2   -1    0    0  501    0  0.00000000000E+00  0.00000000000E+00  0.10098910104E+04  0.10098910104E+04  0.00000000000E+00 0. -1.
         -2   -1    0    0    0  501 -0.00000000000E+00 -0.00000000000E+00 -0.27500762381E+02  0.27500762381E+02  0.00000000000E+00 0.  1.
         23    2    1    2    0    0 -0.51319176095E+02 -0.10752680994E+03  0.39433493163E+03  0.43051465327E+03  0.12508859135E+03 0.  0.
          5    1    3    3  502    0 -0.36567116430E+02 -0.13361035515E+03  0.28255242442E+03  0.31470974874E+03  0.41800000000E+01 0.  1.
         -5    1    3    3    0  502 -0.14752059665E+02  0.26083545209E+02  0.11178250721E+03  0.11580490453E+03  0.41800000000E+01 0.  1.
        -11    1    1    2    0    0  0.18352451094E+02  0.11465414589E+03  0.46585542245E+03  0.48010796729E+03  0.00000000000E+00 0. -1.
         11    1    1    2    0    0  0.32966725001E+02 -0.71273359524E+01  0.12219989393E+03  0.12676915220E+03  0.00000000000E+00 0.  1.
</event>
<event>
 7    1  0.7017065E-006  0.1279460E+03  0.7561462E-02  0.1230536E+00
          1   -1    0    0  501    0  0.00000000000E+00  0.00000000000E+00  0.69056305971E+02  0.69056305971E+02  0.00000000000E+00 0. -1.
         -1   -1    0    0    0  501 -0.00000000000E+00 -0.00000000000E+00 -0.32145995865E+03  0.32145995865E+03  0.00000000000E+00 0.  1.
         23    2    1    2    0    0  0.53629840867E+02 -0.83769827633E+02 -0.10822739324E+03  0.19302021748E+03  0.12510032717E+03 0.  0.
          5    1    3    3  502    0  0.22748656893E+02  0.20228461761E+02 -0.72472208801E+02  0.78717123322E+02  0.41800000000E+01 0.  1.
         -5    1    3    3    0  502  0.30881183974E+02 -0.10399828939E+03 -0.35755184435E+02  0.11430309416E+03  0.41800000000E+01 0.  1.
        -11    1    1    2    0    0 -0.66019484779E+02  0.57484258066E+02 -0.14390113223E+03  0.16843559052E+03  0.00000000000E+00 0.  1.
         11    1    1    2    0    0  0.12389643911E+02  0.26285569567E+02 -0.27512720795E+00  0.29060456616E+02  0.00000000000E+00 0. -1.
</event>
<event>
 7    1  0.7017065E-006  0.7623507E+02  0.7561462E-02  0.1340089E+00
          1   -1    0    0  501    0  0.00000000000E+00  0.00000000000E+00  0.55137466825E+03  0.55137466825E+03  0.00000000000E+00 0. -1.
         -1   -1    0    0    0  501 -0.00000000000E+00 -0.00000000000E+00 -0.23620610707E+02  0.23620610707E+02  0.00000000000E+00 0.  1.
         23    2    1    2    0    0 -0.94584651978E+01  0.23040894286E+02  0.23314054584E+03  0.26574842869E+03  0.12508943945E+03 0.  0.
          5    1    3    3  502    0  0.28889305991E+01 -0.17112255791E+02 -0.89750049456E+01  0.19979948249E+02  0.41800000000E+01 0. -1.
         -5    1    3    3    0  502 -0.12347395797E+02  0.40153150077E+02  0.24211555079E+03  0.24576848044E+03  0.41800000000E+01 0. -1.
        -11    1    1    2    0    0  0.40629303099E+02 -0.39917105134E+02  0.15279435313E+03  0.16306510939E+03  0.00000000000E+00 0.  1.
         11    1    1    2    0    0 -0.31170837901E+02  0.16876210848E+02  0.14181915857E+03  0.14618174088E+03  0.00000000000E+00 0. -1.
</event>
<event>
 7    1  0.7017065E-006  0.1127312E+03  0.7561462E-02  0.1255594E+00
          1   -1    0    0  501    0  0.00000000000E+00  0.00000000000E+00  0.19874247200E+02  0.19874247200E+02  0.00000000000E+00 0. -1.
         -1   -1    0    0    0  501 -0.00000000000E+00 -0.00000000000E+00 -0.16885416348E+04  0.16885416348E+04  0.00000000000E+00 0.  1.
         23    2    1    2    0    0 -0.66349852493E+02  0.41065715021E+02 -0.14628691632E+04  0.14702792000E+04  0.12508413722E+03 0.  0.
          5    1    3    3  502    0 -0.16499340884E+02 -0.24258037680E+02 -0.98017073055E+03  0.98061858746E+03  0.41800000000E+01 0.  1.
         -5    1    3    3    0  502 -0.49850511609E+02  0.65323752701E+02 -0.48269843265E+03  0.48966061252E+03  0.41800000000E+01 0.  1.
        -11    1    1    2    0    0 -0.24422159943E+01 -0.44600633780E+02 -0.12041010093E+03  0.12842808633E+03  0.00000000000E+00 0.  1.
         11    1    1    2    0    0  0.68792068488E+02  0.35349187589E+01 -0.85388123455E+02  0.10970859567E+03  0.00000000000E+00 0. -1.
</event>
<event>
 6    1  0.7017065E-006  0.1164497E+03  0.7561462E-02  0.1249072E+00
          2   -1    0    0  501    0  0.00000000000E+00  0.00000000000E+00  0.21599721189E+03  0.21599721189E+03  0.00000000000E+00 0. -1.
         -2   -1    0    0    0  501 -0.00000000000E+00 -0.00000000000E+00 -0.90238238463E+02  0.90238238463E+02  0.00000000000E+00 0.  1.
          5    1    1    2  502    0  0.61401454445E+02  0.37558419395E+02 -0.10959489744E+02  0.72927061444E+02  0.41800000000E+01 0. -1.
         -5    1    1    2    0  502 -0.40553174411E+02 -0.54711563537E+02  0.19710073657E+01  0.68258863231E+02  0.41800000000E+01 0.  1.
        -11    1    1    2    0    0  0.34293067425E+02 -0.15909895128E+01  0.69983843585E+02  0.77950523308E+02  0.00000000000E+00 0.  1.
         11    1    1    2    0    0 -0.55141347459E+02  0.18744133655E+02  0.64763612221E+02  0.87099002371E+02  0.00000000000E+00 0. -1.
</event>
<event>
 7    1  0.7017065E-006  0.2416073E+03  0.7561462E-02  0.1118727E+00
         -2   -1    0    0    0  501 -0.00000000000E+00  0.00000000000E+00  0.27994584102E+02  0.27994584102E+02  0.00000000000E+00 0.  1.
          2   -1    0    0  501    0  0.00000000000E+00 -0.00000000000E+00 -0.24657765196E+04  0.24657765196E+04  0.00000000000E+00 0. -1.
         23    2    1    2    0    0  0.10758389908E+03 -0.20437169418E+03 -0.96150674168E+03  0.99673438166E+03  0.12506849553E+03 0.  0.
          5    1    3    3  502    0  0.16661153168E+02 -0.93781401020E+01 -0.30983324896E+03  0.31045073376E+03  0.41800000000E+01 0.  1.
         -5    1    3    3    0  502  0.90922745910E+02 -0.19499355408E+03 -0.65167349272E+03  0.68628364790E+03  0.41800000000E+01 0.  1.
        -11    1    1    2    0    0 -0.12395476867E+02  0.12183749482E+03 -0.73122779778E+03  0.74141224378E+03  0.00000000000E+00 0. -1.
         11    1    1    2    0    0 -0.95188422211E+02  0.82534199362E+02 -0.74504739606E+03  0.75562447827E+03  0.00000000000E+00 0.  1.
</event>
<event>
 7    1  0.7017065E-006  0.2285617E+03  0.7561462E-02  0.1127656E+00
         -2   -1    0    0    0  501 -0.00000000000E+00  0.00000000000E+00  0.85824778914E+02  0.85824778914E+02  0.00000000000E+00 0.  1.
          2   -1    0    0  501    0  0.00000000000E+00 -0.00000000000E+00 -0.70860120206E+03  0.70860120206E+03  0.00000000000E+00 0. -1.
         23    2    1    2    0    0 -0.13049574284E+03  0.17196346291E+03 -0.24549182972E+03  0.35001907652E+03  0.12508614628E+03 0.  0.
          5    1    3    3  502    0 -0.13802891640E+03  0.15554934456E+03 -0.15967666167E+03  0.26222450121E+03  0.41800000000E+01 0.  1.
         -5    1    3    3    0  502  0.75331735558E+01  0.16414118349E+02 -0.85815168053E+02  0.87794575305E+02  0.41800000000E+01 0.  1.
        -11    1    1    2    0    0 -0.42779376843E+01 -0.45713258912E+02 -0.45197819058E+02  0.64427056729E+02  0.00000000000E+00 0.  1.
         11    1    1    2    0    0  0.13477368052E+03 -0.12625020400E+03 -0.33208677436E+03  0.37997984773E+03  0.00000000000E+00 0. -1.
</event>
<event>
 7    1  0.7017065E-006  0.2982343E+03  0.7561462E-02  0.1086127E+00
          1   -1    0    0  501    0  0.00000000000E+00  0.00000000000E+00  0.14360242293E+03  0.14360242293E+03  0.00000000000E+00 0. -1.
         -1   -1    0    0    0  501 -0.00000000000E+00 -0.00000000000E+00 -0.74101425314E+03  0.74101425314E+03  0.00000000000E+00 0.  1.
         23    2    1    2    0    0 -0.15183667502E+03  0.23538057819E+03 -0.47481124400E+03  0.56529357914E+03  0.12511083373E+03 0.  0.
          5    1    3    3  502    0 -0.12065471743E+03  0.24175760151E+03 -0.38877226388E+03  0.47346134403E+03  0.41800000000E+01 0. -1.
         -5    1    3    3    0  502 -0.31181957587E+02 -0.63770233216E+01 -0.86038980119E+02  0.91832235110E+02  0.41800000000E+01 0. -1.
        -11    1    1    2    0    0  0.14990922899E+03 -0.16193267938E+03 -0.10140496947E+03  0.24285373668E+03  0.00000000000E+00 0. -1.
         11    1    1    2    0    0  0.19274460264E+01 -0.73447898809E+02 -0.21195616751E+02  0.76469360251E+02  0.00000000000E+00 0.  1.
</event>
<event>
 7    1  0.7017065E-006  0.1158907E+03  0.7561462E-02  0.1250034E+00
         -4   -1    0    0    0  501 -0.00000000000E+00  0.00000000000E+00  0.30776472892E+03  0.30776472892E+03  0.00000000000E+00 0.  1.
          4   -1    0    0  501    0  0.00000000000E+00 -0.00000000000E+00 -0.99705134350E+02  0.99705134350E+02  0.00000000000E+00 0. -1.
         23    2    1    2    0    0  0.64758860198E+02  0.73348652718E+02  0.22245633438E+03  0.27332138261E+03  0.12507606747E+03 0.  0.
          5    1    3    3  502    0  0.62151590278E-01  0.65599907059E+02  0.18869448003E+03  0.19981599251E+03  0.41800000000E+01 0.  1.
         -5    1    3    3    0  502  0.64696708607E+02  0.77487456587E+01  0.33761854346E+02  0.73505390093E+02  0.41800000000E+01 0.  1.
        -11    1    1    2    0    0 -0.19809810811E+02 -0.40491966587E+02 -0.50575657220E+02  0.67748985717E+02  0.00000000000E+00 0. -1.
         11    1    1    2    0    0 -0.44949049386E+02 -0.32856686131E+02  0.36178917416E+02  0.66399494950E+02  0.00000000000E+00 0.  1.
</event>
<event>
 7    1  0.7017065E-006  0.1166233E+03  0.7561462E-02  0.1248774E+00
          2   -1    0    0  501    0  0.00000000000E+00  0.00000000000E+00  0.45476192526E+03  0.45476192526E+03  0.00000000000E+00 0. -1.
         -2   -1    0    0    0  501 -0.00000000000E+00 -0.00000000000E+00 -0.32495274167E+02  0.32495274167E+02  0.00000000000E+00 0.  1.
         23    2    1    2    0    0  0.27935625863E+01 -0.47189839413E+02  0.18547851869E+03  0.22865958416E+03  0.12509292385E+03 0.  0.
          5    1    3    3  502    0  0.41002801736E+01 -0.88075550963E+02  0.97349739562E+02  0.13140988992E+03  0.41800000000E+01 0.  1.
         -5    1    3    3    0  502 -0.13067175873E+01  0.40885711550E+02  0.88128779131E+02  0.97249694246E+02  0.41800000000E+01 0.  1.
        -11    1    1    2    0    0  0.29257523210E+02 -0.15749164782E+02  0.70926322409E+02  0.78323572864E+02  0.00000000000E+00 0. -1.
         11    1    1    2    0    0 -0.32051085796E+02  0.62939004195E+02  0.16586180999E+03  0.18027404240E+03  0.00000000000E+00 0.  1.
</event>
<event>
 7    1  0.7017065E-006  0.9930829E+02  0.7561462E-02  0.1281757E+00
         -1   -1    0    0    0  501 -0.00000000000E+00  0.00000000000E+00  0.65361002681E+03  0.65361002681E+03  0.00000000000E+00 0.  1.
          1   -1    0    0  501    0  0.00000000000E+00 -0.00000000000E+00 -0.29922127118E+02  0.29922127118E+02  0.00000000000E+00 0. -1.
         23    2    1    2    0    0  0.59164133638E+02 -0.25460471059E+02  0.48532239729E+03  0.50530542170E+03  0.12508840712E+03 0.  0.
          5    1    3    3  502    0  0.65929546754E+02 -0.72905247384E+01  0.10371747006E+03  0.12318540044E+03  0.41800000000E+01 0. -1.
         -5    1    3    3    0  502 -0.67654131157E+01 -0.18169946321E+02  0.38160492722E+03  0.38212002126E+03  0.41800000000E+01 0. -1.
        -11    1    1    2    0    0 -0.74030789589E+02 -0.92047999211E+01  0.90379136651E+02  0.11719076111E+03  0.00000000000E+00 0.  1.
         11    1    1    2    0    0  0.14866655950E+02  0.34665270980E+02  0.47986365751E+02  0.61035971110E+02  0.00000000000E+00 0. -1.
</event>
<event>
 7    1  0.7017065E-006  0.1143796E+03  0.7561462E-02  0.1252668E+00
          2   -1    0    0  501    0  0.00000000000E+00  0.00000000000E+00  0.25634233351E+03  0.25634233351E+03  0.00000000000E+00 0. -1.
         -2   -1    0    0    0  501 -0.00000000000E+00 -0.00000000000E+00 -0.10280833407E+03  0.10280833407E+03  0.00000000000E+00 0.  1.
         23    2    1    2    0    0 -0.10403910480E+03  0.80593687082E+01  0.15450516825E+02  0.16363325329E+03  0.12509210352E+03 0.  0.
          5    1    3    3  502    0 -0.10866816511E+03  0.18200997970E+01  0.55861542359E+02  0.12227046735E+03  0.41800000000E+01 0.  1.
         -5    1    3    3    0  502  0.46290603155E+01  0.62392689112E+01 -0.40411025535E+02  0.41362785940E+02  0.41800000000E+01 0.  1.
        -11    1    1    2    0    0  0.74544489091E+02 -0.23131279570E+02  0.31952651760E+02  0.84338063191E+02  0.00000000000E+00 0.  1.
         11    1    1    2    0    0  0.29494615706E+02  0.15071910862E+02  0.10613083085E+03  0.11117935110E+03  0.00000000000E+00 0. -1.
</event>
<event>
 6    1  0.7017065E-006  0.2583152E+03  0.7561462E-02  0.1108160E+00
          1   -1    0    0  501    0  0.00000000000E+00  0.00000000000E+00  0.51036374468E+03  0.51036374468E+03  0.00000000000E+00 0. -1.
         -1   -1    0    0    0  501 -0.00000000000E+00 -0.00000000000E+00 -0.13177310646E+04  0.13177310646E+04  0.00000000000E+00 0.  1.
          5    1    1    2  502    0  0.10547058697E+02 -0.22625489617E+02 -0.73613899523E+02  0.77843637059E+02  0.41800000000E+01 0. -1.
         -5    1    1    2    0  502 -0.13874792092E+03  0.21682492939E+03 -0.11967341985E+04  0.12241136589E+04  0.41800000000E+01 0.  1.
        -11    1    1    2    0    0  0.96283097847E+02 -0.16250478179E+03  0.43208677371E+03  0.47156889110E+03  0.00000000000E+00 0. -1.
         11    1    1    2    0    0  0.31917764379E+02 -0.31694657992E+02  0.30894004390E+02  0.54568622260E+02  0.00000000000E+00 0.  1.
</event>
<event>
 7    1  0.7017065E-006  0.7970200E+02  0.7561462E-02  0.1329899E+00
          1   -1    0    0  501    0  0.00000000000E+00  0.00000000000E+00  0.53288997433E+03  0.53288997433E+03  0.00000000000E+00 0. -1.
         -1   -1    0    0    0  501 -0.00000000000E+00 -0.00000000000E+00 -0.21732452885E+02  0.21732452885E+02  0.00000000000E+00 0.  1.
         23    2    1    2    0    0  0.27063899576E+01  0.25465942724E+02  0.32835649014E+03  0.35230849181E+03  0.12508976776E+03 0.  0.
          5    1    3    3  502    0 -0.32508015110E+02  0.12087079178E+02  0.30664591796E+03  0.30862932448E+03  0.41800000000E+01 0. -1.
         -5    1    3    3    0  502  0.35214405067E+02  0.13378863546E+02  0.21710572180E+02  0.43679167327E+02  0.41800000000E+01 0. -1.
        -11    1    1    2    0    0  0.19678636552E+02 -0.49774771944E+02  0.11809533530E+03  0.12965833903E+03  0.00000000000E+00 0.  1.
         11    1    1    2    0    0 -0.22385026510E+02  0.24308829221E+02  0.64705696005E+02  0.72655596380E+02  0.00000000000E+00 0. -1.
</event>
<event>
 7    1  0.7017065E-006  0.1029370E+03  0.7561462E-02  0.1274238E+00
          1   -1    0    0  501    0  0.00000000000E+00  0.00000000000E+00  0.61913222885E+03  0.61913222885E+03  0.00000000000E+00 0. -1.
         -1   -1    0    0    0  501 -0.00000000000E+00 -0.00000000000E+00 -0.24424969888E+02  0.24424969888E+02  0.00000000000E+00 0.  1.
         23    2    1    2    0    0  0.15504864960E+01 -0.42855384235E+02  0.23361801910E+03  0.26844712961E+03  0.12508994597E+03 0.  0.
          5    1    3    3  502    0  0.47761675363E+02 -0.28298825356E+02  0.20410700336E+03  0.21156356579E+03  0.41800000000E+01 0. -1.
         -5    1    3    3    0  502 -0.46211188866E+02 -0.14556558879E+02  0.29511015735E+02  0.56883563817E+02  0.41800000000E+01 0. -1.
        -11    1    1    2    0    0 -0.33398369675E+02 -0.14150586313E+02  0.12488320838E+03  0.13004424603E+03  0.00000000000E+00 0. -1.
         11    1    1    2    0    0  0.31847883179E+02  0.57005970547E+02  0.23620603149E+03  0.24506582310E+03  0.00000000000E+00 0.  1.
</event>
<event>
 7    1  0.7017065E-006  0.7025005E+02  0.7561462E-02  0.1359245E+00
          3   -1    0    0  501    0  0.00000000000E+00  0.00000000000E+00  0.13424543775E+02  0.13424543775E+02  0.00000000000E+00 0. -1.
         -3   -1    0    0    0  501 -0.00000000000E+00 -0.00000000000E+00 -0.13250459066E+04  0.13250459066E+04  0.00000000000E+00 0.  1.
         23    2    1    2    0    0  0.26097915761E+02 -0.29840307323E+02 -0.10635663340E+04  0.10716309582E+04  0.12509204016E+03 0.  0.
          5    1    3    3  502    0  0.14897555736E+02 -0.25878592476E+02 -0.10569958107E+04  0.10574257681E+04  0.41800000000E+01 0.  1.
         -5    1    3    3    0  502  0.11200360025E+02 -0.39617148476E+01 -0.65705232955E+01  0.14205190094E+02  0.41800000000E+01 0.  1.
        -11    1    1    2    0    0 -0.15713491890E+02  0.61999687874E+02 -0.17575435001E+03  0.18703065704E+03  0.00000000000E+00 0.  1.
         11    1    1    2    0    0 -0.10384423870E+02 -0.32159380551E+02 -0.72300678836E+02  0.79808835204E+02  0.00000000000E+00 0. -1.
</event>
<event>
 7    1  0.7017065E-006  0.1321688E+03  0.7561462E-02  0.1224273E+00
         -2   -1    0    0    0  501 -0.00000000000E+00  0.00000000000E+00  0.11739006488E+03  0.11739006488E+03  0.00000000000E+00 0.  1.
          2   -1    0    0  501    0  0.00000000000E+00 -0.00000000000E+00 -0.16050215845E+03  0.16050215845E+03  0.00000000000E+00 0. -1.
         23    2    1    2    0    0 -0.81264764982E+02  0.25640839416E+02 -0.16932363017E+02  0.15230315658E+03  0.12509249344E+03 0.  0.
          5    1    3    3  502    0 -0.81868507654E+01 -0.47007631489E+02 -0.69206145510E+00  0.47902957035E+02  0.41800000000E+01 0.  1.
         -5    1    3    3    0  502 -0.73077914216E+02  0.72648470905E+02 -0.16240301562E+02  0.10440019955E+03  0.41800000000E+01 0.  1.
        -11    1    1    2    0    0  0.48758180129E+02 -0.52129315441E+02 -0.39516888657E+02  0.81586825818E+02  0.00000000000E+00 0. -1.
         11    1    1    2    0    0  0.32506584852E+02  0.26488476026E+02  0.13337158106E+02  0.44002240935E+02  0.00000000000E+00 0.  1.
</event>
<event>
 7    1  0.7017065E-006  0.1826326E+03  0.7561462E-02  0.1165279E+00
          2   -1    0    0  501    0  0.00000000000E+00  0.00000000000E+00  0.15962393909E+03  0.15962393909E+03  0.00000000000E+00 0. -1.
         -2   -1    0    0    0  501 -0.00000000000E+00 -0.00000000000E+00 -0.32714114274E+03  0.32714114274E+03  0.00000000000E+00 0.  1.
         23    2    1    2    0    0  0.25134314289E+02 -0.17804838392E+03 -0.18244252603E+03  0.28507659004E+03  0.12510166312E+03 0.  0.
          5    1    3    3  502    0  0.43192135082E+01 -0.25132514517E+02  0.18423653809E+02  0.31736450825E+02  0.41800000000E+01 0. -1.
         -5    1    3    3    0  502  0.20815100781E+02 -0.15291586940E+03 -0.20086617984E+03  0.25334013922E+03  0.41800000000E+01 0. -1.
        -11    1    1    2    0    0 -0.76582012610E+01  0.15902387376E+03  0.41601869431E+02  0.16455380887E+03  0.00000000000E+00 0. -1.
         11    1    1    2    0    0 -0.17476113028E+02  0.19024510155E+02 -0.26676547051E+02  0.37134682923E+02  0.00000000000E+00 0.  1.
</event>
<event>
 7    1  0.7017065E-006  0.1067961E+03  0.7561462E-02  0.1266621E+00
          1   -1    0    0  501    0  0.00000000000E+00  0.00000000000E+00  0.48667938339E+03  0.48667938339E+03  0.00000000000E+00 0. -1.
         -1   -1    0    0    0  501 -0.00000000000E+00 -0.00000000000E+00 -0.29882748582E+02  0.29882748582E+02  0.00000000000E+00 0.  1.
         23    2    1    2    0    0 -0.49745536910E+02 -0.12481261819E+01  0.24055763680E+03  0.27587852387E+03  0.12555798282E+03 0.  0.
          5    1    3    3  502    0 -0.20114553474E+02  0.52643254419E+02  0.49503649621E+02  0.75126501470E+02  0.41800000000E+01 0. -1.
         -5    1    3    3    0  502 -0.29630983436E+02 -0.53891380601E+02  0.19105398718E+03  0.20075202240E+03  0.41800000000E+01 0. -1.
        -11    1    1    2    0    0  0.24619968881E+02  0.41345724348E+02  0.16054644990E+03  0.16760302612E+03  0.00000000000E+00 0.  1.
         11    1    1    2    0    0  0.25125568029E+02 -0.40097598166E+02  0.55692548111E+02  0.73080581981E+02  0.00000000000E+00 0. -1.
</event>
<event>
 6    1  0.7017065E-006  0.1187765E+03  0.7561462E-02  0.1245129E+00
         -1   -1    0    0    0  501 -0.00000000000E+00  0.00000000000E+00  0.11988400231E+03  0.11988400231E+03  0.00000000000E+00 0.  1.
          1   -1    0    0  501    0  0.00000000000E+00 -0.00000000000E+00 -0.14463468795E+03  0.14463468795E+03  0.00000000000E+00 0. -1.
          5    1    1    2  502    0  0.88322611973E+02  0.20212629991E+02 -0.19595319066E+01  0.90723460925E+02  0.41800000000E+01 0. -1.
         -5    1    1    2    0  502 -0.43058293865E+02 -0.32373848889E+02  0.24886946362E+02  0.59488782654E+02  0.41800000000E+01 0.  1.
        -11    1    1    2    0    0 -0.56649724586E+02 -0.18912924958E+02 -0.44837169692E+01  0.59891516461E+02  0.00000000000E+00 0.  1.
         11    1    1    2    0    0  0.11385406479E+02  0.31074143856E+02 -0.43194383123E+02  0.54414930216E+02  0.00000000000E+00 0. -1.
</event>
<event>
 7    1  0.7017065E-006  0.1488322E+03  0.7561462E-02  0.1201915E+00
         -1   -1    0    0    0  501 -0.00000000000E+00  0.00000000000E+00  0.39914153920E+03  0.39914153920E+03  0.00000000000E+00 0.  1.
          1   -1    0    0  501    0  0.00000000000E+00 -0.00000000000E+00 -0.71280912732E+02  0.71280912732E+02  0.00000000000E+00 0. -1.
         23    2    1    2    0    0  0.65907464663E+02  0.10930534018E+03  0.15132374550E+03  0.23417593053E+03  0.12509212283E+03 0.  0.
          5    1    3    3  502    0 -0.13085260437E+02  0.86235917676E+02  0.40978192035E+02  0.96460054741E+02  0.41800000000E+01 0. -1.
         -5    1    3    3    0  502  0.78992725100E+02  0.23069422507E+02  0.11034555347E+03  0.13771587579E+03  0.41800000000E+01 0. -1.
        -11    1    1    2    0    0 -0.34624452788E+02 -0.65854839815E+02  0.16567598671E+03  0.18161565250E+03  0.00000000000E+00 0.  1.
         11    1    1    2    0    0 -0.31283011875E+02 -0.43450500368E+02  0.10860894256E+02  0.54630868913E+02  0.00000000000E+00 0. -1.
</event>
<event>
 7    1  0.7017065E-006  0.9753243E+02  0.7561462E-02  0.1285572E+00
          3   -1    0    0  501    0  0.00000000000E+00  0.00000000000E+00  0.48839714802E+03  0.48839714802E+03  0.00000000000E+00 0. -1.
         -3   -1    0    0    0  501 -0.00000000000E+00 -0.00000000000E+00 -0.25278799213E+02  0.25278799213E+02  0.00000000000E+00 0.  1.
         23    2    1    2    0    0  0.17360548022E-01 -0.15147604395E+02  0.21908067083E+03  0.25273212215E+03  0.12509090699E+03 0.  0.
          5    1    3    3  502    0 -0.14495400987E+02  0.45259828631E+02  0.15976136624E+03  0.16673252616E+03  0.41800000000E+01 0. -1.
         -5    1    3    3    0  502  0.14512761535E+02 -0.60407433026E+02  0.59319304598E+02  0.85999595988E+02  0.41800000000E+01 0. -1.
        -11    1    1    2    0    0 -0.14732460094E+02  0.47401502720E+02  0.18952145917E+03  0.19591409170E+03  0.00000000000E+00 0. -1.
         11    1    1    2    0    0  0.14715099546E+02 -0.32253898325E+02  0.54516218809E+02  0.65029733392E+02  0.00000000000E+00 0.  1.
</event>
<event>
 7    1  0.7017065E-006  0.1465571E+03  0.7561462E-02  0.1204769E+00
         -1   -1    0    0    0  501 -0.00000000000E+00  0.00000000000E+00  0.25152285870E+03  0.25152285870E+03  0.00000000000E+00 0.  1.
          1   -1    0    0  501    0  0.00000000000E+00 -0.00000000000E+00 -0.94821920949E+02  0.94821920949E+02  0.00000000000E+00 0. -1.
         23    2    1    2    0    0  0.10913436142E+03  0.11147405955E+01  0.84000893818E+02  0.18605099670E+03  0.12508905516E+03 0.  0.
          5    1    3    3  502    0  0.13991439793E+02  0.53044541217E+02  0.13400457769E+02  0.56626216621E+02  0.41800000000E+01 0.  1.
         -5    1    3    3    0  502  0.95142921623E+02 -0.51929800622E+02  0.70600436048E+02  0.12942478008E+03  0.41800000000E+01 0.  1.
        -11    1    1    2    0    0 -0.11366298158E+03 -0.15341314708E+02  0.83498178944E+02  0.14186816135E+03  0.00000000000E+00 0.  1.
         11    1    1    2    0    0  0.45286201655E+01  0.14226574112E+02 -0.10798135011E+02  0.18425621599E+02  0.00000000000E+00 0. -1.
</event>
<event>
 7    1  0.7017065E-006  0.1037468E+03  0.7561462E-02  0.1272609E+00
         -1   -1    0    0    0  501 -0.00000000000E+00  0.00000000000E+00  0.26603527401E+03  0.26603527401E+03  0.00000000000E+00 0.  1.
          1   -1    0    0  501    0  0.00000000000E+00 -0.00000000000E+00 -0.59150354985E+02  0.59150354985E+02  0.00000000000E+00 0. -1.
         23    2    1    2    0    0  0.49187446006E+02  0.40421036898E+02  0.11531959249E+03  0.18165648047E+03  0.12508878214E+03 0.  0.
          5    1    3    3  502    0  0.25545001680E+02  0.60738155412E+02  0.13086173014E+03  0.14657399308E+03  0.41800000000E+01 0. -1.
         -5    1    3    3    0  502  0.23642444327E+02 -0.20317118514E+02 -0.15542137653E+02  0.35082487387E+02  0.41800000000E+01 0. -1.
        -11    1    1    2    0    0 -0.75754293977E+02 -0.30244908981E+02  0.61645763110E+02  0.10224317916E+03  0.00000000000E+00 0.  1.
         11    1    1    2    0    0  0.26566847971E+02 -0.10176127917E+02  0.29919563426E+02  0.41285969361E+02  0.00000000000E+00 0. -1.
</event>
<event>
 7    1  0.7017065E-006  0.1189786E+03  0.7561462E-02  0.1244792E+00
         -2   -1    0    0    0  501 -0.00000000000E+00  0.00000000000E+00  0.39659807345E+02  0.39659807345E+02  0.00000000000E+00 0.  1.
          2   -1    0    0  501    0  0.00000000000E+00 -0.00000000000E+00 -0.52449659396E+03  0.52449659396E+03  0.00000000000E+00 0. -1.
         23    2    1    2    0    0 -0.31992697087E+02 -0.58379032505E+02 -0.13063219096E+03  0.19272534472E+03  0.12508655036E+03 0.  0.
          5    1    3    3  502    0  0.21420021462E+01 -0.91303818106E+02 -0.67448248143E+02  0.11361212062E+03  0.41800000000E+01 0. -1.
         -5    1    3    3    0  502 -0.34134699233E+02  0.32924785600E+02 -0.63183942818E+02  0.79113224106E+02  0.41800000000E+01 0. -1.
        -11    1    1    2    0    0  0.45288636767E+02  0.68566287933E+02 -0.33897396334E+03  0.34879183518E+03  0.00000000000E+00 0. -1.
         11    1    1    2    0    0 -0.13295939680E+02 -0.10187255428E+02 -0.15230632311E+02  0.22639221403E+02  0.00000000000E+00 0.  1.
</event>
<event>
 7    1  0.7017065E-006  0.8537927E+02  0.7561462E-02  0.1314444E+00
          1   -1    0    0  501    0  0.00000000000E+00  0.00000000000E+00  0.27484043996E+03  0.27484043996E+03  0.00000000000E+00 0. -1.
         -1   -1    0    0    0  501 -0.00000000000E+00 -0.00000000000E+00 -0.47509113905E+02  0.47509113905E+02  0.00000000000E+00 0.  1.
         23    2    1    2    0    0  0.43017533088E+00 -0.26670395274E+02  0.90585449677E+02  0.15673210983E+03  0.12509090903E+03 0.  0.
          5    1    3    3  502    0 -0.36523271294E+02  0.51711916671E+01  0.10018466992E+03  0.10684161669E+03  0.41800000000E+01 0.  1.
         -5    1    3    3    0  502  0.36953446625E+02 -0.31841586941E+02 -0.95992202440E+01  0.49890493139E+02  0.41800000000E+01 0.  1.
        -11    1    1    2    0    0 -0.31229481145E+02  0.40310277546E+02  0.11424662996E+03  0.12510991738E+03  0.00000000000E+00 0. -1.
         11    1    1    2    0    0  0.30799305814E+02 -0.13639882272E+02  0.22499246418E+02  0.40507526663E+02  0.00000000000E+00 0.  1.
</event>
<event>
 7    1  0.7017065E-006  0.9489586E+02  0.7561462E-02  0.1291411E+00
         -2   -1    0    0    0  501 -0.00000000000E+00  0.00000000000E+00  0.21361681700E+02  0.21361681700E+02  0.00000000000E+00 0.  1.
          2   -1    0    0  501    0  0.00000000000E+00 -0.00000000000E+00 -0.57541949114E+03  0.57541949114E+03  0.00000000000E+00 0. -1.
         23    2    1    2    0    0 -0.20137063537E+02  0.10872414979E+02 -0.32818471681E+03  0.35196123331E+03  0.12509112946E+03 0.  0.
          5    1    3    3  502    0  0.47871267674E+02 -0.16583804848E+02 -0.98959246186E+02  0.11125235125E+03  0.41800000000E+01 0. -1.
         -5    1    3    3    0  502 -0.68008331212E+02  0.27456219827E+02 -0.22922547062E+03  0.24070888206E+03  0.41800000000E+01 0. -1.
        -11    1    1    2    0    0  0.39736234056E+02  0.52978806566E+01 -0.21222440229E+03  0.21597738947E+03  0.00000000000E+00 0. -1.
         11    1    1    2    0    0 -0.19599170519E+02 -0.16170295636E+02 -0.13648690347E+02  0.28842550063E+02  0.00000000000E+00 0.  1.
</event>
<event>
 7    1  0.7017065E-006  0.1124934E+03  0.7561462E-02  0.1256021E+00
         -2   -1    0    0    0  501 -0.00000000000E+00  0.00000000000E+00  0.13303972818E+03  0.13303972818E+03  0.00000000000E+00 0.  1.
          2   -1    0    0  501    0  0.00000000000E+00 -0.00000000000E+00 -0.14511539913E+03  0.14511539913E+03  0.00000000000E+00 0. -1.
         23    2    1    2    0    0 -0.48044162447E+02  0.30564536358E+02  0.59664745416E+02  0.14983333034E+03  0.12509081743E+03 0.  0.
          5    1    3    3  502    0  0.85660930942E+01  0.65867041020E+02  0.11736121133E+02  0.67579982116E+02  0.41800000000E+01 0. -1.
         -5    1    3    3    0  502 -0.56610255541E+02 -0.35302504661E+02  0.47928624283E+02  0.82253348220E+02  0.41800000000E+01 0. -1.
        -11    1    1    2    0    0  0.47749430321E+02 -0.51742006105E+02 -0.79103352097E+02  0.10589893108E+03  0.00000000000E+00 0. -1.
         11    1    1    2    0    0  0.29473212587E+00  0.21177469746E+02  0.73629357355E+01  0.22422865886E+02  0.00000000000E+00 0.  1.
</event>
<event>
 7    1  0.7017065E-006  0.2098325E+03  0.7561462E-02  0.1141699E+00
         -2   -1    0    0    0  501 -0.00000000000E+00  0.00000000000E+00  0.19106271795E+03  0.19106271795E+03  0.00000000000E+00 0.  1.
          2   -1    0    0  501    0  0.00000000000E+00 -0.00000000000E+00 -0.27475979661E+03  0.27475979661E+03  0.00000000000E+00 0. -1.
         23    2    1    2    0    0  0.14636473588E+03  0.11816814431E+03  0.29190694276E+02  0.22778555951E+03  0.12509123970E+03 0.  0.
          5    1    3    3  502    0  0.13425343410E+03  0.31281148445E+02  0.13547147144E+02  0.13857666618E+03  0.41800000000E+01 0.  1.
         -5    1    3    3    0  502  0.12111301783E+02  0.86886995870E+02  0.15643547132E+02  0.89208893329E+02  0.41800000000E+01 0.  1.
        -11    1    1    2    0    0 -0.11306755662E+03 -0.62855884022E+02 -0.29689741782E+02  0.13272759805E+03  0.00000000000E+00 0.  1.
         11    1    1    2    0    0 -0.33297179259E+02 -0.55312260292E+02 -0.83198031152E+02  0.10530935701E+03  0.00000000000E+00 0. -1.
</event>
<event>
 7    1  0.7017065E-006  0.9579555E+02  0.7561462E-02  0.1289394E+00
          2   -1    0    0  501    0  0.00000000000E+00  0.00000000000E+00  0.60682765175E+03  0.60682765175E+03  0.00000000000E+00 0. -1.
         -2   -1    0    0    0  501 -0.00000000000E+00 -0.00000000000E+00 -0.30047531040E+02  0.30047531040E+02  0.00000000000E+00 0.  1.
         23    2    1    2    0    0  0.29674843757E+02 -0.77974488171E+02  0.30496743235E+03  0.34002028689E+03  0.12509214023E+03 0.  0.
          5    1    3    3  502    0  0.46895072863E+02 -0.73316766932E+02  0.30917748337E+03  0.32122061702E+03  0.41800000000E+01 0. -1.
         -5    1    3    3    0  502 -0.17220229106E+02 -0.46577212387E+01 -0.42100510268E+01  0.18799669871E+02  0.41800000000E+01 0. -1.
        -11    1    1    2    0    0 -0.23256511215E+02  0.31146492980E+02  0.26535015566E+02  0.47064598053E+02  0.00000000000E+00 0.  1.
         11    1    1    2    0    0 -0.64183325422E+01  0.46827995191E+02  0.24527767280E+03  0.24979029785E+03  0.00000000000E+00 0. -1.
</event>
<event>
 7    1  0.7017065E-006  0.8727893E+02  0.7561462E-02  0.1309578E+00
          2   -1    0    0  501    0  0.00000000000E+00  0.00000000000E+00  0.63482993737E+03  0.63482993737E+03  0.00000000000E+00 0.  1.
         -2   -1    0    0    0  501 -0.00000000000E+00 -0.00000000000E+00 -0.22729580795E+02  0.22729580795E+02  0.00000000000E+00 0. -1.
         23    2    1    2    0    0 -0.39123781645E+02  0.19460280159E+02  0.26647428044E+03  0.29760070392E+03  0.12509302156E+03 0.  0.
          5    1    3    3  502    0 -0.53076374901E+02  0.33122831378E+01  0.32178079578E+02  0.62297463813E+02  0.41800000000E+01 0. -1.
         -5    1    3    3    0  502  0.13952593257E+02  0.16147997022E+02  0.23429620086E+03  0.23530324010E+03  0.41800000000E+01 0. -1.
        -11    1    1    2    0    0  0.38694853386E+02 -0.53167599371E+02  0.20217458125E+03  0.21259973331E+03  0.00000000000E+00 0.  1.
         11    1    1    2    0    0  0.42892825901E+00  0.33707319212E+02  0.14345149490E+03  0.14735908094E+03  0.00000000000E+00 0. -1.
</event>
<event>
 7    1  0.7017065E-006  0.1028484E+03  0.7561462E-02  0.1274418E+00
          2   -1    0    0  501    0  0.00000000000E+00  0.00000000000E+00  0.70399113599E+03  0.70399113599E+03  0.00000000000E+00 0. -1.
         -2   -1    0    0    0  501 -0.00000000000E+00 -0.00000000000E+00 -0.23445908359E+02  0.23445908359E+02  0.00000000000E+00 0.  1.
         23    2    1    2    0    0  0.57765291924E+02  0.32543161638E+02  0.33924814467E+03  0.36760381794E+03  0.12508947589E+03 0.  0.
          5    1    3    3  502    0  0.15183974249E+02  0.44555666030E+02  0.31182033850E+03  0.31538097018E+03  0.41800000000E+01 0.  1.
         -5    1    3    3    0  502  0.42581317675E+02 -0.12012504392E+02  0.27427806173E+02  0.52222847760E+02  0.41800000000E+01 0.  1.
        -11    1    1    2    0    0 -0.54922821466E+02 -0.62903318475E+02  0.25085436824E+03  0.26438846015E+03  0.00000000000E+00 0. -1.
         11    1    1    2    0    0 -0.28424704582E+01  0.30360156836E+02  0.90442714714E+02  0.95444766259E+02  0.00000000000E+00 0.  1.
</event>
<event>
 7    1  0.7017065E-006  0.1088031E+03  0.7561462E-02  0.1262802E+00
          1   -1    0    0  501    0  0.00000000000E+00  0.00000000000E+00  0.25759909705E+03  0.25759909705E+03  0.00000000000E+00 0. -1.
         -1   -1    0    0    0  501 -0.00000000000E+00 -0.00000000000E+00 -0.54748929595E+02  0.54748929595E+02  0.00000000000E+00 0.  1.
         23    2    1    2    0    0 -0.30571452081E+02  0.22737354632E+02  0.69723190913E+02  0.14819056152E+03  0.12509004035E+03 0.  0.
          5    1    3    3  502    0  0.31643769352E+02  0.52676357321E+02  0.33124363117E+02  0.69934416358E+02  0.41800000000E+01 0.  1.
         -5    1    3    3    0  502 -0.62215221433E+02 -0.29939002689E+02  0.36598827796E+02  0.78256145164E+02  0.41800000000E+01 0.  1.
        -11    1    1    2    0    0  0.37214099415E+02  0.20915039062E+02  0.10069971648E+03  0.10937440721E+03  0.00000000000E+00 0.  1.
         11    1    1    2    0    0 -0.66426473345E+01 -0.43652393694E+02  0.32427260067E+02  0.54783057913E+02  0.00000000000E+00 0. -1.
</event>
<event>
 7    1  0.7017065E-006  0.7689355E+02  0.7561462E-02  0.1338106E+00
          4   -1    0    0  501    0  0.00000000000E+00  0.00000000000E+00  0.57931317287E+03  0.57931317287E+03  0.00000000000E+00 0. -1.
         -4   -1    0    0    0  501 -0.00000000000E+00 -0.00000000000E+00 -0.25183560264E+02  0.25183560264E+02  0.00000000000E+00 0.  1.
         23    2    1    2    0    0 -0.35133378725E+02 -0.40006503041E+02  0.35475297535E+03  0.37991082737E+03  0.12509072166E+03 0.  0.
          5    1    3    3  502    0  0.26739572894E+02 -0.15269330675E+02  0.27112549502E+03  0.27290046476E+03  0.41800000000E+01 0. -1.
         -5    1    3    3    0  502 -0.61872951619E+02 -0.24737172366E+02  0.83627480331E+02  0.10701036261E+03  0.41800000000E+01 0. -1.
        -11    1    1    2    0    0  0.48146534377E+01  0.17600843293E+02 -0.32045666292E+01  0.18526732568E+02  0.00000000000E+00 0.  1.
         11    1    1    2    0    0  0.30318725287E+02  0.22405659748E+02  0.20258120389E+03  0.20605917320E+03  0.00000000000E+00 0. -1.
</event>
<event>
 7    1  0.7017065E-006  0.1838847E+03  0.7561462E-02  0.1164095E+00
          2   -1    0    0  501    0  0.00000000000E+00  0.00000000000E+00  0.13509819373E+04  0.13509819373E+04  0.00000000000E+00 0. -1.
         -2   -1    0    0    0  501 -0.00000000000E+00 -0.00000000000E+00 -0.26296295941E+02  0.26296295941E+02  0.00000000000E+00 0.  1.
         23    2    1    2    0    0  0.11878340877E+03 -0.91289157455E+02  0.58498334141E+03  0.61668160871E+03  0.12508992097E+03 0.  0.
          5    1    3    3  502    0  0.89694126011E+02  0.77332724837E+01  0.31407733415E+03  0.32675202214E+03  0.41800000000E+01 0.  1.
         -5    1    3    3    0  502  0.29089282764E+02 -0.99022429939E+02  0.27090600726E+03  0.28992958658E+03  0.41800000000E+01 0.  1.
        -11    1    1    2    0    0  0.90826085178E+01  0.32271577313E+02  0.96504536262E+02  0.10216199880E+03  0.00000000000E+00 0.  1.
         11    1    1    2    0    0 -0.12786601729E+03  0.59017580143E+02  0.64319776364E+03  0.65843462568E+03  0.00000000000E+00 0. -1.
</event>
<event>
 7    1  0.7017065E-006  0.2103936E+03  0.7561462E-02  0.1141255E+00
         -1   -1    0    0    0  501 -0.00000000000E+00  0.00000000000E+00  0.44395752510E+02  0.44395752510E+02  0.00000000000E+00 0.  1.
          1   -1    0    0  501    0  0.00000000000E+00 -0.00000000000E+00 -0.11376478065E+04  0.11376478065E+04  0.00000000000E+00 0. -1.
         23    2    1    2    0    0 -0.11149866453E+03 -0.16086008360E+03 -0.49312971357E+03  0.54509869513E+03  0.12509098422E+03 0.  0.
          5    1    3    3  502    0 -0.96234736141E+02 -0.75950639924E+02 -0.16385302110E+03  0.20468245911E+03  0.41800000000E+01 0. -1.
         -5    1    3    3    0  502 -0.15263928392E+02 -0.84909443671E+02 -0.32927669248E+03  0.34041623602E+03  0.41800000000E+01 0. -1.
        -11    1    1    2    0    0  0.11997436533E+03  0.11879161995E+03 -0.50790175916E+03  0.53522845054E+03  0.00000000000E+00 0.  1.
         11    1    1    2    0    0 -0.84757007960E+01  0.42068463646E+02 -0.92220581277E+02  0.10171641337E+03  0.00000000000E+00 0. -1.
</event>
<event>
 7    1  0.7017065E-006  0.1229771E+03  0.7561462E-02  0.1238265E+00
         -2   -1    0    0    0  501 -0.00000000000E+00  0.00000000000E+00  0.15367902421E+03  0.15367902421E+03  0.00000000000E+00 0.  1.
          2   -1    0    0  501    0  0.00000000000E+00 -0.00000000000E+00 -0.13635215307E+03  0.13635215307E+03  0.00000000000E+00 0. -1.
         23    2    1    2    0    0 -0.67608229579E+02 -0.23411124387E+02  0.73892765982E+02  0.16181256128E+03  0.12491681501E+03 0.  0.
          5    1    3    3  502    0  0.16369134447E+02 -0.52367443316E+02  0.28711795430E+02  0.62065588524E+02  0.41800000000E+01 0. -1.
         -5    1    3    3    0  502 -0.83977364027E+02  0.28956318929E+02  0.45180970552E+02  0.99746972760E+02  0.41800000000E+01 0. -1.
        -11    1    1    2    0    0  0.53506936969E+02 -0.19409595820E+02 -0.13485316566E+01  0.56934552350E+02  0.00000000000E+00 0.  1.
         11    1    1    2    0    0  0.14101292610E+02  0.42820720206E+02 -0.55217363182E+02  0.71284063640E+02  0.00000000000E+00 0. -1.
</event>
<event>
 7    1  0.7017065E-006  0.1722978E+03  0.7561462E-02  0.1175473E+00
          1   -1    0    0  501    0  0.00000000000E+00  0.00000000000E+00  0.60308834330E+03  0.60308834330E+03  0.00000000000E+00 0. -1.
         -1   -1    0    0    0  501 -0.00000000000E+00 -0.00000000000E+00 -0.52173477187E+02  0.52173477187E+02  0.00000000000E+00 0.  1.
         23    2    1    2    0    0  0.11891235062E+03  0.52884194740E+02  0.21052756432E+03  0.27732002499E+03  0.12509059014E+03 0.  0.
          5    1    3    3  502    0  0.13284419102E+03  0.75957015239E+02  0.17446489468E+03  0.23210454353E+03  0.41800000000E+01 0. -1.
         -5    1    3    3    0  502 -0.13931840397E+02 -0.23072820498E+02  0.36062669634E+02  0.45215481461E+02  0.41800000000E+01 0. -1.
        -11    1    1    2    0    0 -0.57877389484E+02  0.26867975334E+02  0.13407178334E+03  0.14848206424E+03  0.00000000000E+00 0.  1.
         11    1    1    2    0    0 -0.61034961138E+02 -0.79752170074E+02  0.20631551845E+03  0.22945973125E+03  0.00000000000E+00 0. -1.
</event>
<event>
 7    1  0.7017065E-006  0.9740644E+02  0.7561462E-02  0.1285846E+00
         -1   -1    0    0    0  501 -0.00000000000E+00  0.00000000000E+00  0.53806148157E+02  0.53806148157E+02  0.00000000000E+00 0.  1.
          1   -1    0    0  501    0  0.00000000000E+00 -0.00000000000E+00 -0.27402330247E+03  0.27402330247E+03  0.00000000000E+00 0. -1.
         23    2    1    2    0    0  0.37205900424E+02  0.88313517892E+01 -0.78810936331E+02  0.15271592934E+03  0.12509484237E+03 0.  0.
          5    1    3    3  502    0  0.62013478334E+02 -0.60088175782E+01  0.62729229576E+01  0.62758261179E+02  0.41800000000E+01 0.  1.
         -5    1    3    3    0  502 -0.24807577910E+02  0.14840169367E+02 -0.85083859288E+02  0.89957668156E+02  0.41800000000E+01 0.  1.
        -11    1    1    2    0    0  0.32090226188E+02 -0.10735741183E+02 -0.42316407614E+02  0.54182258249E+02  0.00000000000E+00 0.  1.
         11    1    1    2    0    0 -0.69296126612E+02  0.19043893939E+01 -0.99089810366E+02  0.12093126304E+03  0.00000000000E+00 0. -1.
</event>
<event>
 7    1  0.7017065E-006  0.8577077E+02  0.7561462E-02  0.1313429E+00
          3   -1    0    0  501    0  0.00000000000E+00  0.00000000000E+00  0.23677278676E+03  0.23677278676E+03  0.00000000000E+00 0. -1.
         -3   -1    0    0    0  501 -0.00000000000E+00 -0.00000000000E+00 -0.59498589240E+02  0.59498589240E+02  0.00000000000E+00 0.  1.
         23    2    1    2    0    0  0.18245333975E+02  0.39418965616E+02  0.73183329540E+02  0.15129545560E+03  0.12509103925E+03 0.  0.
          5    1    3    3  502    0  0.36902910847E+02 -0.32033859079E+02  0.57695222399E+02  0.75724527362E+02  0.41800000000E+01 0.  1.
         -5    1    3    3    0  502 -0.18657576872E+02  0.71452824695E+02  0.15488107141E+02  0.75570928236E+02  0.41800000000E+01 0.  1.
        -11    1    1    2    0    0 -0.21523345093E+02 -0.21899531917E+02  0.11827592811E+03  0.12219672276E+03  0.00000000000E+00 0. -1.
         11    1    1    2    0    0  0.32780111180E+01 -0.17519433700E+02 -0.14185060136E+02  0.22779197640E+02  0.00000000000E+00 0.  1.
</event>
<event>
 7    1  0.7017065E-006  0.1504803E+03  0.7561462E-02  0.1199884E+00
         -1   -1    0    0    0  501 -0.00000000000E+00  0.00000000000E+00  0.41588133958E+02  0.41588133958E+02  0.00000000000E+00 0.  1.
          1   -1    0    0  501    0  0.00000000000E+00 -0.00000000000E+00 -0.70934049970E+03  0.70934049970E+03  0.00000000000E+00 0. -1.
         23    2    1    2    0    0 -0.12196840482E+03  0.49007097211E+02 -0.31190714529E+03  0.36084708997E+03  0.12508624108E+03 0.  0.
          5    1    3    3  502    0 -0.10884002886E+02  0.40352655573E+02 -0.19429408077E+03  0.19878244528E+03  0.41800000000E+01 0. -1.
         -5    1    3    3    0  502 -0.11108440193E+03  0.86544416380E+01 -0.11761306452E+03  0.16206464469E+03  0.41800000000E+01 0. -1.
        -11    1    1    2    0    0  0.16708015130E+02 -0.38138654601E+02 -0.43138946129E+02  0.59955678776E+02  0.00000000000E+00 0.  1.
         11    1    1    2    0    0  0.10526038969E+03 -0.10868442610E+02 -0.31270627432E+03  0.33012586491E+03  0.00000000000E+00 0. -1.
</event>
<event>
 7    1  0.7017065E-006  0.9358796E+02  0.7561462E-02  0.1294388E+00
          1   -1    0    0  501    0  0.00000000000E+00  0.00000000000E+00  0.56474723289E+03  0.56474723289E+03  0.00000000000E+00 0. -1.
         -1   -1    0    0    0  501 -0.00000000000E+00 -0.00000000000E+00 -0.25011702290E+02  0.25011702290E+02  0.00000000000E+00 0.  1.
         23    2    1    2    0    0  0.10022469140E+02  0.26778703266E+02  0.21342281565E+03  0.24902497562E+03  0.12508633580E+03 0.  0.
          5    1    3    3  502    0 -0.37618123237E+02  0.19381230003E+02  0.19102485280E+03  0.19570059290E+03  0.41800000000E+01 0. -1.
         -5    1    3    3    0  502  0.47640592377E+02  0.73974732630E+01  0.22397962848E+02  0.53324382720E+02  0.41800000000E+01 0. -1.
        -11    1    1    2    0    0 -0.14008312735E+02  0.33259908140E+02  0.92176709725E+02  0.98989899136E+02  0.00000000000E+00 0.  1.
         11    1    1    2    0    0  0.39858435951E+01 -0.60038611406E+02  0.23413600522E+03  0.24174406042E+03  0.00000000000E+00 0. -1.
</event>
<event>
 7    1  0.7017065E-006  0.9169614E+02  0.7561462E-02  0.1298795E+00
          1   -1    0    0  501    0  0.00000000000E+00  0.00000000000E+00  0.35785522657E+02  0.35785522657E+02  0.00000000000E+00 0. -1.
         -1   -1    0    0    0  501 -0.00000000000E+00 -0.00000000000E+00 -0.39211553651E+03  0.39211553651E+03  0.00000000000E+00 0.  1.
         23    2    1    2    0    0  0.29711495352E+02 -0.30145048150E+02 -0.25093372335E+03  0.28356124657E+03  0.12509096754E+03 0.  0.
          5    1    3    3  502    0  0.72946063660E+02 -0.22490459281E+02 -0.20963192786E+03  0.22313665441E+03  0.41800000000E+01 0. -1.
         -5    1    3    3    0  502 -0.43234568308E+02 -0.76545888693E+01 -0.41301795487E+02  0.60424592162E+02  0.41800000000E+01 0. -1.
        -11    1    1    2    0    0 -0.10090853305E+02 -0.12399752596E+02 -0.95017273881E+02  0.96352797160E+02  0.00000000000E+00 0.  1.
         11    1    1    2    0    0 -0.19620642047E+02  0.42544800746E+02 -0.10379016631E+02  0.47987015443E+02  0.00000000000E+00 0. -1.
</event>
<event>
 7    1  0.7017065E-006  0.1144469E+03  0.7561462E-02  0.1252550E+00
         -1   -1    0    0    0  501 -0.00000000000E+00  0.00000000000E+00  0.28667615899E+02  0.28667615899E+02  0.00000000000E+00 0. -1.
          1   -1    0    0  501    0  0.00000000000E+00 -0.00000000000E+00 -0.67060176297E+03  0.67060176297E+03  0.00000000000E+00 0.  1.
         23    2    1    2    0    0 -0.74420218029E+02  0.28654329910E+02 -0.27289148150E+03  0.31060428583E+03  0.12508326119E+03 0.  0.
          5    1    3    3  502    0  0.21603531886E+01 -0.35618393382E+02 -0.13830004612E+03  0.14289056033E+03  0.41800000000E+01 0. -1.
         -5    1    3    3    0  502 -0.76580571217E+02  0.64272723292E+02 -0.13459143537E+03  0.16771372551E+03  0.41800000000E+01 0. -1.
        -11    1    1    2    0    0  0.54921253380E+01 -0.23105917743E+02 -0.15355753967E+02  0.28281549734E+02  0.00000000000E+00 0. -1.
         11    1    1    2    0    0  0.68928092691E+02 -0.55484121671E+01 -0.35368691161E+03  0.36038354331E+03  0.00000000000E+00 0.  1.
</event>
<event>
 7    1  0.7017065E-006  0.9259545E+02  0.7561462E-02  0.1296685E+00
          1   -1    0    0  501    0  0.00000000000E+00  0.00000000000E+00  0.78833156692E+02  0.78833156692E+02  0.00000000000E+00 0. -1.
         -1   -1    0    0    0  501 -0.00000000000E+00 -0.00000000000E+00 -0.21069897173E+03  0.21069897173E+03  0.00000000000E+00 0.  1.
         23    2    1    2    0    0  0.36326086241E+02  0.30284575962E+02 -0.13007271749E+03  0.18655632464E+03  0.12509040868E+03 0.  0.
          5    1    3    3  502    0  0.34671612048E+02 -0.37105803110E+02 -0.14983176200E+02  0.53112421104E+02  0.41800000000E+01 0. -1.
         -5    1    3    3    0  502  0.16544741929E+01  0.67390379072E+02 -0.11508954129E+03  0.13344390354E+03  0.41800000000E+01 0. -1.
        -11    1    1    2    0    0 -0.31955210547E+01 -0.33277011517E+02  0.38327382675E+02  0.50858225619E+02  0.00000000000E+00 0. -1.
         11    1    1    2    0    0 -0.33130565187E+02  0.29924355547E+01 -0.40120480218E+02  0.52117578158E+02  0.00000000000E+00 0.  1.
</event>
<event>
 7    1  0.7017065E-006  0.1559708E+03  0.7561462E-02  0.1193322E+00
          1   -1    0    0  501    0  0.00000000000E+00  0.00000000000E+00  0.75106828465E+03  0.75106828465E+03  0.00000000000E+00 0. -1.
         -1   -1    0    0    0  501 -0.00000000000E+00 -0.00000000000E+00 -0.38096577086E+02  0.38096577086E+02  0.00000000000E+00 0.  1.
         23    2    1    2    0    0 -0.11362401133E+03 -0.43361795272E+02  0.27903878533E+03  0.32909156615E+03  0.12509178211E+03 0.  0.
          5    1    3    3  502    0 -0.13141871776E+03 -0.64024693728E+02  0.22378647094E+03  0.26733480462E+03  0.41800000000E+01 0.  1.
         -5    1    3    3    0  502  0.17794706426E+02  0.20662898456E+02  0.55252314395E+02  0.61756761536E+02  0.41800000000E+01 0.  1.
        -11    1    1    2    0    0  0.84241936292E+02 -0.17646344648E+01  0.15930934891E+03  0.18022010547E+03  0.00000000000E+00 0.  1.
         11    1    1    2    0    0  0.29382075040E+02  0.45126429737E+02  0.27462357332E+03  0.27985319012E+03  0.00000000000E+00 0. -1.
</event>
<event>
 7    1  0.7017065E-006  0.1005565E+03  0.7561462E-02  0.1279130E+00
          4   -1    0    0  501    0  0.00000000000E+00  0.00000000000E+00  0.47308774844E+03  0.47308774844E+03  0.00000000000E+00 0. -1.
         -4   -1    0    0    0  501 -0.00000000000E+00 -0.00000000000E+00 -0.57212380637E+02  0.57212380637E+02  0.00000000000E+00 0.  1.
         23    2    1    2    0    0  0.51227392076E+02 -0.59720404266E+02  0.69739595897E+02  0.16340629705E+03  0.12508890557E+03 0.  0.
          5    1    3    3  502    0  0.51818382389E+02 -0.64577558687E+02  0.10146954585E+03  0.13103032845E+03  0.41800000000E+01 0. -1.
         -5    1    3    3    0  502 -0.59099031272E+00  0.48571544216E+01 -0.31729949953E+02  0.32375968598E+02  0.41800000000E+01 0. -1.
        -11    1    1    2    0    0 -0.57460632633E+02  0.60888963759E+01  0.10562374638E+03  0.12039590841E+03  0.00000000000E+00 0.  1.
         11    1    1    2    0    0  0.62332405571E+01  0.53631507890E+02  0.24051202552E+03  0.24649792362E+03  0.00000000000E+00 0. -1.
</event>
<event>
 6    1  0.7017065E-006  0.1308521E+03  0.7561462E-02  0.1226197E+00
         -3   -1    0    0    0  501 -0.00000000000E+00  0.00000000000E+00  0.26632089394E+03  0.26632089394E+03  0.00000000000E+00 0.  1.
          3   -1    0    0  501    0  0.00000000000E+00 -0.00000000000E+00 -0.13463580337E+03  0.13463580337E+03  0.00000000000E+00 0. -1.
          5    1    1    2  502    0 -0.25101440933E+02  0.29821044198E+02 -0.31946473692E+02  0.50571005481E+02  0.41800000000E+01 0. -1.
         -5    1    1    2    0  502  0.83951420267E+02  0.55925050157E+02  0.18652949517E+03  0.21209945112E+03  0.41800000000E+01 0.  1.
        -11    1    1    2    0    0  0.13506961474E+02 -0.17220354177E+02  0.20132457932E+02  0.29737089108E+02  0.00000000000E+00 0.  1.
         11    1    1    2    0    0 -0.72356940808E+02 -0.68525740178E+02 -0.43030388835E+02  0.10854915160E+03  0.00000000000E+00 0. -1.
</event>
<event>
 6    1  0.7017065E-006  0.2702399E+03  0.7561462E-02  0.1101142E+00
          1   -1    0    0  501    0  0.00000000000E+00  0.00000000000E+00  0.62505457030E+03  0.62505457030E+03  0.00000000000E+00 0. -1.
         -1   -1    0    0    0  501 -0.00000000000E+00 -0.00000000000E+00 -0.21288987342E+03  0.21288987342E+03  0.00000000000E+00 0.  1.
          5    1    1    2  502    0  0.18154770564E+03 -0.13877701055E+03  0.12984978086E+03  0.26286320790E+03  0.41800000000E+01 0. -1.
         -5    1    1    2    0  502 -0.16801032783E+03  0.14448254415E+03 -0.52511617992E+02  0.22776658720E+03  0.41800000000E+01 0.  1.
        -11    1    1    2    0    0 -0.42018958775E+02 -0.30990553148E+02  0.15695180153E+03  0.16540820804E+03  0.00000000000E+00 0. -1.
         11    1    1    2    0    0  0.28481580968E+02  0.25285019551E+02  0.17787473248E+03  0.18190644057E+03  0.00000000000E+00 0.  1.
</event>
<event>
 7    1  0.7017065E-006  0.1348241E+03  0.7561462E-02  0.1220468E+00
          1   -1    0    0  501    0  0.00000000000E+00  0.00000000000E+00  0.30951817209E+02  0.30951817209E+02  0.00000000000E+00 0. -1.
         -1   -1    0    0    0  501 -0.00000000000E+00 -0.00000000000E+00 -0.60324468364E+03  0.60324468364E+03  0.00000000000E+00 0.  1.
         23    2    1    2    0    0 -0.76241962379E+02  0.23466377707E+02 -0.34130017824E+03  0.37215178310E+03  0.12509048840E+03 0.  0.
          5    1    3    3  502    0 -0.90675741337E+02 -0.26623554630E+02 -0.19377643334E+03  0.21563321230E+03  0.41800000000E+01 0.  1.
         -5    1    3    3    0  502  0.14433778958E+02  0.50089932337E+02 -0.14752374490E+03  0.15651857080E+03  0.41800000000E+01 0.  1.
        -11    1    1    2    0    0  0.34062838344E+02  0.36187732652E+02 -0.77732994867E+02  0.92261841742E+02  0.00000000000E+00 0. -1.
         11    1    1    2    0    0  0.42179124035E+02 -0.59654110359E+02 -0.15325969332E+03  0.16978287600E+03  0.00000000000E+00 0.  1.
</event>
<event>
 7    1  0.7017065E-006  0.9693114E+02  0.7561462E-02  0.1286885E+00
          1   -1    0    0  501    0  0.00000000000E+00  0.00000000000E+00  0.40547503596E+02  0.40547503596E+02  0.00000000000E+00 0. -1.
         -1   -1    0    0    0  501 -0.00000000000E+00 -0.00000000000E+00 -0.43358168609E+03  0.43358168609E+03  0.00000000000E+00 0.  1.
         23    2    1    2    0    0 -0.51777074548E+02  0.19114205979E+02 -0.30733526455E+03  0.33637594742E+03  0.12509034675E+03 0.  0.
          5    1    3    3  502    0  0.21242266971E+02  0.10409747821E+02 -0.41574208122E+01  0.24379362247E+02  0.41800000000E+01 0.  1.
         -5    1    3    3    0  502 -0.73019341519E+02  0.87044581588E+01 -0.30317784374E+03  0.31199658517E+03  0.41800000000E+01 0.  1.
        -11    1    1    2    0    0  0.62405856048E+02  0.11784941869E+02 -0.83630675244E+02  0.10501174013E+03  0.00000000000E+00 0.  1.
         11    1    1    2    0    0 -0.10628781501E+02 -0.30899147848E+02 -0.20682427005E+01  0.32741502131E+02  0.00000000000E+00 0. -1.
</event>
<event>
 7    1  0.7017065E-006  0.9771075E+02  0.7561462E-02  0.1285185E+00
          1   -1    0    0  501    0  0.00000000000E+00  0.00000000000E+00  0.18215374911E+02  0.18215374911E+02  0.00000000000E+00 0. -1.
         -1   -1    0    0    0  501 -0.00000000000E+00 -0.00000000000E+00 -0.71837647784E+03  0.71837647784E+03  0.00000000000E+00 0.  1.
         23    2    1    2    0    0  0.11536433632E+02  0.30361736024E+02 -0.44758039503E+03  0.46586208094E+03  0.12507735256E+03 0.  0.
          5    1    3    3  502    0 -0.44294702195E+02  0.50552754271E+02 -0.28138020589E+03  0.28932662213E+03  0.41800000000E+01 0.  1.
         -5    1    3    3    0  502  0.55831135827E+02 -0.20191018247E+02 -0.16620018914E+03  0.17653545881E+03  0.41800000000E+01 0.  1.
        -11    1    1    2    0    0 -0.36452764879E+02 -0.19976574221E+02 -0.23469596368E+03  0.23834861643E+03  0.00000000000E+00 0.  1.
         11    1    1    2    0    0  0.24916331247E+02 -0.10385161803E+02 -0.17884744221E+02  0.32381155389E+02  0.00000000000E+00 0. -1.
</event>
<event>
 7    1  0.7017065E-006  0.2057811E+03  0.7561462E-02  0.1144951E+00
         -2   -1    0    0    0  501 -0.00000000000E+00  0.00000000000E+00  0.13310357856E+03  0.13310357856E+03  0.00000000000E+00 0.  1.
          2   -1    0    0  501    0  0.00000000000E+00 -0.00000000000E+00 -0.75080098790E+03  0.75080098790E+03  0.00000000000E+00 0. -1.
         23    2    1    2    0    0 -0.11286529794E+03  0.14491353022E+03  0.11114727278E+02  0.22250842092E+03  0.12509178029E+03 0.  0.
          5    1    3    3  502    0 -0.36415494542E+02  0.13389773567E+03 -0.17732269475E+02  0.13995212624E+03  0.41800000000E+01 0. -1.
         -5    1    3    3    0  502 -0.76449803393E+02  0.11015794555E+02  0.28846996753E+02  0.82556294673E+02  0.41800000000E+01 0. -1.
        -11    1    1    2    0    0  0.10827718611E+03 -0.91458999662E+02 -0.53365834395E+03  0.55215933001E+03  0.00000000000E+00 0.  1.
         11    1    1    2    0    0  0.45881118290E+01 -0.53454530561E+02 -0.95153792674E+02  0.10923681553E+03  0.00000000000E+00 0. -1.
</event>
<event>
 7    1  0.7017065E-006  0.9611777E+02  0.7561462E-02  0.1288678E+00
         -1   -1    0    0    0  501 -0.00000000000E+00  0.00000000000E+00  0.79657810168E+02  0.79657810168E+02  0.00000000000E+00 0.  1.
          1   -1    0    0  501    0  0.00000000000E+00 -0.00000000000E+00 -0.17671653033E+03  0.17671653033E+03  0.00000000000E+00 0. -1.
         23    2    1    2    0    0  0.23352561415E+02 -0.28854324251E+02 -0.21743170741E+02  0.13228136367E+03  0.12509068529E+03 0.  0.
          5    1    3    3  502    0  0.12031709966E+02 -0.59478028626E+02  0.32400256715E+02  0.68917682558E+02  0.41800000000E+01 0. -1.
         -5    1    3    3    0  502  0.11320851450E+02  0.30623704375E+02 -0.54143427456E+02  0.63363681110E+02  0.41800000000E+01 0. -1.
        -11    1    1    2    0    0 -0.66512732841E+01  0.61481343348E+02 -0.44177811079E+02  0.75999171101E+02  0.00000000000E+00 0. -1.
         11    1    1    2    0    0 -0.16701288131E+02 -0.32627019097E+02 -0.31137738339E+02  0.48093805726E+02  0.00000000000E+00 0.  1.
</event>
<event>
 6    1  0.7017065E-006  0.2389385E+03  0.7561462E-02  0.1120502E+00
         -2   -1    0    0    0  501 -0.00000000000E+00  0.00000000000E+00  0.11148792752E+03  0.11148792752E+03  0.00000000000E+00 0.  1.
          2   -1    0    0  501    0  0.00000000000E+00 -0.00000000000E+00 -0.71119248768E+03  0.71119248768E+03  0.00000000000E+00 0. -1.
          5    1    1    2  502    0 -0.12934895844E+03 -0.42687144853E+02 -0.16302110885E+03  0.21247752756E+03  0.41800000000E+01 0. -1.
         -5    1    1    2    0  502 -0.65837269903E+02  0.99682140474E+02  0.46867723835E+00  0.11953563191E+03  0.41800000000E+01 0.  1.
        -11    1    1    2    0    0 -0.73380826752E+01 -0.12834879884E+02 -0.20193708410E+02  0.25027334223E+02  0.00000000000E+00 0.  1.
         11    1    1    2    0    0  0.20252431102E+03 -0.44160115737E+02 -0.41695842014E+03  0.46563992151E+03  0.00000000000E+00 0. -1.
</event>
<event>
 7    1  0.7017065E-006  0.1006620E+03  0.7561462E-02  0.1278910E+00
          2   -1    0    0  501    0  0.00000000000E+00  0.00000000000E+00  0.26681002284E+03  0.26681002284E+03  0.00000000000E+00 0. -1.
         -2   -1    0    0    0  501 -0.00000000000E+00 -0.00000000000E+00 -0.46527215653E+02  0.46527215653E+02  0.00000000000E+00 0.  1.
         23    2    1    2    0    0  0.13659479766E+02 -0.13541694649E+02  0.11137923471E+03  0.16858946186E+03  0.12508842410E+03 0.  0.
          5    1    3    3  502    0 -0.30721625517E+02 -0.53592345543E+02  0.79328487840E+02  0.10063020997E+03  0.41800000000E+01 0. -1.
         -5    1    3    3    0  502  0.44381105282E+02  0.40050650894E+02  0.32050746868E+02  0.67959251893E+02  0.41800000000E+01 0. -1.
        -11    1    1    2    0    0 -0.66925253015E+01 -0.32365312753E+02  0.87665457482E+02  0.93688504098E+02  0.00000000000E+00 0. -1.
         11    1    1    2    0    0 -0.69669544641E+01  0.45907007403E+02  0.21238114998E+02  0.51059272535E+02  0.00000000000E+00 0.  1.
</event>
<event>
 7    1  0.7017065E-006  0.1510186E+03  0.7561462E-02  0.1199227E+00
         -2   -1    0    0    0  501 -0.00000000000E+00  0.00000000000E+00  0.14367029205E+03  0.14367029205E+03  0.00000000000E+00 0. -1.
          2   -1    0    0  501    0  0.00000000000E+00 -0.00000000000E+00 -0.22327996073E+03  0.22327996073E+03  0.00000000000E+00 0.  1.
         23    2    1    2    0    0 -0.10698488324E+03 -0.60701790537E+02  0.32352133488E+02  0.17839893412E+03  0.12509614918E+03 0.  0.
          5    1    3    3  502    0  0.24078028522E+01 -0.65347973576E+02  0.67179955937E+01  0.65869257092E+02  0.41800000000E+01 0.  1.
         -5    1    3    3    0  502 -0.10939268609E+03  0.46461830389E+01  0.25634137894E+02  0.11252967703E+03  0.41800000000E+01 0.  1.
        -11    1    1    2    0    0  0.56467952011E+02  0.14078027579E+02 -0.10422676891E+03  0.11937353066E+03  0.00000000000E+00 0.  1.
         11    1    1    2    0    0  0.50516931227E+02  0.46623762958E+02 -0.77350332527E+01  0.69177787999E+02  0.00000000000E+00 0. -1.
</event>
<event>
 7    1  0.7017065E-006  0.9065730E+02  0.7561462E-02  0.1301268E+00
         -1   -1    0    0    0  501 -0.00000000000E+00  0.00000000000E+00  0.22859406743E+02  0.22859406743E+02  0.00000000000E+00 0.  1.
          1   -1    0    0  501    0  0.00000000000E+00 -0.00000000000E+00 -0.72569593497E+03  0.72569593497E+03  0.00000000000E+00 0. -1.
         23    2    1    2    0    0  0.82372799217E+01  0.68629988706E+02 -0.33191640876E+03  0.36137763406E+03  0.12508942347E+03 0.  0.
          5    1    3    3  502    0  0.10297298533E-01  0.41393848893E+02 -0.32994009770E+03  0.33255283987E+03  0.41800000000E+01 0. -1.
         -5    1    3    3    0  502  0.82269826232E+01  0.27236139813E+02 -0.19763110601E+01  0.28824794196E+02  0.41800000000E+01 0. -1.
        -11    1    1    2    0    0 -0.39216690664E+02 -0.69678071292E+02 -0.27310216618E+03  0.28456594248E+03  0.00000000000E+00 0.  1.
         11    1    1    2    0    0  0.30979410743E+02  0.10480825863E+01 -0.97817953276E+02  0.10261176516E+03  0.00000000000E+00 0. -1.
</event>
<event>
 7    1  0.7017065E-006  0.1288314E+03  0.7561462E-02  0.1229200E+00
         -2   -1    0    0    0  501 -0.00000000000E+00  0.00000000000E+00  0.13567257186E+03  0.13567257186E+03  0.00000000000E+00 0.  1.
          2   -1    0    0  501    0  0.00000000000E+00 -0.00000000000E+00 -0.15582733377E+03  0.15582733377E+03  0.00000000000E+00 0. -1.
         23    2    1    2    0    0 -0.39414458803E+02 -0.72909287693E+02  0.38234462036E+02  0.15485158298E+03  0.12509146601E+03 0.  0.
          5    1    3    3  502    0 -0.83912735505E+02 -0.53553729186E+02  0.14540832143E+02  0.10068891344E+03  0.41800000000E+01 0. -1.
         -5    1    3    3    0  502  0.44498276702E+02 -0.19355558507E+02  0.23693629893E+02  0.54162669543E+02  0.41800000000E+01 0. -1.
        -11    1    1    2    0    0 -0.11628785364E+02 -0.76756750987E+01 -0.36089609707E+02  0.38685973764E+02  0.00000000000E+00 0. -1.
         11    1    1    2    0    0  0.51043244167E+02  0.80584962791E+02 -0.22299614245E+02  0.97962348883E+02  0.00000000000E+00 0.  1.
</event>
<event>
 6    1  0.7017065E-006  0.2141810E+03  0.7561462E-02  0.1138297E+00
         -2   -1    0    0    0  501 -0.00000000000E+00  0.00000000000E+00  0.13567249191E+03  0.13567249191E+03  0.00000000000E+00 0.  1.
          2   -1    0    0  501    0  0.00000000000E+00 -0.00000000000E+00 -0.44830713152E+03  0.44830713152E+03  0.00000000000E+00 0. -1.
          5    1    1    2  502    0 -0.14792306387E+03  0.23264165753E+02 -0.13786857490E+03  0.20358700984E+03  0.41800000000E+01 0. -1.
         -5    1    1    2    0  502 -0.62178240857E+01 -0.95028486371E+02  0.29648899158E+02  0.99827872759E+02  0.41800000000E+01 0.  1.
        -11    1    1    2    0    0  0.10567090408E+03  0.12090242588E+02 -0.75379558444E+02  0.13036330683E+03  0.00000000000E+00 0.  1.
         11    1    1    2    0    0  0.48469983867E+02  0.59674078030E+02 -0.12903540542E+03  0.15020143400E+03  0.00000000000E+00 0. -1.
</event>
<event>
 7    1  0.7017065E-006  0.7812535E+02  0.7561462E-02  0.1334457E+00
          1   -1    0    0  501    0  0.00000000000E+00  0.00000000000E+00  0.10136632944E+03  0.10136632944E+03  0.00000000000E+00 0. -1.
         -1   -1    0    0    0  501 -0.00000000000E+00 -0.00000000000E+00 -0.14510902259E+03  0.14510902259E+03  0.00000000000E+00 0.  1.
         23    2    1    2    0    0  0.40672462013E+02  0.21155380501E+02 -0.53829754949E+02  0.14368782535E+03  0.12508696713E+03 0.  0.
          5    1    3    3  502    0  0.56032875508E+02  0.19149451882E+02 -0.87877665443E+02  0.10604876769E+03  0.41800000000E+01 0. -1.
         -5    1    3    3    0  502 -0.15360413494E+02  0.20059286188E+01  0.34047910494E+02  0.37639057657E+02  0.41800000000E+01 0. -1.
        -11    1    1    2    0    0 -0.59263415182E+02 -0.13788201993E+02 -0.22233150129E+02  0.64781014640E+02  0.00000000000E+00 0.  1.
         11    1    1    2    0    0  0.18590953168E+02 -0.73671785075E+01  0.32320211929E+02  0.38006512047E+02  0.00000000000E+00 0. -1.
</event>
<event>
 7    1  0.7017065E-006  0.7478846E+02  0.7561462E-02  0.1344527E+00
         -2   -1    0    0    0  501 -0.00000000000E+00  0.00000000000E+00  0.69160155008E+02  0.69160155008E+02  0.00000000000E+00 0.  1.
          2   -1    0    0  501    0  0.00000000000E+00 -0.00000000000E+00 -0.37125350219E+03  0.37125350219E+03  0.00000000000E+00 0. -1.
         23    2    1    2    0    0  0.45158522517E+02  0.29127190396E+02 -0.18655995577E+02  0.13832592592E+03  0.12608858091E+03 0.  0.
          5    1    3    3  502    0  0.77645746017E+01 -0.38629670852E+01 -0.67627447416E+02  0.68309261287E+02  0.41800000000E+01 0. -1.
         -5    1    3    3    0  502  0.37393947915E+02  0.32990157482E+02  0.48971451840E+02  0.70016664635E+02  0.41800000000E+01 0.  1.
        -11    1    1    2    0    0 -0.38009744146E+02 -0.52868650754E+02 -0.25978573287E+03  0.26782169793E+03  0.00000000000E+00 0. -1.
         11    1    1    2    0    0 -0.71487783710E+01  0.23741460357E+02 -0.23651618738E+02  0.34266033343E+02  0.00000000000E+00 0.  1.
</event>
<event>
 7    1  0.7017065E-006  0.1333572E+03  0.7561462E-02  0.1222558E+00
         -1   -1    0    0    0  501 -0.00000000000E+00  0.00000000000E+00  0.12121136176E+04  0.12121136176E+04  0.00000000000E+00 0.  1.
          1   -1    0    0  501    0  0.00000000000E+00 -0.00000000000E+00 -0.17775574367E+02  0.17775574367E+02  0.00000000000E+00 0. -1.
         23    2    1    2    0    0  0.10840190843E+03  0.59522879377E+01  0.90143302110E+03  0.91652313854E+03  0.12508704358E+03 0.  0.
          5    1    3    3  502    0  0.42053685893E+01  0.44304146873E+02  0.42312817402E+03  0.42548262785E+03  0.41800000000E+01 0.  1.
         -5    1    3    3    0  502  0.10419653984E+03 -0.38351858936E+02  0.47830484708E+03  0.49104051069E+03  0.41800000000E+01 0.  1.
        -11    1    1    2    0    0 -0.14931876509E+02 -0.89119666051E+01  0.57285158932E+02  0.59866297019E+02  0.00000000000E+00 0.  1.
         11    1    1    2    0    0 -0.93470031919E+02  0.29596786674E+01  0.23561986325E+03  0.25349975645E+03  0.00000000000E+00 0. -1.
</event>
<event>
 7    1  0.7017065E-006  0.1128027E+03  0.7561462E-02  0.1255466E+00
          1   -1    0    0  501    0  0.00000000000E+00  0.00000000000E+00  0.59823077985E+03  0.59823077985E+03  0.00000000000E+00 0. -1.
         -1   -1    0    0    0  501 -0.00000000000E+00 -0.00000000000E+00 -0.42201018040E+02  0.42201018040E+02  0.00000000000E+00 0.  1.
         23    2    1    2    0    0 -0.11025045079E+03 -0.32872596456E+01  0.22739861202E+03  0.28200147030E+03  0.12509489410E+03 0.  0.
          5    1    3    3  502    0 -0.67683676519E+02  0.13871456485E+02  0.23710922959E+02  0.73165412865E+02  0.41800000000E+01 0. -1.
         -5    1    3    3    0  502 -0.42566774272E+02 -0.17158716131E+02  0.20368768906E+03  0.20883605744E+03  0.41800000000E+01 0. -1.
        -11    1    1    2    0    0  0.11067998670E+02  0.62038659534E+00 -0.36353862482E+01  0.11666255066E+02  0.00000000000E+00 0.  1.
         11    1    1    2    0    0  0.99182452121E+02  0.26668730503E+01  0.33226653604E+03  0.34676407252E+03  0.00000000000E+00 0. -1.
</event>
<event>
 7    1  0.7017065E-006  0.1055144E+03  0.7561462E-02  0.1269109E+00
         -2   -1    0    0    0  501 -0.00000000000E+00  0.00000000000E+00  0.34362041298E+02  0.34362041298E+02  0.00000000000E+00 0. -1.
          2   -1    0    0  501    0  0.00000000000E+00 -0.00000000000E+00 -0.41464301268E+03  0.41464301268E+03  0.00000000000E+00 0.  1.
         23    2    1    2    0    0  0.14797982997E+02  0.32671620859E+02 -0.15863000732E+03  0.20517665822E+03  0.12509023442E+03 0.  0.
          5    1    3    3  502    0  0.51788806624E+02 -0.14785252879E+02 -0.12487445297E+03  0.13605802291E+03  0.41800000000E+01 0.  1.
         -5    1    3    3    0  502 -0.36990823627E+02  0.47456873738E+02 -0.33755554349E+02  0.69118635309E+02  0.41800000000E+01 0.  1.
        -11    1    1    2    0    0 -0.50043131133E+02 -0.35468026335E+02 -0.10160240516E+03  0.11868169446E+03  0.00000000000E+00 0. -1.
         11    1    1    2    0    0  0.35245148136E+02  0.27964054759E+01 -0.12004855890E+03  0.12514670130E+03  0.00000000000E+00 0.  1.
</event>
<event>
 7    1  0.7017065E-006  0.1003801E+03  0.7561462E-02  0.1279499E+00
         -2   -1    0    0    0  501 -0.00000000000E+00  0.00000000000E+00  0.73823730851E+02  0.73823730851E+02  0.00000000000E+00 0.  1.
          2   -1    0    0  501    0  0.00000000000E+00 -0.00000000000E+00 -0.23379897765E+03  0.23379897765E+03  0.00000000000E+00 0. -1.
         23    2    1    2    0    0 -0.61352495690E+02 -0.63584485141E+01 -0.57126402970E+02  0.15071520687E+03  0.12508832507E+03 0.  0.
          5    1    3    3  502    0 -0.53602411491E+02 -0.30515501758E+02  0.23462551658E+02  0.66123960071E+02  0.41800000000E+01 0. -1.
         -5    1    3    3    0  502 -0.77500841989E+01  0.24157053244E+02 -0.80588954628E+02  0.84591246797E+02  0.41800000000E+01 0. -1.
        -11    1    1    2    0    0  0.62118502483E+02 -0.35375975724E+02 -0.86158454419E+02  0.11195287972E+03  0.00000000000E+00 0. -1.
         11    1    1    2    0    0 -0.76600679394E+00  0.41734424238E+02 -0.16690389409E+02  0.44954621915E+02  0.00000000000E+00 0.  1.
</event>
<event>
 7    1  0.7017065E-006  0.7094924E+02  0.7561462E-02  0.1356895E+00
          2   -1    0    0  501    0  0.00000000000E+00  0.00000000000E+00  0.99112967414E+02  0.99112967414E+02  0.00000000000E+00 0. -1.
         -2   -1    0    0    0  501 -0.00000000000E+00 -0.00000000000E+00 -0.13356910085E+03  0.13356910085E+03  0.00000000000E+00 0.  1.
         23    2    1    2    0    0 -0.30206835599E+02  0.99864869722E+01 -0.37883728527E+02  0.13452071892E+03  0.12509382116E+03 0.  0.
          5    1    3    3  502    0 -0.26616637155E+02 -0.14402673753E+02  0.41363379147E+02  0.51422601248E+02  0.41800000000E+01 0. -1.
         -5    1    3    3    0  502 -0.35901984437E+01  0.24389160725E+02 -0.79247107674E+02  0.83098117671E+02  0.41800000000E+01 0. -1.
        -11    1    1    2    0    0 -0.99547168237E+01  0.28823602580E+02  0.23830919229E+02  0.38701539556E+02  0.00000000000E+00 0.  1.
         11    1    1    2    0    0  0.40161552423E+02 -0.38810089552E+02 -0.20403324135E+02  0.59459809786E+02  0.00000000000E+00 0. -1.
</event>
<event>
 7    1  0.7017065E-006  0.1122704E+03  0.7561462E-02  0.1256422E+00
          1   -1    0    0  501    0  0.00000000000E+00  0.00000000000E+00  0.54283317273E+02  0.54283317273E+02  0.00000000000E+00 0. -1.
         -1   -1    0    0    0  501 -0.00000000000E+00 -0.00000000000E+00 -0.37738053385E+03  0.37738053385E+03  0.00000000000E+00 0.  1.
         23    2    1    2    0    0  0.81371651349E+02 -0.35076906410E+02 -0.21027242022E+03  0.26021775562E+03  0.12508818739E+03 0.  0.
          5    1    3    3  502    0  0.49773562441E+02 -0.40012332443E+02 -0.19739157328E+02  0.66973882951E+02  0.41800000000E+01 0.  1.
         -5    1    3    3    0  502  0.31598088908E+02  0.49354260332E+01 -0.19053326290E+03  0.19324387267E+03  0.41800000000E+01 0.  1.
        -11    1    1    2    0    0 -0.50689141265E+02  0.66997966101E+02 -0.64593563173E+02  0.10597379349E+03  0.00000000000E+00 0. -1.
         11    1    1    2    0    0 -0.30682510084E+02 -0.31921059691E+02 -0.48231233179E+02  0.65472302013E+02  0.00000000000E+00 0.  1.
</event>
<event>
 7    1  0.7017065E-006  0.1041625E+03  0.7561462E-02  0.1271778E+00
          2   -1    0    0  501    0  0.00000000000E+00  0.00000000000E+00  0.30373641645E+03  0.30373641645E+03  0.00000000000E+00 0. -1.
         -2   -1    0    0    0  501 -0.00000000000E+00 -0.00000000000E+00 -0.50787780267E+02  0.50787780267E+02  0.00000000000E+00 0.  1.
         23    2    1    2    0    0  0.35378265994E+02 -0.33873443325E+02  0.89065214030E+02  0.16118303914E+03  0.12509327676E+03 0.  0.
          5    1    3    3  502    0  0.63511938218E+02 -0.22481826866E+01  0.13546707663E+01  0.63703439110E+02  0.41800000000E+01 0. -1.
         -5    1    3    3    0  502 -0.28133672223E+02 -0.31625260639E+02  0.87710543263E+02  0.97479600034E+02  0.41800000000E+01 0. -1.
        -11    1    1    2    0    0 -0.36101194662E+02  0.63190615987E+02  0.10802808417E+03  0.13025520018E+03  0.00000000000E+00 0.  1.
         11    1    1    2    0    0  0.72292866776E+00 -0.29317172661E+02  0.55855337977E+02  0.63085957385E+02  0.00000000000E+00 0. -1.
</event>
<event>
 7    1  0.7017065E-006  0.9599072E+02  0.7561462E-02  0.1288960E+00
         -2   -1    0    0    0  501 -0.00000000000E+00  0.00000000000E+00  0.19343364856E+02  0.19343364856E+02  0.00000000000E+00 0.  1.
          2   -1    0    0  501    0  0.00000000000E+00 -0.00000000000E+00 -0.90483042729E+03  0.90483042729E+03  0.00000000000E+00 0. -1.
         23    2    1    2    0    0 -0.33110810901E+02  0.60662164513E+02 -0.38581344476E+03  0.41143132482E+03  0.12508995516E+03 0.  0.
          5    1    3    3  502    0 -0.20115499379E+01  0.41212618013E+02 -0.36819784604E+03  0.37052618321E+03  0.41800000000E+01 0.  1.
         -5    1    3    3    0  502 -0.31099260963E+02  0.19449546499E+02 -0.17615598716E+02  0.40905141603E+02  0.41800000000E+01 0.  1.
        -11    1    1    2    0    0  0.50836778295E+02 -0.46589384005E+00 -0.18412191321E+03  0.19101171170E+03  0.00000000000E+00 0.  1.
         11    1    1    2    0    0 -0.17725967395E+02 -0.60196270673E+02 -0.31555170447E+03  0.32173075563E+03  0.00000000000E+00 0. -1.
</event>
<event>
 7    1  0.7017065E-006  0.1709681E+03  0.7561462E-02  0.1176842E+00
          1   -1    0    0  501    0  0.00000000000E+00  0.00000000000E+00  0.89081229480E+02  0.89081229480E+02  0.00000000000E+00 0. -1.
         -1   -1    0    0    0  501 -0.00000000000E+00 -0.00000000000E+00 -0.37234968848E+03  0.37234968848E+03  0.00000000000E+00 0.  1.
         23    2    1    2    0    0 -0.39033301646E+02  0.14079476479E+03 -0.13760594061E+03  0.23649147783E+03  0.12508421070E+03 0.  0.
          5    1    3    3  502    0  0.36287034757E+02  0.39432188351E+02 -0.82908894108E+02  0.98807912091E+02  0.41800000000E+01 0. -1.
         -5    1    3    3    0  502 -0.75320336404E+02  0.10136257644E+03 -0.54697046500E+02  0.13768356574E+03  0.41800000000E+01 0. -1.
        -11    1    1    2    0    0  0.55115838728E+02 -0.69265968336E+02 -0.11584591398E+03  0.14579370986E+03  0.00000000000E+00 0. -1.
         11    1    1    2    0    0 -0.16082537082E+02 -0.71528796458E+02 -0.29816604415E+02  0.79145730274E+02  0.00000000000E+00 0.  1.
</event>
<event>
 7    1  0.7017065E-006  0.1424488E+03  0.7561462E-02  0.1210071E+00
         -2   -1    0    0    0  501 -0.00000000000E+00  0.00000000000E+00  0.25219681798E+02  0.25219681798E+02  0.00000000000E+00 0.  1.
          2   -1    0    0  501    0  0.00000000000E+00 -0.00000000000E+00 -0.85906705426E+03  0.85906705426E+03  0.00000000000E+00 0. -1.
         23    2    1    2    0    0 -0.94899201971E+02  0.36112522344E+02 -0.45202091932E+03  0.47987590885E+03  0.12509198047E+03 0.  0.
          5    1    3    3  502    0 -0.89783242543E+02 -0.25912847814E+02 -0.32762747970E+03  0.34071945084E+03  0.41800000000E+01 0. -1.
         -5    1    3    3    0  502 -0.51159594287E+01  0.62025370158E+02 -0.12439343962E+03  0.13915645801E+03  0.41800000000E+01 0. -1.
        -11    1    1    2    0    0  0.16909743878E+02 -0.47263616140E+02 -0.10165400344E+03  0.11337250665E+03  0.00000000000E+00 0.  1.
         11    1    1    2    0    0  0.77989458093E+02  0.11151093796E+02 -0.28017244970E+03  0.29103832056E+03  0.00000000000E+00 0. -1.
</event>
<event>
 7    1  0.7017065E-006  0.1609825E+03  0.7561462E-02  0.1187592E+00
         -2   -1    0    0    0  501 -0.00000000000E+00  0.00000000000E+00  0.34367016461E+02  0.34367016461E+02  0.00000000000E+00 0. -1.
          2   -1    0    0  501    0  0.00000000000E+00 -0.00000000000E+00 -0.97944828590E+03  0.97944828590E+03  0.00000000000E+00 0.  1.
         23    2    1    2    0    0 -0.20402568766E+02  0.12962936179E+03 -0.31238103041E+03  0.36117804641E+03  0.12509051444E+03 0.  0.
          5    1    3    3  502    0 -0.42208216257E+02  0.13283286832E+01 -0.35951569657E+02  0.55617315088E+02  0.41800000000E+01 0. -1.
         -5    1    3    3    0  502  0.21805647492E+02  0.12830103310E+03 -0.27642946075E+03  0.30556073132E+03  0.41800000000E+01 0. -1.
        -11    1    1    2    0    0  0.46311636256E+02 -0.66072432093E+02 -0.45584354775E+03  0.46292944815E+03  0.00000000000E+00 0.  1.
         11    1    1    2    0    0 -0.25909067490E+02 -0.63556929692E+02 -0.17685669127E+03  0.18970780780E+03  0.00000000000E+00 0. -1.
</event>
<event>
 7    1  0.7017065E-006  0.1116371E+03  0.7561462E-02  0.1257568E+00
         -1   -1    0    0    0  501 -0.00000000000E+00  0.00000000000E+00  0.24090484350E+03  0.24090484350E+03  0.00000000000E+00 0.  1.
          1   -1    0    0  501    0  0.00000000000E+00 -0.00000000000E+00 -0.70949667178E+02  0.70949667178E+02  0.00000000000E+00 0. -1.
         23    2    1    2    0    0 -0.39090485876E+02 -0.62451106956E+02  0.13006314163E+03  0.18902708580E+03  0.11570052510E+03 0.  0.
          5    1    3    3  502    0 -0.38321504117E+02  0.20953556601E+02  0.14027793060E+02  0.46063440929E+02  0.41800000000E+01 0. -1.
         -5    1    3    3    0  502 -0.76898175873E+00 -0.83404663557E+02  0.11603534857E+03  0.14296364487E+03  0.41800000000E+01 0.  1.
        -11    1    1    2    0    0  0.53584651618E+02  0.32653626207E+02 -0.93825522319E+01  0.63447667253E+02  0.00000000000E+00 0. -1.
         11    1    1    2    0    0 -0.14494165742E+02  0.29797480749E+02  0.49274586919E+02  0.59379757624E+02  0.00000000000E+00 0.  1.
</event>
<event>
 7    1  0.7017065E-006  0.1697923E+03  0.7561462E-02  0.1178065E+00
          1   -1    0    0  501    0  0.00000000000E+00  0.00000000000E+00  0.97587640754E+02  0.97587640754E+02  0.00000000000E+00 0. -1.
         -1   -1    0    0    0  501 -0.00000000000E+00 -0.00000000000E+00 -0.47436346403E+03  0.47436346403E+03  0.00000000000E+00 0.  1.
         23    2    1    2    0    0 -0.10476440772E+03  0.12467521058E+03 -0.33339419893E+03  0.39155992195E+03  0.12509193156E+03 0.  0.
          5    1    3    3  502    0 -0.55887419951E+02  0.45034576468E+02 -0.37204110515E+02  0.80951436217E+02  0.41800000000E+01 0. -1.
         -5    1    3    3    0  502 -0.48876987767E+02  0.79640634110E+02 -0.29619008841E+03  0.31060848573E+03  0.41800000000E+01 0. -1.
        -11    1    1    2    0    0  0.45822538151E+02 -0.12600443317E+02 -0.20291770692E+02  0.51674288889E+02  0.00000000000E+00 0.  1.
         11    1    1    2    0    0  0.58941869567E+02 -0.11207476726E+03 -0.23089853653E+02  0.12871689394E+03  0.00000000000E+00 0. -1.
</event>
<event>
 7    1  0.7017065E-006  0.1055405E+03  0.7561462E-02  0.1269058E+00
          1   -1    0    0  501    0  0.00000000000E+00  0.00000000000E+00  0.10319451859E+03  0.10319451859E+03  0.00000000000E+00 0. -1.
         -1   -1    0    0    0  501 -0.00000000000E+00 -0.00000000000E+00 -0.19500970890E+03  0.19500970890E+03  0.00000000000E+00 0.  1.
         23    2    1    2    0    0  0.78296629350E+02  0.39951728660E+02 -0.73712049101E+02  0.16972593482E+03  0.12508766517E+03 0.  0.
          5    1    3    3  502    0  0.35282401461E+01 -0.18102567661E+02  0.26015531075E+02  0.32162582166E+02  0.41800000000E+01 0.  1.
         -5    1    3    3    0  502  0.74768389203E+02  0.58054296321E+02 -0.99727580176E+02  0.13756335265E+03  0.41800000000E+01 0.  1.
        -11    1    1    2    0    0  0.97971983948E+00 -0.13951993283E+02 -0.39872156274E+02  0.42254074519E+02  0.00000000000E+00 0.  1.
         11    1    1    2    0    0 -0.79276349189E+02 -0.25999735377E+02  0.21769015064E+02  0.86224218160E+02  0.00000000000E+00 0. -1.
</event>
<event>
 7    1  0.7017065E-006  0.1237759E+03  0.7561462E-02  0.1236995E+00
         -1   -1    0    0    0  501 -0.00000000000E+00  0.00000000000E+00  0.65049883697E+02  0.65049883697E+02  0.00000000000E+00 0.  1.
          1   -1    0    0  501    0  0.00000000000E+00 -0.00000000000E+00 -0.52548337065E+03  0.52548337065E+03  0.00000000000E+00 0. -1.
         23    2    1    2    0    0  0.24893351176E+02  0.11633035417E+03 -0.98481164173E+02  0.19873911657E+03  0.12508503717E+03 0.  0.
          5    1    3    3  502    0  0.15969881996E+02  0.10763679327E+03 -0.10073574409E+02  0.10936025648E+03  0.41800000000E+01 0. -1.
         -5    1    3    3    0  502  0.89234691806E+01  0.86935609007E+01 -0.88407589765E+02  0.89378860092E+02  0.41800000000E+01 0. -1.
        -11    1    1    2    0    0 -0.34431348140E+02 -0.67630040174E+02 -0.31306891258E+03  0.32213581622E+03  0.00000000000E+00 0. -1.
         11    1    1    2    0    0  0.95379969637E+01 -0.48700313993E+02 -0.48883410200E+02  0.69658321555E+02  0.00000000000E+00 0.  1.
</event>
<event>
 7    1  0.7017065E-006  0.1194441E+03  0.7561462E-02  0.1244017E+00
         -2   -1    0    0    0  501 -0.00000000000E+00  0.00000000000E+00  0.51541100618E+02  0.51541100618E+02  0.00000000000E+00 0.  1.
          2   -1    0    0  501    0  0.00000000000E+00 -0.00000000000E+00 -0.37538598514E+03  0.37538598514E+03  0.00000000000E+00 0. -1.
         23    2    1    2    0    0  0.80316367204E+02  0.48981087537E+01 -0.12965619869E+03  0.19728725829E+03  0.12504727952E+03 0.  0.
          5    1    3    3  502    0  0.58110770722E+02 -0.53454147775E+02 -0.41833556922E+02  0.89452369857E+02  0.41800000000E+01 0. -1.
         -5    1    3    3    0  502  0.22205596482E+02  0.58352256529E+02 -0.87822641764E+02  0.10783488843E+03  0.41800000000E+01 0. -1.
        -11    1    1    2    0    0 -0.25737179890E+02  0.24258283226E+02 -0.12189854883E+02  0.37409347706E+02  0.00000000000E+00 0.  1.
         11    1    1    2    0    0 -0.54579187314E+02 -0.29156391980E+02 -0.18199883095E+03  0.19223047976E+03  0.00000000000E+00 0. -1.
</event>
<event>
 7    1  0.7017065E-006  0.1197513E+03  0.7561462E-02  0.1243508E+00
         -2   -1    0    0    0  501 -0.00000000000E+00  0.00000000000E+00  0.45095920933E+02  0.45095920933E+02  0.00000000000E+00 0.  1.
          2   -1    0    0  501    0  0.00000000000E+00 -0.00000000000E+00 -0.42196465370E+03  0.42196465370E+03  0.00000000000E+00 0. -1.
         23    2    1    2    0    0 -0.23836740162E+02  0.78721470594E+02 -0.18063911749E+03  0.23461645155E+03  0.12509647658E+03 0.  0.
          5    1    3    3  502    0 -0.70401398268E+01 -0.23377403594E+02 -0.10096108999E+03  0.10395518582E+03  0.41800000000E+01 0. -1.
         -5    1    3    3    0  502 -0.16796600335E+02  0.10209887419E+03 -0.79678027501E+02  0.13066126572E+03  0.41800000000E+01 0. -1.
        -11    1    1    2    0    0  0.14472350002E+02  0.12713821324E+02 -0.44419086753E+01  0.19769186122E+02  0.00000000000E+00 0.  1.
         11    1    1    2    0    0  0.93643901598E+01 -0.91435291918E+02 -0.19178770660E+03  0.21267493697E+03  0.00000000000E+00 0. -1.
</event>
<event>
 7    1  0.7017065E-006  0.9321527E+02  0.7561462E-02  0.1295247E+00
         -1   -1    0    0    0  501 -0.00000000000E+00  0.00000000000E+00  0.19287076885E+03  0.19287076885E+03  0.00000000000E+00 0.  1.
          1   -1    0    0  501    0  0.00000000000E+00 -0.00000000000E+00 -0.71400495795E+02  0.71400495795E+02  0.00000000000E+00 0. -1.
         23    2    1    2    0    0  0.28391616081E+02  0.36585621464E+02  0.80406420377E+02  0.15574557391E+03  0.12508756850E+03 0.  0.
          5    1    3    3  502    0 -0.29598614557E+02 -0.67277834671E+01 -0.16436764727E+02  0.34770399606E+02  0.41800000000E+01 0.  1.
         -5    1    3    3    0  502  0.57990230639E+02  0.43313404931E+02  0.96843185104E+02  0.12097517430E+03  0.41800000000E+01 0.  1.
        -11    1    1    2    0    0 -0.38899185827E+02  0.60600621985E+01  0.50067078366E+02  0.63691312971E+02  0.00000000000E+00 0.  1.
         11    1    1    2    0    0  0.10507569746E+02 -0.42645683663E+02 -0.90032256863E+01  0.44834377767E+02  0.00000000000E+00 0. -1.
</event>
<event>
 7    1  0.7017065E-006  0.4735009E+02  0.7561462E-02  0.1460182E+00
          2   -1    0    0  501    0  0.00000000000E+00  0.00000000000E+00  0.14935246024E+03  0.14935246024E+03  0.00000000000E+00 0. -1.
         -2   -1    0    0    0  501 -0.00000000000E+00 -0.00000000000E+00 -0.85308369938E+02  0.85308369938E+02  0.00000000000E+00 0.  1.
         23    2    1    2    0    0  0.55206169743E+01  0.11817762042E+01  0.23820169640E+01  0.12524116277E+03  0.12509117091E+03 0.  0.
          5    1    3    3  502    0 -0.15121068503E+02 -0.44140535284E+01  0.60770983529E+02  0.62918323407E+02  0.41800000000E+01 0. -1.
         -5    1    3    3    0  502  0.20641685478E+02  0.55958297326E+01 -0.58388966565E+02  0.62322839364E+02  0.41800000000E+01 0. -1.
        -11    1    1    2    0    0  0.36514559830E+01  0.26860357585E+02  0.72954954045E+02  0.77828254895E+02  0.00000000000E+00 0. -1.
         11    1    1    2    0    0 -0.91720729572E+01 -0.28042133789E+02 -0.11292880707E+02  0.31591412511E+02  0.00000000000E+00 0.  1.
</event>
<event>
 6    1  0.7017065E-006  0.1214922E+03  0.7561462E-02  0.1240655E+00
          1   -1    0    0  501    0  0.00000000000E+00  0.00000000000E+00  0.58823379181E+02  0.58823379181E+02  0.00000000000E+00 0. -1.
         -1   -1    0    0    0  501 -0.00000000000E+00 -0.00000000000E+00 -0.34251299746E+03  0.34251299746E+03  0.00000000000E+00 0.  1.
          5    1    1    2  502    0  0.79555122788E+02  0.27123946641E+02 -0.16960777920E+03  0.18933831416E+03  0.41800000000E+01 0. -1.
         -5    1    1    2    0  502 -0.58039727184E+02 -0.55481712477E+02 -0.56633254611E+02  0.98344436950E+02  0.41800000000E+01 0.  1.
        -11    1    1    2    0    0 -0.47166526521E+02  0.21746581470E+02 -0.67632058208E+02  0.85274206693E+02  0.00000000000E+00 0.  1.
         11    1    1    2    0    0  0.25651130918E+02  0.66111843665E+01  0.10183473743E+02  0.28379418837E+02  0.00000000000E+00 0. -1.
</event>
<event>
 7    1  0.7017065E-006  0.8275372E+02  0.7561462E-02  0.1321414E+00
         -1   -1    0    0    0  501 -0.00000000000E+00  0.00000000000E+00  0.49841629739E+03  0.49841629739E+03  0.00000000000E+00 0. -1.
          1   -1    0    0  501    0  0.00000000000E+00 -0.00000000000E+00 -0.26533698289E+02  0.26533698289E+02  0.00000000000E+00 0.  1.
         23    2    1    2    0    0  0.25689123821E+02 -0.66798359927E+01  0.32911239729E+03  0.35308387819E+03  0.12509477885E+03 0.  0.
          5    1    3    3  502    0  0.37733592870E+02 -0.28557445082E+02  0.37898111230E+02  0.60770806604E+02  0.41800000000E+01 0.  1.
         -5    1    3    3    0  502 -0.12044469049E+02  0.21877609089E+02  0.29121428606E+03  0.29231307159E+03  0.41800000000E+01 0.  1.
        -11    1    1    2    0    0 -0.58392154138E+02  0.11817290310E+02  0.70000297862E+02  0.91920257375E+02  0.00000000000E+00 0.  1.
         11    1    1    2    0    0  0.32703030317E+02 -0.51374543176E+01  0.72769903946E+02  0.79945860112E+02  0.00000000000E+00 0. -1.
</event>
<event>
 7    1  0.7017065E-006  0.1862257E+03  0.7561462E-02  0.1161910E+00
          3   -1    0    0  501    0  0.00000000000E+00  0.00000000000E+00  0.13240584823E+03  0.13240584823E+03  0.00000000000E+00 0. -1.
         -3   -1    0    0    0  501 -0.00000000000E+00 -0.00000000000E+00 -0.30886612318E+03  0.30886612318E+03  0.00000000000E+00 0.  1.
         23    2    1    2    0    0 -0.78093394144E+02 -0.14583767428E+03 -0.13570847466E+03  0.24785296869E+03  0.12508836295E+03 0.  0.
          5    1    3    3  502    0  0.32628737874E+02 -0.16982679440E+02 -0.18293914996E+02  0.41293893763E+02  0.41800000000E+01 0. -1.
         -5    1    3    3    0  502 -0.11072213202E+03 -0.12885499484E+03 -0.11741455966E+03  0.20655907492E+03  0.41800000000E+01 0. -1.
        -11    1    1    2    0    0  0.25361741833E+02  0.51779833227E+02  0.29456545827E+02  0.64746097719E+02  0.00000000000E+00 0. -1.
         11    1    1    2    0    0  0.52731652311E+02  0.94057841048E+02 -0.70208346123E+02  0.12867290501E+03  0.00000000000E+00 0.  1.
</event>
<event>
 7    1  0.7017065E-006  0.1225131E+03  0.7561462E-02  0.1239008E+00
         -2   -1    0    0    0  501 -0.00000000000E+00  0.00000000000E+00  0.63430319365E+02  0.63430319365E+02  0.00000000000E+00 0.  1.
          2   -1    0    0  501    0  0.00000000000E+00 -0.00000000000E+00 -0.28618624649E+03  0.28618624649E+03  0.00000000000E+00 0. -1.
         23    2    1    2    0    0  0.42801598818E+01  0.63057583152E+02 -0.61807938057E+02  0.15317804937E+03  0.12509482419E+03 0.  0.
          5    1    3    3  502    0 -0.52124708287E+02  0.55421700532E+02 -0.11426294570E+02  0.77049222653E+02  0.41800000000E+01 0. -1.
         -5    1    3    3    0  502  0.56404868169E+02  0.76358826201E+01 -0.50381643487E+02  0.76128826715E+02  0.41800000000E+01 0. -1.
        -11    1    1    2    0    0  0.23634747803E+02  0.15582098090E+02 -0.30776583238E+02  0.41816278653E+02  0.00000000000E+00 0. -1.
         11    1    1    2    0    0 -0.27914907685E+02 -0.78639681242E+02 -0.13017140583E+03  0.15462223783E+03  0.00000000000E+00 0.  1.
</event>
<event>
 7    1  0.7017065E-006  0.1018377E+03  0.7561462E-02  0.1276478E+00
          1   -1    0    0  501    0  0.00000000000E+00  0.00000000000E+00  0.61891880390E+02  0.61891880390E+02  0.00000000000E+00 0. -1.
         -1   -1    0    0    0  501 -0.00000000000E+00 -0.00000000000E+00 -0.24061113603E+03  0.24061113603E+03  0.00000000000E+00 0.  1.
         23    2    1    2    0    0 -0.20931614850E+02 -0.24394647113E+02 -0.16284185810E+03  0.20784161871E+03  0.12508971344E+03 0.  0.
          5    1    3    3  502    0 -0.73402411019E+02 -0.77170978852E+01 -0.91783364848E+02  0.11785213620E+03  0.41800000000E+01 0.  1.
         -5    1    3    3    0  502  0.52470796170E+02 -0.16677549228E+02 -0.71058493255E+02  0.89989482511E+02  0.41800000000E+01 0.  1.
        -11    1    1    2    0    0 -0.24733483664E+02  0.96219849352E+01  0.21236835483E+02  0.33990160188E+02  0.00000000000E+00 0. -1.
         11    1    1    2    0    0  0.45665098514E+02  0.14772662178E+02 -0.37114233020E+02  0.60671237525E+02  0.00000000000E+00 0.  1.
</event>
<event>
 7    1  0.7017065E-006  0.1106574E+03  0.7561462E-02  0.1259357E+00
         -1   -1    0    0    0  501 -0.00000000000E+00  0.00000000000E+00  0.33638721448E+02  0.33638721448E+02  0.00000000000E+00 0.  1.
          1   -1    0    0  501    0  0.00000000000E+00 -0.00000000000E+00 -0.39648639875E+03  0.39648639875E+03  0.00000000000E+00 0. -1.
         23    2    1    2    0    0 -0.33049367998E+02 -0.18479075562E+02 -0.19487834723E+03  0.23464514416E+03  0.12508811495E+03 0.  0.
          5    1    3    3  502    0 -0.78179202405E+02 -0.30082411186E+02 -0.12239399759E+03  0.14837352256E+03  0.41800000000E+01 0. -1.
         -5    1    3    3    0  502  0.45129834407E+02  0.11603335624E+02 -0.72484349641E+02  0.86271621603E+02  0.41800000000E+01 0. -1.
        -11    1    1    2    0    0  0.34354712032E+02 -0.27902782588E+02 -0.12358029663E+03  0.13126652746E+03  0.00000000000E+00 0. -1.
         11    1    1    2    0    0 -0.13053440336E+01  0.46381858150E+02 -0.44389033443E+02  0.64213448580E+02  0.00000000000E+00 0.  1.
</event>
<event>
 7    1  0.7017065E-006  0.1103634E+03  0.7561462E-02  0.1259898E+00
         -1   -1    0    0    0  501 -0.00000000000E+00  0.00000000000E+00  0.87876239078E+02  0.87876239078E+02  0.00000000000E+00 0.  1.
          1   -1    0    0  501    0  0.00000000000E+00 -0.00000000000E+00 -0.19519406718E+03  0.19519406718E+03  0.00000000000E+00 0. -1.
         23    2    1    2    0    0 -0.74462782858E+02  0.20893089000E+01 -0.59408547473E+02  0.15723855571E+03  0.12508203967E+03 0.  0.
          5    1    3    3  502    0  0.24914887411E+02  0.44479366750E+01  0.17866755176E+02  0.31260663715E+02  0.41800000000E+01 0. -1.
         -5    1    3    3    0  502 -0.99377670269E+02 -0.23586277750E+01 -0.77275302649E+02  0.12597789200E+03  0.41800000000E+01 0. -1.
        -11    1    1    2    0    0  0.17684267586E+02 -0.28042330933E+02  0.15720206803E+02  0.36691014515E+02  0.00000000000E+00 0.  1.
         11    1    1    2    0    0  0.56778515272E+02  0.25953022033E+02 -0.63629487434E+02  0.89140736032E+02  0.00000000000E+00 0. -1.
</event>
<event>
 7    1  0.7017065E-006  0.2194609E+03  0.7561462E-02  0.1134286E+00
          1   -1    0    0  501    0  0.00000000000E+00  0.00000000000E+00  0.12192548617E+04  0.12192548617E+04  0.00000000000E+00 0. -1.
         -1   -1    0    0    0  501 -0.00000000000E+00 -0.00000000000E+00 -0.49014552640E+02  0.49014552640E+02  0.00000000000E+00 0.  1.
         23    2    1    2    0    0 -0.12112757411E+03 -0.16172111135E+03  0.38710221864E+03  0.45422496916E+03  0.12508632165E+03 0.  0.
          5    1    3    3  502    0 -0.11741097661E+03 -0.55112836499E+02  0.23406970161E+03  0.26763568481E+03  0.41800000000E+01 0. -1.
         -5    1    3    3    0  502 -0.37165975062E+01 -0.10660827485E+03  0.15303251703E+03  0.18658928435E+03  0.41800000000E+01 0. -1.
        -11    1    1    2    0    0  0.57850583962E+02  0.87062152645E+02  0.57007919319E+03  0.57958329427E+03  0.00000000000E+00 0. -1.
         11    1    1    2    0    0  0.63276990150E+02  0.74658958702E+02  0.21305889721E+03  0.23446115089E+03  0.00000000000E+00 0.  1.
</event>
<event>
 7    1  0.7017065E-006  0.9778779E+02  0.7561462E-02  0.1285018E+00
         -2   -1    0    0    0  501 -0.00000000000E+00  0.00000000000E+00  0.79646978663E+02  0.79646978663E+02  0.00000000000E+00 0. -1.
          2   -1    0    0  501    0  0.00000000000E+00 -0.00000000000E+00 -0.17852155056E+03  0.17852155056E+03  0.00000000000E+00 0.  1.
         23    2    1    2    0    0  0.45262524467E+02  0.16215727563E+02 -0.56249609284E+02  0.14533798053E+03  0.12508982412E+03 0.  0.
          5    1    3    3  502    0  0.50300581540E+02  0.58026353225E+02 -0.66638661798E+02  0.10176143581E+03  0.41800000000E+01 0.  1.
         -5    1    3    3    0  502 -0.50380570735E+01 -0.41810625662E+02  0.10389052514E+02  0.43576544717E+02  0.41800000000E+01 0.  1.
        -11    1    1    2    0    0  0.14062758255E+02 -0.87318940687E+01  0.20188199221E+02  0.26106905821E+02  0.00000000000E+00 0. -1.
         11    1    1    2    0    0 -0.59325282722E+02 -0.74838334946E+01 -0.62813161832E+02  0.86723642873E+02  0.00000000000E+00 0.  1.
</event>
<event>
 7    1  0.7017065E-006  0.9820426E+02  0.7561462E-02  0.1284118E+00
         -2   -1    0    0    0  501 -0.00000000000E+00  0.00000000000E+00  0.95807773259E+02  0.95807773259E+02  0.00000000000E+00 0.  1.
          2   -1    0    0  501    0  0.00000000000E+00 -0.00000000000E+00 -0.25553657354E+03  0.25553657354E+03  0.00000000000E+00 0. -1.
         23    2    1    2    0    0 -0.80368435092E+02  0.36892614064E+02 -0.89082091667E+00  0.14858245910E+03  0.11939766856E+03 0.  0.
          5    1    3    3  502    0 -0.28587643473E+02  0.62374596491E+01 -0.58265617324E+02  0.65333864300E+02  0.41800000000E+01 0. -1.
         -5    1    3    3    0  502 -0.51780791620E+02  0.30655154415E+02  0.57374796407E+02  0.83248594797E+02  0.41800000000E+01 0.  1.
        -11    1    1    2    0    0  0.75157760135E+02 -0.62146538654E+01 -0.52305544197E+02  0.91777888322E+02  0.00000000000E+00 0. -1.
         11    1    1    2    0    0  0.52106749574E+01 -0.30677960199E+02 -0.10653243517E+03  0.11098399938E+03  0.00000000000E+00 0.  1.
</event>
<event>
 6    1  0.7017065E-006  0.1216329E+03  0.7561462E-02  0.1240427E+00
          2   -1    0    0  501    0  0.00000000000E+00  0.00000000000E+00  0.10853839904E+03  0.10853839904E+03  0.00000000000E+00 0. -1.
         -2   -1    0    0    0  501 -0.00000000000E+00 -0.00000000000E+00 -0.23174871501E+03  0.23174871501E+03  0.00000000000E+00 0.  1.
          5    1    1    2  502    0 -0.16883080511E+02  0.91277613973E+02 -0.26481386188E+02  0.96619756958E+02  0.41800000000E+01 0. -1.
         -5    1    1    2    0  502  0.19819050644E+02 -0.35241054087E+02 -0.12409794129E+03  0.13058521392E+03  0.41800000000E+01 0.  1.
        -11    1    1    2    0    0 -0.48531068667E+02 -0.25501758685E+02  0.14798576812E+02  0.56785580896E+02  0.00000000000E+00 0.  1.
         11    1    1    2    0    0  0.45595098534E+02 -0.30534801201E+02  0.12570434699E+02  0.56296562269E+02  0.00000000000E+00 0. -1.
</event>
<event>
 7    1  0.8880334E-006  0.1245680E+03  0.7561462E-02  0.1235746E+00
          1   -1    0    0  501    0  0.00000000000E+00  0.00000000000E+00  0.12302120011E+04  0.12302120011E+04  0.00000000000E+00 0.  1.
         -1   -1    0    0    0  501 -0.00000000000E+00 -0.00000000000E+00 -0.13888293878E+02  0.13888293878E+02  0.00000000000E+00 0. -1.
         23    2    1    2    0    0  0.21213218820E+02 -0.69183827664E+02  0.68805132734E+03  0.70306335669E+03  0.12508817613E+03 0.  0.
          5    1    3    3  502    0  0.40804364888E+02  0.20204446643E+02  0.34400564041E+03  0.34703107771E+03  0.41800000000E+01 0.  1.
         -5    1    3    3    0  502 -0.19591146068E+02 -0.89388274307E+02  0.34404568692E+03  0.35603227898E+03  0.41800000000E+01 0.  1.
        -11    1    1    2    0    0 -0.54430983324E+02  0.39435967662E+02  0.39007521488E+03  0.39582395172E+03  0.00000000000E+00 0.  1.
         11    1    1    2    0    0  0.33217764504E+02  0.29747860002E+02  0.13819716505E+03  0.14521298662E+03  0.00000000000E+00 0. -1.
</event>
<event>
 7    1  0.7017065E-006  0.9891049E+02  0.7561462E-02  0.1282604E+00
          2   -1    0    0  501    0  0.00000000000E+00  0.00000000000E+00  0.34760008766E+02  0.34760008766E+02  0.00000000000E+00 0. -1.
         -2   -1    0    0    0  501 -0.00000000000E+00 -0.00000000000E+00 -0.52233031739E+03  0.52233031739E+03  0.00000000000E+00 0.  1.
         23    2    1    2    0    0  0.98052577195E+01  0.41014949191E+02 -0.44316189526E+03  0.46240637046E+03  0.12509523130E+03 0.  0.
          5    1    3    3  502    0  0.62302525790E+02  0.38789980475E+01 -0.28162800895E+03  0.28849343003E+03  0.41800000000E+01 0.  1.
         -5    1    3    3    0  502 -0.52497268071E+02  0.37135951144E+02 -0.16153388631E+03  0.17391294043E+03  0.41800000000E+01 0.  1.
        -11    1    1    2    0    0  0.14299953154E+02  0.78630638757E+01  0.87806483074E+01  0.18531492612E+02  0.00000000000E+00 0. -1.
         11    1    1    2    0    0 -0.24105210873E+02 -0.48878013067E+02 -0.53189061674E+02  0.76152463088E+02  0.00000000000E+00 0.  1.
</event>
<event>
 7    1  0.7017065E-006  0.8980667E+02  0.7561462E-02  0.1303321E+00
          1   -1    0    0  501    0  0.00000000000E+00  0.00000000000E+00  0.25799599398E+03  0.25799599398E+03  0.00000000000E+00 0. -1.
         -1   -1    0    0    0  501 -0.00000000000E+00 -0.00000000000E+00 -0.64567404443E+02  0.64567404443E+02  0.00000000000E+00 0.  1.
         23    2    1    2    0    0 -0.64346626995E+02 -0.10545871861E+02  0.94461631549E+02  0.16976946725E+03  0.12508784256E+03 0.  0.
          5    1    3    3  502    0 -0.23312160372E+02 -0.12484439228E+02 -0.29069360853E+02  0.39519845450E+02  0.41800000000E+01 0. -1.
         -5    1    3    3    0  502 -0.41034466623E+02  0.19385673669E+01  0.12353099240E+03  0.13024962180E+03  0.41800000000E+01 0. -1.
        -11    1    1    2    0    0 -0.23326889535E+02  0.88215401037E+00  0.49198464010E+01  0.23856379852E+02  0.00000000000E+00 0.  1.
         11    1    1    2    0    0  0.87673516529E+02  0.96637178502E+01  0.94047111588E+02  0.12893755132E+03  0.00000000000E+00 0. -1.
</event>
<event>
 7    1  0.7017065E-006  0.1052868E+03  0.7561462E-02  0.1269556E+00
          2   -1    0    0  501    0  0.00000000000E+00  0.00000000000E+00  0.24121620577E+02  0.24121620577E+02  0.00000000000E+00 0.  1.
         -2   -1    0    0    0  501 -0.00000000000E+00 -0.00000000000E+00 -0.55858206928E+03  0.55858206928E+03  0.00000000000E+00 0. -1.
         23    2    1    2    0    0 -0.49131473866E+01  0.22720798248E+02 -0.40462476027E+03  0.42415542658E+03  0.12508499344E+03 0.  0.
          5    1    3    3  502    0 -0.17085516052E+02 -0.46240910080E+02 -0.10014828304E+03  0.11170177984E+03  0.41800000000E+01 0.  1.
         -5    1    3    3    0  502  0.12172368665E+02  0.68961708328E+02 -0.30447647724E+03  0.31245364675E+03  0.41800000000E+01 0.  1.
        -11    1    1    2    0    0 -0.40732123452E+02 -0.18951853251E+01 -0.60779068696E+02  0.73190114086E+02  0.00000000000E+00 0. -1.
         11    1    1    2    0    0  0.45645270839E+02 -0.20825612923E+02 -0.69056619736E+02  0.85358149188E+02  0.00000000000E+00 0.  1.
</event>
<event>
 7    1  0.7017065E-006  0.2262744E+03  0.7561462E-02  0.1129290E+00
         -1   -1    0    0    0  501 -0.00000000000E+00  0.00000000000E+00  0.72665540007E+03  0.72665540007E+03  0.00000000000E+00 0.  1.
          1   -1    0    0  501    0  0.00000000000E+00 -0.00000000000E+00 -0.87281186464E+02  0.87281186464E+02  0.00000000000E+00 0. -1.
         23    2    1    2    0    0  0.17846323376E+03 -0.13638602477E+03  0.41087008764E+03  0.48467746758E+03  0.12509094736E+03 0.  0.
          5    1    3    3  502    0  0.57544560039E+02 -0.56452776413E+02  0.48019694013E+02  0.93923669902E+02  0.41800000000E+01 0. -1.
         -5    1    3    3    0  502  0.12091867372E+03 -0.79933248352E+02  0.36285039363E+03  0.39075379768E+03  0.41800000000E+01 0. -1.
        -11    1    1    2    0    0 -0.12940930379E+03  0.80264709693E+02  0.10488044197E+03  0.18490294383E+03  0.00000000000E+00 0. -1.
         11    1    1    2    0    0 -0.49053929964E+02  0.56121315073E+02  0.12362368399E+03  0.14435617512E+03  0.00000000000E+00 0.  1.
</event>
<event>
 7    1  0.7017065E-006  0.4623326E+03  0.7561462E-02  0.1024107E+00
         -2   -1    0    0    0  501 -0.00000000000E+00  0.00000000000E+00  0.15589549355E+03  0.15589549355E+03  0.00000000000E+00 0. -1.
          2   -1    0    0  501    0  0.00000000000E+00 -0.00000000000E+00 -0.14829758951E+04  0.14829758951E+04  0.00000000000E+00 0.  1.
         23    2    1    2    0    0 -0.34390837771E+03  0.30373754236E+03 -0.50919235376E+03  0.69674513963E+03  0.12508984595E+03 0.  0.
          5    1    3    3  502    0 -0.23258154712E+02  0.99551264748E+01 -0.86691858295E+02  0.90404629297E+02  0.41800000000E+01 0.  1.
         -5    1    3    3    0  502 -0.32065022300E+03  0.29378241589E+03 -0.42250049547E+03  0.60634051033E+03  0.41800000000E+01 0.  1.
        -11    1    1    2    0    0 -0.51385539549E+00 -0.14073621198E+02 -0.51324497745E+02  0.53221564518E+02  0.00000000000E+00 0.  1.
         11    1    1    2    0    0  0.34442223311E+03 -0.28966392117E+03 -0.76656355003E+03  0.88890468450E+03  0.00000000000E+00 0. -1.
</event>
<event>
 7    1  0.7017065E-006  0.1055365E+03  0.7561462E-02  0.1269066E+00
         -1   -1    0    0    0  501 -0.00000000000E+00  0.00000000000E+00  0.43383891525E+02  0.43383891525E+02  0.00000000000E+00 0.  1.
          1   -1    0    0  501    0  0.00000000000E+00 -0.00000000000E+00 -0.37631309544E+03  0.37631309544E+03  0.00000000000E+00 0. -1.
         23    2    1    2    0    0  0.25094176406E+00 -0.65357868443E+02 -0.10554831070E+03  0.16593134170E+03  0.11009564173E+03 0.  0.
          5    1    3    3  502    0  0.35656068574E+02 -0.19617642705E+02 -0.99550881043E+02  0.10762925926E+03  0.41800000000E+01 0. -1.
         -5    1    3    3    0  502 -0.35405126810E+02 -0.45740225737E+02 -0.59974296578E+01  0.58302082445E+02  0.41800000000E+01 0.  1.
        -11    1    1    2    0    0 -0.21945669118E+00  0.88763553049E+02 -0.18909345305E+03  0.20889076212E+03  0.00000000000E+00 0. -1.
         11    1    1    2    0    0 -0.31485072874E-01 -0.23405684606E+02 -0.38287440165E+02  0.44874883148E+02  0.00000000000E+00 0.  1.
</event>
<event>
 7    1  0.7017065E-006  0.1097701E+03  0.7561462E-02  0.1260996E+00
          1   -1    0    0  501    0  0.00000000000E+00  0.00000000000E+00  0.71136546495E+02  0.71136546495E+02  0.00000000000E+00 0. -1.
         -1   -1    0    0    0  501 -0.00000000000E+00 -0.00000000000E+00 -0.40373634064E+03  0.40373634064E+03  0.00000000000E+00 0.  1.
         23    2    1    2    0    0  0.44422036471E+02  0.69713924971E+02 -0.31645003717E+03  0.35017466408E+03  0.12509324792E+03 0.  0.
          5    1    3    3  502    0  0.31225813879E+01  0.50460313280E+02 -0.27656413267E+02  0.57778398434E+02  0.41800000000E+01 0.  1.
         -5    1    3    3    0  502  0.41299455083E+02  0.19253611691E+02 -0.28879362391E+03  0.29239626564E+03  0.41800000000E+01 0.  1.
        -11    1    1    2    0    0 -0.52890080522E+02 -0.64270052104E-01 -0.90118160394E+00  0.52897796519E+02  0.00000000000E+00 0.  1.
         11    1    1    2    0    0  0.84680440513E+01 -0.69649654919E+02 -0.15248575369E+02  0.71800426539E+02  0.00000000000E+00 0. -1.
</event>
<event>
 6    1  0.7017065E-006  0.1400875E+03  0.7561462E-02  0.1213211E+00
         -3   -1    0    0    0  501 -0.00000000000E+00  0.00000000000E+00  0.17794025970E+03  0.17794025970E+03  0.00000000000E+00 0.  1.
          3   -1    0    0  501    0  0.00000000000E+00 -0.00000000000E+00 -0.13310451993E+03  0.13310451993E+03  0.00000000000E+00 0. -1.
          5    1    1    2  502    0  0.43293522561E+02  0.39690949017E+01  0.52095116164E+02  0.67981294032E+02  0.41800000000E+01 0. -1.
         -5    1    1    2    0  502 -0.96918738461E+02  0.59420978092E+02  0.22655199250E+02  0.11599493504E+03  0.41800000000E+01 0.  1.
        -11    1    1    2    0    0  0.34439371880E+02  0.18179325181E+02 -0.16110078271E+02  0.42143716274E+02  0.00000000000E+00 0. -1.
         11    1    1    2    0    0  0.19185844020E+02 -0.81569398175E+02 -0.13804497372E+02  0.84924834278E+02  0.00000000000E+00 0.  1.
</event>
<event>
 7    1  0.7017065E-006  0.1085328E+03  0.7561462E-02  0.1263311E+00
         -2   -1    0    0    0  501 -0.00000000000E+00  0.00000000000E+00  0.41916240463E+03  0.41916240463E+03  0.00000000000E+00 0.  1.
          2   -1    0    0  501    0  0.00000000000E+00 -0.00000000000E+00 -0.44741206900E+02  0.44741206900E+02  0.00000000000E+00 0. -1.
         23    2    1    2    0    0 -0.27891392603E+02  0.10528389948E+02  0.34020488110E+03  0.36369803694E+03  0.12509246248E+03 0.  0.
          5    1    3    3  502    0  0.36728498565E+02 -0.30388747292E+02  0.17793533720E+03  0.18425774120E+03  0.41800000000E+01 0.  1.
         -5    1    3    3    0  502 -0.64619891168E+02  0.40917137240E+02  0.16226954391E+03  0.17944029574E+03  0.41800000000E+01 0.  1.
        -11    1    1    2    0    0  0.85457169199E+01  0.38746078739E+02  0.23757611846E+02  0.46246210828E+02  0.00000000000E+00 0.  1.
         11    1    1    2    0    0  0.19345675683E+02 -0.49274468687E+02  0.10458704777E+02  0.53959363762E+02  0.00000000000E+00 0. -1.
</event>
<event>
 7    1  0.7017065E-006  0.9977488E+02  0.7561462E-02  0.1280770E+00
         -1   -1    0    0    0  501 -0.00000000000E+00  0.00000000000E+00  0.41241629465E+02  0.41241629465E+02  0.00000000000E+00 0.  1.
          1   -1    0    0  501    0  0.00000000000E+00 -0.00000000000E+00 -0.37156687540E+03  0.37156687540E+03  0.00000000000E+00 0. -1.
         23    2    1    2    0    0 -0.30547198670E+02 -0.26429698654E+00 -0.99619848003E+02  0.16280306236E+03  0.12509005475E+03 0.  0.
          5    1    3    3  502    0 -0.56235603514E+02 -0.33910900983E+02 -0.14110663161E+02  0.67297663577E+02  0.41800000000E+01 0.  1.
         -5    1    3    3    0  502  0.25688404844E+02  0.33646603996E+02 -0.85509184842E+02  0.95505398780E+02  0.41800000000E+01 0.  1.
        -11    1    1    2    0    0 -0.71600332167E+01 -0.37302481445E+02 -0.58395349252E+02  0.69661739943E+02  0.00000000000E+00 0.  1.
         11    1    1    2    0    0  0.37707231887E+02  0.37566778432E+02 -0.17231004868E+03  0.18034370257E+03  0.00000000000E+00 0. -1.
</event>
<event>
 7    1  0.7017065E-006  0.1028072E+03  0.7561462E-02  0.1274501E+00
         -1   -1    0    0    0  501 -0.00000000000E+00  0.00000000000E+00  0.24993357028E+02  0.24993357028E+02  0.00000000000E+00 0.  1.
          1   -1    0    0  501    0  0.00000000000E+00 -0.00000000000E+00 -0.85545131400E+03  0.85545131400E+03  0.00000000000E+00 0. -1.
         23    2    1    2    0    0 -0.88534841078E+02 -0.34826605390E+02 -0.38953832004E+03  0.42004665211E+03  0.12509107338E+03 0.  0.
          5    1    3    3  502    0 -0.11820688545E+02 -0.30318013985E+02 -0.12300157859E+02  0.35038221031E+02  0.41800000000E+01 0. -1.
         -5    1    3    3    0  502 -0.76714152533E+02 -0.45085914051E+01 -0.37723816218E+03  0.38500843107E+03  0.41800000000E+01 0. -1.
        -11    1    1    2    0    0  0.18445131295E+02  0.23382604974E+01 -0.73388700419E+01  0.19988730429E+02  0.00000000000E+00 0.  1.
         11    1    1    2    0    0  0.70089709783E+02  0.32488344892E+02 -0.43358076690E+03  0.44040928850E+03  0.00000000000E+00 0. -1.
</event>
<event>
 7    1  0.7017065E-006  0.1518668E+03  0.7561462E-02  0.1198198E+00
          4   -1    0    0  501    0  0.00000000000E+00  0.00000000000E+00  0.34635552709E+03  0.34635552709E+03  0.00000000000E+00 0.  1.
         -4   -1    0    0    0  501 -0.00000000000E+00 -0.00000000000E+00 -0.99623815944E+02  0.99623815944E+02  0.00000000000E+00 0. -1.
         23    2    1    2    0    0 -0.10368230375E+03  0.41387963854E+02  0.88386569006E+01  0.16781533510E+03  0.12498352361E+03 0.  0.
          5    1    3    3  502    0 -0.87113643316E+02  0.84335719516E+02  0.80205004620E+01  0.12158577740E+03  0.41800000000E+01 0. -1.
         -5    1    3    3    0  502 -0.16568660435E+02 -0.42947755663E+02  0.81815643859E+00  0.46229557699E+02  0.41800000000E+01 0. -1.
        -11    1    1    2    0    0  0.44392949114E+02 -0.59463571854E+02  0.83035198431E+02  0.11136199750E+03  0.00000000000E+00 0. -1.
         11    1    1    2    0    0  0.59289354637E+02  0.18075608000E+02  0.15485785581E+03  0.16680201043E+03  0.00000000000E+00 0.  1.
</event>
<event>
 7    1  0.7017065E-006  0.1529507E+03  0.7561462E-02  0.1196893E+00
          2   -1    0    0  501    0  0.00000000000E+00  0.00000000000E+00  0.34552658874E+03  0.34552658874E+03  0.00000000000E+00 0. -1.
         -2   -1    0    0    0  501 -0.00000000000E+00 -0.00000000000E+00 -0.79521055239E+02  0.79521055239E+02  0.00000000000E+00 0.  1.
         23    2    1    2    0    0 -0.78778738661E+02 -0.97423076848E+02  0.14869187880E+03  0.23116691858E+03  0.12502609271E+03 0.  0.
          5    1    3    3  502    0  0.26232803702E+02 -0.59614536580E+02  0.57389111890E+02  0.86908201714E+02  0.41800000000E+01 0.  1.
         -5    1    3    3    0  502 -0.10501154236E+03 -0.37808540268E+02  0.91302766910E+02  0.14425871687E+03  0.41800000000E+01 0.  1.
        -11    1    1    2    0    0  0.12953640570E+02  0.38434162542E+02 -0.71914338817E+01  0.41190998720E+02  0.00000000000E+00 0.  1.
         11    1    1    2    0    0  0.65825098091E+02  0.58988914307E+02  0.12450508859E+03  0.15268972668E+03  0.00000000000E+00 0. -1.
</event>
<event>
 7    1  0.7017065E-006  0.1102088E+03  0.7561462E-02  0.1260184E+00
          2   -1    0    0  501    0  0.00000000000E+00  0.00000000000E+00  0.19289558618E+03  0.19289558618E+03  0.00000000000E+00 0.  1.
         -2   -1    0    0    0  501 -0.00000000000E+00 -0.00000000000E+00 -0.87020691789E+02  0.87020691789E+02  0.00000000000E+00 0. -1.
         23    2    1    2    0    0 -0.21388361126E+02  0.58470229833E+02  0.20947302713E+02  0.14128802567E+03  0.12508911599E+03 0.  0.
          5    1    3    3  502    0  0.43800865347E+02  0.25308359909E+02  0.41095182838E+02  0.65309381707E+02  0.41800000000E+01 0. -1.
         -5    1    3    3    0  502 -0.65189226473E+02  0.33161869924E+02 -0.20147880124E+02  0.75978643963E+02  0.41800000000E+01 0. -1.
        -11    1    1    2    0    0  0.77439241903E+01 -0.74754717865E+02  0.89527775351E+02  0.11689079846E+03  0.00000000000E+00 0.  1.
         11    1    1    2    0    0  0.13644436936E+02  0.16284488033E+02 -0.46001836714E+01  0.21737453843E+02  0.00000000000E+00 0. -1.
</event>
<event>
 7    1  0.7017065E-006  0.1089808E+03  0.7561462E-02  0.1262469E+00
          3   -1    0    0  501    0  0.00000000000E+00  0.00000000000E+00  0.36538776113E+03  0.36538776113E+03  0.00000000000E+00 0. -1.
         -3   -1    0    0    0  501 -0.00000000000E+00 -0.00000000000E+00 -0.38064141321E+02  0.38064141321E+02  0.00000000000E+00 0.  1.
         23    2    1    2    0    0  0.24205514892E+02 -0.43141914477E+02  0.16583205275E+03  0.21353053222E+03  0.12509151343E+03 0.  0.
          5    1    3    3  502    0 -0.37403959905E+02 -0.45514377308E+02  0.12827005166E+03  0.14121364421E+03  0.41800000000E+01 0.  1.
         -5    1    3    3    0  502  0.61609474797E+02  0.23724628309E+01  0.37562001092E+02  0.72316888005E+02  0.41800000000E+01 0.  1.
        -11    1    1    2    0    0  0.22886316770E+02  0.44449060298E+02  0.60512548181E+02  0.78493763726E+02  0.00000000000E+00 0.  1.
         11    1    1    2    0    0 -0.47091831661E+02 -0.13071458205E+01  0.10097901888E+03  0.11142760651E+03  0.00000000000E+00 0. -1.
</event>
<event>
 7    1  0.7017065E-006  0.1132362E+03  0.7561462E-02  0.1254692E+00
          2   -1    0    0  501    0  0.00000000000E+00  0.00000000000E+00  0.36960434910E+02  0.36960434910E+02  0.00000000000E+00 0. -1.
         -2   -1    0    0    0  501 -0.00000000000E+00 -0.00000000000E+00 -0.38085667310E+03  0.38085667310E+03  0.00000000000E+00 0.  1.
         23    2    1    2    0    0 -0.60305710667E+01 -0.46063971789E+02 -0.21444045715E+03  0.25256803804E+03  0.12509055475E+03 0.  0.
          5    1    3    3  502    0  0.29060562047E+02  0.33194966602E+02 -0.96032053281E+02  0.10576412308E+03  0.41800000000E+01 0.  1.
         -5    1    3    3    0  502 -0.35091133113E+02 -0.79258938390E+02 -0.11840840387E+03  0.14680391495E+03  0.41800000000E+01 0.  1.
        -11    1    1    2    0    0 -0.40544407460E+01 -0.24126484072E+02 -0.64884822084E+02  0.69343823520E+02  0.00000000000E+00 0.  1.
         11    1    1    2    0    0  0.10085011813E+02  0.70190455861E+02 -0.64570958951E+02  0.95905246452E+02  0.00000000000E+00 0. -1.
</event>
<event>
 7    1  0.7017065E-006  0.1232372E+03  0.7561462E-02  0.1237850E+00
         -1   -1    0    0    0  501 -0.00000000000E+00  0.00000000000E+00  0.23904957489E+03  0.23904957489E+03  0.00000000000E+00 0.  1.
          1   -1    0    0  501    0  0.00000000000E+00 -0.00000000000E+00 -0.67358963816E+02  0.67358963816E+02  0.00000000000E+00 0. -1.
         23    2    1    2    0    0  0.51182479814E+02 -0.35052067759E+02  0.11644184707E+03  0.18181102181E+03  0.12509296627E+03 0.  0.
          5    1    3    3  502    0  0.12146433162E+02 -0.79305796509E+02  0.70958804337E+02  0.10718940951E+03  0.41800000000E+01 0. -1.
         -5    1    3    3    0  502  0.39036046652E+02  0.44253728751E+02  0.45483042729E+02  0.74621612301E+02  0.41800000000E+01 0. -1.
        -11    1    1    2    0    0 -0.14172939100E+02 -0.29409528381E+02  0.34341399798E+02  0.47382742665E+02  0.00000000000E+00 0. -1.
         11    1    1    2    0    0 -0.37009540714E+02  0.64461596140E+02  0.20907364207E+02  0.77214774226E+02  0.00000000000E+00 0.  1.
</event>
<event>
 7    1  0.7017065E-006  0.8404347E+02  0.7561462E-02  0.1317953E+00
          1   -1    0    0  501    0  0.00000000000E+00  0.00000000000E+00  0.24102424050E+02  0.24102424050E+02  0.00000000000E+00 0. -1.
         -1   -1    0    0    0  501 -0.00000000000E+00 -0.00000000000E+00 -0.57528585203E+03  0.57528585203E+03  0.00000000000E+00 0.  1.
         23    2    1    2    0    0 -0.84742920004E+01  0.15369461968E+01 -0.42701599001E+03  0.44504241508E+03  0.12508365066E+03 0.  0.
          5    1    3    3  502    0  0.37895700471E+02 -0.11122389146E+02 -0.36151308275E+03  0.36368801610E+03  0.41800000000E+01 0. -1.
         -5    1    3    3    0  502 -0.46369992472E+02  0.12659335343E+02 -0.65502907255E+02  0.81354398972E+02  0.41800000000E+01 0. -1.
        -11    1    1    2    0    0 -0.57753082938E+01 -0.39320554854E+02 -0.99210975257E+02  0.10687505711E+03  0.00000000000E+00 0.  1.
         11    1    1    2    0    0  0.14249600294E+02  0.37783608657E+02 -0.24956462714E+02  0.47470803900E+02  0.00000000000E+00 0. -1.
</event>
<event>
 7    1  0.7017065E-006  0.1174956E+03  0.7561462E-02  0.1247287E+00
         -3   -1    0    0    0  501 -0.00000000000E+00  0.00000000000E+00  0.14149094893E+04  0.14149094893E+04  0.00000000000E+00 0.  1.
          3   -1    0    0  501    0  0.00000000000E+00 -0.00000000000E+00 -0.22275159033E+02  0.22275159033E+02  0.00000000000E+00 0. -1.
         23    2    1    2    0    0  0.70484900490E+02 -0.17101984851E+02  0.11458457730E+04  0.11549332003E+04  0.12509021741E+03 0.  0.
          5    1    3    3  502    0  0.44040043116E+02 -0.71387411474E+02  0.68531936821E+03  0.69044608533E+03  0.41800000000E+01 0.  1.
         -5    1    3    3    0  502  0.26444857374E+02  0.54285426622E+02  0.46052640481E+03  0.46448711495E+03  0.41800000000E+01 0.  1.
        -11    1    1    2    0    0 -0.45167549261E+02 -0.16779630758E+02  0.23275240737E+03  0.23768749789E+03  0.00000000000E+00 0.  1.
         11    1    1    2    0    0 -0.25317351229E+02  0.33881615609E+02  0.14036149860E+02  0.44563950144E+02  0.00000000000E+00 0. -1.
</event>
<event>
 7    1  0.7017065E-006  0.1314022E+03  0.7561462E-02  0.1225390E+00
          1   -1    0    0  501    0  0.00000000000E+00  0.00000000000E+00  0.28331258101E+03  0.28331258101E+03  0.00000000000E+00 0. -1.
         -1   -1    0    0    0  501 -0.00000000000E+00 -0.00000000000E+00 -0.98992396412E+02  0.98992396412E+02  0.00000000000E+00 0.  1.
         23    2    1    2    0    0 -0.35727359524E+02 -0.98878463788E+02  0.22025400149E+02  0.16488074130E+03  0.12508855176E+03 0.  0.
          5    1    3    3  502    0  0.22216484668E+02 -0.25018760185E+02  0.55656971100E+02  0.65074429572E+02  0.41800000000E+01 0. -1.
         -5    1    3    3    0  502 -0.57943844192E+02 -0.73859703603E+02 -0.33631570951E+02  0.99806311727E+02  0.41800000000E+01 0. -1.
        -11    1    1    2    0    0 -0.16790486306E+02  0.75997568627E+02  0.13039229172E+03  0.15185420839E+03  0.00000000000E+00 0. -1.
         11    1    1    2    0    0  0.52517845830E+02  0.22880895160E+02  0.31902492733E+02  0.65570027730E+02  0.00000000000E+00 0.  1.
</event>
<event>
 7    1  0.7017065E-006  0.6999205E+02  0.7561462E-02  0.1360120E+00
          1   -1    0    0  501    0  0.00000000000E+00  0.00000000000E+00  0.49056744541E+02  0.49056744541E+02  0.00000000000E+00 0. -1.
         -1   -1    0    0    0  501 -0.00000000000E+00 -0.00000000000E+00 -0.32846946162E+03  0.32846946162E+03  0.00000000000E+00 0.  1.
         23    2    1    2    0    0 -0.94004668356E+01 -0.65593212523E+01 -0.25084682665E+03  0.28054561714E+03  0.12510123655E+03 0.  0.
          5    1    3    3  502    0  0.19025995424E+02 -0.48672219901E+02 -0.46962421767E+02  0.70384053238E+02  0.41800000000E+01 0.  1.
         -5    1    3    3    0  502 -0.28426462260E+02  0.42112898648E+02 -0.20388440488E+03  0.21016156390E+03  0.41800000000E+01 0.  1.
        -11    1    1    2    0    0  0.20826145589E+02  0.11877473829E+02 -0.59191841698E+02  0.63862953645E+02  0.00000000000E+00 0.  1.
         11    1    1    2    0    0 -0.11425678753E+02 -0.53181525769E+01  0.30625951266E+02  0.33117635374E+02  0.00000000000E+00 0. -1.
</event>
<event>
 7    1  0.7017065E-006  0.1117622E+03  0.7561462E-02  0.1257341E+00
         -1   -1    0    0    0  501 -0.00000000000E+00  0.00000000000E+00  0.13593678934E+03  0.13593678934E+03  0.00000000000E+00 0. -1.
          1   -1    0    0  501    0  0.00000000000E+00 -0.00000000000E+00 -0.21816259861E+03  0.21816259861E+03  0.00000000000E+00 0.  1.
         23    2    1    2    0    0  0.77298141915E+01  0.10176521186E+03  0.44865354430E+02  0.16756951373E+03  0.12510289177E+03 0.  0.
          5    1    3    3  502    0  0.35843779203E+02  0.70506874293E+02  0.80032584195E+02  0.11259965703E+03  0.41800000000E+01 0.  1.
         -5    1    3    3    0  502 -0.28113965011E+02  0.31258337572E+02 -0.35167229765E+02  0.54969856701E+02  0.41800000000E+01 0.  1.
        -11    1    1    2    0    0 -0.63408766710E+01 -0.90107349815E+02 -0.14154279668E+03  0.16791040617E+03  0.00000000000E+00 0.  1.
         11    1    1    2    0    0 -0.13889375205E+01 -0.11657862049E+02  0.14451632975E+02  0.18619468055E+02  0.00000000000E+00 0. -1.
</event>
<event>
 7    1  0.7017065E-006  0.1404547E+03  0.7561462E-02  0.1212718E+00
         -1   -1    0    0    0  501 -0.00000000000E+00  0.00000000000E+00  0.25014636989E+03  0.25014636989E+03  0.00000000000E+00 0.  1.
          1   -1    0    0  501    0  0.00000000000E+00 -0.00000000000E+00 -0.13306120763E+03  0.13306120763E+03  0.00000000000E+00 0. -1.
         23    2    1    2    0    0  0.10830217033E+03 -0.77625860157E+02  0.12408690783E+03  0.22090586015E+03  0.12508678624E+03 0.  0.
          5    1    3    3  502    0  0.98481562246E+02 -0.63404778200E+02  0.14945364525E+03  0.18992800867E+03  0.41800000000E+01 0. -1.
         -5    1    3    3    0  502  0.98206080863E+01 -0.14221081957E+02 -0.25366737418E+02  0.30977851482E+02  0.41800000000E+01 0. -1.
        -11    1    1    2    0    0 -0.11355270458E+02  0.40586930857E+02  0.30422713176E+02  0.51978674479E+02  0.00000000000E+00 0.  1.
         11    1    1    2    0    0 -0.96946899874E+02  0.37038929300E+02 -0.37424458747E+02  0.11032304289E+03  0.00000000000E+00 0. -1.
</event>
<event>
 7    1  0.7017065E-006  0.9501771E+02  0.7561462E-02  0.1291136E+00
          1   -1    0    0  501    0  0.00000000000E+00  0.00000000000E+00  0.16094676116E+03  0.16094676116E+03  0.00000000000E+00 0. -1.
         -1   -1    0    0    0  501 -0.00000000000E+00 -0.00000000000E+00 -0.75787579510E+02  0.75787579510E+02  0.00000000000E+00 0.  1.
         23    2    1    2    0    0  0.19823434401E+02  0.19053792790E+01  0.39077073086E+02  0.13255869638E+03  0.12509273089E+03 0.  0.
          5    1    3    3  502    0  0.65060207040E+01 -0.61102756394E+02  0.25210537781E+02  0.66550122160E+02  0.41800000000E+01 0. -1.
         -5    1    3    3    0  502  0.13317413697E+02  0.63008135673E+02  0.13866535305E+02  0.66008574215E+02  0.41800000000E+01 0. -1.
        -11    1    1    2    0    0 -0.29809862766E+02 -0.24899285950E+02 -0.12215648254E+02  0.40716390080E+02  0.00000000000E+00 0.  1.
         11    1    1    2    0    0  0.99864283643E+01  0.22993906671E+02  0.58297756816E+02  0.63459254213E+02  0.00000000000E+00 0. -1.
</event>
<event>
 6    1  0.7017065E-006  0.1201753E+03  0.7561462E-02  0.1242808E+00
          2   -1    0    0  501    0  0.00000000000E+00  0.00000000000E+00  0.56478077745E+02  0.56478077745E+02  0.00000000000E+00 0. -1.
         -2   -1    0    0    0  501 -0.00000000000E+00 -0.00000000000E+00 -0.50570301339E+03  0.50570301339E+03  0.00000000000E+00 0.  1.
          5    1    1    2  502    0 -0.38516453618E+02 -0.58914937940E+02 -0.89309081682E+02  0.11378959347E+03  0.41800000000E+01 0. -1.
         -5    1    1    2    0  502  0.55990453273E+02  0.52729394671E+02 -0.34583123753E+03  0.35430500585E+03  0.41800000000E+01 0.  1.
        -11    1    1    2    0    0 -0.66813644253E+01  0.48595283627E+02 -0.10613737829E+02  0.50187584641E+02  0.00000000000E+00 0. -1.
         11    1    1    2    0    0 -0.10792635230E+02 -0.42409740357E+02 -0.34708786026E+01  0.43898907169E+02  0.00000000000E+00 0.  1.
</event>
<event>
 7    1  0.7017065E-006  0.9130963E+02  0.7561462E-02  0.1299711E+00
         -2   -1    0    0    0  501 -0.00000000000E+00  0.00000000000E+00  0.10675056100E+03  0.10675056100E+03  0.00000000000E+00 0.  1.
          2   -1    0    0  501    0  0.00000000000E+00 -0.00000000000E+00 -0.12361431699E+03  0.12361431699E+03  0.00000000000E+00 0. -1.
         23    2    1    2    0    0 -0.33471742896E+02 -0.29359367677E+01  0.64702527197E+01  0.12968500931E+03  0.12508940871E+03 0.  0.
          5    1    3    3  502    0  0.27578420673E+02 -0.18380108684E+02 -0.39407108997E+02  0.51660336057E+02  0.41800000000E+01 0.  1.
         -5    1    3    3    0  502 -0.61050163569E+02  0.15444171916E+02  0.45877361716E+02  0.78024673252E+02  0.41800000000E+01 0.  1.
        -11    1    1    2    0    0 -0.34637145822E+01 -0.33818787316E+02  0.13805273688E+02  0.36691869342E+02  0.00000000000E+00 0.  1.
         11    1    1    2    0    0  0.36935457478E+02  0.36754724083E+02 -0.37139282398E+02  0.63987999332E+02  0.00000000000E+00 0. -1.
</event>
<event>
 7    1  0.7017065E-006  0.1516727E+03  0.7561462E-02  0.1198433E+00
          1   -1    0    0  501    0  0.00000000000E+00  0.00000000000E+00  0.45164242878E+03  0.45164242878E+03  0.00000000000E+00 0. -1.
         -1   -1    0    0    0  501 -0.00000000000E+00 -0.00000000000E+00 -0.62998301694E+02  0.62998301694E+02  0.00000000000E+00 0.  1.
         23    2    1    2    0    0  0.80922750119E+02 -0.86119286228E+02  0.12704716064E+03  0.21389888422E+03  0.12508688460E+03 0.  0.
          5    1    3    3  502    0  0.55814426511E+01  0.23208508631E+02 -0.69547523659E+01  0.25211671016E+02  0.41800000000E+01 0. -1.
         -5    1    3    3    0  502  0.75341307468E+02 -0.10932779486E+03  0.13400191300E+03  0.18868721321E+03  0.41800000000E+01 0. -1.
        -11    1    1    2    0    0 -0.93307083517E+02  0.93304722072E+02  0.21769948941E+03  0.25456836152E+03  0.00000000000E+00 0.  1.
         11    1    1    2    0    0  0.12384333399E+02 -0.71854358440E+01  0.43897477045E+02  0.46173484738E+02  0.00000000000E+00 0. -1.
</event>
<event>
 7    1  0.7017065E-006  0.7720747E+02  0.7561462E-02  0.1337168E+00
         -2   -1    0    0    0  501 -0.00000000000E+00  0.00000000000E+00  0.46740084874E+02  0.46740084874E+02  0.00000000000E+00 0.  1.
          2   -1    0    0  501    0  0.00000000000E+00 -0.00000000000E+00 -0.33476660540E+03  0.33476660540E+03  0.00000000000E+00 0. -1.
         23    2    1    2    0    0 -0.18256599182E+01  0.62420993288E+02 -0.16362144646E+03  0.21521998010E+03  0.12509176094E+03 0.  0.
          5    1    3    3  502    0  0.52391457807E+01  0.38558613495E+02  0.94965314415E+01  0.40272469909E+02  0.41800000000E+01 0. -1.
         -5    1    3    3    0  502 -0.70648056989E+01  0.23862379793E+02 -0.17311797790E+03  0.17494751019E+03  0.41800000000E+01 0. -1.
        -11    1    1    2    0    0 -0.12139937950E+02 -0.72059246998E+02 -0.46636382572E+02  0.86688323036E+02  0.00000000000E+00 0.  1.
         11    1    1    2    0    0  0.13965597868E+02  0.96382537098E+01 -0.77768691496E+02  0.79598387141E+02  0.00000000000E+00 0. -1.
</event>
<event>
 7    1  0.7017065E-006  0.1047250E+03  0.7561462E-02  0.1270662E+00
          1   -1    0    0  501    0  0.00000000000E+00  0.00000000000E+00  0.33042527593E+02  0.33042527593E+02  0.00000000000E+00 0. -1.
         -1   -1    0    0    0  501 -0.00000000000E+00 -0.00000000000E+00 -0.60023549028E+03  0.60023549028E+03  0.00000000000E+00 0.  1.
         23    2    1    2    0    0 -0.17208195260E+02 -0.20177703779E+02 -0.50713537771E+03  0.52300742400E+03  0.12508881853E+03 0.  0.
          5    1    3    3  502    0 -0.66434751352E+02 -0.23470399024E+02 -0.20425130983E+03  0.21610299809E+03  0.41800000000E+01 0. -1.
         -5    1    3    3    0  502  0.49226556092E+02  0.32926952450E+01 -0.30288406788E+03  0.30690442591E+03  0.41800000000E+01 0. -1.
        -11    1    1    2    0    0  0.52109802130E+02  0.13316968760E+02 -0.49680290918E+02  0.73218197470E+02  0.00000000000E+00 0.  1.
         11    1    1    2    0    0 -0.34901606870E+02  0.68607350190E+01 -0.10377294058E+02  0.37052396401E+02  0.00000000000E+00 0. -1.
</event>
<event>
 7    1  0.7017065E-006  0.1373175E+03  0.7561462E-02  0.1216985E+00
          2   -1    0    0  501    0  0.00000000000E+00  0.00000000000E+00  0.34044600094E+03  0.34044600094E+03  0.00000000000E+00 0.  1.
         -2   -1    0    0    0  501 -0.00000000000E+00 -0.00000000000E+00 -0.67219931497E+02  0.67219931497E+02  0.00000000000E+00 0. -1.
         23    2    1    2    0    0 -0.91042796321E+02  0.52838682811E+02  0.15769917203E+03  0.22715354219E+03  0.12509590603E+03 0.  0.
          5    1    3    3  502    0 -0.21199841523E+02 -0.39506266221E+02  0.63433742494E+02  0.77791326239E+02  0.41800000000E+01 0. -1.
         -5    1    3    3    0  502 -0.69842954799E+02  0.92344949032E+02  0.94265429537E+02  0.14936221595E+03  0.41800000000E+01 0. -1.
        -11    1    1    2    0    0  0.70436488415E+02 -0.17082192797E+02  0.18098352185E+02  0.74703751999E+02  0.00000000000E+00 0. -1.
         11    1    1    2    0    0  0.20606307906E+02 -0.35756490014E+02  0.97428545226E+02  0.10580863825E+03  0.00000000000E+00 0.  1.
</event>
<event>
 7    1  0.7017065E-006  0.7027122E+02  0.7561462E-02  0.1359173E+00
          2   -1    0    0  501    0  0.00000000000E+00  0.00000000000E+00  0.10275911518E+03  0.10275911518E+03  0.00000000000E+00 0. -1.
         -2   -1    0    0    0  501 -0.00000000000E+00 -0.00000000000E+00 -0.17938752296E+03  0.17938752296E+03  0.00000000000E+00 0.  1.
         23    2    1    2    0    0  0.27145899665E+02 -0.11369544441E+02 -0.12301712719E+03  0.17789501198E+03  0.12508898951E+03 0.  0.
          5    1    3    3  502    0 -0.24480579987E+02 -0.52605196031E+01  0.15596553887E+02  0.29794240318E+02  0.41800000000E+01 0. -1.
         -5    1    3    3    0  502  0.51626479652E+02 -0.61090248382E+01 -0.13861368107E+03  0.14810077166E+03  0.41800000000E+01 0. -1.
        -11    1    1    2    0    0 -0.10807258617E+02 -0.22742128382E+02  0.59188580973E+02  0.64321764278E+02  0.00000000000E+00 0. -1.
         11    1    1    2    0    0 -0.16338641048E+02  0.34111672823E+02 -0.12799861568E+02  0.39929861886E+02  0.00000000000E+00 0.  1.
</event>
<event>
 7    1  0.7017065E-006  0.1098951E+03  0.7561462E-02  0.1260764E+00
          2   -1    0    0  501    0  0.00000000000E+00  0.00000000000E+00  0.45958226534E+02  0.45958226534E+02  0.00000000000E+00 0. -1.
         -2   -1    0    0    0  501 -0.00000000000E+00 -0.00000000000E+00 -0.42322097142E+03  0.42322097142E+03  0.00000000000E+00 0.  1.
         23    2    1    2    0    0  0.25842540148E+02 -0.81954560433E+02 -0.19833128819E+03  0.24973417767E+03  0.12508985875E+03 0.  0.
          5    1    3    3  502    0  0.36346198987E+02 -0.74650954375E+02 -0.42583172596E+02  0.93405621663E+02  0.41800000000E+01 0. -1.
         -5    1    3    3    0  502 -0.10503658839E+02 -0.73036060579E+01 -0.15574811560E+03  0.15632855600E+03  0.41800000000E+01 0. -1.
        -11    1    1    2    0    0 -0.11736452478E+02 -0.18417280499E+02 -0.14268894714E+02  0.26087197896E+02  0.00000000000E+00 0.  1.
         11    1    1    2    0    0 -0.14106087670E+02  0.10037184093E+03 -0.16466256198E+03  0.19335782239E+03  0.00000000000E+00 0. -1.
</event>
<event>
 7    1  0.7017065E-006  0.1168608E+03  0.7561462E-02  0.1248368E+00
         -4   -1    0    0    0  501 -0.00000000000E+00  0.00000000000E+00  0.20152554955E+03  0.20152554955E+03  0.00000000000E+00 0.  1.
          4   -1    0    0  501    0  0.00000000000E+00 -0.00000000000E+00 -0.92170327677E+02  0.92170327677E+02  0.00000000000E+00 0. -1.
         23    2    1    2    0    0 -0.75713746010E+02 -0.75458213316E+01  0.93826430243E+02  0.17389890081E+03  0.12509163816E+03 0.  0.
          5    1    3    3  502    0  0.16611925850E+02  0.17120216147E+02 -0.15406387383E+02  0.28703432783E+02  0.41800000000E+01 0.  1.
         -5    1    3    3    0  502 -0.92325671860E+02 -0.24666037479E+02  0.10923281763E+03  0.14519546803E+03  0.41800000000E+01 0.  1.
        -11    1    1    2    0    0  0.88127056549E+02 -0.13754983067E+02  0.26156129775E+02  0.92950098332E+02  0.00000000000E+00 0.  1.
         11    1    1    2    0    0 -0.12413310539E+02  0.21300804399E+02 -0.10627338149E+02  0.26846878081E+02  0.00000000000E+00 0. -1.
</event>
<event>
 7    1  0.7017065E-006  0.7920757E+02  0.7561462E-02  0.1331315E+00
          2   -1    0    0  501    0  0.00000000000E+00  0.00000000000E+00  0.50596316160E+03  0.50596316160E+03  0.00000000000E+00 0. -1.
         -2   -1    0    0    0  501 -0.00000000000E+00 -0.00000000000E+00 -0.23467086183E+02  0.23467086183E+02  0.00000000000E+00 0.  1.
         23    2    1    2    0    0  0.75581445528E+01 -0.26210804322E+02  0.28646087213E+03  0.31377099839E+03  0.12509307078E+03 0.  0.
          5    1    3    3  502    0 -0.25712647913E+02  0.20691410971E+01  0.26248155459E+03  0.26377918892E+03  0.41800000000E+01 0. -1.
         -5    1    3    3    0  502  0.33270792465E+02 -0.28279945419E+02  0.23979317539E+02  0.49991809467E+02  0.41800000000E+01 0. -1.
        -11    1    1    2    0    0  0.34621943551E+02  0.30341407793E+02  0.82555051578E+02  0.94523100580E+02  0.00000000000E+00 0.  1.
         11    1    1    2    0    0 -0.42180088104E+02 -0.41306034711E+01  0.11348015171E+03  0.12113614881E+03  0.00000000000E+00 0. -1.
</event>
<event>
 7    1  0.7017065E-006  0.9845527E+02  0.7561462E-02  0.1283578E+00
         -2   -1    0    0    0  501 -0.00000000000E+00  0.00000000000E+00  0.15855974811E+03  0.15855974811E+03  0.00000000000E+00 0. -1.
          2   -1    0    0  501    0  0.00000000000E+00 -0.00000000000E+00 -0.84526267923E+02  0.84526267923E+02  0.00000000000E+00 0.  1.
         23    2    1    2    0    0  0.10269956664E+02 -0.40960100770E+02  0.48691658921E+02  0.14071861865E+03  0.12509056767E+03 0.  0.
          5    1    3    3  502    0 -0.56759166789E+01 -0.66818470028E+02  0.74726926978E+02  0.10049134282E+03  0.41800000000E+01 0.  1.
         -5    1    3    3    0  502  0.15945873343E+02  0.25858369257E+02 -0.26035268056E+02  0.40227275822E+02  0.41800000000E+01 0.  1.
        -11    1    1    2    0    0 -0.49322228496E+02  0.32588332603E+02  0.17644767610E+02  0.61692945056E+02  0.00000000000E+00 0.  1.
         11    1    1    2    0    0  0.39052271831E+02  0.83717681667E+01  0.76970536562E+01  0.40674452331E+02  0.00000000000E+00 0. -1.
</event>
<event>
 7    1  0.7017065E-006  0.1405968E+03  0.7561462E-02  0.1212528E+00
         -1   -1    0    0    0  501 -0.00000000000E+00  0.00000000000E+00  0.69704130712E+02  0.69704130712E+02  0.00000000000E+00 0.  1.
          1   -1    0    0  501    0  0.00000000000E+00 -0.00000000000E+00 -0.33732234962E+03  0.33732234962E+03  0.00000000000E+00 0. -1.
         23    2    1    2    0    0  0.16454740138E+02 -0.10728895105E+03 -0.18386359611E+03  0.24743042605E+03  0.12503725954E+03 0.  0.
          5    1    3    3  502    0  0.55080202946E+02 -0.41421430798E+02 -0.14727569114E+03  0.16265658698E+03  0.41800000000E+01 0. -1.
         -5    1    3    3    0  502 -0.38625462808E+02 -0.65867520254E+02 -0.36587904963E+02  0.84773839073E+02  0.41800000000E+01 0. -1.
        -11    1    1    2    0    0  0.27925692468E+02  0.77104178304E+02 -0.54560487468E+02  0.98497438568E+02  0.00000000000E+00 0. -1.
         11    1    1    2    0    0 -0.44380432605E+02  0.30184772748E+02 -0.29194135334E+02  0.61098615713E+02  0.00000000000E+00 0.  1.
</event>
<event>
 7    1  0.7017065E-006  0.1150520E+03  0.7561462E-02  0.1251490E+00
         -1   -1    0    0    0  501 -0.00000000000E+00  0.00000000000E+00  0.10515260457E+03  0.10515260457E+03  0.00000000000E+00 0.  1.
          1   -1    0    0  501    0  0.00000000000E+00 -0.00000000000E+00 -0.15941173725E+03  0.15941173725E+03  0.00000000000E+00 0. -1.
         23    2    1    2    0    0  0.23599649873E+02 -0.53343695194E+02  0.59205555637E+01  0.13814319544E+03  0.12508395652E+03 0.  0.
          5    1    3    3  502    0 -0.24538124233E+01  0.37140695749E+02  0.20610837146E+02  0.42751976375E+02  0.41800000000E+01 0.  1.
         -5    1    3    3    0  502  0.26053462296E+02 -0.90484390943E+02 -0.14690281582E+02  0.95391219066E+02  0.41800000000E+01 0.  1.
        -11    1    1    2    0    0 -0.44972476165E+01  0.71736462143E+02 -0.67822109782E+02  0.98824004231E+02  0.00000000000E+00 0. -1.
         11    1    1    2    0    0 -0.19102402256E+02 -0.18392766949E+02  0.76424215338E+01  0.27597142151E+02  0.00000000000E+00 0.  1.
</event>
<event>
 7    1  0.7017065E-006  0.1345153E+03  0.7561462E-02  0.1220906E+00
         -1   -1    0    0    0  501 -0.00000000000E+00  0.00000000000E+00  0.10922510852E+03  0.10922510852E+03  0.00000000000E+00 0.  1.
          1   -1    0    0  501    0  0.00000000000E+00 -0.00000000000E+00 -0.21664018636E+03  0.21664018636E+03  0.00000000000E+00 0. -1.
         23    2    1    2    0    0  0.99525494380E+02  0.42149858795E+02 -0.82982989922E+02  0.18497523676E+03  0.12509087484E+03 0.  0.
          5    1    3    3  502    0  0.11155249191E+03  0.25850199342E+02 -0.17015491050E+02  0.11584123011E+03  0.41800000000E+01 0.  1.
         -5    1    3    3    0  502 -0.12026997530E+02  0.16299659452E+02 -0.65967498872E+02  0.69134006649E+02  0.41800000000E+01 0.  1.
        -11    1    1    2    0    0 -0.69120562209E+02  0.13426815576E+02 -0.31518373386E+02  0.77144924380E+02  0.00000000000E+00 0. -1.
         11    1    1    2    0    0 -0.30404932170E+02 -0.55576674371E+02  0.70862854705E+01  0.63745133745E+02  0.00000000000E+00 0.  1.
</event>
<event>
 7    1  0.7017065E-006  0.9653853E+02  0.7561462E-02  0.1287748E+00
          2   -1    0    0  501    0  0.00000000000E+00  0.00000000000E+00  0.43026735907E+03  0.43026735907E+03  0.00000000000E+00 0. -1.
         -2   -1    0    0    0  501 -0.00000000000E+00 -0.00000000000E+00 -0.38852613345E+02  0.38852613345E+02  0.00000000000E+00 0.  1.
         23    2    1    2    0    0  0.30957382074E+02 -0.61940756146E+02  0.22139233067E+03  0.26354816773E+03  0.12509218944E+03 0.  0.
          5    1    3    3  502    0  0.41426596196E+02 -0.18701083456E+01  0.91374320259E+01  0.42668785331E+02  0.41800000000E+01 0. -1.
         -5    1    3    3    0  502 -0.10469214122E+02 -0.60070647800E+02  0.21225489864E+03  0.22087938240E+03  0.41800000000E+01 0. -1.
        -11    1    1    2    0    0 -0.24669775315E+02 -0.31634583336E+01  0.12179074110E+03  0.12430442430E+03  0.00000000000E+00 0. -1.
         11    1    1    2    0    0 -0.62876067582E+01  0.65104214479E+02  0.48231673951E+02  0.81267380380E+02  0.00000000000E+00 0.  1.
</event>
<event>
 6    1  0.7017065E-006  0.2212807E+03  0.7561462E-02  0.1132932E+00
         -1   -1    0    0    0  501 -0.00000000000E+00  0.00000000000E+00  0.57369273375E+03  0.57369273375E+03  0.00000000000E+00 0.  1.
          1   -1    0    0  501    0  0.00000000000E+00 -0.00000000000E+00 -0.92603584072E+02  0.92603584072E+02  0.00000000000E+00 0. -1.
          5    1    1    2  502    0 -0.10613162316E+03 -0.48945989848E+01  0.10193112270E+03  0.14729326091E+03  0.41800000000E+01 0. -1.
         -5    1    1    2    0  502  0.13309696610E+03  0.12782330816E+03  0.27730933024E+03  0.33312390718E+03  0.41800000000E+01 0.  1.
        -11    1    1    2    0    0  0.48753987279E+00  0.12984293578E+02  0.22876647537E+02  0.26309134866E+02  0.00000000000E+00 0.  1.
         11    1    1    2    0    0 -0.27452882806E+02 -0.13591300275E+03  0.78972049194E+02  0.15957001487E+03  0.00000000000E+00 0. -1.
</event>
<event>
 7    1  0.7017065E-006  0.1336552E+03  0.7561462E-02  0.1222131E+00
          1   -1    0    0  501    0  0.00000000000E+00  0.00000000000E+00  0.14269439479E+03  0.14269439479E+03  0.00000000000E+00 0. -1.
         -1   -1    0    0    0  501 -0.00000000000E+00 -0.00000000000E+00 -0.15714249359E+03  0.15714249359E+03  0.00000000000E+00 0.  1.
         23    2    1    2    0    0  0.95532331730E+01  0.10020886270E+03 -0.26259175587E+02  0.16269694053E+03  0.12509064604E+03 0.  0.
          5    1    3    3  502    0 -0.72532031735E+01  0.12246649614E+03  0.20062614795E+01  0.12276868135E+03  0.41800000000E+01 0.  1.
         -5    1    3    3    0  502  0.16806436346E+02 -0.22257633442E+02 -0.28265437067E+02  0.39928259187E+02  0.41800000000E+01 0.  1.
        -11    1    1    2    0    0  0.24694120334E+02 -0.37387544658E+02 -0.30325758003E+02  0.54104340612E+02  0.00000000000E+00 0.  1.
         11    1    1    2    0    0 -0.34247353507E+02 -0.62821318044E+02  0.42136834792E+02  0.83035607238E+02  0.00000000000E+00 0. -1.
</event>
<event>
 7    1  0.7017065E-006  0.1374177E+03  0.7561462E-02  0.1216846E+00
          1   -1    0    0  501    0  0.00000000000E+00  0.00000000000E+00  0.75697236257E+02  0.75697236257E+02  0.00000000000E+00 0. -1.
         -1   -1    0    0    0  501 -0.00000000000E+00 -0.00000000000E+00 -0.27305375946E+03  0.27305375946E+03  0.00000000000E+00 0.  1.
         23    2    1    2    0    0 -0.14655251101E+02  0.86001659207E+02 -0.15311160020E+03  0.21610473737E+03  0.12508810346E+03 0.  0.
          5    1    3    3  502    0  0.54039117797E+02  0.49385699279E+02 -0.87909281892E+02  0.11447570829E+03  0.41800000000E+01 0. -1.
         -5    1    3    3    0  502 -0.68694368898E+02  0.36615959929E+02 -0.65202318305E+02  0.10162902908E+03  0.41800000000E+01 0. -1.
        -11    1    1    2    0    0  0.46803396193E+02 -0.77103463268E+02 -0.22947876121E+02  0.93070440859E+02  0.00000000000E+00 0.  1.
         11    1    1    2    0    0 -0.32148145091E+02 -0.88981959392E+01 -0.21297046884E+02  0.39575817487E+02  0.00000000000E+00 0. -1.
</event>
<event>
 7    1  0.7017065E-006  0.1288452E+03  0.7561462E-02  0.1229179E+00
         -2   -1    0    0    0  501 -0.00000000000E+00  0.00000000000E+00  0.47097677030E+02  0.47097677030E+02  0.00000000000E+00 0.  1.
          2   -1    0    0  501    0  0.00000000000E+00 -0.00000000000E+00 -0.46387777723E+03  0.46387777723E+03  0.00000000000E+00 0. -1.
         23    2    1    2    0    0  0.31384913588E+02  0.70465982201E+02 -0.11579873641E+03  0.18710207836E+03  0.12508945969E+03 0.  0.
          5    1    3    3  502    0 -0.37520360457E+02 -0.11807195895E+02 -0.30281974474E+02  0.49816239338E+02  0.41800000000E+01 0.  1.
         -5    1    3    3    0  502  0.68905274045E+02  0.82273178096E+02 -0.85516761931E+02  0.13728583902E+03  0.41800000000E+01 0.  1.
        -11    1    1    2    0    0  0.22233155963E+02 -0.53039626354E-01 -0.22356051583E+02  0.31529495392E+02  0.00000000000E+00 0.  1.
         11    1    1    2    0    0 -0.53618069551E+02 -0.70412942574E+02 -0.27862531221E+03  0.29234388051E+03  0.00000000000E+00 0. -1.
</event>
<event>
 7    1  0.7017065E-006  0.9355229E+02  0.7561462E-02  0.1294470E+00
         -1   -1    0    0    0  501 -0.00000000000E+00  0.00000000000E+00  0.17866597112E+03  0.17866597112E+03  0.00000000000E+00 0.  1.
          1   -1    0    0  501    0  0.00000000000E+00 -0.00000000000E+00 -0.74203235132E+02  0.74203235132E+02  0.00000000000E+00 0. -1.
         23    2    1    2    0    0  0.20028745054E+02 -0.18295496614E+02  0.86215243644E+02  0.15432635671E+03  0.12509068836E+03 0.  0.
          5    1    3    3  502    0 -0.52042558425E+02  0.37711796483E+01  0.31500683154E+02  0.61093494928E+02  0.41800000000E+01 0. -1.
         -5    1    3    3    0  502  0.72071303479E+02 -0.22066676263E+02  0.54714560490E+02  0.93232861782E+02  0.41800000000E+01 0. -1.
        -11    1    1    2    0    0 -0.61538755032E+01  0.36142610427E+02  0.48486917552E+02  0.60787660309E+02  0.00000000000E+00 0.  1.
         11    1    1    2    0    0 -0.13874869551E+02 -0.17847113812E+02 -0.30239425212E+02  0.37755189228E+02  0.00000000000E+00 0. -1.
</event>
<event>
 7    1  0.7017065E-006  0.2119932E+03  0.7561462E-02  0.1139997E+00
         -2   -1    0    0    0  501 -0.00000000000E+00  0.00000000000E+00  0.42881266467E+02  0.42881266467E+02  0.00000000000E+00 0. -1.
          2   -1    0    0  501    0  0.00000000000E+00 -0.00000000000E+00 -0.12878238725E+04  0.12878238725E+04  0.00000000000E+00 0.  1.
         23    2    1    2    0    0 -0.81606728295E+01  0.20429089330E+03 -0.49569626099E+03  0.55060327322E+03  0.12509122935E+03 0.  0.
          5    1    3    3  502    0 -0.30279396744E+02  0.18822902342E+03 -0.31820087089E+03  0.37096667473E+03  0.41800000000E+01 0.  1.
         -5    1    3    3    0  502  0.22118723914E+02  0.16061869873E+02 -0.17749539010E+03  0.17963659849E+03  0.41800000000E+01 0.  1.
        -11    1    1    2    0    0 -0.76703474475E+01 -0.65334247515E+02 -0.37187455463E+03  0.37764809348E+03  0.00000000000E+00 0.  1.
         11    1    1    2    0    0  0.15831020277E+02 -0.13895664578E+03 -0.37737179044E+03  0.40245377229E+03  0.00000000000E+00 0. -1.
</event>
<event>
 7    1  0.8006448E-006  0.1090110E+03  0.7561462E-02  0.1262412E+00
         -1   -1    0    0    0  501 -0.00000000000E+00  0.00000000000E+00  0.33341910755E+03  0.33341910755E+03  0.00000000000E+00 0.  1.
          1   -1    0    0  501    0  0.00000000000E+00 -0.00000000000E+00 -0.53287448849E+02  0.53287448849E+02  0.00000000000E+00 0. -1.
         23    2    1    2    0    0  0.61375088731E+02  0.43964967918E+02  0.17338308812E+03  0.22673586855E+03  0.12509052291E+03 0.  0.
          5    1    3    3  502    0  0.82009189619E+02  0.48385045834E+02  0.18046535826E+03  0.20408781878E+03  0.41800000000E+01 0.  1.
         -5    1    3    3    0  502 -0.20634100887E+02 -0.44200779156E+01 -0.70822701393E+01  0.22648049773E+02  0.41800000000E+01 0.  1.
        -11    1    1    2    0    0 -0.51310758729E+02  0.46803277224E+01  0.96286760832E+02  0.10920549318E+03  0.00000000000E+00 0.  1.
         11    1    1    2    0    0 -0.10064330003E+02 -0.48645295641E+02  0.10461809749E+02  0.50765194667E+02  0.00000000000E+00 0. -1.
</event>
<event>
 7    1  0.7017065E-006  0.1468556E+03  0.7561462E-02  0.1204391E+00
          1   -1    0    0  501    0  0.00000000000E+00  0.00000000000E+00  0.24654911991E+03  0.24654911991E+03  0.00000000000E+00 0. -1.
         -1   -1    0    0    0  501 -0.00000000000E+00 -0.00000000000E+00 -0.10924655269E+03  0.10924655269E+03  0.00000000000E+00 0.  1.
         23    2    1    2    0    0 -0.49496874978E+02 -0.89780281105E+02  0.35506858267E+00  0.16173231512E+03  0.12508707437E+03 0.  0.
          5    1    3    3  502    0  0.10540189914E+02  0.27426170681E+02 -0.37509668719E+01  0.29913752591E+02  0.41800000000E+01 0.  1.
         -5    1    3    3    0  502 -0.60037064892E+02 -0.11720645179E+03  0.41060354546E+01  0.13181856253E+03  0.41800000000E+01 0.  1.
        -11    1    1    2    0    0  0.54406073239E+02  0.13784895601E+02  0.85077812657E+02  0.10192290399E+03  0.00000000000E+00 0. -1.
         11    1    1    2    0    0 -0.49091982611E+01  0.75995385505E+02  0.51869685979E+02  0.92140453489E+02  0.00000000000E+00 0.  1.
</event>
<event>
 7    1  0.7017065E-006  0.2560305E+03  0.7561462E-02  0.1109552E+00
         -2   -1    0    0    0  501 -0.00000000000E+00  0.00000000000E+00  0.93730327795E+02  0.93730327795E+02  0.00000000000E+00 0.  1.
          2   -1    0    0  501    0  0.00000000000E+00 -0.00000000000E+00 -0.87351523088E+03  0.87351523088E+03  0.00000000000E+00 0. -1.
         23    2    1    2    0    0 -0.21361457839E+03 -0.11095316298E+03 -0.20613434791E+03  0.34070701426E+03  0.12509239665E+03 0.  0.
          5    1    3    3  502    0 -0.17364503529E+03 -0.23822342846E+02 -0.13276272766E+03  0.21991706744E+03  0.41800000000E+01 0. -1.
         -5    1    3    3    0  502 -0.39969543106E+02 -0.87130820131E+02 -0.73371620248E+02  0.12078994681E+03  0.41800000000E+01 0. -1.
        -11    1    1    2    0    0  0.63683297869E+02  0.29967386274E+02 -0.93383655305E+02  0.11693636622E+03  0.00000000000E+00 0.  1.
         11    1    1    2    0    0  0.14993128052E+03  0.80985776703E+02 -0.48026689987E+03  0.50960217819E+03  0.00000000000E+00 0. -1.
</event>
<event>
 7    1  0.1301362E-005  0.2413290E+03  0.7561462E-02  0.1118911E+00
         -1   -1    0    0    0  501 -0.00000000000E+00  0.00000000000E+00  0.46357727822E+02  0.46357727822E+02  0.00000000000E+00 0.  1.
          1   -1    0    0  501    0  0.00000000000E+00 -0.00000000000E+00 -0.13776566339E+04  0.13776566339E+04  0.00000000000E+00 0. -1.
         23    2    1    2    0    0  0.75264286982E+02  0.21337741526E+03 -0.63463516838E+03  0.68527649126E+03  0.12508972098E+03 0.  0.
          5    1    3    3  502    0  0.10027169211E+03  0.19611533230E+03 -0.48733023002E+03  0.53481198686E+03  0.41800000000E+01 0. -1.
         -5    1    3    3    0  502 -0.25007405124E+02  0.17262082959E+02 -0.14730493836E+03  0.15046450440E+03  0.41800000000E+01 0. -1.
        -11    1    1    2    0    0 -0.13591374155E+02 -0.11341472589E+03 -0.46718161719E+03  0.48094312443E+03  0.00000000000E+00 0.  1.
         11    1    1    2    0    0 -0.61672912827E+02 -0.99962689373E+02 -0.22948212047E+03  0.25779474599E+03  0.00000000000E+00 0. -1.
</event>
<event>
 7    1  0.7017065E-006  0.9538007E+02  0.7561462E-02  0.1290322E+00
         -2   -1    0    0    0  501 -0.00000000000E+00  0.00000000000E+00  0.59930006523E+02  0.59930006523E+02  0.00000000000E+00 0. -1.
          2   -1    0    0  501    0  0.00000000000E+00 -0.00000000000E+00 -0.19712960154E+03  0.19712960154E+03  0.00000000000E+00 0.  1.
         23    2    1    2    0    0  0.48792425158E+01 -0.18421625111E+02 -0.73000559781E+02  0.14608140683E+03  0.12509009718E+03 0.  0.
          5    1    3    3  502    0 -0.53010346126E+02 -0.23848043777E+00 -0.28734760040E+01  0.53253008682E+02  0.41800000000E+01 0.  1.
         -5    1    3    3    0  502  0.57889588642E+02 -0.18183144673E+02 -0.70127083777E+02  0.92828398146E+02  0.41800000000E+01 0.  1.
        -11    1    1    2    0    0  0.31006069418E+02  0.25549407740E+02 -0.37914181728E+01  0.40354967828E+02  0.00000000000E+00 0.  1.
         11    1    1    2    0    0 -0.35885311933E+02 -0.71277826292E+01 -0.60407617067E+02  0.70623233412E+02  0.00000000000E+00 0. -1.
</event>
<event>
 7    1  0.7017065E-006  0.1065871E+03  0.7561462E-02  0.1267024E+00
         -1   -1    0    0    0  501 -0.00000000000E+00  0.00000000000E+00  0.28021239307E+02  0.28021239307E+02  0.00000000000E+00 0.  1.
          1   -1    0    0  501    0  0.00000000000E+00 -0.00000000000E+00 -0.57586659194E+03  0.57586659194E+03  0.00000000000E+00 0. -1.
         23    2    1    2    0    0  0.27189908917E+02 -0.19146897410E+02 -0.17020613155E+03  0.21383087139E+03  0.12509044535E+03 0.  0.
          5    1    3    3  502    0 -0.61426181830E+01  0.50990366120E+02 -0.63016656483E+02  0.81402214892E+02  0.41800000000E+01 0.  1.
         -5    1    3    3    0  502  0.33332527100E+02 -0.70137263530E+02 -0.10718947506E+03  0.13242865650E+03  0.41800000000E+01 0.  1.
        -11    1    1    2    0    0  0.27127243060E+02  0.92884046903E+01 -0.48673080165E+02  0.56490977248E+02  0.00000000000E+00 0.  1.
         11    1    1    2    0    0 -0.54317151977E+02  0.98584927198E+01 -0.32896614092E+03  0.33356598260E+03  0.00000000000E+00 0. -1.
</event>
<event>
 7    1  0.7017065E-006  0.9080914E+02  0.7561462E-02  0.1300904E+00
          3   -1    0    0  501    0  0.00000000000E+00  0.00000000000E+00  0.32613886724E+03  0.32613886724E+03  0.00000000000E+00 0. -1.
         -3   -1    0    0    0  501 -0.00000000000E+00 -0.00000000000E+00 -0.39848508005E+02  0.39848508005E+02  0.00000000000E+00 0.  1.
         23    2    1    2    0    0  0.20406814362E+01  0.21721021215E+01  0.10245430281E+03  0.16171896226E+03  0.12508899304E+03 0.  0.
          5    1    3    3  502    0 -0.13371554396E+02 -0.43338942877E+02 -0.31152615795E+01  0.45653474034E+02  0.41800000000E+01 0.  1.
         -5    1    3    3    0  502  0.15412235832E+02  0.45511044998E+02  0.10556956439E+03  0.11606548822E+03  0.41800000000E+01 0.  1.
        -11    1    1    2    0    0 -0.23522576069E+02  0.36604215342E+02  0.10786406719E+03  0.11630923075E+03  0.00000000000E+00 0.  1.
         11    1    1    2    0    0  0.21481894633E+02 -0.38776317464E+02  0.75971989231E+02  0.87959182243E+02  0.00000000000E+00 0. -1.
</event>
<event>
 7    1  0.7017065E-006  0.1037094E+03  0.7561462E-02  0.1272684E+00
          1   -1    0    0  501    0  0.00000000000E+00  0.00000000000E+00  0.41495595536E+03  0.41495595536E+03  0.00000000000E+00 0. -1.
         -1   -1    0    0    0  501 -0.00000000000E+00 -0.00000000000E+00 -0.35374302665E+02  0.35374302665E+02  0.00000000000E+00 0.  1.
         23    2    1    2    0    0 -0.54282475549E+02 -0.33567709290E+01  0.19046243363E+03  0.23426775993E+03  0.12509032599E+03 0.  0.
          5    1    3    3  502    0 -0.82436752052E+02 -0.14907797831E+02  0.67905089661E+02  0.10791957249E+03  0.41800000000E+01 0.  1.
         -5    1    3    3    0  502  0.28154276503E+02  0.11551026902E+02  0.12255734396E+03  0.12634818743E+03  0.41800000000E+01 0.  1.
        -11    1    1    2    0    0  0.68089530660E+02 -0.15129213419E+02  0.87717635130E+02  0.11206900016E+03  0.00000000000E+00 0. -1.
         11    1    1    2    0    0 -0.13807055111E+02  0.18485984348E+02  0.10140158394E+03  0.10399349794E+03  0.00000000000E+00 0.  1.
</event>
<event>
 7    1  0.7017065E-006  0.9978871E+02  0.7561462E-02  0.1280741E+00
          2   -1    0    0  501    0  0.00000000000E+00  0.00000000000E+00  0.28138307360E+03  0.28138307360E+03  0.00000000000E+00 0. -1.
         -2   -1    0    0    0  501 -0.00000000000E+00 -0.00000000000E+00 -0.52757551233E+02  0.52757551233E+02  0.00000000000E+00 0.  1.
         23    2    1    2    0    0  0.31577587967E+02  0.29235079898E+02  0.79362287815E+02  0.15426156851E+03  0.12508566997E+03 0.  0.
          5    1    3    3  502    0  0.68219128687E+02  0.16258532547E+02  0.52260195944E+01  0.70448371735E+02  0.41800000000E+01 0. -1.
         -5    1    3    3    0  502 -0.36641540720E+02  0.12976547350E+02  0.74136268221E+02  0.83813196772E+02  0.41800000000E+01 0. -1.
        -11    1    1    2    0    0  0.76289180202E+01  0.23390317107E+02  0.11239664763E+02  0.27048796434E+02  0.00000000000E+00 0.  1.
         11    1    1    2    0    0 -0.39206505987E+02 -0.52625397005E+02  0.13802356979E+03  0.15283025989E+03  0.00000000000E+00 0. -1.
</event>
<event>
 7    1  0.7017065E-006  0.8157566E+02  0.7561462E-02  0.1324638E+00
          1   -1    0    0  501    0  0.00000000000E+00  0.00000000000E+00  0.41115831280E+03  0.41115831280E+03  0.00000000000E+00 0. -1.
         -1   -1    0    0    0  501 -0.00000000000E+00 -0.00000000000E+00 -0.33664415319E+02  0.33664415319E+02  0.00000000000E+00 0.  1.
         23    2    1    2    0    0 -0.32427700603E+02  0.24170603396E+02  0.17160187307E+03  0.21617855785E+03  0.12510072821E+03 0.  0.
          5    1    3    3  502    0  0.16754317189E+02  0.62456127560E+01  0.16170068826E+03  0.16273997605E+03  0.41800000000E+01 0. -1.
         -5    1    3    3    0  502 -0.49182017792E+02  0.17924990640E+02  0.99011848118E+01  0.53438581795E+02  0.41800000000E+01 0. -1.
        -11    1    1    2    0    0 -0.32842612252E+01  0.28472960109E+02  0.29495054476E+02  0.41127291033E+02  0.00000000000E+00 0.  1.
         11    1    1    2    0    0  0.35711961829E+02 -0.52643563505E+02  0.17639696993E+03  0.18751687923E+03  0.00000000000E+00 0. -1.
</event>
<event>
 7    1  0.7017065E-006  0.1083363E+03  0.7561462E-02  0.1263682E+00
         -1   -1    0    0    0  501 -0.00000000000E+00  0.00000000000E+00  0.29959615737E+03  0.29959615737E+03  0.00000000000E+00 0.  1.
          1   -1    0    0  501    0  0.00000000000E+00 -0.00000000000E+00 -0.40181592196E+02  0.40181592196E+02  0.00000000000E+00 0. -1.
         23    2    1    2    0    0 -0.36907551938E+01 -0.32131870400E+02  0.16532649706E+03  0.20982497435E+03  0.12509032920E+03 0.  0.
          5    1    3    3  502    0 -0.37819026212E+02  0.36311040175E+02  0.65746097412E+02  0.84194964856E+02  0.41800000000E+01 0. -1.
         -5    1    3    3    0  502  0.34128271018E+02 -0.68442910576E+02  0.99580399650E+02  0.12563000949E+03  0.41800000000E+01 0. -1.
        -11    1    1    2    0    0  0.39777637443E+02  0.94660991740E+00  0.57102849406E+02  0.69598074120E+02  0.00000000000E+00 0.  1.
         11    1    1    2    0    0 -0.36086882249E+02  0.31185260483E+02  0.36985218705E+02  0.60354701097E+02  0.00000000000E+00 0. -1.
</event>
<event>
 7    1  0.7017065E-006  0.1409146E+03  0.7561462E-02  0.1212104E+00
          2   -1    0    0  501    0  0.00000000000E+00  0.00000000000E+00  0.21901483266E+03  0.21901483266E+03  0.00000000000E+00 0. -1.
         -2   -1    0    0    0  501 -0.00000000000E+00 -0.00000000000E+00 -0.10589988137E+03  0.10589988137E+03  0.00000000000E+00 0.  1.
         23    2    1    2    0    0  0.13035989475E+02 -0.10356188817E+03  0.25323989938E+02  0.16487601559E+03  0.12509114415E+03 0.  0.
          5    1    3    3  502    0  0.10330332904E+02 -0.12720098603E+03  0.43227810745E+02  0.13480698293E+03  0.41800000000E+01 0. -1.
         -5    1    3    3    0  502  0.27056565708E+01  0.23639097861E+02 -0.17903820807E+02  0.30069032652E+02  0.41800000000E+01 0. -1.
        -11    1    1    2    0    0  0.32519559424E+02  0.36181202733E+02  0.51903675619E+02  0.71137843087E+02  0.00000000000E+00 0.  1.
         11    1    1    2    0    0 -0.45555548898E+02  0.67380685441E+02  0.35887285728E+02  0.88900855355E+02  0.00000000000E+00 0. -1.
</event>
<event>
 7    1  0.7017065E-006  0.1073539E+03  0.7561462E-02  0.1265550E+00
          1   -1    0    0  501    0  0.00000000000E+00  0.00000000000E+00  0.15868279579E+03  0.15868279579E+03  0.00000000000E+00 0. -1.
         -1   -1    0    0    0  501 -0.00000000000E+00 -0.00000000000E+00 -0.97658653847E+02  0.97658653847E+02  0.00000000000E+00 0.  1.
         23    2    1    2    0    0  0.44099519210E+01  0.87537009125E+01 -0.22675978345E+02  0.12750681473E+03  0.12509081842E+03 0.  0.
          5    1    3    3  502    0 -0.53669387741E+02  0.22453784644E+02  0.10255328050E+02  0.59221784663E+02  0.41800000000E+01 0.  1.
         -5    1    3    3    0  502  0.58079339662E+02 -0.13700083731E+02 -0.32931306395E+02  0.68285030063E+02  0.41800000000E+01 0.  1.
        -11    1    1    2    0    0  0.42471917277E+02 -0.22016872134E+02  0.30700011802E+02  0.56842740437E+02  0.00000000000E+00 0.  1.
         11    1    1    2    0    0 -0.46881869198E+02  0.13263171222E+02  0.53000108483E+02  0.71991894471E+02  0.00000000000E+00 0. -1.
</event>
<event>
 7    1  0.7017065E-006  0.1056002E+03  0.7561462E-02  0.1268942E+00
          1   -1    0    0  501    0  0.00000000000E+00  0.00000000000E+00  0.78015717904E+02  0.78015717904E+02  0.00000000000E+00 0. -1.
         -1   -1    0    0    0  501 -0.00000000000E+00 -0.00000000000E+00 -0.27668543923E+03  0.27668543923E+03  0.00000000000E+00 0.  1.
         23    2    1    2    0    0  0.26400736780E+02 -0.62529856717E+02 -0.19463761214E+03  0.24111986151E+03  0.12509198884E+03 0.  0.
          5    1    3    3  502    0  0.30969864447E+02 -0.97576592029E+02 -0.11579350511E+03  0.15461543274E+03  0.41800000000E+01 0. -1.
         -5    1    3    3    0  502 -0.45691276673E+01  0.35046735312E+02 -0.78844107026E+02  0.86504428768E+02  0.41800000000E+01 0. -1.
        -11    1    1    2    0    0 -0.32078751689E+02  0.50149479221E+02 -0.42255484088E+02  0.73003715738E+02  0.00000000000E+00 0.  1.
         11    1    1    2    0    0  0.56780149095E+01  0.12380377496E+02  0.38223374902E+02  0.40577579883E+02  0.00000000000E+00 0. -1.
</event>
<event>
 7    1  0.7017065E-006  0.1205895E+03  0.7561462E-02  0.1242128E+00
          2   -1    0    0  501    0  0.00000000000E+00  0.00000000000E+00  0.13191260429E+03  0.13191260429E+03  0.00000000000E+00 0. -1.
         -2   -1    0    0    0  501 -0.00000000000E+00 -0.00000000000E+00 -0.11709744626E+03  0.11709744626E+03  0.00000000000E+00 0.  1.
         23    2    1    2    0    0  0.36407209031E+02 -0.43441645310E+02 -0.12361130093E+02  0.13788480700E+03  0.12508701390E+03 0.  0.
          5    1    3    3  502    0  0.16383726965E+02 -0.85571033606E+02 -0.22251807743E+02  0.90019129353E+02  0.41800000000E+01 0.  1.
         -5    1    3    3    0  502  0.20023482066E+02  0.42129388295E+02  0.98906776504E+01  0.47865677646E+02  0.41800000000E+01 0.  1.
        -11    1    1    2    0    0 -0.28890328017E+02  0.72005096228E+02  0.14240720382E+02  0.78880815492E+02  0.00000000000E+00 0.  1.
         11    1    1    2    0    0 -0.75168810139E+01 -0.28563450917E+02  0.12935567743E+02  0.32244428066E+02  0.00000000000E+00 0. -1.
</event>
<event>
 7    1  0.7017065E-006  0.1173982E+03  0.7561462E-02  0.1247452E+00
         -2   -1    0    0    0  501 -0.00000000000E+00  0.00000000000E+00  0.53888492436E+02  0.53888492436E+02  0.00000000000E+00 0. -1.
          2   -1    0    0  501    0  0.00000000000E+00 -0.00000000000E+00 -0.27691291403E+03  0.27691291403E+03  0.00000000000E+00 0.  1.
         23    2    1    2    0    0  0.17958867344E+02  0.45641137622E+02 -0.84936784338E+02  0.15895860066E+03  0.12509174646E+03 0.  0.
          5    1    3    3  502    0  0.71871768348E+02  0.23420061825E+02 -0.43672346147E+02  0.87400209378E+02  0.41800000000E+01 0.  1.
         -5    1    3    3    0  502 -0.53912901004E+02  0.22221075796E+02 -0.41264438191E+02  0.71558391286E+02  0.41800000000E+01 0.  1.
        -11    1    1    2    0    0  0.44761785103E+01 -0.68472016796E+02 -0.78979844201E+02  0.10462441899E+03  0.00000000000E+00 0. -1.
         11    1    1    2    0    0 -0.22435045854E+02  0.22830879174E+02 -0.59107793056E+02  0.67218386818E+02  0.00000000000E+00 0.  1.
</event>
<event>
 7    1  0.7017065E-006  0.1340147E+03  0.7561462E-02  0.1221617E+00
          1   -1    0    0  501    0  0.00000000000E+00  0.00000000000E+00  0.44576323371E+03  0.44576323371E+03  0.00000000000E+00 0. -1.
         -1   -1    0    0    0  501 -0.00000000000E+00 -0.00000000000E+00 -0.54288413362E+02  0.54288413362E+02  0.00000000000E+00 0.  1.
         23    2    1    2    0    0  0.23588218215E+02 -0.97612972139E+02  0.13377760258E+03  0.20887490880E+03  0.12509030420E+03 0.  0.
          5    1    3    3  502    0  0.62859548930E+02 -0.43873254180E+02  0.11728267254E+03  0.14017447343E+03  0.41800000000E+01 0. -1.
         -5    1    3    3    0  502 -0.39271330715E+02 -0.53739717959E+02  0.16494930044E+02  0.68700435367E+02  0.41800000000E+01 0. -1.
        -11    1    1    2    0    0 -0.40800830525E+02  0.99219455528E+02  0.25039685780E+03  0.27241107636E+03  0.00000000000E+00 0. -1.
         11    1    1    2    0    0  0.17212612310E+02 -0.16064833890E+01  0.73003599640E+01  0.18765661913E+02  0.00000000000E+00 0.  1.
</event>
<event>
 7    1  0.7017065E-006  0.1114372E+03  0.7561462E-02  0.1257931E+00
          2   -1    0    0  501    0  0.00000000000E+00  0.00000000000E+00  0.33029702368E+02  0.33029702368E+02  0.00000000000E+00 0. -1.
         -2   -1    0    0    0  501 -0.00000000000E+00 -0.00000000000E+00 -0.53956920671E+03  0.53956920671E+03  0.00000000000E+00 0.  1.
         23    2    1    2    0    0  0.35637941738E+02 -0.65434596806E+02 -0.23996351503E+03  0.28067814298E+03  0.12508390003E+03 0.  0.
          5    1    3    3  502    0 -0.20166603056E+02 -0.33931177842E+02 -0.20245154777E+03  0.20630588529E+03  0.41800000000E+01 0.  1.
         -5    1    3    3    0  502  0.55804544794E+02 -0.31503418964E+02 -0.37511967261E+02  0.74372257690E+02  0.41800000000E+01 0.  1.
        -11    1    1    2    0    0  0.31416631288E+02  0.13715002908E+02 -0.78683585313E+02  0.85826642857E+02  0.00000000000E+00 0.  1.
         11    1    1    2    0    0 -0.67054573026E+02  0.51719593898E+02 -0.18789240400E+03  0.20609412324E+03  0.00000000000E+00 0. -1.
</event>
<event>
 7    1  0.7017065E-006  0.2058343E+03  0.7561462E-02  0.1144908E+00
          1   -1    0    0  501    0  0.00000000000E+00  0.00000000000E+00  0.59635776597E+02  0.59635776597E+02  0.00000000000E+00 0. -1.
         -1   -1    0    0    0  501 -0.00000000000E+00 -0.00000000000E+00 -0.84214359266E+03  0.84214359266E+03  0.00000000000E+00 0.  1.
         23    2    1    2    0    0  0.10984741910E+03  0.15310724752E+03 -0.50211948978E+03  0.55069572901E+03  0.12503407216E+03 0.  0.
          5    1    3    3  502    0 -0.10314390419E+02 -0.38995598956E+01 -0.11867607016E+03  0.11926053515E+03  0.41800000000E+01 0. -1.
         -5    1    3    3    0  502  0.12016180952E+03  0.15700680741E+03 -0.38344341963E+03  0.43143519385E+03  0.41800000000E+01 0. -1.
        -11    1    1    2    0    0 -0.12081008058E+03 -0.13730325110E+03 -0.21171991949E+03  0.27977237648E+03  0.00000000000E+00 0.  1.
         11    1    1    2    0    0  0.10962661487E+02 -0.15803996421E+02 -0.68668406789E+02  0.71311263772E+02  0.00000000000E+00 0. -1.
</event>
<event>
 7    1  0.7017065E-006  0.1041290E+03  0.7561462E-02  0.1271845E+00
         -3   -1    0    0    0  501 -0.00000000000E+00  0.00000000000E+00  0.16335698666E+04  0.16335698666E+04  0.00000000000E+00 0.  1.
          3   -1    0    0  501    0  0.00000000000E+00 -0.00000000000E+00 -0.18958768516E+02  0.18958768516E+02  0.00000000000E+00 0. -1.
         23    2    1    2    0    0  0.46173863577E+02 -0.60792567030E+02  0.13948071837E+04  0.14024843555E+04  0.12509007018E+03 0.  0.
          5    1    3    3  502    0 -0.60806338819E+01  0.10487260136E+02  0.14550137374E+02  0.19394216436E+02  0.41800000000E+01 0.  1.
         -5    1    3    3    0  502  0.52254497459E+02 -0.71279827166E+02  0.13802570463E+04  0.13830901390E+04  0.41800000000E+01 0.  1.
        -11    1    1    2    0    0 -0.32423251043E+02  0.78267770400E+02  0.11458900536E+03  0.14250526741E+03  0.00000000000E+00 0.  1.
         11    1    1    2    0    0 -0.13750612534E+02 -0.17475203370E+02  0.10521490897E+03  0.10753901221E+03  0.00000000000E+00 0. -1.
</event>
<event>
 7    1  0.7017065E-006  0.1143106E+03  0.7561462E-02  0.1252789E+00
          2   -1    0    0  501    0  0.00000000000E+00  0.00000000000E+00  0.11833400642E+03  0.11833400642E+03  0.00000000000E+00 0. -1.
         -2   -1    0    0    0  501 -0.00000000000E+00 -0.00000000000E+00 -0.19192238155E+03  0.19192238155E+03  0.00000000000E+00 0.  1.
         23    2    1    2    0    0 -0.57158782371E+02 -0.41043571140E+02 -0.12036819647E+03  0.18731789468E+03  0.12509112603E+03 0.  0.
          5    1    3    3  502    0 -0.17568199152E+02  0.42997073473E+02 -0.20758523009E+02  0.51046827778E+02  0.41800000000E+01 0. -1.
         -5    1    3    3    0  502 -0.39590583219E+02 -0.84040644613E+02 -0.99609673460E+02  0.13627106690E+03  0.41800000000E+01 0. -1.
        -11    1    1    2    0    0  0.52873353413E+01  0.36546111128E+02  0.58864719425E+02  0.69488339645E+02  0.00000000000E+00 0. -1.
         11    1    1    2    0    0  0.51871447030E+02  0.44974600120E+01 -0.12084898091E+02  0.53450153652E+02  0.00000000000E+00 0.  1.
</event>
<event>
 7    1  0.7017065E-006  0.1655711E+03  0.7561462E-02  0.1182547E+00
          2   -1    0    0  501    0  0.00000000000E+00  0.00000000000E+00  0.13908492183E+03  0.13908492183E+03  0.00000000000E+00 0. -1.
         -2   -1    0    0    0  501 -0.00000000000E+00 -0.00000000000E+00 -0.23048330110E+03  0.23048330110E+03  0.00000000000E+00 0.  1.
         23    2    1    2    0    0 -0.10455771304E+03  0.85567308506E+02 -0.96742592387E+02  0.20799089287E+03  0.12508797982E+03 0.  0.
          5    1    3    3  502    0 -0.55704067841E+02 -0.25468179671E+02 -0.44612931333E+02  0.75890430173E+02  0.41800000000E+01 0. -1.
         -5    1    3    3    0  502 -0.48853645196E+02  0.11103548818E+03 -0.52129661055E+02  0.13210046270E+03  0.41800000000E+01 0. -1.
        -11    1    1    2    0    0  0.67854680565E+02 -0.16002034187E+02 -0.29311140746E+02  0.75627149520E+02  0.00000000000E+00 0.  1.
         11    1    1    2    0    0  0.36703032473E+02 -0.69565274319E+02  0.34655353865E+02  0.85950180542E+02  0.00000000000E+00 0. -1.
</event>
<event>
 7    1  0.7017065E-006  0.7774536E+02  0.7561462E-02  0.1335574E+00
         -2   -1    0    0    0  501 -0.00000000000E+00  0.00000000000E+00  0.28773482074E+03  0.28773482074E+03  0.00000000000E+00 0.  1.
          2   -1    0    0  501    0  0.00000000000E+00 -0.00000000000E+00 -0.51541385542E+02  0.51541385542E+02  0.00000000000E+00 0. -1.
         23    2    1    2    0    0 -0.34109433832E+02 -0.48444421656E+02  0.20921974938E+03  0.25086033991E+03  0.12509073164E+03 0.  0.
          5    1    3    3  502    0  0.28818046348E+00 -0.56846885569E+02  0.23344308119E+02  0.61596108387E+02  0.41800000000E+01 0. -1.
         -5    1    3    3    0  502 -0.34397614296E+02  0.84024639134E+01  0.18587544126E+03  0.18926423152E+03  0.41800000000E+01 0. -1.
        -11    1    1    2    0    0  0.16808995522E+02  0.40396416995E+02 -0.11699977633E+02  0.45291305049E+02  0.00000000000E+00 0. -1.
         11    1    1    2    0    0  0.17300438311E+02  0.80480046612E+01  0.38673663449E+02  0.43124561324E+02  0.00000000000E+00 0.  1.
</event>
<event>
 7    1  0.7017065E-006  0.1719325E+03  0.7561462E-02  0.1175847E+00
          1   -1    0    0  501    0  0.00000000000E+00  0.00000000000E+00  0.18557754129E+02  0.18557754129E+02  0.00000000000E+00 0. -1.
         -1   -1    0    0    0  501 -0.00000000000E+00 -0.00000000000E+00 -0.17071807293E+04  0.17071807293E+04  0.00000000000E+00 0.  1.
         23    2    1    2    0    0  0.36307289936E+02  0.13711489595E+03 -0.96592017619E+03  0.98425832269E+03  0.12507575714E+03 0.  0.
          5    1    3    3  502    0  0.70990436635E+02  0.12077912928E+03 -0.59250601488E+03  0.60885802141E+03  0.41800000000E+01 0. -1.
         -5    1    3    3    0  502 -0.34683146699E+02  0.16335766669E+02 -0.37341416131E+03  0.37540030128E+03  0.41800000000E+01 0. -1.
        -11    1    1    2    0    0  0.27815275621E+02 -0.45072657240E+02 -0.26395838492E+03  0.26921972988E+03  0.00000000000E+00 0. -1.
         11    1    1    2    0    0 -0.64122565557E+02 -0.92042238710E+02 -0.45874441411E+03  0.47226043090E+03  0.00000000000E+00 0.  1.
</event>
<event>
 6    1  0.7017065E-006  0.1091470E+03  0.7561462E-02  0.1262158E+00
         -2   -1    0    0    0  501 -0.00000000000E+00  0.00000000000E+00  0.37967300514E+03  0.37967300514E+03  0.00000000000E+00 0.  1.
          2   -1    0    0  501    0  0.00000000000E+00 -0.00000000000E+00 -0.38292757775E+02  0.38292757775E+02  0.00000000000E+00 0. -1.
          5    1    1    2  502    0  0.14202899434E+01 -0.70911546257E+02  0.10406174897E+03  0.12600311351E+03  0.41800000000E+01 0. -1.
         -5    1    1    2    0  502  0.40274057368E+02  0.56077773529E+02  0.16637584238E+03  0.18018076953E+03  0.41800000000E+01 0.  1.
        -11    1    1    2    0    0  0.27943909505E+01 -0.20855912197E+02  0.37302422593E+00  0.21045589595E+02  0.00000000000E+00 0. -1.
         11    1    1    2    0    0 -0.44488738262E+02  0.35689684924E+02  0.70569631785E+02  0.90736290272E+02  0.00000000000E+00 0.  1.
</event>
<event>
 7    1  0.7017065E-006  0.1139914E+03  0.7561462E-02  0.1253352E+00
         -2   -1    0    0    0  501 -0.00000000000E+00  0.00000000000E+00  0.47955250929E+02  0.47955250929E+02  0.00000000000E+00 0.  1.
          2   -1    0    0  501    0  0.00000000000E+00 -0.00000000000E+00 -0.37452600553E+03  0.37452600553E+03  0.00000000000E+00 0. -1.
         23    2    1    2    0    0 -0.18209301505E+02 -0.49272739978E+02 -0.88386071966E+02  0.16192541419E+03  0.12509340701E+03 0.  0.
          5    1    3    3  502    0 -0.58641539171E+02  0.16359316274E+01 -0.94315219533E+01  0.59564522956E+02  0.41800000000E+01 0.  1.
         -5    1    3    3    0  502  0.40432237666E+02 -0.50908671606E+02 -0.78954550013E+02  0.10236089124E+03  0.41800000000E+01 0.  1.
        -11    1    1    2    0    0 -0.35597943923E+02  0.87301029474E+01 -0.10662567718E+03  0.11274956028E+03  0.00000000000E+00 0. -1.
         11    1    1    2    0    0  0.53807245428E+02  0.40542637031E+02 -0.13155900545E+03  0.14780628198E+03  0.00000000000E+00 0.  1.
</event>
<event>
 7    1  0.7017065E-006  0.1136094E+03  0.7561462E-02  0.1254028E+00
         -2   -1    0    0    0  501 -0.00000000000E+00  0.00000000000E+00  0.61838194648E+03  0.61838194648E+03  0.00000000000E+00 0.  1.
          2   -1    0    0  501    0  0.00000000000E+00 -0.00000000000E+00 -0.36474162767E+02  0.36474162767E+02  0.00000000000E+00 0. -1.
         23    2    1    2    0    0  0.75944163272E+02 -0.56597003566E+02  0.40732493298E+03  0.43650062185E+03  0.12509378519E+03 0.  0.
          5    1    3    3  502    0  0.18998017818E+02  0.82158159182E+01  0.10472379843E+01  0.21142218891E+02  0.41800000000E+01 0. -1.
         -5    1    3    3    0  502  0.56946145454E+02 -0.64812819484E+02  0.40627769500E+03  0.41535840296E+03  0.41800000000E+01 0. -1.
        -11    1    1    2    0    0 -0.62599915382E+02  0.10613963032E+01  0.46102825310E+02  0.77751826149E+02  0.00000000000E+00 0. -1.
         11    1    1    2    0    0 -0.13344247891E+02  0.55535607263E+02  0.12848002542E+03  0.14060366125E+03  0.00000000000E+00 0.  1.
</event>
<event>
 7    1  0.7017065E-006  0.1616727E+03  0.7561462E-02  0.1186821E+00
         -1   -1    0    0    0  501 -0.00000000000E+00  0.00000000000E+00  0.57642129303E+02  0.57642129303E+02  0.00000000000E+00 0.  1.
          1   -1    0    0  501    0  0.00000000000E+00 -0.00000000000E+00 -0.52474755077E+03  0.52474755077E+03  0.00000000000E+00 0. -1.
         23    2    1    2    0    0  0.13014765692E+03 -0.21898009004E+02 -0.18971913450E+03  0.26278434867E+03  0.12507729013E+03 0.  0.
          5    1    3    3  502    0  0.97326742267E+02 -0.62736067983E+02 -0.17186445951E+03  0.20727559873E+03  0.41800000000E+01 0. -1.
         -5    1    3    3    0  502  0.32820914657E+02  0.40838058979E+02 -0.17854674989E+02  0.55508749932E+02  0.41800000000E+01 0. -1.
        -11    1    1    2    0    0 -0.36268461886E+01 -0.21008034997E+02 -0.67683600002E+02  0.70961688656E+02  0.00000000000E+00 0. -1.
         11    1    1    2    0    0 -0.12652081074E+03  0.42906044002E+02 -0.20970268696E+03  0.24864364275E+03  0.00000000000E+00 0.  1.
</event>
<event>
 7    1  0.7017065E-006  0.1028525E+03  0.7561462E-02  0.1274409E+00
          1   -1    0    0  501    0  0.00000000000E+00  0.00000000000E+00  0.41688885221E+02  0.41688885221E+02  0.00000000000E+00 0. -1.
         -1   -1    0    0    0  501 -0.00000000000E+00 -0.00000000000E+00 -0.36300537331E+03  0.36300537331E+03  0.00000000000E+00 0.  1.
         23    2    1    2    0    0 -0.51935586486E+02  0.17899504723E+02 -0.19821530489E+03  0.24074373440E+03  0.12510212287E+03 0.  0.
          5    1    3    3  502    0 -0.46019099231E+02  0.65637008424E+02 -0.16057757810E+03  0.17952327247E+03  0.41800000000E+01 0. -1.
         -5    1    3    3    0  502 -0.59164872549E+01 -0.47737503701E+02 -0.37637726788E+02  0.61220461929E+02  0.41800000000E+01 0. -1.
        -11    1    1    2    0    0  0.31562155955E+02  0.17660471725E+02 -0.11706624567E+03  0.12252578433E+03  0.00000000000E+00 0.  1.
         11    1    1    2    0    0  0.20373430531E+02 -0.35559976448E+02 -0.60349375235E+01  0.41424739800E+02  0.00000000000E+00 0. -1.
</event>
<event>
 7    1  0.7017065E-006  0.1437511E+03  0.7561462E-02  0.1208369E+00
          1   -1    0    0  501    0  0.00000000000E+00  0.00000000000E+00  0.43196428518E+03  0.43196428518E+03  0.00000000000E+00 0. -1.
         -1   -1    0    0    0  501 -0.00000000000E+00 -0.00000000000E+00 -0.69140122837E+02  0.69140122837E+02  0.00000000000E+00 0.  1.
         23    2    1    2    0    0 -0.23604266292E+02  0.91932296017E+02  0.62348442272E+02  0.16894777700E+03  0.12508922680E+03 0.  0.
          5    1    3    3  502    0  0.20571306762E+02  0.10291330503E+03  0.64376351538E+02  0.12319137166E+03  0.41800000000E+01 0.  1.
         -5    1    3    3    0  502 -0.44175573055E+02 -0.10981009016E+02 -0.20279092661E+01  0.45756405341E+02  0.41800000000E+01 0.  1.
        -11    1    1    2    0    0 -0.61056825122E+01 -0.10437113593E+03  0.26130407581E+03  0.28144348173E+03  0.00000000000E+00 0. -1.
         11    1    1    2    0    0  0.29709948805E+02  0.12438839910E+02  0.39171644263E+02  0.50713149286E+02  0.00000000000E+00 0.  1.
</event>
<event>
 7    1  0.7017065E-006  0.9259829E+02  0.7561462E-02  0.1296679E+00
          2   -1    0    0  501    0  0.00000000000E+00  0.00000000000E+00  0.12744714520E+03  0.12744714520E+03  0.00000000000E+00 0. -1.
         -2   -1    0    0    0  501 -0.00000000000E+00 -0.00000000000E+00 -0.12254927548E+03  0.12254927548E+03  0.00000000000E+00 0.  1.
         23    2    1    2    0    0 -0.11610073336E+02 -0.39589697939E+02 -0.41045558304E+02  0.13796479498E+03  0.12508960313E+03 0.  0.
          5    1    3    3  502    0 -0.49681968401E+02 -0.53074302395E+02  0.91610330203E+01  0.73393300000E+02  0.41800000000E+01 0. -1.
         -5    1    3    3    0  502  0.38071895065E+02  0.13484604455E+02 -0.50206591324E+02  0.64571494977E+02  0.41800000000E+01 0. -1.
        -11    1    1    2    0    0 -0.18294341010E+02  0.37584653270E+02  0.64441387785E+02  0.76811337275E+02  0.00000000000E+00 0. -1.
         11    1    1    2    0    0  0.29904414346E+02  0.20050446694E+01 -0.18497959760E+02  0.35220288426E+02  0.00000000000E+00 0.  1.
</event>
<event>
 7    1  0.7017065E-006  0.1195343E+03  0.7561462E-02  0.1243867E+00
         -2   -1    0    0    0  501 -0.00000000000E+00  0.00000000000E+00  0.15726785411E+04  0.15726785411E+04  0.00000000000E+00 0. -1.
          2   -1    0    0  501    0  0.00000000000E+00 -0.00000000000E+00 -0.15579682258E+02  0.15579682258E+02  0.00000000000E+00 0.  1.
         23    2    1    2    0    0  0.30863667626E+02  0.81821193275E+02  0.11911533964E+04  0.12008923302E+04  0.12509476941E+03 0.  0.
          5    1    3    3  502    0 -0.23565313979E+02  0.87789305777E+02  0.55891510429E+03  0.56627365508E+03  0.41800000000E+01 0. -1.
         -5    1    3    3    0  502  0.54428981606E+02 -0.59681125012E+01  0.63223829210E+03  0.63461867512E+03  0.41800000000E+01 0. -1.
        -11    1    1    2    0    0 -0.19453226503E+02 -0.79064182839E+02  0.36667317374E+03  0.37560456516E+03  0.00000000000E+00 0. -1.
         11    1    1    2    0    0 -0.11410441123E+02 -0.27570104368E+01 -0.72771127127E+00  0.11761328023E+02  0.00000000000E+00 0.  1.
</event>
<event>
 7    1  0.7017065E-006  0.9180984E+02  0.7561462E-02  0.1298527E+00
          1   -1    0    0  501    0  0.00000000000E+00  0.00000000000E+00  0.49932503309E+03  0.49932503309E+03  0.00000000000E+00 0. -1.
         -1   -1    0    0    0  501 -0.00000000000E+00 -0.00000000000E+00 -0.26967955256E+02  0.26967955256E+02  0.00000000000E+00 0.  1.
         23    2    1    2    0    0  0.15698653384E+02  0.25165256271E+02  0.20317634685E+03  0.24042546038E+03  0.12507612178E+03 0.  0.
          5    1    3    3  502    0  0.18573572529E+02 -0.36006633419E+02  0.16069636540E+03  0.16577771110E+03  0.41800000000E+01 0.  1.
         -5    1    3    3    0  502 -0.28749191448E+01  0.61171889690E+02  0.42479981454E+02  0.74647749281E+02  0.41800000000E+01 0.  1.
        -11    1    1    2    0    0 -0.39350836806E+00  0.27071864490E+02  0.29323227301E+02  0.39911055551E+02  0.00000000000E+00 0.  1.
         11    1    1    2    0    0 -0.15305145016E+02 -0.52237120761E+02  0.23985750368E+03  0.24595647241E+03  0.00000000000E+00 0. -1.
</event>
<event>
 7    1  0.7017065E-006  0.9699346E+02  0.7561462E-02  0.1286748E+00
          1   -1    0    0  501    0  0.00000000000E+00  0.00000000000E+00  0.27046109370E+03  0.27046109370E+03  0.00000000000E+00 0. -1.
         -1   -1    0    0    0  501 -0.00000000000E+00 -0.00000000000E+00 -0.45600125145E+02  0.45600125145E+02  0.00000000000E+00 0.  1.
         23    2    1    2    0    0 -0.13137806144E+01 -0.16101920078E+02  0.10354058323E+03  0.16318550639E+03  0.12509140367E+03 0.  0.
          5    1    3    3  502    0  0.20428766733E+02  0.40699433028E+02  0.89678809165E+02  0.10066548352E+03  0.41800000000E+01 0.  1.
         -5    1    3    3    0  502 -0.21742547348E+02 -0.56801353107E+02  0.13861774069E+02  0.62520022874E+02  0.41800000000E+01 0.  1.
        -11    1    1    2    0    0  0.95518382001E+01 -0.34616242766E+02  0.77225706247E+02  0.85166493303E+02  0.00000000000E+00 0. -1.
         11    1    1    2    0    0 -0.82380575857E+01  0.50718162844E+02  0.44094679078E+02  0.67709219151E+02  0.00000000000E+00 0.  1.
</event>
<event>
 7    1  0.7017065E-006  0.1704847E+03  0.7561462E-02  0.1177343E+00
         -2   -1    0    0    0  501 -0.00000000000E+00  0.00000000000E+00  0.25072484299E+02  0.25072484299E+02  0.00000000000E+00 0.  1.
          2   -1    0    0  501    0  0.00000000000E+00 -0.00000000000E+00 -0.12457652305E+04  0.12457652305E+04  0.00000000000E+00 0. -1.
         23    2    1    2    0    0 -0.70715310665E+02 -0.11202178448E+03 -0.48725484481E+03  0.52020611019E+03  0.12509027910E+03 0.  0.
          5    1    3    3  502    0 -0.86748821954E+02 -0.13071754943E+03 -0.40986198619E+03  0.43888125497E+03  0.41800000000E+01 0. -1.
         -5    1    3    3    0  502  0.16033511289E+02  0.18695764947E+02 -0.77392858621E+02  0.81324855222E+02  0.41800000000E+01 0. -1.
        -11    1    1    2    0    0  0.32141784717E+02 -0.78811315129E+01 -0.12609144479E+03  0.13036203055E+03  0.00000000000E+00 0.  1.
         11    1    1    2    0    0  0.38573525948E+02  0.11990291599E+03 -0.60734645661E+03  0.62026957408E+03  0.00000000000E+00 0. -1.
</event>
<event>
 7    1  0.7017065E-006  0.1349578E+03  0.7561462E-02  0.1220279E+00
         -1   -1    0    0    0  501 -0.00000000000E+00  0.00000000000E+00  0.83308985231E+03  0.83308985231E+03  0.00000000000E+00 0.  1.
          1   -1    0    0  501    0  0.00000000000E+00 -0.00000000000E+00 -0.23700105114E+02  0.23700105114E+02  0.00000000000E+00 0. -1.
         23    2    1    2    0    0 -0.27538033004E+02 -0.80934434280E+02  0.51755826897E+03  0.53927943837E+03  0.12508806882E+03 0.  0.
          5    1    3    3  502    0 -0.59539048005E+02 -0.63796836877E+00  0.28398489454E+03  0.29018993430E+03  0.41800000000E+01 0.  1.
         -5    1    3    3    0  502  0.32001015001E+02 -0.80296465911E+02  0.23357337443E+03  0.24908950408E+03  0.41800000000E+01 0.  1.
        -11    1    1    2    0    0  0.34818712769E+02  0.98606943027E+02  0.26179525772E+03  0.28190854712E+03  0.00000000000E+00 0.  1.
         11    1    1    2    0    0 -0.72806797654E+01 -0.17672508747E+02  0.30036220504E+02  0.35601971932E+02  0.00000000000E+00 0. -1.
</event>
<event>
 7    1  0.7017065E-006  0.1234118E+03  0.7561462E-02  0.1237572E+00
          2   -1    0    0  501    0  0.00000000000E+00  0.00000000000E+00  0.32648950042E+03  0.32648950042E+03  0.00000000000E+00 0. -1.
         -2   -1    0    0    0  501 -0.00000000000E+00 -0.00000000000E+00 -0.49254443044E+02  0.49254443044E+02  0.00000000000E+00 0.  1.
         23    2    1    2    0    0  0.36621679888E+02 -0.45201398361E+02  0.13708190468E+03  0.19448536818E+03  0.12509514777E+03 0.  0.
          5    1    3    3  502    0  0.75351965514E+02 -0.42710621210E+01  0.10540595835E+03  0.12970755234E+03  0.41800000000E+01 0. -1.
         -5    1    3    3    0  502 -0.38730285625E+02 -0.40930336240E+02  0.31675946330E+02  0.64777815842E+02  0.41800000000E+01 0. -1.
        -11    1    1    2    0    0 -0.69917179409E+02  0.19259161870E+02  0.93834189662E+02  0.11859250584E+03  0.00000000000E+00 0.  1.
         11    1    1    2    0    0  0.33295499521E+02  0.25942236491E+02  0.46318963038E+02  0.62666069442E+02  0.00000000000E+00 0. -1.
</event>
<event>
 7    1  0.7017065E-006  0.6603087E+02  0.7561462E-02  0.1374135E+00
          1   -1    0    0  501    0  0.00000000000E+00  0.00000000000E+00  0.51030215607E+03  0.51030215607E+03  0.00000000000E+00 0. -1.
         -1   -1    0    0    0  501 -0.00000000000E+00 -0.00000000000E+00 -0.24544805040E+02  0.24544805040E+02  0.00000000000E+00 0.  1.
         23    2    1    2    0    0  0.21066579573E+02  0.80563418963E+01  0.21712685963E+03  0.25159518837E+03  0.12508940890E+03 0.  0.
          5    1    3    3  502    0  0.37691624507E+02  0.18042451784E+02  0.22599531679E+03  0.22986418650E+03  0.41800000000E+01 0. -1.
         -5    1    3    3    0  502 -0.16625044934E+02 -0.99861098872E+01 -0.88684571651E+01  0.21731001869E+02  0.41800000000E+01 0. -1.
        -11    1    1    2    0    0  0.21794230583E+02 -0.15473901620E+02  0.27954635481E+02  0.38676759985E+02  0.00000000000E+00 0.  1.
         11    1    1    2    0    0 -0.42860810157E+02  0.74175597241E+01  0.24067585592E+03  0.24457501275E+03  0.00000000000E+00 0. -1.
</event>
<event>
 7    1  0.7017065E-006  0.1008815E+03  0.7561462E-02  0.1278453E+00
         -1   -1    0    0    0  501 -0.00000000000E+00  0.00000000000E+00  0.28606610576E+02  0.28606610576E+02  0.00000000000E+00 0.  1.
          1   -1    0    0  501    0  0.00000000000E+00 -0.00000000000E+00 -0.45442755092E+03  0.45442755092E+03  0.00000000000E+00 0. -1.
         23    2    1    2    0    0  0.14007518549E+02 -0.63988180466E+01 -0.17749122078E+03  0.21767687231E+03  0.12507170678E+03 0.  0.
          5    1    3    3  502    0 -0.52036937129E+02 -0.18236730506E+02 -0.10590382695E+03  0.11947181311E+03  0.41800000000E+01 0. -1.
         -5    1    3    3    0  502  0.66044455678E+02  0.11837912459E+02 -0.71587393833E+02  0.98205059202E+02  0.41800000000E+01 0. -1.
        -11    1    1    2    0    0 -0.21957264385E+02  0.39501479500E+02 -0.66729007509E+02  0.80593106313E+02  0.00000000000E+00 0.  1.
         11    1    1    2    0    0  0.79497458365E+01 -0.33102661454E+02 -0.18160071205E+03  0.18476418287E+03  0.00000000000E+00 0. -1.
</event>
<event>
 7    1  0.7017065E-006  0.1096394E+03  0.7561462E-02  0.1261239E+00
          3   -1    0    0  501    0  0.00000000000E+00  0.00000000000E+00  0.42038523631E+02  0.42038523631E+02  0.00000000000E+00 0. -1.
         -3   -1    0    0    0  501 -0.00000000000E+00 -0.00000000000E+00 -0.31820763232E+03  0.31820763232E+03  0.00000000000E+00 0.  1.
         23    2    1    2    0    0 -0.40843316866E+02 -0.41055380453E+01 -0.17717239277E+03  0.22073144994E+03  0.12508910529E+03 0.  0.
          5    1    3    3  502    0  0.24293970752E+02 -0.45185079603E+02 -0.48531763166E+02  0.70743853936E+02  0.41800000000E+01 0. -1.
         -5    1    3    3    0  502 -0.65137287618E+02  0.41079541558E+02 -0.12864062960E+03  0.14998759601E+03  0.41800000000E+01 0. -1.
        -11    1    1    2    0    0  0.64039739474E+02  0.13856646028E+02 -0.92800677969E+02  0.11360044323E+03  0.00000000000E+00 0.  1.
         11    1    1    2    0    0 -0.23196422608E+02 -0.97511079826E+01 -0.61960379521E+01  0.25914262772E+02  0.00000000000E+00 0. -1.
</event>
<event>
 7    1  0.7017065E-006  0.9982842E+02  0.7561462E-02  0.1280657E+00
          1   -1    0    0  501    0  0.00000000000E+00  0.00000000000E+00  0.41663835491E+03  0.41663835491E+03  0.00000000000E+00 0. -1.
         -1   -1    0    0    0  501 -0.00000000000E+00 -0.00000000000E+00 -0.38619460221E+02  0.38619460221E+02  0.00000000000E+00 0.  1.
         23    2    1    2    0    0  0.32844191201E+01 -0.19165640241E+02  0.80829896423E+02  0.14444165315E+03  0.11811777950E+03 0.  0.
          5    1    3    3  502    0  0.22516052933E+02 -0.61727979973E+02  0.22450639876E+02  0.69561625787E+02  0.41800000000E+01 0. -1.
         -5    1    3    3    0  502 -0.19231633813E+02  0.42562339732E+02  0.58379256548E+02  0.74880027362E+02  0.41800000000E+01 0.  1.
        -11    1    1    2    0    0 -0.18929084031E+02  0.49389483211E+02  0.22310438949E+03  0.22928846435E+03  0.00000000000E+00 0.  1.
         11    1    1    2    0    0  0.15644664911E+02 -0.30223842970E+02  0.74084608776E+02  0.81527697634E+02  0.00000000000E+00 0. -1.
</event>
<event>
 7    1  0.7017065E-006  0.2470460E+03  0.7561462E-02  0.1115186E+00
          1   -1    0    0  501    0  0.00000000000E+00  0.00000000000E+00  0.78843144354E+03  0.78843144354E+03  0.00000000000E+00 0. -1.
         -1   -1    0    0    0  501 -0.00000000000E+00 -0.00000000000E+00 -0.95919520635E+02  0.95919520635E+02  0.00000000000E+00 0.  1.
         23    2    1    2    0    0 -0.22312212228E+03 -0.74107332044E+02  0.50037428597E+03  0.56683251445E+03  0.12509714329E+03 0.  0.
          5    1    3    3  502    0 -0.52790952602E+02 -0.46231052906E+02  0.55286910532E+02  0.89433270127E+02  0.41800000000E+01 0. -1.
         -5    1    3    3    0  502 -0.17033116968E+03 -0.27876279137E+02  0.44508737544E+03  0.47739924432E+03  0.41800000000E+01 0. -1.
        -11    1    1    2    0    0  0.20583918236E+03  0.35540546831E+02  0.14540567428E+03  0.25451072586E+03  0.00000000000E+00 0.  1.
         11    1    1    2    0    0  0.17282939925E+02  0.38566785213E+02  0.46731962651E+02  0.63007723871E+02  0.00000000000E+00 0. -1.
</event>
<event>
 7    1  0.7017065E-006  0.3069760E+03  0.7561462E-02  0.1081804E+00
          2   -1    0    0  501    0  0.00000000000E+00  0.00000000000E+00  0.54152092055E+02  0.54152092055E+02  0.00000000000E+00 0. -1.
         -2   -1    0    0    0  501 -0.00000000000E+00 -0.00000000000E+00 -0.18967845187E+04  0.18967845187E+04  0.00000000000E+00 0.  1.
         23    2    1    2    0    0  0.63302532000E+02 -0.29414431967E+03 -0.97913540407E+03  0.10319329327E+04  0.12510534218E+03 0.  0.
          5    1    3    3  502    0  0.37704437070E+02 -0.71540453566E+02 -0.12540000406E+03  0.14927255103E+03  0.41800000000E+01 0.  1.
         -5    1    3    3    0  502  0.25598094931E+02 -0.22260386610E+03 -0.85373540001E+03  0.88266038162E+03  0.41800000000E+01 0.  1.
        -11    1    1    2    0    0 -0.65998806627E+02  0.14082959136E+03 -0.34775454607E+03  0.38094886874E+03  0.00000000000E+00 0. -1.
         11    1    1    2    0    0  0.26962746265E+01  0.15331472831E+03 -0.51574247653E+03  0.53805480939E+03  0.00000000000E+00 0.  1.
</event>
<event>
 6    1  0.7017065E-006  0.2404475E+03  0.7561462E-02  0.1119495E+00
         -2   -1    0    0    0  501 -0.00000000000E+00  0.00000000000E+00  0.19745365172E+03  0.19745365172E+03  0.00000000000E+00 0.  1.
          2   -1    0    0  501    0  0.00000000000E+00 -0.00000000000E+00 -0.10701953133E+04  0.10701953133E+04  0.00000000000E+00 0. -1.
          5    1    1    2  502    0  0.20952792432E+02  0.10173540018E+03 -0.43784092374E+03  0.45001250878E+03  0.41800000000E+01 0. -1.
         -5    1    1    2    0  502 -0.48190205793E+02  0.12403616154E+03  0.13962993648E+03  0.19292811320E+03  0.41800000000E+01 0.  1.
        -11    1    1    2    0    0  0.59580179726E+02 -0.15173741566E+03 -0.41546016964E+03  0.44629720331E+03  0.00000000000E+00 0.  1.
         11    1    1    2    0    0 -0.32342766365E+02 -0.74034146061E+02 -0.15907050473E+03  0.17841113977E+03  0.00000000000E+00 0. -1.
</event>
<event>
 7    1  0.7017065E-006  0.9064217E+02  0.7561462E-02  0.1301304E+00
          1   -1    0    0  501    0  0.00000000000E+00  0.00000000000E+00  0.40522364351E+02  0.40522364351E+02  0.00000000000E+00 0. -1.
         -1   -1    0    0    0  501 -0.00000000000E+00 -0.00000000000E+00 -0.44365784630E+03  0.44365784630E+03  0.00000000000E+00 0.  1.
         23    2    1    2    0    0  0.61082980674E+02  0.29735232136E+02 -0.29437027449E+03  0.32697656910E+03  0.12507799038E+03 0.  0.
          5    1    3    3  502    0  0.79320202305E+01 -0.14879469190E+02 -0.23475322264E+03  0.23539512206E+03  0.41800000000E+01 0. -1.
         -5    1    3    3    0  502  0.53150960443E+02  0.44614701326E+02 -0.59617051847E+02  0.91581447037E+02  0.41800000000E+01 0. -1.
        -11    1    1    2    0    0 -0.66754322000E+02 -0.43383372990E+02 -0.11604445015E+03  0.14072871408E+03  0.00000000000E+00 0.  1.
         11    1    1    2    0    0  0.56713413261E+01  0.13648140854E+02  0.72792426852E+01  0.16474927474E+02  0.00000000000E+00 0. -1.
</event>
<event>
 7    1  0.7017065E-006  0.1096796E+03  0.7561462E-02  0.1261164E+00
         -2   -1    0    0    0  501 -0.00000000000E+00  0.00000000000E+00  0.55661523812E+02  0.55661523812E+02  0.00000000000E+00 0.  1.
          2   -1    0    0  501    0  0.00000000000E+00 -0.00000000000E+00 -0.22412961320E+03  0.22412961320E+03  0.00000000000E+00 0. -1.
         23    2    1    2    0    0  0.30364330185E+02 -0.79613016180E+01 -0.10017182452E+03  0.16327977915E+03  0.12506205251E+03 0.  0.
          5    1    3    3  502    0 -0.45432047839E+02  0.12959199343E+02 -0.54514954692E+02  0.72259009843E+02  0.41800000000E+01 0.  1.
         -5    1    3    3    0  502  0.75796378024E+02 -0.20920500961E+02 -0.45656869828E+02  0.91020769303E+02  0.41800000000E+01 0.  1.
        -11    1    1    2    0    0 -0.55940152821E+02 -0.15957156895E+02 -0.51418287100E+02  0.77638726175E+02  0.00000000000E+00 0. -1.
         11    1    1    2    0    0  0.25575822636E+02  0.23918458513E+02 -0.16877977770E+02  0.38872631693E+02  0.00000000000E+00 0.  1.
</event>
<event>
 7    1  0.7017065E-006  0.1356121E+03  0.7561462E-02  0.1219358E+00
          1   -1    0    0  501    0  0.00000000000E+00  0.00000000000E+00  0.17876263338E+03  0.17876263338E+03  0.00000000000E+00 0.  1.
         -1   -1    0    0    0  501 -0.00000000000E+00 -0.00000000000E+00 -0.10661342097E+03  0.10661342097E+03  0.00000000000E+00 0. -1.
         23    2    1    2    0    0 -0.80040218671E+02  0.10507450900E+02  0.18979814407E+02  0.15008188932E+03  0.12508995570E+03 0.  0.
          5    1    3    3  502    0 -0.36407911331E+02 -0.56883659760E+02  0.16513798198E+02  0.69652456426E+02  0.41800000000E+01 0. -1.
         -5    1    3    3    0  502 -0.43632307340E+02  0.67391110660E+02  0.24660162086E+01  0.80429432894E+02  0.41800000000E+01 0. -1.
        -11    1    1    2    0    0  0.95588403859E+02  0.11438570731E+02  0.33344171367E+02  0.10188138994E+03  0.00000000000E+00 0.  1.
         11    1    1    2    0    0 -0.15548185188E+02 -0.21946021631E+02  0.19825226637E+02  0.33412775090E+02  0.00000000000E+00 0. -1.
</event>
<event>
 7    1  0.7017065E-006  0.3422376E+03  0.7561462E-02  0.1065847E+00
          1   -1    0    0  501    0  0.00000000000E+00  0.00000000000E+00  0.51298458715E+03  0.51298458715E+03  0.00000000000E+00 0. -1.
         -1   -1    0    0    0  501 -0.00000000000E+00 -0.00000000000E+00 -0.23928280745E+03  0.23928280745E+03  0.00000000000E+00 0.  1.
         23    2    1    2    0    0 -0.25340005748E+03  0.20258967497E+03  0.64683656937E+02  0.35367339670E+03  0.12508689188E+03 0.  0.
          5    1    3    3  502    0 -0.22600368770E+03  0.21789324629E+03  0.69737289042E+02  0.32161451385E+03  0.41800000000E+01 0.  1.
         -5    1    3    3    0  502 -0.27396369784E+02 -0.15303571319E+02 -0.50536321049E+01  0.32058882855E+02  0.41800000000E+01 0.  1.
        -11    1    1    2    0    0  0.11209205922E+03 -0.15179036081E+03  0.10518875174E+03  0.21603151823E+03  0.00000000000E+00 0. -1.
         11    1    1    2    0    0  0.14130799827E+03 -0.50799314158E+02  0.10382937102E+03  0.18256247966E+03  0.00000000000E+00 0.  1.
</event>
<event>
 7    1  0.7017065E-006  0.1141795E+03  0.7561462E-02  0.1253020E+00
         -1   -1    0    0    0  501 -0.00000000000E+00  0.00000000000E+00  0.95723798200E+02  0.95723798200E+02  0.00000000000E+00 0.  1.
          1   -1    0    0  501    0  0.00000000000E+00 -0.00000000000E+00 -0.25818737885E+03  0.25818737885E+03  0.00000000000E+00 0. -1.
         23    2    1    2    0    0 -0.10411313442E+02  0.52726403521E+02  0.26874908518E+02  0.13877517451E+03  0.12509124380E+03 0.  0.
          5    1    3    3  502    0  0.51884719506E+02  0.11392540252E+01  0.25015578337E+02  0.57763081440E+02  0.41800000000E+01 0.  1.
         -5    1    3    3    0  502 -0.62296032948E+02  0.51587149495E+02  0.18593301811E+01  0.81012093065E+02  0.41800000000E+01 0.  1.
        -11    1    1    2    0    0 -0.33787032660E+02 -0.31809938399E+02 -0.53808294900E+02  0.71054685679E+02  0.00000000000E+00 0.  1.
         11    1    1    2    0    0  0.44198346103E+02 -0.20916465122E+02 -0.13553019427E+03  0.14408131686E+03  0.00000000000E+00 0. -1.
</event>
<event>
 7    1  0.7017065E-006  0.9451529E+02  0.7561462E-02  0.1292272E+00
          2   -1    0    0  501    0  0.00000000000E+00  0.00000000000E+00  0.31774767832E+03  0.31774767832E+03  0.00000000000E+00 0.  1.
         -2   -1    0    0    0  501 -0.00000000000E+00 -0.00000000000E+00 -0.48319361187E+02  0.48319361187E+02  0.00000000000E+00 0. -1.
         23    2    1    2    0    0  0.15567747905E+02 -0.32076385588E+02  0.79416937529E+02  0.15240133681E+03  0.12509143939E+03 0.  0.
          5    1    3    3  502    0  0.23353131190E+02 -0.58691232308E+02 -0.49476819729E+01  0.63497885344E+02  0.41800000000E+01 0. -1.
         -5    1    3    3    0  502 -0.77853832844E+01  0.26614846720E+02  0.84364619502E+02  0.88903451466E+02  0.41800000000E+01 0. -1.
        -11    1    1    2    0    0 -0.36663863928E+02 -0.19808417303E+02  0.83906993378E+02  0.93685622440E+02  0.00000000000E+00 0.  1.
         11    1    1    2    0    0  0.21096116022E+02  0.51884802892E+02  0.10610438622E+03  0.11998008025E+03  0.00000000000E+00 0. -1.
</event>
<event>
 7    1  0.7017065E-006  0.8471889E+02  0.7561462E-02  0.1316169E+00
          2   -1    0    0  501    0  0.00000000000E+00  0.00000000000E+00  0.34577605136E+03  0.34577605136E+03  0.00000000000E+00 0.  1.
         -2   -1    0    0    0  501 -0.00000000000E+00 -0.00000000000E+00 -0.76137193530E+02  0.76137193530E+02  0.00000000000E+00 0. -1.
         23    2    1    2    0    0 -0.77478820228E+02 -0.71120340188E+00  0.26466454782E+02  0.14950355285E+03  0.12508943077E+03 0.  0.
          5    1    3    3  502    0 -0.68377605150E+02  0.10083055115E+02 -0.40984910213E+02  0.80463657334E+02  0.41800000000E+01 0. -1.
         -5    1    3    3    0  502 -0.91012150779E+01 -0.10794258517E+02  0.67451364995E+02  0.69039895514E+02  0.41800000000E+01 0. -1.
        -11    1    1    2    0    0  0.36444807256E+02 -0.17675057003E+02  0.20793197292E+02  0.45530085324E+02  0.00000000000E+00 0. -1.
         11    1    1    2    0    0  0.41034012972E+02  0.18386260405E+02  0.22237920576E+03  0.22687960672E+03  0.00000000000E+00 0.  1.
</event>
<event>
 7    1  0.7017066E-006  0.1674727E+03  0.7561462E-02  0.1180509E+00
          2   -1    0    0  501    0  0.00000000000E+00  0.00000000000E+00  0.14407832669E+04  0.14407832669E+04  0.00000000000E+00 0. -1.
         -2   -1    0    0    0  501 -0.00000000000E+00 -0.00000000000E+00 -0.23308306029E+02  0.23308306029E+02  0.00000000000E+00 0.  1.
         23    2    1    2    0    0  0.44476125793E+02  0.13450046099E+03  0.58614434270E+03  0.61585798022E+03  0.12508941418E+03 0.  0.
          5    1    3    3  502    0 -0.35969271580E+02  0.75255566949E+02  0.19493772609E+03  0.21207399253E+03  0.41800000000E+01 0.  1.
         -5    1    3    3    0  502  0.80445397373E+02  0.59244894041E+02  0.39120661662E+03  0.40378398769E+03  0.41800000000E+01 0.  1.
        -11    1    1    2    0    0 -0.55990504318E+02 -0.12308978676E+03  0.81116934265E+03  0.82236350517E+03  0.00000000000E+00 0. -1.
         11    1    1    2    0    0  0.11514378525E+02 -0.11410674232E+02  0.20161275537E+02  0.25870087563E+02  0.00000000000E+00 0.  1.
</event>
<event>
 7    1  0.1060655E-005  0.1292620E+03  0.7561462E-02  0.1228555E+00
          1   -1    0    0  501    0  0.00000000000E+00  0.00000000000E+00  0.66006974853E+03  0.66006974853E+03  0.00000000000E+00 0. -1.
         -1   -1    0    0    0  501 -0.00000000000E+00 -0.00000000000E+00 -0.40219454026E+02  0.40219454026E+02  0.00000000000E+00 0.  1.
         23    2    1    2    0    0 -0.64394554019E+02 -0.96381473915E+02  0.25418160008E+03  0.30609166882E+03  0.12509107402E+03 0.  0.
          5    1    3    3  502    0 -0.23014839453E+02 -0.22700884696E+02 -0.54262758883E+01  0.33044362167E+02  0.41800000000E+01 0. -1.
         -5    1    3    3    0  502 -0.41379714566E+02 -0.73680589219E+02  0.25960787597E+03  0.27304730665E+03  0.41800000000E+01 0. -1.
        -11    1    1    2    0    0 -0.10066664282E+02  0.55437440946E+02  0.20295756586E+03  0.21063338085E+03  0.00000000000E+00 0. -1.
         11    1    1    2    0    0  0.74461218301E+02  0.40944032969E+02  0.16271112856E+03  0.18356415289E+03  0.00000000000E+00 0.  1.
</event>
<event>
 7    1  0.7017065E-006  0.1069217E+03  0.7561462E-02  0.1266379E+00
          1   -1    0    0  501    0  0.00000000000E+00  0.00000000000E+00  0.85045467568E+03  0.85045467568E+03  0.00000000000E+00 0. -1.
         -1   -1    0    0    0  501 -0.00000000000E+00 -0.00000000000E+00 -0.27046493168E+02  0.27046493168E+02  0.00000000000E+00 0.  1.
         23    2    1    2    0    0 -0.42364868424E+02  0.16138444074E+02  0.17917788016E+03  0.22317656899E+03  0.12509131367E+03 0.  0.
          5    1    3    3  502    0 -0.72658020742E+00 -0.33876148310E+02  0.14613560841E+03  0.15007068264E+03  0.41800000000E+01 0. -1.
         -5    1    3    3    0  502 -0.41638288217E+02  0.50014592385E+02  0.33042271749E+02  0.73105886352E+02  0.41800000000E+01 0. -1.
        -11    1    1    2    0    0  0.54063798295E+02  0.33426715127E+02  0.35707504256E+03  0.36268833120E+03  0.00000000000E+00 0.  1.
         11    1    1    2    0    0 -0.11698929871E+02 -0.49565159202E+02  0.28715525980E+03  0.29163626866E+03  0.00000000000E+00 0. -1.
</event>
<event>
 7    1  0.7017065E-006  0.1612190E+03  0.7561462E-02  0.1187327E+00
         -1   -1    0    0    0  501 -0.00000000000E+00  0.00000000000E+00  0.29800621731E+02  0.29800621731E+02  0.00000000000E+00 0.  1.
          1   -1    0    0  501    0  0.00000000000E+00 -0.00000000000E+00 -0.88627190677E+03  0.88627190677E+03  0.00000000000E+00 0. -1.
         23    2    1    2    0    0  0.49973698093E+02 -0.11012135252E+03 -0.43200926719E+03  0.46572862832E+03  0.12508823094E+03 0.  0.
          5    1    3    3  502    0  0.20452062147E+02  0.26561984103E+02 -0.73565458198E+02  0.80951682413E+02  0.41800000000E+01 0. -1.
         -5    1    3    3    0  502  0.29521635946E+02 -0.13668333662E+03 -0.35844380899E+03  0.38477694591E+03  0.41800000000E+01 0. -1.
        -11    1    1    2    0    0 -0.53150196031E+02  0.17319272960E+02 -0.19355370677E+03  0.20146448312E+03  0.00000000000E+00 0.  1.
         11    1    1    2    0    0  0.31764979375E+01  0.92802079561E+02 -0.23090831108E+03  0.24887941706E+03  0.00000000000E+00 0. -1.
</event>
<event>
 7    1  0.7017065E-006  0.1532156E+03  0.7561462E-02  0.1196576E+00
         -2   -1    0    0    0  501 -0.00000000000E+00  0.00000000000E+00  0.52013642545E+02  0.52013642545E+02  0.00000000000E+00 0.  1.
          2   -1    0    0  501    0  0.00000000000E+00 -0.00000000000E+00 -0.59916600210E+03  0.59916600210E+03  0.00000000000E+00 0. -1.
         23    2    1    2    0    0  0.12191907613E+03 -0.49989897199E+01 -0.17194613634E+03  0.24515770101E+03  0.12509026157E+03 0.  0.
          5    1    3    3  502    0  0.10983357087E+03 -0.50815538857E+02 -0.91786614652E+02  0.15194698848E+03  0.41800000000E+01 0. -1.
         -5    1    3    3    0  502  0.12085505256E+02  0.45816549137E+02 -0.80159521684E+02  0.93210712521E+02  0.41800000000E+01 0. -1.
        -11    1    1    2    0    0 -0.59955210502E+02  0.34469039992E+02 -0.94811781750E+02  0.11735423274E+03  0.00000000000E+00 0.  1.
         11    1    1    2    0    0 -0.61963865627E+02 -0.29470050272E+02 -0.28039444147E+03  0.28866771089E+03  0.00000000000E+00 0. -1.
</event>
<event>
 7    1  0.7017065E-006  0.1756559E+03  0.7561462E-02  0.1172075E+00
          2   -1    0    0  501    0  0.00000000000E+00  0.00000000000E+00  0.64685840287E+03  0.64685840287E+03  0.00000000000E+00 0. -1.
         -2   -1    0    0    0  501 -0.00000000000E+00 -0.00000000000E+00 -0.65197366870E+02  0.65197366870E+02  0.00000000000E+00 0.  1.
         23    2    1    2    0    0  0.28826389043E+02  0.15722787334E+03  0.18382447858E+03  0.27384337606E+03  0.12508873181E+03 0.  0.
          5    1    3    3  502    0  0.44663872583E+02  0.14806876730E+03  0.91746669151E+02  0.17987258007E+03  0.41800000000E+01 0. -1.
         -5    1    3    3    0  502 -0.15837483541E+02  0.91591060447E+01  0.92077809430E+02  0.93970795984E+02  0.41800000000E+01 0. -1.
        -11    1    1    2    0    0 -0.53145801981E+02 -0.73897885547E+02  0.25839561194E+03  0.27395924155E+03  0.00000000000E+00 0. -1.
         11    1    1    2    0    0  0.24319412938E+02 -0.83329987793E+02  0.13944094547E+03  0.16425315213E+03  0.00000000000E+00 0.  1.
</event>
<event>
 7    1  0.7017065E-006  0.1107449E+03  0.7561462E-02  0.1259197E+00
         -2   -1    0    0    0  501 -0.00000000000E+00  0.00000000000E+00  0.16176461552E+02  0.16176461552E+02  0.00000000000E+00 0.  1.
          2   -1    0    0  501    0  0.00000000000E+00 -0.00000000000E+00 -0.99818692394E+03  0.99818692394E+03  0.00000000000E+00 0. -1.
         23    2    1    2    0    0  0.69436271592E+01  0.65156750683E+02 -0.47644162922E+03  0.49692828464E+03  0.12508987930E+03 0.  0.
          5    1    3    3  502    0  0.17154575280E+02  0.85996322734E+02 -0.45970404227E+03  0.46801167277E+03  0.41800000000E+01 0. -1.
         -5    1    3    3    0  502 -0.10210948120E+02 -0.20839572051E+02 -0.16737586954E+02  0.28916611866E+02  0.41800000000E+01 0. -1.
        -11    1    1    2    0    0  0.15029653489E+02 -0.81411541717E+02 -0.37264172272E+03  0.38172710556E+03  0.00000000000E+00 0.  1.
         11    1    1    2    0    0 -0.21973280648E+02  0.16254791034E+02 -0.13292711045E+03  0.13570799530E+03  0.00000000000E+00 0. -1.
</event>
<event>
 7    1  0.7017065E-006  0.1009292E+03  0.7561462E-02  0.1278354E+00
         -1   -1    0    0    0  501 -0.00000000000E+00  0.00000000000E+00  0.42624255267E+03  0.42624255267E+03  0.00000000000E+00 0.  1.
          1   -1    0    0  501    0  0.00000000000E+00 -0.00000000000E+00 -0.48911123158E+02  0.48911123158E+02  0.00000000000E+00 0. -1.
         23    2    1    2    0    0  0.85942418443E+02 -0.31747699503E+02  0.24662784341E+03  0.29132016913E+03  0.12509249414E+03 0.  0.
          5    1    3    3  502    0  0.49880286382E+00  0.16344136022E+01  0.17448240379E+03  0.17454083117E+03  0.41800000000E+01 0. -1.
         -5    1    3    3    0  502  0.85443615579E+02 -0.33382113105E+02  0.72145439617E+02  0.11677933797E+03  0.41800000000E+01 0. -1.
        -11    1    1    2    0    0 -0.25156177750E+02  0.36735950888E+02  0.58852915578E+01  0.44911023406E+02  0.00000000000E+00 0. -1.
         11    1    1    2    0    0 -0.60786240693E+02 -0.49882513857E+01  0.12481829455E+03  0.13892248329E+03  0.00000000000E+00 0.  1.
</event>
<event>
 7    1  0.7017065E-006  0.4020337E+03  0.7561462E-02  0.1043078E+00
         -2   -1    0    0    0  501 -0.00000000000E+00  0.00000000000E+00  0.14381297424E+03  0.14381297424E+03  0.00000000000E+00 0.  1.
          2   -1    0    0  501    0  0.00000000000E+00 -0.00000000000E+00 -0.14367271935E+04  0.14367271935E+04  0.00000000000E+00 0. -1.
         23    2    1    2    0    0  0.35320799080E+03 -0.17760062814E+03 -0.31078163641E+03  0.51819844079E+03  0.12508609285E+03 0.  0.
          5    1    3    3  502    0  0.35651779161E+03 -0.16562629742E+03 -0.27412629479E+03  0.47926996988E+03  0.41800000000E+01 0.  1.
         -5    1    3    3    0  502 -0.33098008160E+01 -0.11974330723E+02 -0.36655341623E+02  0.38928470908E+02  0.41800000000E+01 0.  1.
        -11    1    1    2    0    0 -0.27340941284E+03  0.11592285909E+03 -0.63790186338E+03  0.70364025155E+03  0.00000000000E+00 0.  1.
         11    1    1    2    0    0 -0.79798577959E+02  0.61677769051E+02 -0.34423071950E+03  0.35870147544E+03  0.00000000000E+00 0. -1.
</event>
<event>
 7    1  0.7017065E-006  0.1011129E+03  0.7561462E-02  0.1277973E+00
          3   -1    0    0  501    0  0.00000000000E+00  0.00000000000E+00  0.48901067496E+03  0.48901067496E+03  0.00000000000E+00 0. -1.
         -3   -1    0    0    0  501 -0.00000000000E+00 -0.00000000000E+00 -0.48217506250E+02  0.48217506250E+02  0.00000000000E+00 0.  1.
         23    2    1    2    0    0  0.44823301055E+01  0.92107426485E+02  0.12986977580E+03  0.20253009946E+03  0.12509361784E+03 0.  0.
          5    1    3    3  502    0  0.27933407367E+02  0.49238239104E+02  0.14121109618E+03  0.15219305346E+03  0.41800000000E+01 0. -1.
         -5    1    3    3    0  502 -0.23451077262E+02  0.42869187381E+02 -0.11341320384E+02  0.50337045995E+02  0.41800000000E+01 0. -1.
        -11    1    1    2    0    0 -0.15132076178E+02 -0.72926139529E+02  0.30194067063E+03  0.31099094864E+03  0.00000000000E+00 0. -1.
         11    1    1    2    0    0  0.10649746072E+02 -0.19181286956E+02  0.89827222765E+01  0.23707133107E+02  0.00000000000E+00 0.  1.
</event>
<event>
 7    1  0.7017065E-006  0.6807212E+02  0.7561462E-02  0.1366774E+00
          2   -1    0    0  501    0  0.00000000000E+00  0.00000000000E+00  0.34728107490E+03  0.34728107490E+03  0.00000000000E+00 0. -1.
         -2   -1    0    0    0  501 -0.00000000000E+00 -0.00000000000E+00 -0.34178617991E+02  0.34178617991E+02  0.00000000000E+00 0.  1.
         23    2    1    2    0    0  0.69735277316E+01  0.73362354582E+01  0.16219154841E+03  0.20508064048E+03  0.12509804268E+03 0.  0.
          5    1    3    3  502    0  0.20781291829E+02 -0.20152254348E+02  0.17046251197E+03  0.17295350772E+03  0.41800000000E+01 0. -1.
         -5    1    3    3    0  502 -0.13807764097E+02  0.27488489807E+02 -0.82709635564E+01  0.32127132760E+02  0.41800000000E+01 0. -1.
        -11    1    1    2    0    0  0.33326594477E+02  0.50145434754E+01  0.20782625941E+02  0.39594508289E+02  0.00000000000E+00 0.  1.
         11    1    1    2    0    0 -0.40300122208E+02 -0.12350778934E+02  0.13012828256E+03  0.13678454412E+03  0.00000000000E+00 0. -1.
</event>
<event>
 7    1  0.7017065E-006  0.1274163E+03  0.7561462E-02  0.1231341E+00
         -3   -1    0    0    0  501 -0.00000000000E+00  0.00000000000E+00  0.52178754510E+02  0.52178754510E+02  0.00000000000E+00 0.  1.
          3   -1    0    0  501    0  0.00000000000E+00 -0.00000000000E+00 -0.52121608151E+03  0.52121608151E+03  0.00000000000E+00 0. -1.
         23    2    1    2    0    0  0.25891393262E+02 -0.67476575652E+02 -0.75655930838E+02  0.16307910536E+03  0.12509005647E+03 0.  0.
          5    1    3    3  502    0 -0.47185696448E+02 -0.28582977208E+02 -0.54218786668E+02  0.77463706102E+02  0.41800000000E+01 0. -1.
         -5    1    3    3    0  502  0.73077089709E+02 -0.38893598444E+02 -0.21437144170E+02  0.85615399260E+02  0.41800000000E+01 0. -1.
        -11    1    1    2    0    0  0.31851177036E+02  0.62497734506E+01 -0.11458081310E+03  0.11908954563E+03  0.00000000000E+00 0.  1.
         11    1    1    2    0    0 -0.57742570298E+02  0.61226802201E+02 -0.27880058306E+03  0.29122618503E+03  0.00000000000E+00 0. -1.
</event>
<event>
 7    1  0.7017065E-006  0.9815905E+02  0.7561462E-02  0.1284216E+00
         -1   -1    0    0    0  501 -0.00000000000E+00  0.00000000000E+00  0.19620686584E+03  0.19620686584E+03  0.00000000000E+00 0.  1.
          1   -1    0    0  501    0  0.00000000000E+00 -0.00000000000E+00 -0.11697525400E+03  0.11697525400E+03  0.00000000000E+00 0. -1.
         23    2    1    2    0    0  0.26259557132E+02  0.70739620661E+02  0.11809479267E+03  0.18784304918E+03  0.12507986568E+03 0.  0.
          5    1    3    3  502    0  0.19646930402E+02  0.80487262483E+02  0.15378663342E+02  0.84369289332E+02  0.41800000000E+01 0. -1.
         -5    1    3    3    0  502  0.66126267293E+01 -0.97476418226E+01  0.10271612933E+03  0.10347375985E+03  0.41800000000E+01 0. -1.
        -11    1    1    2    0    0 -0.20018116400E+02  0.82327953015E+01  0.17732048209E+02  0.27980876261E+02  0.00000000000E+00 0.  1.
         11    1    1    2    0    0 -0.62414407318E+01 -0.78972415962E+02 -0.56595229041E+02  0.97358194393E+02  0.00000000000E+00 0. -1.
</event>
<event>
 7    1  0.7017065E-006  0.1624214E+03  0.7561462E-02  0.1185990E+00
          1   -1    0    0  501    0  0.00000000000E+00  0.00000000000E+00  0.17186076687E+03  0.17186076687E+03  0.00000000000E+00 0. -1.
         -1   -1    0    0    0  501 -0.00000000000E+00 -0.00000000000E+00 -0.18380005031E+03  0.18380005031E+03  0.00000000000E+00 0.  1.
         23    2    1    2    0    0 -0.13845664199E+03 -0.22373513257E+02 -0.11441378060E+02  0.18827875218E+03  0.12508863891E+03 0.  0.
          5    1    3    3  502    0 -0.14944793936E+03  0.19085528772E+01  0.15290763768E+02  0.15029839989E+03  0.41800000000E+01 0. -1.
         -5    1    3    3    0  502  0.10991297371E+02 -0.24282066134E+02 -0.26732141827E+02  0.37980352293E+02  0.41800000000E+01 0. -1.
        -11    1    1    2    0    0  0.38910082929E+02  0.29074365180E+02  0.36724088289E+02  0.60893118862E+02  0.00000000000E+00 0. -1.
         11    1    1    2    0    0  0.99546559056E+02 -0.67008519230E+01 -0.37221993673E+02  0.10648894614E+03  0.00000000000E+00 0.  1.
</event>
<event>
 7    1  0.8562826E-006  0.3055482E+03  0.7561462E-02  0.1082500E+00
          2   -1    0    0  501    0  0.00000000000E+00  0.00000000000E+00  0.96314375883E+02  0.96314375883E+02  0.00000000000E+00 0. -1.
         -2   -1    0    0    0  501 -0.00000000000E+00 -0.00000000000E+00 -0.10474114965E+04  0.10474114965E+04  0.00000000000E+00 0.  1.
         23    2    1    2    0    0 -0.29401318208E+03  0.23455122891E+01 -0.57566202260E+03  0.65839421233E+03  0.12508765688E+03 0.  0.
          5    1    3    3  502    0 -0.20165925292E+03 -0.33596267399E+02 -0.47466127405E+03  0.51683262373E+03  0.41800000000E+01 0. -1.
         -5    1    3    3    0  502 -0.92353929165E+02  0.35941779688E+02 -0.10100074855E+03  0.14156158860E+03  0.41800000000E+01 0. -1.
        -11    1    1    2    0    0  0.10781450349E+03  0.42523113324E+02 -0.14861728552E+03  0.18846559337E+03  0.00000000000E+00 0.  1.
         11    1    1    2    0    0  0.18619867860E+03 -0.44868625613E+02 -0.22681781245E+03  0.29686606664E+03  0.00000000000E+00 0. -1.
</event>
<event>
 7    1  0.7017065E-006  0.1060782E+03  0.7561462E-02  0.1268010E+00
          2   -1    0    0  501    0  0.00000000000E+00  0.00000000000E+00  0.50066914969E+03  0.50066914969E+03  0.00000000000E+00 0. -1.
         -2   -1    0    0    0  501 -0.00000000000E+00 -0.00000000000E+00 -0.26211803555E+02  0.26211803555E+02  0.00000000000E+00 0.  1.
         23    2    1    2    0    0 -0.54098755726E+01 -0.30278792414E+02  0.22525655130E+03  0.25948970555E+03  0.12509325065E+03 0.  0.
          5    1    3    3  502    0 -0.24483824845E+02 -0.73356171756E+02  0.10667649556E+03  0.13182538724E+03  0.41800000000E+01 0. -1.
         -5    1    3    3    0  502  0.19073949273E+02  0.43077379342E+02  0.11858005574E+03  0.12766431831E+03  0.41800000000E+01 0. -1.
        -11    1    1    2    0    0 -0.38064126884E+02  0.18775088116E+02  0.63895976619E+02  0.76707740921E+02  0.00000000000E+00 0.  1.
         11    1    1    2    0    0  0.43474002457E+02  0.11503704298E+02  0.18530481821E+03  0.19068350677E+03  0.00000000000E+00 0. -1.
</event>
<event>
 7    1  0.8543535E-006  0.1259335E+03  0.7561462E-02  0.1233618E+00
         -1   -1    0    0    0  501 -0.00000000000E+00  0.00000000000E+00  0.59484392797E+02  0.59484392797E+02  0.00000000000E+00 0.  1.
          1   -1    0    0  501    0  0.00000000000E+00 -0.00000000000E+00 -0.42289614329E+03  0.42289614329E+03  0.00000000000E+00 0. -1.
         23    2    1    2    0    0  0.25507595272E+02  0.10938904704E+03 -0.15432538773E+03  0.22821144536E+03  0.12509011737E+03 0.  0.
          5    1    3    3  502    0 -0.27592511720E+02  0.42576325906E+02 -0.12963077077E+03  0.13926844352E+03  0.41800000000E+01 0.  1.
         -5    1    3    3    0  502  0.53100106992E+02  0.66812721137E+02 -0.24694616957E+02  0.88943001832E+02  0.41800000000E+01 0.  1.
        -11    1    1    2    0    0 -0.21341678344E+02 -0.34900879108E+02 -0.10797441861E+02  0.42309849300E+02  0.00000000000E+00 0.  1.
         11    1    1    2    0    0 -0.41659169286E+01 -0.74488167935E+02 -0.19828892090E+03  0.21185924143E+03  0.00000000000E+00 0. -1.
</event>
<event>
 7    1  0.7017065E-006  0.1006129E+03  0.7561462E-02  0.1279012E+00
          1   -1    0    0  501    0  0.00000000000E+00  0.00000000000E+00  0.38347691976E+02  0.38347691976E+02  0.00000000000E+00 0. -1.
         -1   -1    0    0    0  501 -0.00000000000E+00 -0.00000000000E+00 -0.37195643163E+03  0.37195643163E+03  0.00000000000E+00 0.  1.
         23    2    1    2    0    0  0.92909677756E+01  0.30880536164E+02 -0.24367858820E+03  0.27580142273E+03  0.12508893172E+03 0.  0.
          5    1    3    3  502    0 -0.37778328312E+02 -0.14025934507E+02 -0.24985295278E+02  0.47599015840E+02  0.41800000000E+01 0. -1.
         -5    1    3    3    0  502  0.47069296088E+02  0.44906470671E+02 -0.21869329292E+03  0.22820240689E+03  0.41800000000E+01 0. -1.
        -11    1    1    2    0    0 -0.47137605098E+02 -0.74427163357E+00 -0.64367234999E+02  0.79785015485E+02  0.00000000000E+00 0. -1.
         11    1    1    2    0    0  0.37846637322E+02 -0.30136264531E+02 -0.25562916455E+02  0.54717685387E+02  0.00000000000E+00 0.  1.
</event>
<event>
 7    1  0.7017065E-006  0.1460706E+03  0.7561462E-02  0.1205386E+00
          1   -1    0    0  501    0  0.00000000000E+00  0.00000000000E+00  0.57416626475E+03  0.57416626475E+03  0.00000000000E+00 0. -1.
         -1   -1    0    0    0  501 -0.00000000000E+00 -0.00000000000E+00 -0.44995927085E+02  0.44995927085E+02  0.00000000000E+00 0.  1.
         23    2    1    2    0    0 -0.91156622114E+02  0.52522790499E+02  0.17876380793E+03  0.24222490905E+03  0.12509290252E+03 0.  0.
          5    1    3    3  502    0 -0.44778420738E+01 -0.36461149839E+02  0.25581288763E+02  0.44959328865E+02  0.41800000000E+01 0.  1.
         -5    1    3    3    0  502 -0.86678780041E+02  0.88983940338E+02  0.15318251917E+03  0.19726558019E+03  0.41800000000E+01 0.  1.
        -11    1    1    2    0    0  0.67093030960E+02  0.62342979878E+01  0.24297825290E+03  0.25214831480E+03  0.00000000000E+00 0. -1.
         11    1    1    2    0    0  0.24063591155E+02 -0.58757088487E+02  0.10742827683E+03  0.12478896798E+03  0.00000000000E+00 0.  1.
</event>
<event>
 7    1  0.7017065E-006  0.1064727E+03  0.7561462E-02  0.1267245E+00
         -2   -1    0    0    0  501 -0.00000000000E+00  0.00000000000E+00  0.55705269964E+02  0.55705269964E+02  0.00000000000E+00 0.  1.
          2   -1    0    0  501    0  0.00000000000E+00 -0.00000000000E+00 -0.29155884516E+03  0.29155884516E+03  0.00000000000E+00 0. -1.
         23    2    1    2    0    0 -0.60850525135E+02  0.25354962075E+02 -0.13107414354E+03  0.19280172252E+03  0.12508562105E+03 0.  0.
          5    1    3    3  502    0  0.15885001313E+02 -0.37538858400E+02 -0.49711669067E+02  0.64422213546E+02  0.41800000000E+01 0. -1.
         -5    1    3    3    0  502 -0.76735526448E+02  0.62893820475E+02 -0.81362474471E+02  0.12837950898E+03  0.41800000000E+01 0. -1.
        -11    1    1    2    0    0  0.27443634209E+02  0.45625881966E+01  0.11295360375E+02  0.30025912736E+02  0.00000000000E+00 0.  1.
         11    1    1    2    0    0  0.33406890926E+02 -0.29917550271E+02 -0.11607479203E+03  0.12443647986E+03  0.00000000000E+00 0. -1.
</event>
<event>
 7    1  0.7017065E-006  0.1426904E+03  0.7561462E-02  0.1209754E+00
          2   -1    0    0  501    0  0.00000000000E+00  0.00000000000E+00  0.35433919647E+03  0.35433919647E+03  0.00000000000E+00 0. -1.
         -2   -1    0    0    0  501 -0.00000000000E+00 -0.00000000000E+00 -0.13342547865E+03  0.13342547865E+03  0.00000000000E+00 0.  1.
         23    2    1    2    0    0 -0.97710044125E+02  0.95471548162E+02 -0.30247228168E+02  0.18768161233E+03  0.12508966209E+03 0.  0.
          5    1    3    3  502    0 -0.15436485164E+02  0.29918594791E+02 -0.67874899757E+02  0.75880707729E+02  0.41800000000E+01 0.  1.
         -5    1    3    3    0  502 -0.82273558961E+02  0.65552953371E+02  0.37627671589E+02  0.11180090460E+03  0.41800000000E+01 0.  1.
        -11    1    1    2    0    0  0.54299430963E+02 -0.86060200234E+02  0.10054117725E+03  0.14305004226E+03  0.00000000000E+00 0.  1.
         11    1    1    2    0    0  0.43410613162E+02 -0.94113479284E+01  0.15061976874E+03  0.15703302054E+03  0.00000000000E+00 0. -1.
</event>
<event>
 6    1  0.7017065E-006  0.1889982E+03  0.7561462E-02  0.1159368E+00
         -2   -1    0    0    0  501 -0.00000000000E+00  0.00000000000E+00  0.80814192995E+02  0.80814192995E+02  0.00000000000E+00 0.  1.
          2   -1    0    0  501    0  0.00000000000E+00 -0.00000000000E+00 -0.47081098940E+03  0.47081098940E+03  0.00000000000E+00 0. -1.
          5    1    1    2  502    0  0.39044715332E+02 -0.10130918315E+03 -0.12927268517E+03  0.16886959441E+03  0.41800000000E+01 0. -1.
         -5    1    1    2    0  502  0.27576212869E+02  0.66811780347E+02 -0.27847189831E+02  0.77570612289E+02  0.41800000000E+01 0.  1.
        -11    1    1    2    0    0 -0.35932777887E+02  0.10985206133E+03 -0.12827813814E+03  0.17266708033E+03  0.00000000000E+00 0.  1.
         11    1    1    2    0    0 -0.30688150315E+02 -0.75354658530E+02 -0.10459878326E+03  0.13251789536E+03  0.00000000000E+00 0. -1.
</event>
<event>
 7    1  0.7017065E-006  0.1212376E+03  0.7561462E-02  0.1241069E+00
         -2   -1    0    0    0  501 -0.00000000000E+00  0.00000000000E+00  0.78369642203E+02  0.78369642203E+02  0.00000000000E+00 0.  1.
          2   -1    0    0  501    0  0.00000000000E+00 -0.00000000000E+00 -0.38001597891E+03  0.38001597891E+03  0.00000000000E+00 0. -1.
         23    2    1    2    0    0 -0.54761762435E+02 -0.76335306496E+02 -0.33118841260E+02  0.15990911738E+03  0.12509251989E+03 0.  0.
          5    1    3    3  502    0 -0.41040780369E+02  0.23505060699E+02  0.12664135313E+02  0.49139457211E+02  0.41800000000E+01 0.  1.
         -5    1    3    3    0  502 -0.13720982066E+02 -0.99840367195E+02 -0.45782976573E+02  0.11076966017E+03  0.41800000000E+01 0.  1.
        -11    1    1    2    0    0  0.92696733941E+01  0.16994050162E+02  0.38548512469E+00  0.19361642092E+02  0.00000000000E+00 0.  1.
         11    1    1    2    0    0  0.45492089041E+02  0.59341256334E+02 -0.26891298058E+03  0.27911486164E+03  0.00000000000E+00 0. -1.
</event>
<event>
 7    1  0.7017065E-006  0.1012016E+03  0.7561462E-02  0.1277789E+00
          3   -1    0    0  501    0  0.00000000000E+00  0.00000000000E+00  0.31246277946E+02  0.31246277946E+02  0.00000000000E+00 0. -1.
         -3   -1    0    0    0  501 -0.00000000000E+00 -0.00000000000E+00 -0.43014500302E+03  0.43014500302E+03  0.00000000000E+00 0.  1.
         23    2    1    2    0    0 -0.44864499053E+00 -0.35855201624E+02 -0.26498962106E+03  0.29521645869E+03  0.12508981353E+03 0.  0.
          5    1    3    3  502    0 -0.56352509841E+02 -0.46815277683E+01 -0.70795949361E+02  0.90703147208E+02  0.41800000000E+01 0. -1.
         -5    1    3    3    0  502  0.55903864850E+02 -0.31173673856E+02 -0.19419367170E+03  0.20451331148E+03  0.41800000000E+01 0. -1.
        -11    1    1    2    0    0  0.24436060577E+02  0.48598148525E+02 -0.12698337357E+03  0.13814368701E+03  0.00000000000E+00 0.  1.
         11    1    1    2    0    0 -0.23987415587E+02 -0.12742946901E+02 -0.69257304483E+01  0.28031135270E+02  0.00000000000E+00 0. -1.
</event>
<event>
 7    1  0.7017065E-006  0.1090371E+03  0.7561462E-02  0.1262363E+00
          1   -1    0    0  501    0  0.00000000000E+00  0.00000000000E+00  0.79236790787E+02  0.79236790787E+02  0.00000000000E+00 0. -1.
         -1   -1    0    0    0  501 -0.00000000000E+00 -0.00000000000E+00 -0.24150812107E+03  0.24150812107E+03  0.00000000000E+00 0.  1.
         23    2    1    2    0    0 -0.42491594008E+02  0.47475967914E+02 -0.15553063460E+03  0.20951567280E+03  0.12509011056E+03 0.  0.
          5    1    3    3  502    0 -0.45322285387E+02 -0.33223500246E+02 -0.86306899927E+02  0.10307406995E+03  0.41800000000E+01 0.  1.
         -5    1    3    3    0  502  0.28306913789E+01  0.80699468160E+02 -0.69223734669E+02  0.10644160285E+03  0.41800000000E+01 0.  1.
        -11    1    1    2    0    0  0.31456485586E+02 -0.57767674103E+02 -0.38394582210E+02  0.76162711347E+02  0.00000000000E+00 0.  1.
         11    1    1    2    0    0  0.11035108423E+02  0.10291706189E+02  0.31653886520E+02  0.35066527715E+02  0.00000000000E+00 0. -1.
</event>
<event>
 7    1  0.7017065E-006  0.9349129E+02  0.7561462E-02  0.1294611E+00
          1   -1    0    0  501    0  0.00000000000E+00  0.00000000000E+00  0.18608448467E+03  0.18608448467E+03  0.00000000000E+00 0.  1.
         -1   -1    0    0    0  501 -0.00000000000E+00 -0.00000000000E+00 -0.63380843130E+02  0.63380843130E+02  0.00000000000E+00 0. -1.
         23    2    1    2    0    0 -0.12109630021E+02  0.33612043259E+01  0.66714824437E+02  0.14232691080E+03  0.12509252938E+03 0.  0.
          5    1    3    3  502    0  0.21023001623E+02 -0.37537952141E+02  0.77215391722E+02  0.88491545173E+02  0.41800000000E+01 0. -1.
         -5    1    3    3    0  502 -0.33132631644E+02  0.40899156467E+02 -0.10500567285E+02  0.53835365632E+02  0.41800000000E+01 0. -1.
        -11    1    1    2    0    0  0.32655233146E+02 -0.38356182726E+02  0.35901243549E+02  0.61858389031E+02  0.00000000000E+00 0. -1.
         11    1    1    2    0    0 -0.20545603125E+02  0.34994978400E+02  0.20087573553E+02  0.45280027962E+02  0.00000000000E+00 0.  1.
</event>
<event>
 7    1  0.7017065E-006  0.9975181E+02  0.7561462E-02  0.1280819E+00
          1   -1    0    0  501    0  0.00000000000E+00  0.00000000000E+00  0.24037711777E+03  0.24037711777E+03  0.00000000000E+00 0. -1.
         -1   -1    0    0    0  501 -0.00000000000E+00 -0.00000000000E+00 -0.53695630444E+02  0.53695630444E+02  0.00000000000E+00 0.  1.
         23    2    1    2    0    0  0.10224222029E+02  0.18907336182E+02  0.76425796328E+02  0.14815389445E+03  0.12508657810E+03 0.  0.
          5    1    3    3  502    0 -0.50079828317E+02  0.47932562717E+01  0.69204902120E+02  0.85660699200E+02  0.41800000000E+01 0. -1.
         -5    1    3    3    0  502  0.60304050346E+02  0.14114079910E+02  0.72208942074E+01  0.62493195254E+02  0.41800000000E+01 0. -1.
        -11    1    1    2    0    0 -0.46890894552E+02 -0.30251776585E+01  0.28593253828E+02  0.55004380337E+02  0.00000000000E+00 0.  1.
         11    1    1    2    0    0  0.36666672523E+02 -0.15882158524E+02  0.81662437165E+02  0.90914473419E+02  0.00000000000E+00 0. -1.
</event>
<event>
 7    1  0.7017065E-006  0.9908337E+02  0.7561462E-02  0.1282235E+00
          2   -1    0    0  501    0  0.00000000000E+00  0.00000000000E+00  0.52102135137E+03  0.52102135137E+03  0.00000000000E+00 0.  1.
         -2   -1    0    0    0  501 -0.00000000000E+00 -0.00000000000E+00 -0.26407141622E+02  0.26407141622E+02  0.00000000000E+00 0. -1.
         23    2    1    2    0    0 -0.15347927727E+01  0.44534498472E+02  0.27703020115E+03  0.30721142527E+03  0.12508976906E+03 0.  0.
          5    1    3    3  502    0  0.45426934078E+02  0.92235063008E+01  0.35317905353E+02  0.58425219270E+02  0.41800000000E+01 0. -1.
         -5    1    3    3    0  502 -0.46961726851E+02  0.35310992171E+02  0.24171229579E+03  0.24878620600E+03  0.41800000000E+01 0. -1.
        -11    1    1    2    0    0  0.33798033991E+02  0.44247796422E+01  0.36793665026E+02  0.50156351169E+02  0.00000000000E+00 0. -1.
         11    1    1    2    0    0 -0.32263241218E+02 -0.48959278114E+02  0.18079034358E+03  0.19006071656E+03  0.00000000000E+00 0.  1.
</event>
<event>
 7    1  0.7017065E-006  0.1164521E+03  0.7561462E-02  0.1249067E+00
          2   -1    0    0  501    0  0.00000000000E+00  0.00000000000E+00  0.34688780619E+03  0.34688780619E+03  0.00000000000E+00 0. -1.
         -2   -1    0    0    0  501 -0.00000000000E+00 -0.00000000000E+00 -0.59880615059E+02  0.59880615059E+02  0.00000000000E+00 0.  1.
         23    2    1    2    0    0  0.86932349605E+02 -0.32833427052E+02  0.12074054087E+03  0.19712402992E+03  0.12507732657E+03 0.  0.
          5    1    3    3  502    0  0.16508738060E+02 -0.30881870558E+02  0.12153168210E+03  0.12654505330E+03  0.41800000000E+01 0.  1.
         -5    1    3    3    0  502  0.70423611544E+02 -0.19515564937E+01 -0.79114123309E+00  0.70578976616E+02  0.41800000000E+01 0.  1.
        -11    1    1    2    0    0  0.17689310777E+02  0.10492298935E+01  0.31035253771E+02  0.35737929091E+02  0.00000000000E+00 0. -1.
         11    1    1    2    0    0 -0.10462166038E+03  0.31784197159E+02  0.13523139649E+03  0.17390646223E+03  0.00000000000E+00 0.  1.
</event>
<event>
 7    1  0.7017065E-006  0.1062215E+03  0.7561462E-02  0.1267731E+00
          1   -1    0    0  501    0  0.00000000000E+00  0.00000000000E+00  0.14017783597E+03  0.14017783597E+03  0.00000000000E+00 0. -1.
         -1   -1    0    0    0  501 -0.00000000000E+00 -0.00000000000E+00 -0.11764000799E+03  0.11764000799E+03  0.00000000000E+00 0.  1.
         23    2    1    2    0    0 -0.10817308711E+02 -0.76271434292E+02  0.26157107509E+02  0.14928714577E+03  0.12517232826E+03 0.  0.
          5    1    3    3  502    0  0.39773878261E+02 -0.23054333746E+02  0.53644955787E+02  0.70772292444E+02  0.41800000000E+01 0. -1.
         -5    1    3    3    0  502 -0.50591186971E+02 -0.53217100545E+02 -0.27487848278E+02  0.78514853325E+02  0.41800000000E+01 0. -1.
        -11    1    1    2    0    0  0.86419341733E+01 -0.59453689143E+01 -0.21895952634E+02  0.24278862814E+02  0.00000000000E+00 0.  1.
         11    1    1    2    0    0  0.21753745373E+01  0.82216803206E+02  0.18276673106E+02  0.84251835373E+02  0.00000000000E+00 0. -1.
</event>
<event>
 7    1  0.7017065E-006  0.1254711E+03  0.7561462E-02  0.1234335E+00
          2   -1    0    0  501    0  0.00000000000E+00  0.00000000000E+00  0.15821554024E+04  0.15821554024E+04  0.00000000000E+00 0.  1.
         -2   -1    0    0    0  501 -0.00000000000E+00 -0.00000000000E+00 -0.13892427432E+02  0.13892427432E+02  0.00000000000E+00 0. -1.
         23    2    1    2    0    0 -0.54290164510E+02  0.85353084133E+02  0.79464202166E+03  0.81076130080E+03  0.12508146686E+03 0.  0.
          5    1    3    3  502    0 -0.30443343340E+02  0.32445953203E+01  0.56234702362E+03  0.56319532307E+03  0.41800000000E+01 0.  1.
         -5    1    3    3    0  502 -0.23846821170E+02  0.82108488812E+02  0.23229499804E+03  0.24756597773E+03  0.41800000000E+01 0.  1.
        -11    1    1    2    0    0  0.79076512743E+02 -0.65579818413E+02  0.61607084291E+03  0.62457752996E+03  0.00000000000E+00 0.  1.
         11    1    1    2    0    0 -0.24786348232E+02 -0.19773265720E+02  0.15755011045E+03  0.16070899912E+03  0.00000000000E+00 0. -1.
</event>
<event>
 7    1  0.7017065E-006  0.1266079E+03  0.7561462E-02  0.1232578E+00
          3   -1    0    0  501    0  0.00000000000E+00  0.00000000000E+00  0.88449641929E+02  0.88449641929E+02  0.00000000000E+00 0. -1.
         -3   -1    0    0    0  501 -0.00000000000E+00 -0.00000000000E+00 -0.34259810366E+03  0.34259810366E+03  0.00000000000E+00 0.  1.
         23    2    1    2    0    0 -0.39229952321E+02  0.10207611915E+03 -0.23435024135E+03  0.28727294699E+03  0.12508871728E+03 0.  0.
          5    1    3    3  502    0 -0.25039870188E+02  0.30686805722E+02  0.20566838211E+01  0.39879537269E+02  0.41800000000E+01 0. -1.
         -5    1    3    3    0  502 -0.14190082133E+02  0.71389313431E+02 -0.23640692518E+03  0.24739340972E+03  0.41800000000E+01 0. -1.
        -11    1    1    2    0    0  0.44786173966E+02 -0.71004828431E+01  0.45421799301E+01  0.45572465740E+02  0.00000000000E+00 0.  1.
         11    1    1    2    0    0 -0.55562216445E+01 -0.94975636310E+02 -0.24340400304E+02  0.98202332856E+02  0.00000000000E+00 0. -1.
</event>
<event>
 6    1  0.7017065E-006  0.2065643E+03  0.7561462E-02  0.1144316E+00
         -1   -1    0    0    0  501 -0.00000000000E+00  0.00000000000E+00  0.12667097901E+03  0.12667097901E+03  0.00000000000E+00 0.  1.
          1   -1    0    0  501    0  0.00000000000E+00 -0.00000000000E+00 -0.12348969823E+04  0.12348969823E+04  0.00000000000E+00 0. -1.
          5    1    1    2  502    0  0.71173415415E+02  0.37303674342E+02  0.63179550305E+02  0.10230516682E+03  0.41800000000E+01 0. -1.
         -5    1    1    2    0  502  0.26720582059E+02  0.13029082810E+03 -0.10778235503E+03  0.17124309577E+03  0.41800000000E+01 0.  1.
        -11    1    1    2    0    0 -0.10054806958E+03 -0.14273641428E+03 -0.10366219785E+04  0.10512224905E+04  0.00000000000E+00 0. -1.
         11    1    1    2    0    0  0.26540721050E+01 -0.24858088169E+02 -0.27001220054E+02  0.36797208189E+02  0.00000000000E+00 0.  1.
</event>
<event>
 7    1  0.7017065E-006  0.9022911E+02  0.7561462E-02  0.1302298E+00
          1   -1    0    0  501    0  0.00000000000E+00  0.00000000000E+00  0.41895138166E+03  0.41895138166E+03  0.00000000000E+00 0. -1.
         -1   -1    0    0    0  501 -0.00000000000E+00 -0.00000000000E+00 -0.39541494208E+02  0.39541494208E+02  0.00000000000E+00 0.  1.
         23    2    1    2    0    0  0.16535798855E+02  0.21028737945E+02  0.96362804263E+02  0.16015314777E+03  0.12509036826E+03 0.  0.
          5    1    3    3  502    0 -0.20870801216E+02 -0.23339351064E+02 -0.14648108032E+02  0.34818890281E+02  0.41800000000E+01 0. -1.
         -5    1    3    3    0  502  0.37406600071E+02  0.44368089009E+02  0.11101091229E+03  0.12533425749E+03  0.41800000000E+01 0. -1.
        -11    1    1    2    0    0 -0.51423091169E+02 -0.32356185284E+01  0.11887250471E+03  0.12955877396E+03  0.00000000000E+00 0.  1.
         11    1    1    2    0    0  0.34887292314E+02 -0.17793119417E+02  0.16417457848E+03  0.16878095415E+03  0.00000000000E+00 0. -1.
</event>
<event>
 7    1  0.7017065E-006  0.1548653E+03  0.7561462E-02  0.1194619E+00
          1   -1    0    0  501    0  0.00000000000E+00  0.00000000000E+00  0.13445247643E+03  0.13445247643E+03  0.00000000000E+00 0. -1.
         -1   -1    0    0    0  501 -0.00000000000E+00 -0.00000000000E+00 -0.26033798630E+03  0.26033798630E+03  0.00000000000E+00 0.  1.
         23    2    1    2    0    0  0.11238505566E+03 -0.90740884864E+02 -0.11747305696E+03  0.22428139347E+03  0.12505165103E+03 0.  0.
          5    1    3    3  502    0  0.18378033159E+02 -0.60945441195E+02 -0.10759360055E+03  0.12508378865E+03  0.41800000000E+01 0.  1.
         -5    1    3    3    0  502  0.94007022502E+02 -0.29795443668E+02 -0.98794564131E+01  0.99197604820E+02  0.41800000000E+01 0.  1.
        -11    1    1    2    0    0 -0.14274763404E+02  0.26080754565E+02  0.34384764091E+02  0.45456425624E+02  0.00000000000E+00 0. -1.
         11    1    1    2    0    0 -0.98110292257E+02  0.64660130298E+02 -0.42797217004E+02  0.12505264364E+03  0.00000000000E+00 0.  1.
</event>
<event>
 7    1  0.1144624E-005  0.2780330E+03  0.7561462E-02  0.1096768E+00
         -1   -1    0    0    0  501 -0.00000000000E+00  0.00000000000E+00  0.13329889812E+03  0.13329889812E+03  0.00000000000E+00 0.  1.
          1   -1    0    0  501    0  0.00000000000E+00 -0.00000000000E+00 -0.64389429880E+03  0.64389429880E+03  0.00000000000E+00 0. -1.
         23    2    1    2    0    0 -0.27159147654E+03 -0.98913316345E+01 -0.23792514749E+03  0.38225073162E+03  0.12508987747E+03 0.  0.
          5    1    3    3  502    0 -0.23951329406E+03  0.59122255362E+01 -0.24801233813E+03  0.34486108030E+03  0.41800000000E+01 0.  1.
         -5    1    3    3    0  502 -0.32078182486E+02 -0.15803557171E+02  0.10087190644E+02  0.37389651322E+02  0.41800000000E+01 0.  1.
        -11    1    1    2    0    0  0.10983300020E+03  0.38073536238E+02 -0.76657517396E+02  0.13924531255E+03  0.00000000000E+00 0. -1.
         11    1    1    2    0    0  0.16175847635E+03 -0.28182204604E+02 -0.19601273579E+03  0.25569715274E+03  0.00000000000E+00 0.  1.
</event>
<event>
 7    1  0.7017065E-006  0.1403064E+03  0.7561462E-02  0.1212917E+00
          2   -1    0    0  501    0  0.00000000000E+00  0.00000000000E+00  0.66652589212E+03  0.66652589212E+03  0.00000000000E+00 0. -1.
         -2   -1    0    0    0  501 -0.00000000000E+00 -0.00000000000E+00 -0.41146382700E+02  0.41146382700E+02  0.00000000000E+00 0.  1.
         23    2    1    2    0    0  0.73373497461E+02 -0.75855143005E+02  0.18989503969E+03  0.25069248498E+03  0.12509565570E+03 0.  0.
          5    1    3    3  502    0  0.51339570009E+02 -0.11012766351E+03  0.12860169645E+03  0.17697379029E+03  0.41800000000E+01 0. -1.
         -5    1    3    3    0  502  0.22033927451E+02  0.34272520509E+02  0.61293343239E+02  0.73718694687E+02  0.41800000000E+01 0. -1.
        -11    1    1    2    0    0  0.71359302182E+01  0.16730713049E+02  0.11803241083E+02  0.21683052352E+02  0.00000000000E+00 0.  1.
         11    1    1    2    0    0 -0.80509427679E+02  0.59124429955E+02  0.42368122864E+03  0.43529673748E+03  0.00000000000E+00 0. -1.
</event>
<event>
 7    1  0.7017065E-006  0.9273906E+02  0.7561462E-02  0.1296351E+00
          2   -1    0    0  501    0  0.00000000000E+00  0.00000000000E+00  0.94365299539E+02  0.94365299539E+02  0.00000000000E+00 0. -1.
         -2   -1    0    0    0  501 -0.00000000000E+00 -0.00000000000E+00 -0.16557207757E+03  0.16557207757E+03  0.00000000000E+00 0.  1.
         23    2    1    2    0    0 -0.34707098439E+02 -0.38393840111E+02 -0.76465945944E+02  0.15531955372E+03  0.12489376781E+03 0.  0.
          5    1    3    3  502    0  0.73639937248E+01 -0.40025093141E+02  0.23209542418E+02  0.47036068541E+02  0.41800000000E+01 0. -1.
         -5    1    3    3    0  502 -0.42071092164E+02  0.16312530297E+01 -0.99675488362E+02  0.10828348518E+03  0.41800000000E+01 0. -1.
        -11    1    1    2    0    0 -0.17983729843E+02 -0.17745030913E+02 -0.79802098362E+01  0.26494988397E+02  0.00000000000E+00 0.  1.
         11    1    1    2    0    0  0.52690828282E+02  0.56138871024E+02  0.13239377745E+02  0.78122834997E+02  0.00000000000E+00 0. -1.
</event>
<event>
 7    1  0.7017065E-006  0.1631013E+03  0.7561462E-02  0.1185239E+00
         -1   -1    0    0    0  501 -0.00000000000E+00  0.00000000000E+00  0.26049218832E+03  0.26049218832E+03  0.00000000000E+00 0.  1.
          1   -1    0    0  501    0  0.00000000000E+00 -0.00000000000E+00 -0.13468384673E+03  0.13468384673E+03  0.00000000000E+00 0. -1.
         23    2    1    2    0    0 -0.13484002946E+03  0.12886286560E+02  0.13942167607E+03  0.23115912528E+03  0.12509295550E+03 0.  0.
          5    1    3    3  502    0 -0.80872016161E+02 -0.37426489247E+02  0.12853539170E+03  0.15646036052E+03  0.41800000000E+01 0. -1.
         -5    1    3    3    0  502 -0.53968013296E+02  0.50312775807E+02  0.10886284367E+02  0.74698764755E+02  0.41800000000E+01 0. -1.
        -11    1    1    2    0    0  0.56474461004E+02 -0.50868100100E+02 -0.91913543603E+00  0.76011664654E+02  0.00000000000E+00 0.  1.
         11    1    1    2    0    0  0.78365568453E+02  0.37981813541E+02 -0.12694199044E+02  0.88005245118E+02  0.00000000000E+00 0. -1.
</event>
<event>
 6    1  0.7017065E-006  0.8000942E+02  0.7561462E-02  0.1329025E+00
         -2   -1    0    0    0  501 -0.00000000000E+00  0.00000000000E+00  0.92516294573E+03  0.92516294573E+03  0.00000000000E+00 0.  1.
          2   -1    0    0  501    0  0.00000000000E+00 -0.00000000000E+00 -0.13265606129E+02  0.13265606129E+02  0.00000000000E+00 0. -1.
          5    1    1    2  502    0  0.26767233540E+02  0.58391891463E+02  0.11007085946E+03  0.12751142805E+03  0.41800000000E+01 0. -1.
         -5    1    1    2    0  502 -0.50893271127E+02 -0.34866486170E+02  0.71175062142E+03  0.71443139376E+03  0.41800000000E+01 0.  1.
        -11    1    1    2    0    0  0.10869723441E+02 -0.12572800201E+02  0.34213841346E+02  0.38036996887E+02  0.00000000000E+00 0.  1.
         11    1    1    2    0    0  0.13256314145E+02 -0.10952605092E+02  0.55862017377E+02  0.58448733164E+02  0.00000000000E+00 0. -1.
</event>
<event>
 7    1  0.7017065E-006  0.1501443E+03  0.7561462E-02  0.1200296E+00
         -2   -1    0    0    0  501 -0.00000000000E+00  0.00000000000E+00  0.70309245709E+02  0.70309245709E+02  0.00000000000E+00 0.  1.
          2   -1    0    0  501    0  0.00000000000E+00 -0.00000000000E+00 -0.36819292497E+03  0.36819292497E+03  0.00000000000E+00 0. -1.
         23    2    1    2    0    0 -0.49171890178E+02 -0.11359319614E+03 -0.14212445482E+03  0.22620502455E+03  0.12509221990E+03 0.  0.
          5    1    3    3  502    0  0.42382813765E+02 -0.40173978611E+02 -0.47908653416E+02  0.75650267232E+02  0.41800000000E+01 0.  1.
         -5    1    3    3    0  502 -0.91554703944E+02 -0.73419217532E+02 -0.94215801400E+02  0.15055475732E+03  0.41800000000E+01 0.  1.
        -11    1    1    2    0    0  0.28668040966E+01  0.16422172148E+02 -0.77351646503E+02  0.79127640686E+02  0.00000000000E+00 0. -1.
         11    1    1    2    0    0  0.46305086082E+02  0.97171023995E+02 -0.78407577937E+02  0.13316950544E+03  0.00000000000E+00 0.  1.
</event>
<event>
 7    1  0.7017065E-006  0.1366209E+03  0.7561462E-02  0.1217949E+00
         -1   -1    0    0    0  501 -0.00000000000E+00  0.00000000000E+00  0.17582324918E+03  0.17582324918E+03  0.00000000000E+00 0.  1.
          1   -1    0    0  501    0  0.00000000000E+00 -0.00000000000E+00 -0.13479709210E+03  0.13479709210E+03  0.00000000000E+00 0. -1.
         23    2    1    2    0    0 -0.47365898729E+02 -0.84260841307E+02  0.73811301404E+02  0.17447016945E+03  0.12509322154E+03 0.  0.
          5    1    3    3  502    0  0.25758854092E+02  0.13299584838E+02 -0.43114610378E+01  0.29605043781E+02  0.41800000000E+01 0.  1.
         -5    1    3    3    0  502 -0.73124752822E+02 -0.97560426145E+02  0.78122762442E+02  0.14486512567E+03  0.41800000000E+01 0.  1.
        -11    1    1    2    0    0  0.54650536605E+02  0.21423937061E+02  0.10322854423E+02  0.59600566725E+02  0.00000000000E+00 0.  1.
         11    1    1    2    0    0 -0.72846378763E+01  0.62836904246E+02 -0.43107998756E+02  0.76549605100E+02  0.00000000000E+00 0. -1.
</event>
<event>
 7    1  0.7017065E-006  0.1037322E+03  0.7561462E-02  0.1272638E+00
          2   -1    0    0  501    0  0.00000000000E+00  0.00000000000E+00  0.33078664123E+03  0.33078664123E+03  0.00000000000E+00 0. -1.
         -2   -1    0    0    0  501 -0.00000000000E+00 -0.00000000000E+00 -0.36122528873E+02  0.36122528873E+02  0.00000000000E+00 0.  1.
         23    2    1    2    0    0 -0.41428754203E+01  0.10989069905E+02  0.12003977680E+03  0.17377589085E+03  0.12510231474E+03 0.  0.
          5    1    3    3  502    0 -0.58841246034E+02  0.30992203032E+02  0.55295340916E+02  0.86590161165E+02  0.41800000000E+01 0. -1.
         -5    1    3    3    0  502  0.54698370614E+02 -0.20003133127E+02  0.64744435884E+02  0.87185729684E+02  0.41800000000E+01 0. -1.
        -11    1    1    2    0    0 -0.37900513879E+02 -0.13716527534E+02  0.81539358452E+02  0.90957457399E+02  0.00000000000E+00 0.  1.
         11    1    1    2    0    0  0.42043389299E+02  0.27274576296E+01  0.93084977106E+02  0.10217582185E+03  0.00000000000E+00 0. -1.
</event>
<event>
 7    1  0.7017065E-006  0.8151708E+02  0.7561462E-02  0.1324800E+00
         -1   -1    0    0    0  501 -0.00000000000E+00  0.00000000000E+00  0.19683957145E+03  0.19683957145E+03  0.00000000000E+00 0.  1.
          1   -1    0    0  501    0  0.00000000000E+00 -0.00000000000E+00 -0.78927027478E+02  0.78927027478E+02  0.00000000000E+00 0. -1.
         23    2    1    2    0    0 -0.35377200954E+02 -0.13424156899E+02  0.11604108029E+03  0.17477055382E+03  0.12508980707E+03 0.  0.
          5    1    3    3  502    0 -0.16193188402E+02 -0.65329984927E+02  0.33476061855E+02  0.75288414770E+02  0.41800000000E+01 0.  1.
         -5    1    3    3    0  502 -0.19184012552E+02  0.51905828028E+02  0.82565018435E+02  0.99482139051E+02  0.41800000000E+01 0.  1.
        -11    1    1    2    0    0  0.22255890501E+02  0.15070272601E+02 -0.44933421968E+02  0.52358859689E+02  0.00000000000E+00 0. -1.
         11    1    1    2    0    0  0.13121310453E+02 -0.16461157014E+01  0.46804885650E+02  0.48637185421E+02  0.00000000000E+00 0.  1.
</event>
<event>
 7    1  0.7017065E-006  0.1667855E+03  0.7561462E-02  0.1181242E+00
         -2   -1    0    0    0  501 -0.00000000000E+00  0.00000000000E+00  0.44308801279E+03  0.44308801279E+03  0.00000000000E+00 0.  1.
          2   -1    0    0  501    0  0.00000000000E+00 -0.00000000000E+00 -0.90398500545E+02  0.90398500545E+02  0.00000000000E+00 0. -1.
         23    2    1    2    0    0  0.13775044974E+03  0.48982671181E+02  0.29170287667E+03  0.34944597427E+03  0.12508969658E+03 0.  0.
          5    1    3    3  502    0 -0.17551538892E+02  0.97859076169E+01  0.51851754992E+01  0.21170237370E+02  0.41800000000E+01 0.  1.
         -5    1    3    3    0  502  0.15530198864E+03  0.39196763565E+02  0.28651770117E+03  0.32827573690E+03  0.41800000000E+01 0.  1.
        -11    1    1    2    0    0 -0.63249901368E+01 -0.16164498376E+02 -0.19790080372E+02  0.26323825503E+02  0.00000000000E+00 0. -1.
         11    1    1    2    0    0 -0.13142545961E+03 -0.32818172805E+02  0.80776715947E+02  0.15771671357E+03  0.00000000000E+00 0.  1.
</event>
<event>
 7    1  0.7017065E-006  0.1419278E+03  0.7561462E-02  0.1210758E+00
         -1   -1    0    0    0  501 -0.00000000000E+00  0.00000000000E+00  0.16087709193E+04  0.16087709193E+04  0.00000000000E+00 0.  1.
          1   -1    0    0  501    0  0.00000000000E+00 -0.00000000000E+00 -0.14177230897E+02  0.14177230897E+02  0.00000000000E+00 0. -1.
         23    2    1    2    0    0  0.62611357426E+02 -0.81763071475E+02  0.85931898595E+03  0.87446111831E+03  0.12509095046E+03 0.  0.
          5    1    3    3  502    0  0.25204949536E+02 -0.99678667658E+02  0.39180140405E+03  0.40508880370E+03  0.41800000000E+01 0. -1.
         -5    1    3    3    0  502  0.37406407889E+02  0.17915596182E+02  0.46751758190E+03  0.46937231461E+03  0.41800000000E+01 0. -1.
        -11    1    1    2    0    0  0.24021781156E+02  0.75077373762E+01  0.10558773685E+03  0.10854576115E+03  0.00000000000E+00 0. -1.
         11    1    1    2    0    0 -0.86633138581E+02  0.74255334099E+02  0.62968696557E+03  0.63994127071E+03  0.00000000000E+00 0.  1.
</event>
<event>
 7    1  0.7017065E-006  0.7765757E+02  0.7561462E-02  0.1335833E+00
          1   -1    0    0  501    0  0.00000000000E+00  0.00000000000E+00  0.58112870682E+02  0.58112870682E+02  0.00000000000E+00 0. -1.
         -1   -1    0    0    0  501 -0.00000000000E+00 -0.00000000000E+00 -0.21987445062E+03  0.21987445062E+03  0.00000000000E+00 0.  1.
         23    2    1    2    0    0  0.11388346817E+02 -0.28927226108E+02 -0.81081999310E+02  0.15227650465E+03  0.12508942562E+03 0.  0.
          5    1    3    3  502    0  0.50275577109E+02 -0.12526559215E+02  0.89589874046E+01  0.52747361969E+02  0.41800000000E+01 0.  1.
         -5    1    3    3    0  502 -0.38887230292E+02 -0.16400666893E+02 -0.90040986714E+02  0.99529142681E+02  0.41800000000E+01 0.  1.
        -11    1    1    2    0    0 -0.94057253819E+01 -0.14591108286E+02  0.13468834830E+02  0.21972201134E+02  0.00000000000E+00 0. -1.
         11    1    1    2    0    0 -0.19826214349E+01  0.43518334394E+02 -0.94148415455E+02  0.10373861551E+03  0.00000000000E+00 0.  1.
</event>
<event>
 7    1  0.7017065E-006  0.6444820E+02  0.7561462E-02  0.1380059E+00
         -3   -1    0    0    0  501 -0.00000000000E+00  0.00000000000E+00  0.12488553911E+03  0.12488553911E+03  0.00000000000E+00 0.  1.
          3   -1    0    0  501    0  0.00000000000E+00 -0.00000000000E+00 -0.15703225578E+03  0.15703225578E+03  0.00000000000E+00 0. -1.
         23    2    1    2    0    0 -0.45575584258E+02  0.29442146280E+02  0.50372457719E+02  0.14536374039E+03  0.12509699702E+03 0.  0.
          5    1    3    3  502    0 -0.48817056027E+02  0.16749638170E+02 -0.32647560318E+02  0.61212669708E+02  0.41800000000E+01 0.  1.
         -5    1    3    3    0  502  0.32414717694E+01  0.12692508110E+02  0.83020018037E+02  0.84151070678E+02  0.41800000000E+01 0.  1.
        -11    1    1    2    0    0  0.42184725071E+02 -0.96352235015E+01 -0.10060671356E+03  0.10951757564E+03  0.00000000000E+00 0. -1.
         11    1    1    2    0    0  0.33908591868E+01 -0.19806922779E+02  0.18087539174E+02  0.27036478864E+02  0.00000000000E+00 0.  1.
</event>
<event>
 6    1  0.7017065E-006  0.9132118E+02  0.7561462E-02  0.1299683E+00
         -3   -1    0    0    0  501 -0.00000000000E+00  0.00000000000E+00  0.13618394919E+03  0.13618394919E+03  0.00000000000E+00 0.  1.
          3   -1    0    0  501    0  0.00000000000E+00 -0.00000000000E+00 -0.96319776399E+02  0.96319776399E+02  0.00000000000E+00 0. -1.
          5    1    1    2  502    0  0.23508697982E+02 -0.65917162116E+02 -0.24270583721E+02  0.74190732416E+02  0.41800000000E+01 0. -1.
         -5    1    1    2    0  502 -0.24986897457E+01  0.52502176142E+02  0.47170739343E+02  0.70747954035E+02  0.41800000000E+01 0.  1.
        -11    1    1    2    0    0  0.14444518822E+02  0.19049704676E+02 -0.23464517507E+02  0.33498044033E+02  0.00000000000E+00 0. -1.
         11    1    1    2    0    0 -0.35454527058E+02 -0.56347187009E+01  0.40428534679E+02  0.54066995109E+02  0.00000000000E+00 0.  1.
</event>
<event>
 7    1  0.7017065E-006  0.8986265E+02  0.7561462E-02  0.1303185E+00
          2   -1    0    0  501    0  0.00000000000E+00  0.00000000000E+00  0.56712029608E+03  0.56712029608E+03  0.00000000000E+00 0. -1.
         -2   -1    0    0    0  501 -0.00000000000E+00 -0.00000000000E+00 -0.23704682249E+02  0.23704682249E+02  0.00000000000E+00 0.  1.
         23    2    1    2    0    0 -0.16293472432E+02  0.37188524870E+02  0.32632057723E+03  0.35182513804E+03  0.12508934811E+03 0.  0.
          5    1    3    3  502    0  0.25454191249E+02  0.39387324451E+02  0.38123644486E+02  0.60581860722E+02  0.41800000000E+01 0.  1.
         -5    1    3    3    0  502 -0.41747663681E+02 -0.21987995812E+01  0.28819693274E+03  0.29124327732E+03  0.41800000000E+01 0.  1.
        -11    1    1    2    0    0 -0.27708783678E+02  0.66717385825E+01  0.12289642279E+03  0.12615791502E+03  0.00000000000E+00 0. -1.
         11    1    1    2    0    0  0.44002256110E+02 -0.43860263453E+02  0.94198613819E+02  0.11284192527E+03  0.00000000000E+00 0.  1.
</event>
<event>
 7    1  0.7017065E-006  0.1345044E+03  0.7561462E-02  0.1220921E+00
          1   -1    0    0  501    0  0.00000000000E+00  0.00000000000E+00  0.26124834246E+02  0.26124834246E+02  0.00000000000E+00 0. -1.
         -1   -1    0    0    0  501 -0.00000000000E+00 -0.00000000000E+00 -0.13740247104E+04  0.13740247104E+04  0.00000000000E+00 0.  1.
         23    2    1    2    0    0 -0.12879690173E+03  0.25974141382E+02 -0.10151175602E+04  0.10311999365E+04  0.12508537107E+03 0.  0.
          5    1    3    3  502    0 -0.11828655729E+03  0.34441177862E+02 -0.46991254841E+03  0.48581187709E+03  0.41800000000E+01 0.  1.
         -5    1    3    3    0  502 -0.10510344447E+02 -0.84670364799E+01 -0.54520501181E+03  0.54538805942E+03  0.41800000000E+01 0.  1.
        -11    1    1    2    0    0  0.24138536309E+02 -0.79296806497E+01 -0.70886892521E+01  0.26377988658E+02  0.00000000000E+00 0. -1.
         11    1    1    2    0    0  0.10465836543E+03 -0.18044460732E+02 -0.32569362671E+03  0.34257161951E+03  0.00000000000E+00 0.  1.
</event>
<event>
 7    1  0.7017065E-006  0.1452561E+03  0.7561462E-02  0.1206426E+00
         -3   -1    0    0    0  501 -0.00000000000E+00  0.00000000000E+00  0.11462539972E+03  0.11462539972E+03  0.00000000000E+00 0.  1.
          3   -1    0    0  501    0  0.00000000000E+00 -0.00000000000E+00 -0.19062617330E+03  0.19062617330E+03  0.00000000000E+00 0. -1.
         23    2    1    2    0    0 -0.36933559640E+02  0.92765774935E+02 -0.38707341863E+02  0.16466738242E+03  0.12509001435E+03 0.  0.
          5    1    3    3  502    0  0.34859795213E+01 -0.28380346350E+02 -0.20876889219E+02  0.35649866979E+02  0.41800000000E+01 0.  1.
         -5    1    3    3    0  502 -0.40419539161E+02  0.12114612129E+03 -0.17830452644E+02  0.12901751544E+03  0.41800000000E+01 0.  1.
        -11    1    1    2    0    0  0.48847605496E+02 -0.95519399658E+01 -0.24764507106E+02  0.55593245381E+02  0.00000000000E+00 0. -1.
         11    1    1    2    0    0 -0.11914045856E+02 -0.83213834969E+02 -0.12528924608E+02  0.84990945228E+02  0.00000000000E+00 0.  1.
</event>
<event>
 7    1  0.7017065E-006  0.1367940E+03  0.7561462E-02  0.1217709E+00
          1   -1    0    0  501    0  0.00000000000E+00  0.00000000000E+00  0.90711693780E+02  0.90711693780E+02  0.00000000000E+00 0. -1.
         -1   -1    0    0    0  501 -0.00000000000E+00 -0.00000000000E+00 -0.21235747401E+03  0.21235747401E+03  0.00000000000E+00 0.  1.
         23    2    1    2    0    0  0.33625936184E+02 -0.77495007759E+02 -0.86910924653E+02  0.17417798376E+03  0.12509309090E+03 0.  0.
          5    1    3    3  502    0 -0.26324713391E+02 -0.85564691702E+02 -0.59921288629E+02  0.10780695818E+03  0.41800000000E+01 0.  1.
         -5    1    3    3    0  502  0.59950649575E+02  0.80696839423E+01 -0.26989636024E+02  0.66371025577E+02  0.41800000000E+01 0.  1.
        -11    1    1    2    0    0  0.37488568363E+00  0.87802479217E+02 -0.31221456572E+02  0.93189029646E+02  0.00000000000E+00 0.  1.
         11    1    1    2    0    0 -0.34000821868E+02 -0.10307471458E+02 -0.35133990080E+01  0.35702154391E+02  0.00000000000E+00 0. -1.
</event>
<event>
 7    1  0.7017065E-006  0.1526700E+03  0.7561462E-02  0.1197230E+00
          1   -1    0    0  501    0  0.00000000000E+00  0.00000000000E+00  0.88692197330E+03  0.88692197330E+03  0.00000000000E+00 0. -1.
         -1   -1    0    0    0  501 -0.00000000000E+00 -0.00000000000E+00 -0.36400349484E+02  0.36400349484E+02  0.00000000000E+00 0.  1.
         23    2    1    2    0    0  0.68277130603E+01  0.12030529954E+03  0.25344308150E+03  0.30724894282E+03  0.12509410275E+03 0.  0.
          5    1    3    3  502    0  0.45846728168E+02  0.92870717470E+01  0.33230132850E+02  0.57531611437E+02  0.41800000000E+01 0.  1.
         -5    1    3    3    0  502 -0.39019015107E+02  0.11101822779E+03  0.22021294865E+03  0.24971733138E+03  0.41800000000E+01 0.  1.
        -11    1    1    2    0    0  0.18350843097E+02 -0.11289915104E+03  0.55355796895E+03  0.56525162249E+03  0.00000000000E+00 0. -1.
         11    1    1    2    0    0 -0.25178556157E+02 -0.74061484915E+01  0.43520573373E+02  0.50821757470E+02  0.00000000000E+00 0.  1.
</event>
<event>
 7    1  0.7017065E-006  0.1717962E+03  0.7561462E-02  0.1175988E+00
         -1   -1    0    0    0  501 -0.00000000000E+00  0.00000000000E+00  0.91587521142E+02  0.91587521142E+02  0.00000000000E+00 0.  1.
          1   -1    0    0  501    0  0.00000000000E+00 -0.00000000000E+00 -0.35364159107E+03  0.35364159107E+03  0.00000000000E+00 0. -1.
         23    2    1    2    0    0 -0.67258602078E+02  0.12409700697E+03 -0.10924078865E+03  0.21795444447E+03  0.12508718266E+03 0.  0.
          5    1    3    3  502    0 -0.92662178477E+02  0.40648809235E+02 -0.58713458269E+02  0.11706129845E+03  0.41800000000E+01 0. -1.
         -5    1    3    3    0  502  0.25403576399E+02  0.83448197731E+02 -0.50527330380E+02  0.10089314602E+03  0.41800000000E+01 0. -1.
        -11    1    1    2    0    0 -0.12222761997E+02 -0.92753094207E+01 -0.54171119333E+02  0.56302197519E+02  0.00000000000E+00 0. -1.
         11    1    1    2    0    0  0.79481364075E+02 -0.11482169755E+03 -0.98642161950E+02  0.17097247023E+03  0.00000000000E+00 0.  1.
</event>
<event>
 7    1  0.7017065E-006  0.1077704E+03  0.7561462E-02  0.1264755E+00
         -4   -1    0    0    0  501 -0.00000000000E+00  0.00000000000E+00  0.17982905753E+03  0.17982905753E+03  0.00000000000E+00 0.  1.
          4   -1    0    0  501    0  0.00000000000E+00 -0.00000000000E+00 -0.67057551152E+02  0.67057551152E+02  0.00000000000E+00 0. -1.
         23    2    1    2    0    0 -0.60918791023E+01  0.60525240905E+01  0.81459602106E+02  0.14952134226E+03  0.12508885232E+03 0.  0.
          5    1    3    3  502    0  0.44998710894E+02 -0.36923536840E+02  0.41381250480E+02  0.71540980187E+02  0.41800000000E+01 0. -1.
         -5    1    3    3    0  502 -0.51090589996E+02  0.42976060931E+02  0.40078351625E+02  0.77980362068E+02  0.41800000000E+01 0. -1.
        -11    1    1    2    0    0  0.81055244867E+00 -0.48002001617E+02  0.67858637071E+01  0.48486050579E+02  0.00000000000E+00 0. -1.
         11    1    1    2    0    0  0.52813266536E+01  0.41949477527E+02  0.24526040566E+02  0.48879215847E+02  0.00000000000E+00 0.  1.
</event>
<event>
 7    1  0.7017065E-006  0.9660933E+02  0.7561462E-02  0.1287592E+00
         -2   -1    0    0    0  501 -0.00000000000E+00  0.00000000000E+00  0.36377759802E+02  0.36377759802E+02  0.00000000000E+00 0.  1.
          2   -1    0    0  501    0  0.00000000000E+00 -0.00000000000E+00 -0.33906213458E+03  0.33906213458E+03  0.00000000000E+00 0. -1.
         23    2    1    2    0    0  0.23042104774E+02  0.32795951051E+00 -0.18417553136E+03  0.22383470186E+03  0.12510116407E+03 0.  0.
          5    1    3    3  502    0  0.28396328886E+01  0.48228354912E+02 -0.15840447273E+03  0.16566075913E+03  0.41800000000E+01 0. -1.
         -5    1    3    3    0  502  0.20202471885E+02 -0.47900395401E+02 -0.25771058629E+02  0.58173942730E+02  0.41800000000E+01 0. -1.
        -11    1    1    2    0    0 -0.47281079025E+02 -0.28657702961E+02 -0.85444523693E+02  0.10177195587E+03  0.00000000000E+00 0. -1.
         11    1    1    2    0    0  0.24238974252E+02  0.28329743451E+02 -0.33064319726E+02  0.49833236657E+02  0.00000000000E+00 0.  1.
</event>
<event>
 7    1  0.7017065E-006  0.8364811E+02  0.7561462E-02  0.1319006E+00
          2   -1    0    0  501    0  0.00000000000E+00  0.00000000000E+00  0.25368424869E+03  0.25368424869E+03  0.00000000000E+00 0. -1.
         -2   -1    0    0    0  501 -0.00000000000E+00 -0.00000000000E+00 -0.51927464000E+02  0.51927464000E+02  0.00000000000E+00 0.  1.
         23    2    1    2    0    0 -0.11048500891E+02 -0.90004843507E+01  0.62006908466E+02  0.14034481267E+03  0.12509489060E+03 0.  0.
          5    1    3    3  502    0 -0.41994906015E+02 -0.52390866135E+02  0.54048597942E+02  0.86296571919E+02  0.41800000000E+01 0.  1.
         -5    1    3    3    0  502  0.30946405124E+02  0.43390381784E+02  0.79583105249E+01  0.54048240747E+02  0.41800000000E+01 0.  1.
        -11    1    1    2    0    0  0.39768483924E+01 -0.18111831658E+02 -0.38670598193E+01  0.18942225867E+02  0.00000000000E+00 0.  1.
         11    1    1    2    0    0  0.70716524982E+01  0.27112316009E+02  0.14361693605E+03  0.14632467416E+03  0.00000000000E+00 0. -1.
</event>
<event>
 7    1  0.7017065E-006  0.1472838E+03  0.7561462E-02  0.1203851E+00
          2   -1    0    0  501    0  0.00000000000E+00  0.00000000000E+00  0.34881855558E+03  0.34881855558E+03  0.00000000000E+00 0. -1.
         -2   -1    0    0    0  501 -0.00000000000E+00 -0.00000000000E+00 -0.94300736945E+02  0.94300736945E+02  0.00000000000E+00 0.  1.
         23    2    1    2    0    0  0.10766205646E+03  0.56089163288E+02  0.37062546848E+02  0.17820721915E+03  0.12508824061E+03 0.  0.
          5    1    3    3  502    0  0.29011879170E+02 -0.38384566731E+02 -0.41838341655E+01  0.48477221088E+02  0.41800000000E+01 0.  1.
         -5    1    3    3    0  502  0.78650177289E+02  0.94473730019E+02  0.41246381014E+02  0.12972999806E+03  0.41800000000E+01 0.  1.
        -11    1    1    2    0    0 -0.56289013736E+01 -0.96431039803E+01 -0.75818892523E+01  0.13496630308E+02  0.00000000000E+00 0.  1.
         11    1    1    2    0    0 -0.10203315509E+03 -0.46446059308E+02  0.22503716104E+03  0.25141544306E+03  0.00000000000E+00 0. -1.
</event>
<event>
 7    1  0.7017065E-006  0.1446294E+03  0.7561462E-02  0.1207232E+00
         -2   -1    0    0    0  501 -0.00000000000E+00  0.00000000000E+00  0.53902718987E+02  0.53902718987E+02  0.00000000000E+00 0.  1.
          2   -1    0    0  501    0  0.00000000000E+00 -0.00000000000E+00 -0.40263374350E+03  0.40263374350E+03  0.00000000000E+00 0. -1.
         23    2    1    2    0    0 -0.82703975620E+02  0.58178627507E+02 -0.21941556977E+03  0.26877794988E+03  0.11778664526E+03 0.  0.
          5    1    3    3  502    0 -0.10004485717E+03  0.85057274238E+01 -0.16328567414E+03  0.19173159527E+03  0.41800000000E+01 0. -1.
         -5    1    3    3    0  502  0.17340881547E+02  0.49672900083E+02 -0.56129895622E+02  0.77046354606E+02  0.41800000000E+01 0.  1.
        -11    1    1    2    0    0  0.85475124216E+02 -0.78155117123E+02 -0.10701240605E+03  0.15768916970E+03  0.00000000000E+00 0.  1.
         11    1    1    2    0    0 -0.27711485965E+01  0.19976489616E+02 -0.22303048706E+02  0.30069342917E+02  0.00000000000E+00 0. -1.
</event>
<event>
 7    1  0.7017065E-006  0.1114864E+03  0.7561462E-02  0.1257842E+00
          4   -1    0    0  501    0  0.00000000000E+00  0.00000000000E+00  0.46936733179E+02  0.46936733179E+02  0.00000000000E+00 0. -1.
         -4   -1    0    0    0  501 -0.00000000000E+00 -0.00000000000E+00 -0.29961038521E+03  0.29961038521E+03  0.00000000000E+00 0.  1.
         23    2    1    2    0    0  0.37269907594E+00  0.55698534581E+02 -0.16174928038E+03  0.20628036144E+03  0.11526617958E+03 0.  0.
          5    1    3    3  502    0 -0.29524621768E+02 -0.26421905486E+02 -0.60816716550E+02  0.72704647664E+02  0.41800000000E+01 0. -1.
         -5    1    3    3    0  502  0.29897320844E+02  0.82120440066E+02 -0.10093256383E+03  0.13357571378E+03  0.41800000000E+01 0.  1.
        -11    1    1    2    0    0  0.13133611905E+02  0.17120348290E+02  0.17339790610E+01  0.21647280906E+02  0.00000000000E+00 0.  1.
         11    1    1    2    0    0 -0.13506310981E+02 -0.72818882871E+02 -0.92658350706E+02  0.11861947603E+03  0.00000000000E+00 0. -1.
</event>
<event>
 7    1  0.7017065E-006  0.9597760E+02  0.7561462E-02  0.1288989E+00
          1   -1    0    0  501    0  0.00000000000E+00  0.00000000000E+00  0.40076572062E+03  0.40076572062E+03  0.00000000000E+00 0. -1.
         -1   -1    0    0    0  501 -0.00000000000E+00 -0.00000000000E+00 -0.48103896002E+02  0.48103896002E+02  0.00000000000E+00 0.  1.
         23    2    1    2    0    0 -0.21713326296E+01  0.24924519514E+02  0.59011305389E+02  0.14055391141E+03  0.12508845466E+03 0.  0.
          5    1    3    3  502    0  0.48295467194E+02  0.35883805232E+02 -0.22076586162E+01  0.60352678366E+02  0.41800000000E+01 0. -1.
         -5    1    3    3    0  502 -0.50466799823E+02 -0.10959285718E+02  0.61218964005E+02  0.80201233043E+02  0.41800000000E+01 0. -1.
        -11    1    1    2    0    0  0.26888625693E+02 -0.41942717439E+02  0.25259675021E+03  0.25746321671E+03  0.00000000000E+00 0. -1.
         11    1    1    2    0    0 -0.24717293063E+02  0.17018197925E+02  0.41053769018E+02  0.50852488509E+02  0.00000000000E+00 0.  1.
</event>
<event>
 7    1  0.7017065E-006  0.1123903E+03  0.7561462E-02  0.1256206E+00
         -3   -1    0    0    0  501 -0.00000000000E+00  0.00000000000E+00  0.12654379918E+03  0.12654379918E+03  0.00000000000E+00 0.  1.
          3   -1    0    0  501    0  0.00000000000E+00 -0.00000000000E+00 -0.17934826741E+03  0.17934826741E+03  0.00000000000E+00 0. -1.
         23    2    1    2    0    0 -0.82630409062E+02  0.36966457015E+02  0.39473656719E+02  0.14988018884E+03  0.11274572269E+03 0.  0.
          5    1    3    3  502    0 -0.13344980886E+02  0.45339695339E+02 -0.25991989468E+02  0.54100207068E+02  0.41800000000E+01 0. -1.
         -5    1    3    3    0  502 -0.69285428176E+02 -0.83732383237E+01  0.65465646187E+02  0.95779981772E+02  0.41800000000E+01 0.  1.
        -11    1    1    2    0    0 -0.23296031880E+01 -0.20805263355E+02  0.90389447892E+01  0.22803257600E+02  0.00000000000E+00 0.  1.
         11    1    1    2    0    0  0.84960012250E+02 -0.16161193660E+02 -0.10131706974E+03  0.13320862015E+03  0.00000000000E+00 0. -1.
</event>
<event>
 7    1  0.7017065E-006  0.7880741E+02  0.7561462E-02  0.1332470E+00
          2   -1    0    0  501    0  0.00000000000E+00  0.00000000000E+00  0.62657730533E+03  0.62657730533E+03  0.00000000000E+00 0.  1.
         -2   -1    0    0    0  501 -0.00000000000E+00 -0.00000000000E+00 -0.25953213629E+02  0.25953213629E+02  0.00000000000E+00 0. -1.
         23    2    1    2    0    0  0.32541417474E+02  0.61314520537E+01  0.27735759817E+03  0.30605587967E+03  0.12508567328E+03 0.  0.
          5    1    3    3  502    0  0.27388271910E+02 -0.22705634474E+02  0.10172616084E+02  0.37237317211E+02  0.41800000000E+01 0. -1.
         -5    1    3    3    0  502  0.51531455643E+01  0.28837086528E+02  0.26718498209E+03  0.26881856246E+03  0.41800000000E+01 0. -1.
        -11    1    1    2    0    0 -0.10102568342E+02 -0.45652245801E+02  0.27948752131E+03  0.28337160056E+03  0.00000000000E+00 0.  1.
         11    1    1    2    0    0 -0.22438849132E+02  0.39520793747E+02  0.43778972213E+02  0.63103038729E+02  0.00000000000E+00 0. -1.
</event>
<event>
 7    1  0.7017065E-006  0.1209118E+03  0.7561462E-02  0.1241600E+00
         -2   -1    0    0    0  501 -0.00000000000E+00  0.00000000000E+00  0.61064897601E+02  0.61064897601E+02  0.00000000000E+00 0.  1.
          2   -1    0    0  501    0  0.00000000000E+00 -0.00000000000E+00 -0.27261033767E+03  0.27261033767E+03  0.00000000000E+00 0. -1.
         23    2    1    2    0    0 -0.62109240108E+02 -0.71155679943E+01 -0.78219548781E+02  0.16025674827E+03  0.12512289374E+03 0.  0.
          5    1    3    3  502    0 -0.93120504964E+02  0.21290208886E+02 -0.41350905231E+02  0.10417327490E+03  0.41800000000E+01 0. -1.
         -5    1    3    3    0  502  0.31011264856E+02 -0.28405776880E+02 -0.36868643551E+02  0.56083473371E+02  0.41800000000E+01 0. -1.
        -11    1    1    2    0    0  0.79691175702E+02  0.19984402413E+02 -0.75334461144E+02  0.11146901301E+03  0.00000000000E+00 0.  1.
         11    1    1    2    0    0 -0.17581935594E+02 -0.12868834418E+02 -0.57991430148E+02  0.61949474002E+02  0.00000000000E+00 0. -1.
</event>
<event>
 7    1  0.7017065E-006  0.1464400E+03  0.7561462E-02  0.1204917E+00
         -2   -1    0    0    0  501 -0.00000000000E+00  0.00000000000E+00  0.64569975446E+02  0.64569975446E+02  0.00000000000E+00 0.  1.
          2   -1    0    0  501    0  0.00000000000E+00 -0.00000000000E+00 -0.47929383962E+03  0.47929383962E+03  0.00000000000E+00 0. -1.
         23    2    1    2    0    0 -0.11551347214E+03 -0.29204781091E+02 -0.11616080103E+03  0.20817422910E+03  0.12508755525E+03 0.  0.
          5    1    3    3  502    0 -0.94947851841E+02  0.23562194219E+02 -0.25476637625E+02  0.10117708748E+03  0.41800000000E+01 0.  1.
         -5    1    3    3    0  502 -0.20565620298E+02 -0.52766975310E+02 -0.90684163408E+02  0.10699714162E+03  0.41800000000E+01 0.  1.
        -11    1    1    2    0    0  0.47678541245E+02 -0.22656149172E+02 -0.49384735778E+02  0.72286904197E+02  0.00000000000E+00 0. -1.
         11    1    1    2    0    0  0.67834930894E+02  0.51860930263E+02 -0.24917832736E+03  0.26340268177E+03  0.00000000000E+00 0.  1.
</event>
<event>
 7    1  0.7017065E-006  0.9691379E+02  0.7561462E-02  0.1286923E+00
          1   -1    0    0  501    0  0.00000000000E+00  0.00000000000E+00  0.70144084286E+03  0.70144084286E+03  0.00000000000E+00 0. -1.
         -1   -1    0    0    0  501 -0.00000000000E+00 -0.00000000000E+00 -0.18201462501E+02  0.18201462501E+02  0.00000000000E+00 0.  1.
         23    2    1    2    0    0 -0.21098058720E+02  0.21153998195E+02  0.35464610226E+03  0.37724563066E+03  0.12509111993E+03 0.  0.
          5    1    3    3  502    0  0.36160481274E+02  0.34021840477E+02  0.26748212478E+03  0.27208312244E+03  0.41800000000E+01 0.  1.
         -5    1    3    3    0  502 -0.57258539994E+02 -0.12867842282E+02  0.87163977473E+02  0.10516250822E+03  0.41800000000E+01 0.  1.
        -11    1    1    2    0    0  0.35865369143E+02  0.20264857713E+02  0.80409779421E+02  0.90347782421E+02  0.00000000000E+00 0. -1.
         11    1    1    2    0    0 -0.14767310424E+02 -0.41418855908E+02  0.24818349868E+03  0.25204889228E+03  0.00000000000E+00 0.  1.
</event>
<event>
 7    1  0.7017065E-006  0.1441492E+03  0.7561462E-02  0.1207852E+00
         -2   -1    0    0    0  501 -0.00000000000E+00  0.00000000000E+00  0.74355328691E+02  0.74355328691E+02  0.00000000000E+00 0.  1.
          2   -1    0    0  501    0  0.00000000000E+00 -0.00000000000E+00 -0.35111568896E+03  0.35111568896E+03  0.00000000000E+00 0. -1.
         23    2    1    2    0    0  0.99289802231E+02 -0.53897333909E+02 -0.18631929636E+03  0.25124847542E+03  0.12509008264E+03 0.  0.
          5    1    3    3  502    0  0.10745005158E+03 -0.20517988812E+02 -0.70120606265E+02  0.13000335870E+03  0.41800000000E+01 0. -1.
         -5    1    3    3    0  502 -0.81602493531E+01 -0.33379345097E+02 -0.11619869010E+03  0.12124511672E+03  0.41800000000E+01 0. -1.
        -11    1    1    2    0    0  0.17222081375E+02  0.79224056589E+01  0.12434673423E+01  0.18997652733E+02  0.00000000000E+00 0.  1.
         11    1    1    2    0    0 -0.11651188361E+03  0.45974928250E+02 -0.91684531253E+02  0.15522488950E+03  0.00000000000E+00 0. -1.
</event>
<event>
 7    1  0.7017065E-006  0.1238906E+03  0.7561462E-02  0.1236813E+00
          4   -1    0    0  501    0  0.00000000000E+00  0.00000000000E+00  0.49311499882E+02  0.49311499882E+02  0.00000000000E+00 0. -1.
         -4   -1    0    0    0  501 -0.00000000000E+00 -0.00000000000E+00 -0.36224479600E+03  0.36224479600E+03  0.00000000000E+00 0.  1.
         23    2    1    2    0    0  0.75216145957E+02 -0.22041366610E+02 -0.19654255722E+03  0.24580437242E+03  0.12509005656E+03 0.  0.
          5    1    3    3  502    0 -0.18612392003E+02  0.30102713172E+02 -0.25488001197E+02  0.43814439189E+02  0.41800000000E+01 0. -1.
         -5    1    3    3    0  502  0.93828537961E+02 -0.52144079783E+02 -0.17105455602E+03  0.20198993323E+03  0.41800000000E+01 0. -1.
        -11    1    1    2    0    0 -0.18526985136E+02 -0.24955401013E+02 -0.75217545259E+02  0.81386118796E+02  0.00000000000E+00 0.  1.
         11    1    1    2    0    0 -0.56689160821E+02  0.46996767623E+02 -0.41173193640E+02  0.84365804661E+02  0.00000000000E+00 0. -1.
</event>
<event>
 7    1  0.7017065E-006  0.1144267E+03  0.7561462E-02  0.1252585E+00
         -1   -1    0    0    0  501 -0.00000000000E+00  0.00000000000E+00  0.47743898537E+02  0.47743898537E+02  0.00000000000E+00 0.  1.
          1   -1    0    0  501    0  0.00000000000E+00 -0.00000000000E+00 -0.38516134854E+03  0.38516134854E+03  0.00000000000E+00 0. -1.
         23    2    1    2    0    0  0.83461655965E+02 -0.15466093757E+01 -0.20462530800E+03  0.25214573724E+03  0.12139899553E+03 0.  0.
          5    1    3    3  502    0 -0.48098453638E+00  0.22303869753E+02 -0.14406778775E+03  0.14584475932E+03  0.41800000000E+01 0. -1.
         -5    1    3    3    0  502  0.83942640501E+02 -0.23850479128E+02 -0.60557520251E+02  0.10630097793E+03  0.41800000000E+01 0.  1.
        -11    1    1    2    0    0 -0.73501245821E+02  0.36770445094E+02 -0.11115207775E+03  0.13823633082E+03  0.00000000000E+00 0. -1.
         11    1    1    2    0    0 -0.99604101431E+01 -0.35223835718E+02 -0.21640064245E+02  0.42523179014E+02  0.00000000000E+00 0.  1.
</event>
<event>
 7    1  0.7017065E-006  0.1287300E+03  0.7561462E-02  0.1229353E+00
         -1   -1    0    0    0  501 -0.00000000000E+00  0.00000000000E+00  0.17697983915E+03  0.17697983915E+03  0.00000000000E+00 0. -1.
          1   -1    0    0  501    0  0.00000000000E+00 -0.00000000000E+00 -0.11251992110E+03  0.11251992110E+03  0.00000000000E+00 0.  1.
         23    2    1    2    0    0 -0.51272532286E+01  0.77951503333E+02  0.76484123942E+02  0.16613302952E+03  0.12509051396E+03 0.  0.
          5    1    3    3  502    0 -0.28819287485E+02 -0.20441285410E+02 -0.52673649621E+01  0.35966859941E+02  0.41800000000E+01 0. -1.
         -5    1    3    3    0  502  0.23692034256E+02  0.98392788743E+02  0.81751488904E+02  0.13016616957E+03  0.41800000000E+01 0. -1.
        -11    1    1    2    0    0 -0.40169337436E+02 -0.14663961874E+02  0.67890913063E+01  0.43297796811E+02  0.00000000000E+00 0.  1.
         11    1    1    2    0    0  0.45296590665E+02 -0.63287541459E+02 -0.18813297198E+02  0.80068933933E+02  0.00000000000E+00 0. -1.
</event>
<event>
 7    1  0.7017065E-006  0.1225435E+03  0.7561462E-02  0.1238959E+00
         -2   -1    0    0    0  501 -0.00000000000E+00  0.00000000000E+00  0.14951761161E+03  0.14951761161E+03  0.00000000000E+00 0.  1.
          2   -1    0    0  501    0  0.00000000000E+00 -0.00000000000E+00 -0.21731106665E+03  0.21731106665E+03  0.00000000000E+00 0. -1.
         23    2    1    2    0    0  0.14970018038E+02 -0.68670033235E+02  0.51971144583E+02  0.15260635113E+03  0.12509206062E+03 0.  0.
          5    1    3    3  502    0  0.95860405084E+01 -0.95132195842E+02  0.71121327227E+02  0.11923817528E+03  0.41800000000E+01 0.  1.
         -5    1    3    3    0  502  0.53839775299E+01  0.26462162607E+02 -0.19150182644E+02  0.33368175844E+02  0.41800000000E+01 0.  1.
        -11    1    1    2    0    0 -0.47093740948E+02  0.95050337681E+00 -0.13028194292E+03  0.13853558584E+03  0.00000000000E+00 0. -1.
         11    1    1    2    0    0  0.32123722909E+02  0.67719529858E+02  0.10517343296E+02  0.75686741294E+02  0.00000000000E+00 0.  1.
</event>
<event>
 7    1  0.7017065E-006  0.1186265E+03  0.7561462E-02  0.1245380E+00
          3   -1    0    0  501    0  0.00000000000E+00  0.00000000000E+00  0.49480902461E+03  0.49480902461E+03  0.00000000000E+00 0. -1.
         -3   -1    0    0    0  501 -0.00000000000E+00 -0.00000000000E+00 -0.34958235100E+02  0.34958235100E+02  0.00000000000E+00 0.  1.
         23    2    1    2    0    0  0.64118926350E+02  0.29284145037E+02  0.21956783432E+03  0.26227021840E+03  0.12492732175E+03 0.  0.
          5    1    3    3  502    0 -0.21123165305E+02 -0.12262948630E+02  0.12801883213E+03  0.13039502215E+03  0.41800000000E+01 0.  1.
         -5    1    3    3    0  502  0.85242091655E+02  0.41547093667E+02  0.91549002195E+02  0.13187519625E+03  0.41800000000E+01 0.  1.
        -11    1    1    2    0    0 -0.31383264084E+02 -0.63108732240E+02  0.14372391401E+03  0.16007555968E+03  0.00000000000E+00 0. -1.
         11    1    1    2    0    0 -0.32735662266E+02  0.33824587203E+02  0.96559041175E+02  0.10742148163E+03  0.00000000000E+00 0.  1.
</event>
<event>
 7    1  0.7017065E-006  0.1061985E+03  0.7561462E-02  0.1267776E+00
          3   -1    0    0  501    0  0.00000000000E+00  0.00000000000E+00  0.52706938913E+02  0.52706938913E+02  0.00000000000E+00 0. -1.
         -3   -1    0    0    0  501 -0.00000000000E+00 -0.00000000000E+00 -0.26345170469E+03  0.26345170469E+03  0.00000000000E+00 0.  1.
         23    2    1    2    0    0  0.79093718042E+01 -0.40803336119E+02 -0.14492632273E+03  0.19590366681E+03  0.12508851765E+03 0.  0.
          5    1    3    3  502    0  0.55893989816E+02 -0.21847961945E+02 -0.24742730906E+02  0.65047264903E+02  0.41800000000E+01 0. -1.
         -5    1    3    3    0  502 -0.47984618012E+02 -0.18955374174E+02 -0.12018359182E+03  0.13085640190E+03  0.41800000000E+01 0. -1.
        -11    1    1    2    0    0  0.19907317311E+02  0.62248193961E+02 -0.39479540049E+02  0.76352950280E+02  0.00000000000E+00 0.  1.
         11    1    1    2    0    0 -0.27816689115E+02 -0.21444857842E+02 -0.26338903005E+02  0.43902026522E+02  0.00000000000E+00 0. -1.
</event>
<event>
 7    1  0.7017065E-006  0.8706860E+02  0.7561462E-02  0.1310110E+00
          1   -1    0    0  501    0  0.00000000000E+00  0.00000000000E+00  0.11888711512E+03  0.11888711512E+03  0.00000000000E+00 0. -1.
         -1   -1    0    0    0  501 -0.00000000000E+00 -0.00000000000E+00 -0.12380460807E+03  0.12380460807E+03  0.00000000000E+00 0.  1.
         23    2    1    2    0    0  0.11930376441E+02 -0.17601443852E+02 -0.52721676421E+02  0.13739757671E+03  0.12508546763E+03 0.  0.
          5    1    3    3  502    0 -0.53575306934E+02  0.73610581876E+01 -0.36335578227E+02  0.65285873937E+02  0.41800000000E+01 0. -1.
         -5    1    3    3    0  502  0.65505683375E+02 -0.24962502039E+02 -0.16386098194E+02  0.72111702771E+02  0.41800000000E+01 0. -1.
        -11    1    1    2    0    0  0.11862508827E+02 -0.83177441589E+01 -0.22451809470E+02  0.26720548872E+02  0.00000000000E+00 0.  1.
         11    1    1    2    0    0 -0.23792885268E+02  0.25919188011E+02  0.70255992939E+02  0.78573597603E+02  0.00000000000E+00 0. -1.
</event>
<event>
 7    1  0.7017065E-006  0.1350579E+03  0.7561462E-02  0.1220138E+00
          2   -1    0    0  501    0  0.00000000000E+00  0.00000000000E+00  0.33598013661E+03  0.33598013661E+03  0.00000000000E+00 0. -1.
         -2   -1    0    0    0  501 -0.00000000000E+00 -0.00000000000E+00 -0.68946959191E+02  0.68946959191E+02  0.00000000000E+00 0.  1.
         23    2    1    2    0    0 -0.10261958581E+01 -0.90824674199E+02  0.74970264337E+02  0.17181009995E+03  0.12509194774E+03 0.  0.
          5    1    3    3  502    0 -0.51261561193E+02 -0.64631656350E+02  0.65167460779E+01  0.82854927662E+02  0.41800000000E+01 0.  1.
         -5    1    3    3    0  502  0.50235365335E+02 -0.26193017849E+02  0.68453518259E+02  0.88955172286E+02  0.41800000000E+01 0.  1.
        -11    1    1    2    0    0 -0.25159600766E+01 -0.19834662298E+02  0.18449841466E+02  0.27205523956E+02  0.00000000000E+00 0.  1.
         11    1    1    2    0    0  0.35421559347E+01  0.11065933650E+03  0.17361307161E+03  0.20591147189E+03  0.00000000000E+00 0. -1.
</event>
<event>
 7    1  0.7017065E-006  0.1300708E+03  0.7561462E-02  0.1227351E+00
         -4   -1    0    0    0  501 -0.00000000000E+00  0.00000000000E+00  0.81904752719E+02  0.81904752719E+02  0.00000000000E+00 0.  1.
          4   -1    0    0  501    0  0.00000000000E+00 -0.00000000000E+00 -0.25997601442E+03  0.25997601442E+03  0.00000000000E+00 0. -1.
         23    2    1    2    0    0 -0.94613501237E+01  0.98789888887E+02 -0.12217068942E+03  0.20105276438E+03  0.12509027707E+03 0.  0.
          5    1    3    3  502    0 -0.45481154635E+01 -0.23636239376E+02  0.44220488876E+01  0.24827083648E+02  0.41800000000E+01 0. -1.
         -5    1    3    3    0  502 -0.49132346602E+01  0.12242612826E+03 -0.12659273831E+03  0.17622568073E+03  0.41800000000E+01 0. -1.
        -11    1    1    2    0    0  0.30381205192E+02 -0.36969284265E+02 -0.58419091982E+02  0.75515136999E+02  0.00000000000E+00 0. -1.
         11    1    1    2    0    0 -0.20919855068E+02 -0.61820604622E+02  0.25185197085E+01  0.65312865758E+02  0.00000000000E+00 0.  1.
</event>
<event>
 7    1  0.7017065E-006  0.3106833E+03  0.7561462E-02  0.1080019E+00
          1   -1    0    0  501    0  0.00000000000E+00  0.00000000000E+00  0.11240372933E+04  0.11240372933E+04  0.00000000000E+00 0. -1.
         -1   -1    0    0    0  501 -0.00000000000E+00 -0.00000000000E+00 -0.90225009071E+02  0.90225009071E+02  0.00000000000E+00 0.  1.
         23    2    1    2    0    0  0.21036313113E+02 -0.29140745618E+03  0.39654737803E+03  0.50818979798E+03  0.12508483425E+03 0.  0.
          5    1    3    3  502    0  0.72867952907E+02 -0.14337392534E+03  0.20437553807E+03  0.26010123796E+03  0.41800000000E+01 0.  1.
         -5    1    3    3    0  502 -0.51831639795E+02 -0.14803353084E+03  0.19217183996E+03  0.24808856002E+03  0.41800000000E+01 0.  1.
        -11    1    1    2    0    0  0.32034819158E+02  0.11160062638E+03  0.22542218904E+03  0.25356674221E+03  0.00000000000E+00 0.  1.
         11    1    1    2    0    0 -0.53071132270E+02  0.17980682981E+03  0.41184271718E+03  0.45250576219E+03  0.00000000000E+00 0. -1.
</event>
<event>
 7    1  0.7017065E-006  0.2277490E+03  0.7561462E-02  0.1128234E+00
         -2   -1    0    0    0  501 -0.00000000000E+00  0.00000000000E+00  0.11478379238E+03  0.11478379238E+03  0.00000000000E+00 0.  1.
          2   -1    0    0  501    0  0.00000000000E+00 -0.00000000000E+00 -0.46888999918E+03  0.46888999918E+03  0.00000000000E+00 0. -1.
         23    2    1    2    0    0  0.91546614824E+02 -0.18304232836E+03 -0.16588802852E+03  0.29163755687E+03  0.12509336479E+03 0.  0.
          5    1    3    3  502    0  0.78766814419E+02 -0.34056362566E+02 -0.34658331974E+02  0.92642966598E+02  0.41800000000E+01 0. -1.
         -5    1    3    3    0  502  0.12779800405E+02 -0.14898596579E+03 -0.13122969654E+03  0.19899459027E+03  0.41800000000E+01 0. -1.
        -11    1    1    2    0    0 -0.12484780681E+02  0.11501540725E+03 -0.73857996993E+02  0.13725675711E+03  0.00000000000E+00 0. -1.
         11    1    1    2    0    0 -0.79061834142E+02  0.68026921112E+02 -0.11436018129E+03  0.15477947758E+03  0.00000000000E+00 0.  1.
</event>
<event>
 7    1  0.7017065E-006  0.1466248E+03  0.7561462E-02  0.1204683E+00
          1   -1    0    0  501    0  0.00000000000E+00  0.00000000000E+00  0.31694737728E+02  0.31694737728E+02  0.00000000000E+00 0. -1.
         -1   -1    0    0    0  501 -0.00000000000E+00 -0.00000000000E+00 -0.79645397204E+03  0.79645397204E+03  0.00000000000E+00 0.  1.
         23    2    1    2    0    0  0.10998832597E+03  0.18083480224E+02 -0.44629290531E+03  0.47670662843E+03  0.12508960048E+03 0.  0.
          5    1    3    3  502    0  0.19088809046E+02 -0.36008678462E+02 -0.25326099190E+03  0.25655332774E+03  0.41800000000E+01 0. -1.
         -5    1    3    3    0  502  0.90899516926E+02  0.54092158687E+02 -0.19303191341E+03  0.22015330069E+03  0.41800000000E+01 0. -1.
        -11    1    1    2    0    0 -0.12388123717E+03 -0.33474447260E+00 -0.28826761282E+03  0.31375928605E+03  0.00000000000E+00 0.  1.
         11    1    1    2    0    0  0.13892911201E+02 -0.17748735752E+02 -0.30198716176E+02  0.37682795293E+02  0.00000000000E+00 0. -1.
</event>
<event>
 7    1  0.7017065E-006  0.1040143E+03  0.7561462E-02  0.1272074E+00
          1   -1    0    0  501    0  0.00000000000E+00  0.00000000000E+00  0.17021902330E+03  0.17021902330E+03  0.00000000000E+00 0. -1.
         -1   -1    0    0    0  501 -0.00000000000E+00 -0.00000000000E+00 -0.88083325143E+02  0.88083325143E+02  0.00000000000E+00 0.  1.
         23    2    1    2    0    0 -0.17847505082E+01  0.38507538618E+02  0.90256540430E+00  0.13090998854E+03  0.12510233655E+03 0.  0.
          5    1    3    3  502    0  0.11138473564E+02 -0.36677457241E+02 -0.29634799341E+02  0.48631216261E+02  0.41800000000E+01 0. -1.
         -5    1    3    3    0  502 -0.12923224072E+02  0.75184995858E+02  0.30537364746E+02  0.82278772282E+02  0.41800000000E+01 0. -1.
        -11    1    1    2    0    0  0.42986394180E+02 -0.14414088854E+02  0.59870877043E+02  0.75100718771E+02  0.00000000000E+00 0. -1.
         11    1    1    2    0    0 -0.41201643672E+02 -0.24093449764E+02  0.21362255706E+02  0.52291641126E+02  0.00000000000E+00 0.  1.
</event>
<event>
 7    1  0.7017065E-006  0.1853478E+03  0.7561462E-02  0.1162725E+00
         -2   -1    0    0    0  501 -0.00000000000E+00  0.00000000000E+00  0.40129431085E+02  0.40129431085E+02  0.00000000000E+00 0. -1.
          2   -1    0    0  501    0  0.00000000000E+00 -0.00000000000E+00 -0.10140182244E+04  0.10140182244E+04  0.00000000000E+00 0.  1.
         23    2    1    2    0    0 -0.12723199064E+03  0.82193894795E+02 -0.31253134535E+03  0.36914400906E+03  0.12509053447E+03 0.  0.
          5    1    3    3  502    0 -0.29894916817E+02  0.89629010410E+02 -0.11604073009E+03  0.14969966265E+03  0.41800000000E+01 0. -1.
         -5    1    3    3    0  502 -0.97337073822E+02 -0.74351156156E+01 -0.19649061526E+03  0.21944434641E+03  0.41800000000E+01 0. -1.
        -11    1    1    2    0    0  0.12192475841E+03 -0.29491202216E+02 -0.46934526945E+03  0.48581926648E+03  0.00000000000E+00 0.  1.
         11    1    1    2    0    0  0.53072322239E+01 -0.52702692579E+02 -0.19201217855E+03  0.19918437999E+03  0.00000000000E+00 0. -1.
</event>
<event>
 7    1  0.7017065E-006  0.9009639E+02  0.7561462E-02  0.1302618E+00
          1   -1    0    0  501    0  0.00000000000E+00  0.00000000000E+00  0.94676942790E+02  0.94676942790E+02  0.00000000000E+00 0. -1.
         -1   -1    0    0    0  501 -0.00000000000E+00 -0.00000000000E+00 -0.16148867928E+03  0.16148867928E+03  0.00000000000E+00 0.  1.
         23    2    1    2    0    0 -0.40923005371E+02  0.15536743477E+02 -0.75469636550E+02  0.15251007768E+03  0.12509026735E+03 0.  0.
          5    1    3    3  502    0  0.10152588782E+02  0.61020985837E+02 -0.49111258668E+02  0.79095030814E+02  0.41800000000E+01 0. -1.
         -5    1    3    3    0  502 -0.51075594153E+02 -0.45484242361E+02 -0.26358377882E+02  0.73415046862E+02  0.41800000000E+01 0. -1.
        -11    1    1    2    0    0  0.16779016776E+02 -0.18923993372E+02  0.49787400880E+02  0.55842978212E+02  0.00000000000E+00 0. -1.
         11    1    1    2    0    0  0.24143988595E+02  0.33872498955E+01 -0.41129500821E+02  0.47812566182E+02  0.00000000000E+00 0.  1.
</event>
<event>
 7    1  0.7017065E-006  0.1097424E+03  0.7561462E-02  0.1261048E+00
          4   -1    0    0  501    0  0.00000000000E+00  0.00000000000E+00  0.10584581015E+03  0.10584581015E+03  0.00000000000E+00 0. -1.
         -4   -1    0    0    0  501 -0.00000000000E+00 -0.00000000000E+00 -0.13016228766E+03  0.13016228766E+03  0.00000000000E+00 0.  1.
         23    2    1    2    0    0  0.31581561558E+02  0.14183313283E+02 -0.29371337324E+02  0.13304641030E+03  0.12506042711E+03 0.  0.
          5    1    3    3  502    0 -0.44510391717E+02 -0.15363268776E+02 -0.17727836717E+02  0.50487162655E+02  0.41800000000E+01 0. -1.
         -5    1    3    3    0  502  0.76091953275E+02  0.29546582059E+02 -0.11643500607E+02  0.82559247640E+02  0.41800000000E+01 0. -1.
        -11    1    1    2    0    0 -0.22676849709E+02 -0.49291904346E+02  0.27007557147E+02  0.60608081060E+02  0.00000000000E+00 0. -1.
         11    1    1    2    0    0 -0.89047118490E+01  0.35108591063E+02 -0.21952697331E+02  0.42353606453E+02  0.00000000000E+00 0.  1.
</event>
<event>
 7    1  0.7017065E-006  0.9477502E+02  0.7561462E-02  0.1291684E+00
         -1   -1    0    0    0  501 -0.00000000000E+00  0.00000000000E+00  0.99555880528E+03  0.99555880528E+03  0.00000000000E+00 0.  1.
          1   -1    0    0  501    0  0.00000000000E+00 -0.00000000000E+00 -0.16135953871E+02  0.16135953871E+02  0.00000000000E+00 0. -1.
         23    2    1    2    0    0 -0.54265904653E+01  0.20756169310E+02  0.80789507678E+03  0.81780332631E+03  0.12509020344E+03 0.  0.
          5    1    3    3  502    0  0.38752147255E+02  0.57248388424E+02  0.41828664815E+03  0.42398148463E+03  0.41800000000E+01 0.  1.
         -5    1    3    3    0  502 -0.44178737720E+02 -0.36492219114E+02  0.38960842863E+03  0.39382184168E+03  0.41800000000E+01 0.  1.
        -11    1    1    2    0    0  0.30453834763E+02 -0.22328716332E+02  0.25126421397E+02  0.45357961561E+02  0.00000000000E+00 0. -1.
         11    1    1    2    0    0 -0.25027244298E+02  0.15725470217E+01  0.14640135324E+03  0.14853347128E+03  0.00000000000E+00 0.  1.
</event>
<event>
 7    1  0.7017065E-006  0.1003211E+03  0.7561462E-02  0.1279622E+00
          1   -1    0    0  501    0  0.00000000000E+00  0.00000000000E+00  0.25107891540E+03  0.25107891540E+03  0.00000000000E+00 0. -1.
         -1   -1    0    0    0  501 -0.00000000000E+00 -0.00000000000E+00 -0.62100608664E+02  0.62100608664E+02  0.00000000000E+00 0.  1.
         23    2    1    2    0    0  0.51849737150E+02 -0.85952090919E+01  0.72828686856E+02  0.15398815401E+03  0.12508421596E+03 0.  0.
          5    1    3    3  502    0 -0.20968160897E+02  0.28294004023E+02  0.62151948662E+02  0.71558029301E+02  0.41800000000E+01 0.  1.
         -5    1    3    3    0  502  0.72817898047E+02 -0.36889213115E+02  0.10676738195E+02  0.82430124704E+02  0.41800000000E+01 0.  1.
        -11    1    1    2    0    0  0.56827065464E+01  0.23363655552E+02 -0.47309325575E+01  0.24505821294E+02  0.00000000000E+00 0.  1.
         11    1    1    2    0    0 -0.57532443697E+02 -0.14768446460E+02  0.12088055244E+03  0.13468554877E+03  0.00000000000E+00 0. -1.
</event>
<event>
 7    1  0.7017065E-006  0.9373989E+02  0.7561462E-02  0.1294040E+00
         -1   -1    0    0    0  501 -0.00000000000E+00  0.00000000000E+00  0.20165172023E+03  0.20165172023E+03  0.00000000000E+00 0.  1.
          1   -1    0    0  501    0  0.00000000000E+00 -0.00000000000E+00 -0.93784627644E+02  0.93784627644E+02  0.00000000000E+00 0. -1.
         23    2    1    2    0    0  0.41294556196E+02  0.44323618260E+02  0.12258148266E+03  0.18530269920E+03  0.12506417125E+03 0.  0.
          5    1    3    3  502    0  0.49571205185E+02  0.47256343624E+02  0.14524739893E+03  0.16063855606E+03  0.41800000000E+01 0.  1.
         -5    1    3    3    0  502 -0.82766489890E+01 -0.29327253631E+01 -0.22665916269E+02  0.24664143141E+02  0.41800000000E+01 0.  1.
        -11    1    1    2    0    0 -0.35217367529E+02  0.22662555896E+02 -0.50875689609E+01  0.42186938421E+02  0.00000000000E+00 0.  1.
         11    1    1    2    0    0 -0.60771886672E+01 -0.66986174157E+02 -0.96268211096E+01  0.67946710258E+02  0.00000000000E+00 0. -1.
</event>
<event>
 7    1  0.7017065E-006  0.9592228E+02  0.7561462E-02  0.1289112E+00
         -2   -1    0    0    0  501 -0.00000000000E+00  0.00000000000E+00  0.56337262423E+02  0.56337262423E+02  0.00000000000E+00 0.  1.
          2   -1    0    0  501    0  0.00000000000E+00 -0.00000000000E+00 -0.29516999589E+03  0.29516999589E+03  0.00000000000E+00 0. -1.
         23    2    1    2    0    0  0.18712649447E+02  0.32894624048E+02 -0.61960550834E+02  0.14463244195E+03  0.12508882389E+03 0.  0.
          5    1    3    3  502    0  0.42129341730E+02 -0.16275600844E+02  0.17155232240E+02  0.48492793389E+02  0.41800000000E+01 0.  1.
         -5    1    3    3    0  502 -0.23416692282E+02  0.49170224892E+02 -0.79115783074E+02  0.96139648558E+02  0.41800000000E+01 0.  1.
        -11    1    1    2    0    0  0.12046971373E+02  0.24188713672E+02 -0.11730696229E+02  0.29458999005E+02  0.00000000000E+00 0.  1.
         11    1    1    2    0    0 -0.30759620821E+02 -0.57083337719E+02 -0.16514148641E+03  0.17741581736E+03  0.00000000000E+00 0. -1.
</event>
<event>
 7    1  0.7017065E-006  0.1075773E+03  0.7561462E-02  0.1265123E+00
         -2   -1    0    0    0  501 -0.00000000000E+00  0.00000000000E+00  0.53371871687E+02  0.53371871687E+02  0.00000000000E+00 0.  1.
          2   -1    0    0  501    0  0.00000000000E+00 -0.00000000000E+00 -0.31757219947E+03  0.31757219947E+03  0.00000000000E+00 0. -1.
         23    2    1    2    0    0  0.50553050215E+02 -0.50098206564E+02 -0.13301330300E+03  0.19598496035E+03  0.12510845184E+03 0.  0.
          5    1    3    3  502    0 -0.31483013796E+02  0.16955508984E+02 -0.48431597719E+02  0.60347009041E+02  0.41800000000E+01 0.  1.
         -5    1    3    3    0  502  0.82036064011E+02 -0.67053715548E+02 -0.84581705281E+02  0.13563795131E+03  0.41800000000E+01 0.  1.
        -11    1    1    2    0    0 -0.16308707630E+02  0.62135842728E+01  0.12101966759E+02  0.21237706409E+02  0.00000000000E+00 0.  1.
         11    1    1    2    0    0 -0.34244342586E+02  0.43884622292E+02 -0.14328899155E+03  0.15372140440E+03  0.00000000000E+00 0. -1.
</event>
<event>
 7    1  0.7017065E-006  0.8174724E+02  0.7561462E-02  0.1324165E+00
          2   -1    0    0  501    0  0.00000000000E+00  0.00000000000E+00  0.52207647894E+03  0.52207647894E+03  0.00000000000E+00 0. -1.
         -2   -1    0    0    0  501 -0.00000000000E+00 -0.00000000000E+00 -0.13116871125E+02  0.13116871125E+02  0.00000000000E+00 0.  1.
         23    2    1    2    0    0 -0.92664760171E+01  0.77751403212E+01  0.34045904898E+03  0.35936744836E+03  0.11439527317E+03 0.  0.
          5    1    3    3  502    0 -0.19198644488E+02  0.59219036497E+02  0.17813318168E+03  0.18874423183E+03  0.41800000000E+01 0. -1.
         -5    1    3    3    0  502  0.99321684706E+01 -0.51443896176E+02  0.16232586730E+03  0.17062321653E+03  0.41800000000E+01 0.  1.
        -11    1    1    2    0    0 -0.12708423937E+02  0.13085497875E+02  0.42797487196E+02  0.46522674084E+02  0.00000000000E+00 0. -1.
         11    1    1    2    0    0  0.21974899954E+02 -0.20860638196E+02  0.12570307163E+03  0.12930322761E+03  0.00000000000E+00 0.  1.
</event>
<event>
 7    1  0.7017065E-006  0.1228367E+03  0.7561462E-02  0.1238489E+00
          3   -1    0    0  501    0  0.00000000000E+00  0.00000000000E+00  0.78001351294E+02  0.78001351294E+02  0.00000000000E+00 0. -1.
         -3   -1    0    0    0  501 -0.00000000000E+00 -0.00000000000E+00 -0.28898608708E+03  0.28898608708E+03  0.00000000000E+00 0.  1.
         23    2    1    2    0    0 -0.37745925956E+02  0.93500320602E+02 -0.14345327392E+03  0.21539004180E+03  0.12508782286E+03 0.  0.
          5    1    3    3  502    0 -0.77946174403E+00 -0.71926230863E+01  0.18953406284E+02  0.20713411048E+02  0.41800000000E+01 0. -1.
         -5    1    3    3    0  502 -0.36966464212E+02  0.10069294369E+03 -0.16240668021E+03  0.19467663075E+03  0.41800000000E+01 0. -1.
        -11    1    1    2    0    0  0.49717556039E+01 -0.96895454196E+02 -0.68277796458E+02  0.11863939011E+03  0.00000000000E+00 0. -1.
         11    1    1    2    0    0  0.32774170352E+02  0.33951335942E+01  0.74633459546E+00  0.32958006458E+02  0.00000000000E+00 0.  1.
</event>
<event>
 7    1  0.7017065E-006  0.1074306E+03  0.7561462E-02  0.1265403E+00
          2   -1    0    0  501    0  0.00000000000E+00  0.00000000000E+00  0.70862249157E+03  0.70862249157E+03  0.00000000000E+00 0.  1.
         -2   -1    0    0    0  501 -0.00000000000E+00 -0.00000000000E+00 -0.17728154014E+02  0.17728154014E+02  0.00000000000E+00 0. -1.
         23    2    1    2    0    0  0.15679364622E+02  0.23272076431E+02  0.38765127896E+03  0.40829825778E+03  0.12508605521E+03 0.  0.
          5    1    3    3  502    0 -0.53474256261E+02  0.86690295267E+01  0.21348669323E+03  0.22029228026E+03  0.41800000000E+01 0.  1.
         -5    1    3    3    0  502  0.69153620883E+02  0.14603046904E+02  0.17416458573E+03  0.18800597752E+03  0.41800000000E+01 0.  1.
        -11    1    1    2    0    0  0.33417945148E+02  0.38432894505E+01  0.63761935076E+02  0.72091013978E+02  0.00000000000E+00 0. -1.
         11    1    1    2    0    0 -0.49097309770E+02 -0.27115365881E+02  0.23948112352E+03  0.24596137383E+03  0.00000000000E+00 0.  1.
</event>
<event>
 7    1  0.7017065E-006  0.1522565E+03  0.7561462E-02  0.1197727E+00
         -1   -1    0    0    0  501 -0.00000000000E+00  0.00000000000E+00  0.93556984991E+02  0.93556984991E+02  0.00000000000E+00 0.  1.
          1   -1    0    0  501    0  0.00000000000E+00 -0.00000000000E+00 -0.28292037539E+03  0.28292037539E+03  0.00000000000E+00 0. -1.
         23    2    1    2    0    0 -0.41744696292E+02 -0.11162097329E+03 -0.50733138974E+02  0.18006763389E+03  0.12509452442E+03 0.  0.
          5    1    3    3  502    0 -0.70177338395E+02 -0.12268593143E+03 -0.47201546993E+02  0.14907097315E+03  0.41800000000E+01 0.  1.
         -5    1    3    3    0  502  0.28432642103E+02  0.11064958141E+02 -0.35315919810E+01  0.30996660749E+02  0.41800000000E+01 0.  1.
        -11    1    1    2    0    0 -0.13349604636E+02  0.38602941719E+02 -0.73611790507E+02  0.84184884361E+02  0.00000000000E+00 0. -1.
         11    1    1    2    0    0  0.55094300927E+02  0.73018031573E+02 -0.65018460915E+02  0.11222484212E+03  0.00000000000E+00 0.  1.
</event>
<event>
 7    1  0.7017065E-006  0.1167837E+03  0.7561462E-02  0.1248499E+00
          2   -1    0    0  501    0  0.00000000000E+00  0.00000000000E+00  0.33471612339E+03  0.33471612339E+03  0.00000000000E+00 0. -1.
         -2   -1    0    0    0  501 -0.00000000000E+00 -0.00000000000E+00 -0.91351747592E+02  0.91351747592E+02  0.00000000000E+00 0.  1.
         23    2    1    2    0    0 -0.41689821467E+02  0.10858823732E+03  0.21551717206E+03  0.27499958700E+03  0.12509066673E+03 0.  0.
          5    1    3    3  502    0 -0.10777381027E+02  0.43805152297E+02 -0.25578233494E+01  0.45376846187E+02  0.41800000000E+01 0.  1.
         -5    1    3    3    0  502 -0.30912440440E+02  0.64783085025E+02  0.21807499541E+03  0.22962274082E+03  0.41800000000E+01 0.  1.
        -11    1    1    2    0    0  0.18079794339E+02 -0.42691992161E+02 -0.34134030613E+02  0.57572712320E+02  0.00000000000E+00 0.  1.
         11    1    1    2    0    0  0.23610027128E+02 -0.65896245161E+02  0.61981234350E+02  0.93495571654E+02  0.00000000000E+00 0. -1.
</event>
<event>
 7    1  0.7017065E-006  0.1297555E+03  0.7561462E-02  0.1227819E+00
          2   -1    0    0  501    0  0.00000000000E+00  0.00000000000E+00  0.72027876453E+03  0.72027876453E+03  0.00000000000E+00 0. -1.
         -2   -1    0    0    0  501 -0.00000000000E+00 -0.00000000000E+00 -0.25316973412E+02  0.25316973412E+02  0.00000000000E+00 0.  1.
         23    2    1    2    0    0  0.70988227444E+02  0.70174588104E+01  0.28272989606E+03  0.31728902940E+03  0.12509021099E+03 0.  0.
          5    1    3    3  502    0  0.10500076297E+03 -0.90804987494E+01  0.19400278369E+03  0.22082157540E+03  0.41800000000E+01 0. -1.
         -5    1    3    3    0  502 -0.34012535530E+02  0.16097957560E+02  0.88727112372E+02  0.96467453997E+02  0.41800000000E+01 0. -1.
        -11    1    1    2    0    0  0.21796591966E+02  0.56805462486E+01  0.85715231494E+02  0.88625396683E+02  0.00000000000E+00 0.  1.
         11    1    1    2    0    0 -0.92784819410E+02 -0.12698005059E+02  0.32651666356E+03  0.33968131186E+03  0.00000000000E+00 0. -1.
</event>
<event>
 7    1  0.7017065E-006  0.1456163E+03  0.7561462E-02  0.1205965E+00
         -1   -1    0    0    0  501 -0.00000000000E+00  0.00000000000E+00  0.45232484438E+02  0.45232484438E+02  0.00000000000E+00 0.  1.
          1   -1    0    0  501    0  0.00000000000E+00 -0.00000000000E+00 -0.64859851843E+03  0.64859851843E+03  0.00000000000E+00 0. -1.
         23    2    1    2    0    0 -0.59630472821E+01 -0.13474539653E+03 -0.30360143242E+03  0.35498072357E+03  0.12508239093E+03 0.  0.
          5    1    3    3  502    0 -0.19571441646E+02 -0.39085085859E+01  0.36624994357E+01  0.20717240877E+02  0.41800000000E+01 0.  1.
         -5    1    3    3    0  502  0.13608394364E+02 -0.13083688795E+03 -0.30726393186E+03  0.33426348270E+03  0.41800000000E+01 0.  1.
        -11    1    1    2    0    0  0.20441295606E+02  0.84979123173E+02 -0.10160965499E+03  0.13402917566E+03  0.00000000000E+00 0.  1.
         11    1    1    2    0    0 -0.14478248324E+02  0.49766273361E+02 -0.19815494658E+03  0.20482110364E+03  0.00000000000E+00 0. -1.
</event>
<event>
 6    1  0.7017065E-006  0.1044086E+03  0.7561462E-02  0.1271289E+00
         -2   -1    0    0    0  501 -0.00000000000E+00  0.00000000000E+00  0.36594930637E+02  0.36594930637E+02  0.00000000000E+00 0.  1.
          2   -1    0    0  501    0  0.00000000000E+00 -0.00000000000E+00 -0.40345736734E+03  0.40345736734E+03  0.00000000000E+00 0. -1.
          5    1    1    2  502    0 -0.38765131681E+02 -0.48924339490E+02 -0.11785148338E+03  0.13342702487E+03  0.41800000000E+01 0. -1.
         -5    1    1    2    0  502  0.39920489056E+02  0.58677557785E+02 -0.47538512441E+02  0.85522416940E+02  0.41800000000E+01 0.  1.
        -11    1    1    2    0    0  0.36404652788E+02 -0.18717789188E+00 -0.16100000886E+03  0.16506464380E+03  0.00000000000E+00 0. -1.
         11    1    1    2    0    0 -0.37560010163E+02 -0.95660404032E+01 -0.40472432022E+02  0.56038212376E+02  0.00000000000E+00 0.  1.
</event>
<event>
 7    1  0.7017065E-006  0.8868097E+02  0.7561462E-02  0.1306078E+00
          1   -1    0    0  501    0  0.00000000000E+00  0.00000000000E+00  0.32251002011E+03  0.32251002011E+03  0.00000000000E+00 0. -1.
         -1   -1    0    0    0  501 -0.00000000000E+00 -0.00000000000E+00 -0.46749586261E+02  0.46749586261E+02  0.00000000000E+00 0.  1.
         23    2    1    2    0    0 -0.11699757867E+02  0.43261910999E+01  0.48628463854E+02  0.12410831593E+03  0.11350130538E+03 0.  0.
          5    1    3    3  502    0  0.37977020568E+02 -0.59305553576E+01  0.60543228087E+02  0.71835788053E+02  0.41800000000E+01 0. -1.
         -5    1    3    3    0  502 -0.49676778435E+02  0.10256746457E+02 -0.11914764233E+02  0.52272527874E+02  0.41800000000E+01 0.  1.
        -11    1    1    2    0    0  0.11548118623E+02 -0.45339932128E+02  0.15786509432E+03  0.16465253260E+03  0.00000000000E+00 0. -1.
         11    1    1    2    0    0  0.15163924412E+00  0.41013741028E+02  0.69266875680E+02  0.80498757842E+02  0.00000000000E+00 0.  1.
</event>
<event>
 7    1  0.7017065E-006  0.6644759E+02  0.7561462E-02  0.1372608E+00
          1   -1    0    0  501    0  0.00000000000E+00  0.00000000000E+00  0.13035258859E+03  0.13035258859E+03  0.00000000000E+00 0. -1.
         -1   -1    0    0    0  501 -0.00000000000E+00 -0.00000000000E+00 -0.92326226391E+02  0.92326226391E+02  0.00000000000E+00 0.  1.
         23    2    1    2    0    0  0.11445963081E+02  0.16309905345E+02  0.28925772901E+02  0.12992803696E+03  0.12509025289E+03 0.  0.
          5    1    3    3  502    0 -0.79057147552E+01  0.33057986606E+02 -0.42127162152E+02  0.54290892378E+02  0.41800000000E+01 0.  1.
         -5    1    3    3    0  502  0.19351677836E+02 -0.16748081261E+02  0.71052935054E+02  0.75637144584E+02  0.41800000000E+01 0.  1.
        -11    1    1    2    0    0 -0.71270918970E+01 -0.44060149709E+02  0.33293779285E+02  0.55682743919E+02  0.00000000000E+00 0. -1.
         11    1    1    2    0    0 -0.43188711843E+01  0.27750244364E+02 -0.24193189984E+02  0.37068034102E+02  0.00000000000E+00 0.  1.
</event>
<event>
 6    1  0.7017065E-006  0.1305457E+03  0.7561462E-02  0.1226648E+00
          1   -1    0    0  501    0  0.00000000000E+00  0.00000000000E+00  0.67241527419E+02  0.67241527419E+02  0.00000000000E+00 0. -1.
         -1   -1    0    0    0  501 -0.00000000000E+00 -0.00000000000E+00 -0.44663499112E+03  0.44663499112E+03  0.00000000000E+00 0.  1.
          5    1    1    2  502    0  0.11283712561E+03  0.96226017453E+01 -0.29367752566E+03  0.31478369218E+03  0.41800000000E+01 0. -1.
         -5    1    1    2    0  502 -0.27934925093E+02  0.35739590541E+02 -0.19521767226E+02  0.49560570695E+02  0.41800000000E+01 0.  1.
        -11    1    1    2    0    0 -0.64696275709E+02 -0.16128171782E+02  0.81094367538E+01  0.67167618538E+02  0.00000000000E+00 0. -1.
         11    1    1    2    0    0 -0.20205924810E+02 -0.29234020504E+02 -0.74303607563E+02  0.82364637127E+02  0.00000000000E+00 0.  1.
</event>
<event>
 7    1  0.7017065E-006  0.6501333E+02  0.7561462E-02  0.1377921E+00
         -2   -1    0    0    0  501 -0.00000000000E+00  0.00000000000E+00  0.92316778135E+02  0.92316778135E+02  0.00000000000E+00 0.  1.
          2   -1    0    0  501    0  0.00000000000E+00 -0.00000000000E+00 -0.16997953354E+03  0.16997953354E+03  0.00000000000E+00 0. -1.
         23    2    1    2    0    0  0.46571992850E+02 -0.42427858700E+02 -0.31734347661E+02  0.14361162463E+03  0.12509259049E+03 0.  0.
          5    1    3    3  502    0  0.37010159558E+02 -0.42602514863E+02 -0.77898253962E+02  0.96282586970E+02  0.41800000000E+01 0.  1.
         -5    1    3    3    0  502  0.95618332918E+01  0.17465616265E+00  0.46163906301E+02  0.47329037658E+02  0.41800000000E+01 0.  1.
        -11    1    1    2    0    0 -0.20844684115E+02  0.19236954807E+02  0.26236278547E+02  0.38638110695E+02  0.00000000000E+00 0.  1.
         11    1    1    2    0    0 -0.25727308735E+02  0.23190903893E+02 -0.72164686293E+02  0.80046576353E+02  0.00000000000E+00 0. -1.
</event>
<event>
 7    1  0.7017065E-006  0.1382402E+03  0.7561462E-02  0.1215717E+00
         -2   -1    0    0    0  501 -0.00000000000E+00  0.00000000000E+00  0.28200554267E+03  0.28200554267E+03  0.00000000000E+00 0.  1.
          2   -1    0    0  501    0  0.00000000000E+00 -0.00000000000E+00 -0.84362880977E+02  0.84362880977E+02  0.00000000000E+00 0. -1.
         23    2    1    2    0    0 -0.44992134715E+02  0.10042607912E+03  0.11253524415E+03  0.20105068532E+03  0.12508999695E+03 0.  0.
          5    1    3    3  502    0  0.15445246041E+02  0.10133010602E+03  0.89799112826E+02  0.13633671214E+03  0.41800000000E+01 0. -1.
         -5    1    3    3    0  502 -0.60437380757E+02 -0.90402690284E+00  0.22736131321E+02  0.64713973181E+02  0.41800000000E+01 0. -1.
        -11    1    1    2    0    0  0.15163040033E+02 -0.10193014041E+02  0.65866872297E+02  0.68353933204E+02  0.00000000000E+00 0.  1.
         11    1    1    2    0    0  0.29829094682E+02 -0.90233065077E+02  0.19240545246E+02  0.96963805124E+02  0.00000000000E+00 0. -1.
</event>
<event>
 7    1  0.7017065E-006  0.1042971E+03  0.7561462E-02  0.1271511E+00
          1   -1    0    0  501    0  0.00000000000E+00  0.00000000000E+00  0.20303207535E+02  0.20303207535E+02  0.00000000000E+00 0. -1.
         -1   -1    0    0    0  501 -0.00000000000E+00 -0.00000000000E+00 -0.59740162515E+03  0.59740162515E+03  0.00000000000E+00 0.  1.
         23    2    1    2    0    0 -0.82922673768E+01 -0.12589272763E+02 -0.37006340492E+03  0.39092338100E+03  0.12508762795E+03 0.  0.
          5    1    3    3  502    0 -0.65562972904E+02  0.43806682722E+01 -0.20660912018E+03  0.21684670763E+03  0.41800000000E+01 0. -1.
         -5    1    3    3    0  502  0.57270705527E+02 -0.16969941035E+02 -0.16345428474E+03  0.17407667337E+03  0.41800000000E+01 0. -1.
        -11    1    1    2    0    0 -0.28800292759E+02 -0.18706954529E+02 -0.13919753774E+03  0.14337141111E+03  0.00000000000E+00 0.  1.
         11    1    1    2    0    0  0.37092560136E+02  0.31296227292E+02 -0.67837474950E+02  0.83410040569E+02  0.00000000000E+00 0. -1.
</event>
<event>
 7    1  0.7017065E-006  0.3248917E+03  0.7561462E-02  0.1073420E+00
          1   -1    0    0  501    0  0.00000000000E+00  0.00000000000E+00  0.17988279618E+03  0.17988279618E+03  0.00000000000E+00 0.  1.
         -1   -1    0    0    0  501 -0.00000000000E+00 -0.00000000000E+00 -0.61033065987E+03  0.61033065987E+03  0.00000000000E+00 0. -1.
         23    2    1    2    0    0  0.30384403459E+03 -0.72295951728E+02 -0.22661080743E+03  0.40563921382E+03  0.12507122675E+03 0.  0.
          5    1    3    3  502    0  0.27600654164E+03 -0.10243332715E+03 -0.18936052537E+03  0.35006724855E+03  0.41800000000E+01 0. -1.
         -5    1    3    3    0  502  0.27837492950E+02  0.30137375427E+02 -0.37250282061E+02  0.55571965279E+02  0.41800000000E+01 0. -1.
        -11    1    1    2    0    0 -0.25265047670E+03  0.72756102020E+02 -0.20495711712E+03  0.33336636546E+03  0.00000000000E+00 0. -1.
         11    1    1    2    0    0 -0.51193557882E+02 -0.46015029227E+00  0.11200608615E+01  0.51207876770E+02  0.00000000000E+00 0.  1.
</event>
<event>
 7    1  0.7017065E-006  0.1318884E+03  0.7561462E-02  0.1224680E+00
          3   -1    0    0  501    0  0.00000000000E+00  0.00000000000E+00  0.15862462187E+03  0.15862462187E+03  0.00000000000E+00 0. -1.
         -3   -1    0    0    0  501 -0.00000000000E+00 -0.00000000000E+00 -0.15866142028E+03  0.15866142028E+03  0.00000000000E+00 0.  1.
         23    2    1    2    0    0 -0.90686545342E+02 -0.58715443883E+02 -0.41620384753E+02  0.17044294691E+03  0.12508792455E+03 0.  0.
          5    1    3    3  502    0 -0.85745457740E+02 -0.74703236075E+02  0.11702718687E+02  0.11439966358E+03  0.41800000000E+01 0.  1.
         -5    1    3    3    0  502 -0.49410876024E+01  0.15987792192E+02 -0.53323103440E+02  0.56043283329E+02  0.41800000000E+01 0.  1.
        -11    1    1    2    0    0  0.12056104062E+02 -0.18787733635E+02 -0.10616064843E+02  0.24719009144E+02  0.00000000000E+00 0. -1.
         11    1    1    2    0    0  0.78630441280E+02  0.77503177518E+02  0.52199651178E+02  0.12212408609E+03  0.00000000000E+00 0.  1.
</event>
<event>
 7    1  0.7017065E-006  0.1027639E+03  0.7561462E-02  0.1274589E+00
         -3   -1    0    0    0  501 -0.00000000000E+00  0.00000000000E+00  0.57540404266E+03  0.57540404266E+03  0.00000000000E+00 0.  1.
          3   -1    0    0  501    0  0.00000000000E+00 -0.00000000000E+00 -0.31810284779E+02  0.31810284779E+02  0.00000000000E+00 0. -1.
         23    2    1    2    0    0  0.93360408825E+01  0.79282711332E+02  0.29655956480E+03  0.33161253163E+03  0.12508551348E+03 0.  0.
          5    1    3    3  502    0 -0.18036256427E+02  0.95817776859E+01  0.23117602985E+03  0.23211408011E+03  0.41800000000E+01 0. -1.
         -5    1    3    3    0  502  0.27372297309E+02  0.69700933646E+02  0.65383534953E+02  0.99498451516E+02  0.41800000000E+01 0. -1.
        -11    1    1    2    0    0 -0.34489106348E+02 -0.99027723768E+01  0.14685121703E+03  0.15117156909E+03  0.00000000000E+00 0.  1.
         11    1    1    2    0    0  0.25153065466E+02 -0.69379938956E+02  0.10018297604E+03  0.12443022672E+03  0.00000000000E+00 0. -1.
</event>
<event>
 7    1  0.1412979E-005  0.2822712E+03  0.7561462E-02  0.1094455E+00
         -1   -1    0    0    0  501 -0.00000000000E+00  0.00000000000E+00  0.11083016939E+03  0.11083016939E+03  0.00000000000E+00 0.  1.
          1   -1    0    0  501    0  0.00000000000E+00 -0.00000000000E+00 -0.11658976596E+04  0.11658976596E+04  0.00000000000E+00 0. -1.
         23    2    1    2    0    0  0.41781282964E+02 -0.26673286294E+03 -0.16104217740E+03  0.33834005681E+03  0.12508922960E+03 0.  0.
          5    1    3    3  502    0  0.34828672175E+02 -0.27177285661E+03 -0.17220888230E+03  0.32364624753E+03  0.41800000000E+01 0. -1.
         -5    1    3    3    0  502  0.69526107889E+01  0.50399936691E+01  0.11166704900E+02  0.14693809285E+02  0.41800000000E+01 0. -1.
        -11    1    1    2    0    0 -0.59390582230E+02  0.12786755481E+03 -0.52833599710E+03  0.54682380952E+03  0.00000000000E+00 0. -1.
         11    1    1    2    0    0  0.17609299266E+02  0.13886530814E+03 -0.36568931572E+03  0.39156396267E+03  0.00000000000E+00 0.  1.
</event>
<event>
 7    1  0.7017065E-006  0.5281911E+02  0.7561462E-02  0.1430703E+00
          3   -1    0    0  501    0  0.00000000000E+00  0.00000000000E+00  0.18376172671E+02  0.18376172671E+02  0.00000000000E+00 0. -1.
         -3   -1    0    0    0  501 -0.00000000000E+00 -0.00000000000E+00 -0.98975011308E+03  0.98975011308E+03  0.00000000000E+00 0.  1.
         23    2    1    2    0    0  0.23036253467E+02  0.10550305534E+01 -0.82137560315E+03  0.83116559655E+03  0.12508631169E+03 0.  0.
          5    1    3    3  502    0  0.38194597386E+02 -0.14730556439E+02 -0.79730358748E+03  0.79836476599E+03  0.41800000000E+01 0.  1.
         -5    1    3    3    0  502 -0.15158343919E+02  0.15785586992E+02 -0.24072015675E+02  0.32800830564E+02  0.41800000000E+01 0.  1.
        -11    1    1    2    0    0  0.37030313191E+01 -0.12562963598E+02  0.86289802012E+01  0.15684380595E+02  0.00000000000E+00 0. -1.
         11    1    1    2    0    0 -0.26739284786E+02  0.11507933045E+02 -0.15862731746E+03  0.16127630861E+03  0.00000000000E+00 0.  1.
</event>
<event>
 7    1  0.7017065E-006  0.1082994E+03  0.7561462E-02  0.1263752E+00
         -2   -1    0    0    0  501 -0.00000000000E+00  0.00000000000E+00  0.29656470593E+02  0.29656470593E+02  0.00000000000E+00 0.  1.
          2   -1    0    0  501    0  0.00000000000E+00 -0.00000000000E+00 -0.44468223961E+03  0.44468223961E+03  0.00000000000E+00 0. -1.
         23    2    1    2    0    0  0.15675706812E+02  0.29966168476E+02 -0.20659422341E+03  0.24386716589E+03  0.12508526058E+03 0.  0.
          5    1    3    3  502    0  0.71836407896E+01 -0.43585126815E+02 -0.33627902564E+02  0.55673837710E+02  0.41800000000E+01 0.  1.
         -5    1    3    3    0  502  0.84920660227E+01  0.73551295291E+02 -0.17296632085E+03  0.18819332818E+03  0.41800000000E+01 0.  1.
        -11    1    1    2    0    0  0.38387539372E+02 -0.19296115019E+02 -0.10005612201E+03  0.10889063681E+03  0.00000000000E+00 0.  1.
         11    1    1    2    0    0 -0.54063246184E+02 -0.10670053456E+02 -0.10837542360E+03  0.12158090750E+03  0.00000000000E+00 0. -1.
</event>
<event>
 7    1  0.7017065E-006  0.1123612E+03  0.7561462E-02  0.1256259E+00
         -2   -1    0    0    0  501 -0.00000000000E+00  0.00000000000E+00  0.67612378368E+03  0.67612378368E+03  0.00000000000E+00 0.  1.
          2   -1    0    0  501    0  0.00000000000E+00 -0.00000000000E+00 -0.20571616221E+02  0.20571616221E+02  0.00000000000E+00 0. -1.
         23    2    1    2    0    0  0.46727557782E+02  0.42152740040E+01  0.41461825563E+03  0.43561109687E+03  0.12508995411E+03 0.  0.
          5    1    3    3  502    0  0.89769213805E+02 -0.99757656959E+00  0.26878513066E+03  0.28341211295E+03  0.41800000000E+01 0. -1.
         -5    1    3    3    0  502 -0.43041656023E+02  0.52128505736E+01  0.14583312497E+03  0.15219898391E+03  0.41800000000E+01 0. -1.
        -11    1    1    2    0    0  0.61285010949E+00  0.31802739611E+02  0.14304460109E+03  0.14653855375E+03  0.00000000000E+00 0.  1.
         11    1    1    2    0    0 -0.47340407892E+02 -0.36018013615E+02  0.97889310731E+02  0.11454574929E+03  0.00000000000E+00 0. -1.
</event>
<event>
 7    1  0.1140038E-005  0.1222616E+03  0.7561462E-02  0.1239412E+00
         -2   -1    0    0    0  501 -0.00000000000E+00  0.00000000000E+00  0.32906449883E+02  0.32906449883E+02  0.00000000000E+00 0.  1.
          2   -1    0    0  501    0  0.00000000000E+00 -0.00000000000E+00 -0.56361733486E+03  0.56361733486E+03  0.00000000000E+00 0. -1.
         23    2    1    2    0    0 -0.42928612218E+02 -0.68530057698E+02 -0.25884439376E+03  0.29864241711E+03  0.12509052145E+03 0.  0.
          5    1    3    3  502    0 -0.99499343131E-01 -0.84325974794E+02 -0.88813015053E+02  0.12254021368E+03  0.41800000000E+01 0. -1.
         -5    1    3    3    0  502 -0.42829112875E+02  0.15795917096E+02 -0.17003137871E+03  0.17610220343E+03  0.41800000000E+01 0. -1.
        -11    1    1    2    0    0 -0.95003177934E+01  0.60466352892E+02 -0.93161318578E+02  0.11146957948E+03  0.00000000000E+00 0.  1.
         11    1    1    2    0    0  0.52428930012E+02  0.80637048061E+01 -0.17870517263E+03  0.18641178816E+03  0.00000000000E+00 0. -1.
</event>
<event>
 7    1  0.7017065E-006  0.1379849E+03  0.7561462E-02  0.1216066E+00
          3   -1    0    0  501    0  0.00000000000E+00  0.00000000000E+00  0.10950263828E+03  0.10950263828E+03  0.00000000000E+00 0. -1.
         -3   -1    0    0    0  501 -0.00000000000E+00 -0.00000000000E+00 -0.24262987888E+03  0.24262987888E+03  0.00000000000E+00 0.  1.
         23    2    1    2    0    0  0.53812309654E+02 -0.88042859285E+02 -0.14285608845E+03  0.21610924426E+03  0.12509210089E+03 0.  0.
          5    1    3    3  502    0 -0.16710650489E+02 -0.63598031358E+02 -0.12174127240E+03  0.13842819524E+03  0.41800000000E+01 0. -1.
         -5    1    3    3    0  502  0.70522960144E+02 -0.24444827927E+02 -0.21114816054E+02  0.77681049020E+02  0.41800000000E+01 0. -1.
        -11    1    1    2    0    0 -0.52401930726E+02  0.54114861937E+01  0.85604776527E+01  0.53371605787E+02  0.00000000000E+00 0. -1.
         11    1    1    2    0    0 -0.14103789286E+01  0.82631373091E+02  0.11683701956E+01  0.82651667113E+02  0.00000000000E+00 0.  1.
</event>
<event>
 7    1  0.7017065E-006  0.1111496E+03  0.7561462E-02  0.1258456E+00
         -1   -1    0    0    0  501 -0.00000000000E+00  0.00000000000E+00  0.54018394990E+03  0.54018394990E+03  0.00000000000E+00 0.  1.
          1   -1    0    0  501    0  0.00000000000E+00 -0.00000000000E+00 -0.26081518192E+02  0.26081518192E+02  0.00000000000E+00 0. -1.
         23    2    1    2    0    0  0.11406769931E+02  0.22069890008E+02  0.33694808171E+03  0.36027617666E+03  0.12509084402E+03 0.  0.
          5    1    3    3  502    0 -0.22249104900E+02  0.64343866955E+02  0.13598476056E+03  0.15213311076E+03  0.41800000000E+01 0. -1.
         -5    1    3    3    0  502  0.33655874830E+02 -0.42273976947E+02  0.20096332114E+03  0.20814306590E+03  0.41800000000E+01 0. -1.
        -11    1    1    2    0    0 -0.51994278811E+02  0.31802775740E+01  0.12403155886E+03  0.13452637953E+03  0.00000000000E+00 0.  1.
         11    1    1    2    0    0  0.40587508880E+02 -0.25250167582E+02  0.53122791141E+02  0.71462911910E+02  0.00000000000E+00 0. -1.
</event>
<event>
 7    1  0.7017065E-006  0.1190785E+03  0.7561462E-02  0.1244625E+00
          2   -1    0    0  501    0  0.00000000000E+00  0.00000000000E+00  0.14360361935E+02  0.14360361935E+02  0.00000000000E+00 0.  1.
         -2   -1    0    0    0  501 -0.00000000000E+00 -0.00000000000E+00 -0.11989109582E+04  0.11989109582E+04  0.00000000000E+00 0. -1.
         23    2    1    2    0    0 -0.13375495069E+02  0.56572481795E+02 -0.84752880785E+03  0.85868080433E+03  0.12509314138E+03 0.  0.
          5    1    3    3  502    0 -0.67124404729E+02  0.41374931469E+02 -0.58007353479E+03  0.58542322197E+03  0.41800000000E+01 0.  1.
         -5    1    3    3    0  502  0.53748909660E+02  0.15197550325E+02 -0.26745527307E+03  0.27325758236E+03  0.41800000000E+01 0.  1.
        -11    1    1    2    0    0  0.49733935081E+02 -0.36117587894E+02 -0.25813935727E+03  0.26535612340E+03  0.00000000000E+00 0.  1.
         11    1    1    2    0    0 -0.36358440011E+02 -0.20454893900E+02 -0.78882431120E+02  0.89234392383E+02  0.00000000000E+00 0. -1.
</event>
<event>
 7    1  0.7017065E-006  0.1865586E+03  0.7561462E-02  0.1161602E+00
         -3   -1    0    0    0  501 -0.00000000000E+00  0.00000000000E+00  0.78405332620E+03  0.78405332620E+03  0.00000000000E+00 0.  1.
          3   -1    0    0  501    0  0.00000000000E+00 -0.00000000000E+00 -0.14835658149E+03  0.14835658149E+03  0.00000000000E+00 0. -1.
         23    2    1    2    0    0  0.40036467078E+02 -0.17194024260E+03  0.69396574808E+03  0.72691305128E+03  0.12509100242E+03 0.  0.
          5    1    3    3  502    0  0.43067886974E+00 -0.11632384013E+03  0.59703260040E+03  0.60827363876E+03  0.41800000000E+01 0. -1.
         -5    1    3    3    0  502  0.39605788209E+02 -0.55616402476E+02  0.96933147679E+02  0.11863941252E+03  0.41800000000E+01 0. -1.
        -11    1    1    2    0    0  0.16126087396E+02  0.70915166585E+02  0.64738035084E+01  0.73013160994E+02  0.00000000000E+00 0.  1.
         11    1    1    2    0    0 -0.56162554474E+02  0.10102507602E+03 -0.64742806882E+02  0.13248369542E+03  0.00000000000E+00 0. -1.
</event>
<event>
 7    1  0.7017065E-006  0.2206836E+03  0.7561462E-02  0.1133374E+00
         -2   -1    0    0    0  501 -0.00000000000E+00  0.00000000000E+00  0.11323294600E+03  0.11323294600E+03  0.00000000000E+00 0. -1.
          2   -1    0    0  501    0  0.00000000000E+00 -0.00000000000E+00 -0.59165841015E+03  0.59165841015E+03  0.00000000000E+00 0.  1.
         23    2    1    2    0    0 -0.20021589785E+03  0.33577144141E+02 -0.86098167002E+02  0.25352320750E+03  0.12508913630E+03 0.  0.
          5    1    3    3  502    0  0.16516049646E+02  0.10982810449E+02 -0.10571588694E+02  0.22861165954E+02  0.41800000000E+01 0. -1.
         -5    1    3    3    0  502 -0.21673194749E+03  0.22594333691E+02 -0.75526578309E+02  0.23066204155E+03  0.41800000000E+01 0. -1.
        -11    1    1    2    0    0  0.85649050851E+02 -0.18131995455E+02 -0.81000974245E+02  0.11927148444E+03  0.00000000000E+00 0. -1.
         11    1    1    2    0    0  0.11456684700E+03 -0.15445148685E+02 -0.31132632290E+03  0.33209666421E+03  0.00000000000E+00 0.  1.
</event>
<event>
 7    1  0.7017065E-006  0.1330315E+03  0.7561462E-02  0.1223026E+00
         -3   -1    0    0    0  501 -0.00000000000E+00  0.00000000000E+00  0.61956059389E+02  0.61956059389E+02  0.00000000000E+00 0.  1.
          3   -1    0    0  501    0  0.00000000000E+00 -0.00000000000E+00 -0.38726328937E+03  0.38726328937E+03  0.00000000000E+00 0. -1.
         23    2    1    2    0    0  0.10915692722E+03 -0.20166860609E+02 -0.17332009463E+03  0.24085208694E+03  0.12509170858E+03 0.  0.
          5    1    3    3  502    0  0.97380276011E+02  0.66307932668E+01 -0.42166253815E+02  0.10640653615E+03  0.41800000000E+01 0. -1.
         -5    1    3    3    0  502  0.11776651207E+02 -0.26797653876E+02 -0.13115384081E+03  0.13444555079E+03  0.41800000000E+01 0. -1.
        -11    1    1    2    0    0 -0.10737017257E+03 -0.10680859364E+02 -0.13591557136E+03  0.17353811470E+03  0.00000000000E+00 0. -1.
         11    1    1    2    0    0 -0.17867546443E+01  0.30847719973E+02 -0.16071563988E+02  0.34829147114E+02  0.00000000000E+00 0.  1.
</event>
<event>
 7    1  0.7017065E-006  0.1729968E+03  0.7561462E-02  0.1174758E+00
         -1   -1    0    0    0  501 -0.00000000000E+00  0.00000000000E+00  0.95169741840E+02  0.95169741840E+02  0.00000000000E+00 0.  1.
          1   -1    0    0  501    0  0.00000000000E+00 -0.00000000000E+00 -0.36020536420E+03  0.36020536420E+03  0.00000000000E+00 0. -1.
         23    2    1    2    0    0 -0.14966488491E+03 -0.18943841943E+02 -0.13117514686E+03  0.23582391651E+03  0.12509018156E+03 0.  0.
          5    1    3    3  502    0 -0.40175614514E+02 -0.56956590305E+02 -0.87386402143E+02  0.11185700184E+03  0.41800000000E+01 0. -1.
         -5    1    3    3    0  502 -0.10948927040E+03  0.38012748362E+02 -0.43788744720E+02  0.12396691467E+03  0.41800000000E+01 0. -1.
        -11    1    1    2    0    0  0.99233507307E+02  0.38028734077E+02 -0.44562349315E+02  0.11523574343E+03  0.00000000000E+00 0.  1.
         11    1    1    2    0    0  0.50431377602E+02 -0.19084892134E+02 -0.89298126185E+02  0.10431544610E+03  0.00000000000E+00 0. -1.
</event>
<event>
 7    1  0.7017065E-006  0.1745633E+03  0.7561462E-02  0.1173171E+00
         -2   -1    0    0    0  501 -0.00000000000E+00  0.00000000000E+00  0.51185178653E+03  0.51185178653E+03  0.00000000000E+00 0.  1.
          2   -1    0    0  501    0  0.00000000000E+00 -0.00000000000E+00 -0.98620171364E+02  0.98620171364E+02  0.00000000000E+00 0. -1.
         23    2    1    2    0    0  0.13304791672E+03  0.94197166138E+02  0.36251729680E+03  0.41670245914E+03  0.12508914710E+03 0.  0.
          5    1    3    3  502    0  0.13247195481E+03  0.93820651919E+02  0.21653384517E+03  0.27065755493E+03  0.41800000000E+01 0.  1.
         -5    1    3    3    0  502  0.57596190715E+00  0.37651421894E+00  0.14598345163E+03  0.14604490421E+03  0.41800000000E+01 0.  1.
        -11    1    1    2    0    0 -0.13110327016E+02 -0.54674687397E+02  0.35693862480E+02  0.66597702177E+02  0.00000000000E+00 0.  1.
         11    1    1    2    0    0 -0.11993758971E+03 -0.39522478740E+02  0.15020455891E+02  0.12717179658E+03  0.00000000000E+00 0. -1.
</event>
<event>
 7    1  0.7017065E-006  0.8451034E+02  0.7561462E-02  0.1316718E+00
         -1   -1    0    0    0  501 -0.00000000000E+00  0.00000000000E+00  0.48032911462E+02  0.48032911462E+02  0.00000000000E+00 0.  1.
          1   -1    0    0  501    0  0.00000000000E+00 -0.00000000000E+00 -0.25525593969E+03  0.25525593969E+03  0.00000000000E+00 0. -1.
         23    2    1    2    0    0  0.83423548625E+01  0.14052929967E+02 -0.10250485614E+03  0.16255162336E+03  0.12509478407E+03 0.  0.
          5    1    3    3  502    0 -0.23732742189E+02 -0.40067565096E+02 -0.85173284188E+02  0.97162819864E+02  0.41800000000E+01 0. -1.
         -5    1    3    3    0  502  0.32075097052E+02  0.54120495062E+02 -0.17331571949E+02  0.65388803498E+02  0.41800000000E+01 0. -1.
        -11    1    1    2    0    0 -0.31568931837E+02  0.91615586758E+00 -0.10835751176E+03  0.11286623566E+03  0.00000000000E+00 0. -1.
         11    1    1    2    0    0  0.23226576975E+02 -0.14969085834E+02  0.36393396684E+01  0.27870992123E+02  0.00000000000E+00 0.  1.
</event>
<event>
 7    1  0.7017065E-006  0.1294255E+03  0.7561462E-02  0.1228311E+00
          2   -1    0    0  501    0  0.00000000000E+00  0.00000000000E+00  0.89019748210E+03  0.89019748210E+03  0.00000000000E+00 0. -1.
         -2   -1    0    0    0  501 -0.00000000000E+00 -0.00000000000E+00 -0.37222307153E+02  0.37222307153E+02  0.00000000000E+00 0.  1.
         23    2    1    2    0    0 -0.12202602682E+03 -0.16796040900E+02  0.24907866301E+03  0.30472919921E+03  0.12508895344E+03 0.  0.
          5    1    3    3  502    0 -0.48387413215E+02 -0.20635708473E+02  0.89809476590E+01  0.53528534845E+02  0.41800000000E+01 0. -1.
         -5    1    3    3    0  502 -0.73638613607E+02  0.38396675723E+01  0.24009771535E+03  0.25120066436E+03  0.41800000000E+01 0. -1.
        -11    1    1    2    0    0  0.99146959429E+02 -0.67714676990E+01  0.55473261109E+03  0.56356387584E+03  0.00000000000E+00 0. -1.
         11    1    1    2    0    0  0.22879067394E+02  0.23567508600E+02  0.49163900845E+02  0.59126714205E+02  0.00000000000E+00 0.  1.
</event>
<event>
 7    1  0.7017065E-006  0.3940615E+03  0.7561462E-02  0.1045856E+00
         -2   -1    0    0    0  501 -0.00000000000E+00  0.00000000000E+00  0.96434158303E+02  0.96434158303E+02  0.00000000000E+00 0.  1.
          2   -1    0    0  501    0  0.00000000000E+00 -0.00000000000E+00 -0.16876909102E+04  0.16876909102E+04  0.00000000000E+00 0. -1.
         23    2    1    2    0    0 -0.24145795782E+03 -0.29772202486E+03 -0.66764409695E+03  0.77996259087E+03  0.12511056502E+03 0.  0.
          5    1    3    3  502    0 -0.29522014604E+02 -0.12638407663E+03 -0.19279417599E+03  0.23244687752E+03  0.41800000000E+01 0. -1.
         -5    1    3    3    0  502 -0.21193594322E+03 -0.17133794823E+03 -0.47484992096E+03  0.54751571335E+03  0.41800000000E+01 0. -1.
        -11    1    1    2    0    0  0.79244115582E+02  0.13091052585E+03 -0.47114402462E+03  0.49537247357E+03  0.00000000000E+00 0. -1.
         11    1    1    2    0    0  0.16221384224E+03  0.16681149900E+03 -0.45246863036E+03  0.50879000410E+03  0.00000000000E+00 0.  1.
</event>
<event>
 7    1  0.7017065E-006  0.1201297E+03  0.7561462E-02  0.1242883E+00
          1   -1    0    0  501    0  0.00000000000E+00  0.00000000000E+00  0.29658686326E+03  0.29658686326E+03  0.00000000000E+00 0. -1.
         -1   -1    0    0    0  501 -0.00000000000E+00 -0.00000000000E+00 -0.63295845457E+02  0.63295845457E+02  0.00000000000E+00 0.  1.
         23    2    1    2    0    0 -0.34594598055E+02  0.74186322658E+02  0.13082347563E+03  0.19865360384E+03  0.12509226939E+03 0.  0.
          5    1    3    3  502    0 -0.57196362922E+02  0.46676267174E+01  0.11530852195E+02  0.58682566603E+02  0.41800000000E+01 0.  1.
         -5    1    3    3    0  502  0.22601764867E+02  0.69518695941E+02  0.11929262343E+03  0.13997103724E+03  0.41800000000E+01 0.  1.
        -11    1    1    2    0    0 -0.18011952785E+02  0.65097078493E+00 -0.63135270251E+01  0.19097508465E+02  0.00000000000E+00 0.  1.
         11    1    1    2    0    0  0.52606550840E+02 -0.74837293443E+02  0.10878106919E+03  0.14213159640E+03  0.00000000000E+00 0. -1.
</event>
<event>
 7    1  0.7017065E-006  0.1039725E+03  0.7561462E-02  0.1272157E+00
         -1   -1    0    0    0  501 -0.00000000000E+00  0.00000000000E+00  0.22271817315E+03  0.22271817315E+03  0.00000000000E+00 0.  1.
          1   -1    0    0  501    0  0.00000000000E+00 -0.00000000000E+00 -0.92622645596E+02  0.92622645596E+02  0.00000000000E+00 0. -1.
         23    2    1    2    0    0  0.49331492480E+02 -0.35448194264E+02  0.14972967543E+03  0.20434521917E+03  0.12509125576E+03 0.  0.
          5    1    3    3  502    0 -0.30673230796E+02  0.23616967910E+02  0.33913317484E+02  0.51635198882E+02  0.41800000000E+01 0.  1.
         -5    1    3    3    0  502  0.80004723276E+02 -0.59065162174E+02  0.11581635795E+03  0.15271002029E+03  0.41800000000E+01 0.  1.
        -11    1    1    2    0    0 -0.37462668234E+02  0.62817338103E+01  0.32565145059E+02  0.50033992081E+02  0.00000000000E+00 0.  1.
         11    1    1    2    0    0 -0.11868824246E+02  0.29166460454E+02 -0.52199292938E+02  0.60961607489E+02  0.00000000000E+00 0. -1.
</event>
<event>
 7    1  0.7017065E-006  0.9459323E+02  0.7561462E-02  0.1292095E+00
         -3   -1    0    0    0  501 -0.00000000000E+00  0.00000000000E+00  0.58418649722E+03  0.58418649722E+03  0.00000000000E+00 0.  1.
          3   -1    0    0  501    0  0.00000000000E+00 -0.00000000000E+00 -0.26938532986E+02  0.26938532986E+02  0.00000000000E+00 0. -1.
         23    2    1    2    0    0  0.27450297799E+02  0.68503728499E+01  0.45543692253E+03  0.47118821517E+03  0.11745253190E+03 0.  0.
          5    1    3    3  502    0 -0.28634287319E+02  0.43898318524E+02  0.17179203633E+03  0.17965789970E+03  0.41800000000E+01 0. -1.
         -5    1    3    3    0  502  0.56084585118E+02 -0.37047945674E+02  0.28364488621E+03  0.29153031547E+03  0.41800000000E+01 0.  1.
        -11    1    1    2    0    0  0.14175263311E+02  0.16324590342E+02  0.87588136711E+02  0.90217027397E+02  0.00000000000E+00 0.  1.
         11    1    1    2    0    0 -0.41625561110E+02 -0.23174963192E+02  0.14222904990E+02  0.49719787640E+02  0.00000000000E+00 0. -1.
</event>
<event>
 7    1  0.7017065E-006  0.7646605E+02  0.7561462E-02  0.1339390E+00
          2   -1    0    0  501    0  0.00000000000E+00  0.00000000000E+00  0.90681033623E+02  0.90681033623E+02  0.00000000000E+00 0. -1.
         -2   -1    0    0    0  501 -0.00000000000E+00 -0.00000000000E+00 -0.14589311353E+03  0.14589311353E+03  0.00000000000E+00 0.  1.
         23    2    1    2    0    0 -0.41150775521E+02 -0.39774809726E+01 -0.38527624223E+02  0.13726271794E+03  0.12508984462E+03 0.  0.
          5    1    3    3  502    0 -0.60381339821E+02 -0.30868160463E+02 -0.65513466693E+02  0.94383453249E+02  0.41800000000E+01 0.  1.
         -5    1    3    3    0  502  0.19230564300E+02  0.26890679490E+02  0.26985842471E+02  0.42879264693E+02  0.41800000000E+01 0.  1.
        -11    1    1    2    0    0  0.23936808165E+02  0.17603180043E+02 -0.50736012889E+02  0.58796137089E+02  0.00000000000E+00 0.  1.
         11    1    1    2    0    0  0.17213967356E+02 -0.13625699070E+02  0.34051557208E+02  0.40515292120E+02  0.00000000000E+00 0. -1.
</event>
<event>
 7    1  0.7017065E-006  0.1842173E+03  0.7561462E-02  0.1163783E+00
          2   -1    0    0  501    0  0.00000000000E+00  0.00000000000E+00  0.63182155119E+03  0.63182155119E+03  0.00000000000E+00 0.  1.
         -2   -1    0    0    0  501 -0.00000000000E+00 -0.00000000000E+00 -0.54468174604E+02  0.54468174604E+02  0.00000000000E+00 0. -1.
         23    2    1    2    0    0  0.13219204451E+03 -0.70420945483E+02  0.30457227827E+03  0.36173089961E+03  0.12510445575E+03 0.  0.
          5    1    3    3  502    0  0.53709148950E+02 -0.97972006190E+02  0.16995017458E+03  0.20342989190E+03  0.41800000000E+01 0.  1.
         -5    1    3    3    0  502  0.78482895558E+02  0.27551060707E+02  0.13462210369E+03  0.15830100771E+03  0.41800000000E+01 0.  1.
        -11    1    1    2    0    0 -0.11635909620E+03  0.16959797164E+02  0.15802467839E+03  0.19697429520E+03  0.00000000000E+00 0.  1.
         11    1    1    2    0    0 -0.15832948305E+02  0.53461148320E+02  0.11475641993E+03  0.12758453098E+03  0.00000000000E+00 0. -1.
</event>
<event>
 7    1  0.7017065E-006  0.1067222E+03  0.7561462E-02  0.1266763E+00
         -2   -1    0    0    0  501 -0.00000000000E+00  0.00000000000E+00  0.16946675641E+02  0.16946675641E+02  0.00000000000E+00 0.  1.
          2   -1    0    0  501    0  0.00000000000E+00 -0.00000000000E+00 -0.83779172673E+03  0.83779172673E+03  0.00000000000E+00 0. -1.
         23    2    1    2    0    0  0.36465349393E+02 -0.32081515291E+01 -0.32293978482E+03  0.34824943461E+03  0.12509016807E+03 0.  0.
          5    1    3    3  502    0  0.72741485649E+02 -0.26459758452E+02 -0.26383269849E+03  0.27498474093E+03  0.41800000000E+01 0. -1.
         -5    1    3    3    0  502 -0.36276136256E+02  0.23251606923E+02 -0.59107086328E+02  0.73264693682E+02  0.41800000000E+01 0. -1.
        -11    1    1    2    0    0 -0.62877630381E+02  0.13464339590E+02 -0.36104328184E+03  0.36672487808E+03  0.00000000000E+00 0. -1.
         11    1    1    2    0    0  0.26412280989E+02 -0.10256188061E+02 -0.13686198443E+03  0.13976408968E+03  0.00000000000E+00 0.  1.
</event>
<event>
 7    1  0.7017065E-006  0.1297897E+03  0.7561462E-02  0.1227768E+00
         -1   -1    0    0    0  501 -0.00000000000E+00  0.00000000000E+00  0.27346195613E+03  0.27346195613E+03  0.00000000000E+00 0.  1.
          1   -1    0    0  501    0  0.00000000000E+00 -0.00000000000E+00 -0.77659370567E+02  0.77659370567E+02  0.00000000000E+00 0. -1.
         23    2    1    2    0    0 -0.83906607855E+02  0.48887303573E+02  0.11405423489E+03  0.19515237786E+03  0.12508315153E+03 0.  0.
          5    1    3    3  502    0  0.14610474894E+02 -0.16405432537E+02 -0.93414421198E+01  0.24235080652E+02  0.41800000000E+01 0. -1.
         -5    1    3    3    0  502 -0.98517082749E+02  0.65292736110E+02  0.12339567701E+03  0.17091729721E+03  0.41800000000E+01 0. -1.
        -11    1    1    2    0    0  0.73168168537E+02 -0.45226409823E+01  0.82437957203E+02  0.11031795845E+03  0.00000000000E+00 0.  1.
         11    1    1    2    0    0  0.10738439318E+02 -0.44364662591E+02 -0.68960652662E+00  0.45650990383E+02  0.00000000000E+00 0. -1.
</event>
<event>
 7    1  0.7017065E-006  0.1727892E+03  0.7561462E-02  0.1174970E+00
          2   -1    0    0  501    0  0.00000000000E+00  0.00000000000E+00  0.58003590030E+03  0.58003590030E+03  0.00000000000E+00 0. -1.
         -2   -1    0    0    0  501 -0.00000000000E+00 -0.00000000000E+00 -0.66762877929E+02  0.66762877929E+02  0.00000000000E+00 0.  1.
         23    2    1    2    0    0 -0.32277725214E+02  0.15871267581E+03  0.22435140405E+03  0.30366470601E+03  0.12508851335E+03 0.  0.
          5    1    3    3  502    0  0.18170371581E+02  0.24205463416E+01  0.88530894519E+02  0.90505321017E+02  0.41800000000E+01 0. -1.
         -5    1    3    3    0  502 -0.50448096795E+02  0.15629212947E+03  0.13582050953E+03  0.21315938500E+03  0.41800000000E+01 0. -1.
        -11    1    1    2    0    0  0.31791760966E+02 -0.13200023698E+03  0.28557481658E+03  0.31620840358E+03  0.00000000000E+00 0. -1.
         11    1    1    2    0    0  0.48596424888E+00 -0.26712438830E+02  0.33468017430E+01  0.26925668634E+02  0.00000000000E+00 0.  1.
</event>
<event>
 7    1  0.7017065E-006  0.2010815E+03  0.7561462E-02  0.1148830E+00
         -1   -1    0    0    0  501 -0.00000000000E+00  0.00000000000E+00  0.17102788626E+03  0.17102788626E+03  0.00000000000E+00 0.  1.
          1   -1    0    0  501    0  0.00000000000E+00 -0.00000000000E+00 -0.29748518028E+03  0.29748518028E+03  0.00000000000E+00 0. -1.
         23    2    1    2    0    0  0.15569766310E+03 -0.11789405150E+03 -0.32274657758E+02  0.23415757592E+03  0.12508935667E+03 0.  0.
          5    1    3    3  502    0  0.63145641771E+02 -0.60466777354E+02  0.47027401415E+02  0.99361220414E+02  0.41800000000E+01 0. -1.
         -5    1    3    3    0  502  0.92552021334E+02 -0.57427274141E+02 -0.79302059173E+02  0.13479635550E+03  0.41800000000E+01 0. -1.
        -11    1    1    2    0    0 -0.93167009747E+02  0.10748513440E+03 -0.32504401676E+02  0.14590984186E+03  0.00000000000E+00 0.  1.
         11    1    1    2    0    0 -0.62530653358E+02  0.10408917091E+02 -0.61678234583E+02  0.88445648766E+02  0.00000000000E+00 0. -1.
</event>
<event>
 7    1  0.7017065E-006  0.1028842E+03  0.7561462E-02  0.1274345E+00
          4   -1    0    0  501    0  0.00000000000E+00  0.00000000000E+00  0.33799817904E+03  0.33799817904E+03  0.00000000000E+00 0. -1.
         -4   -1    0    0    0  501 -0.00000000000E+00 -0.00000000000E+00 -0.56558272841E+02  0.56558272841E+02  0.00000000000E+00 0.  1.
         23    2    1    2    0    0 -0.43720679405E+02 -0.72313111907E+02  0.12940965394E+03  0.19883332796E+03  0.12508856789E+03 0.  0.
          5    1    3    3  502    0  0.13931683138E+02 -0.35371278111E+02 -0.13300115033E+02  0.40491783983E+02  0.41800000000E+01 0.  1.
         -5    1    3    3    0  502 -0.57652362543E+02 -0.36941833796E+02  0.14270976897E+03  0.15834154398E+03  0.41800000000E+01 0.  1.
        -11    1    1    2    0    0 -0.57334604295E+01  0.38711427691E+02  0.82318520551E+01  0.39990131165E+02  0.00000000000E+00 0.  1.
         11    1    1    2    0    0  0.49454139835E+02  0.33601684216E+02  0.14379840021E+03  0.15573299275E+03  0.00000000000E+00 0. -1.
</event>
<event>
 7    1  0.7017065E-006  0.1021442E+03  0.7561462E-02  0.1275851E+00
         -1   -1    0    0    0  501 -0.00000000000E+00  0.00000000000E+00  0.63384941455E+02  0.63384941455E+02  0.00000000000E+00 0.  1.
          1   -1    0    0  501    0  0.00000000000E+00 -0.00000000000E+00 -0.21232509103E+03  0.21232509103E+03  0.00000000000E+00 0. -1.
         23    2    1    2    0    0 -0.56341577799E+02  0.56289623450E+01 -0.74686698234E+02  0.15630847592E+03  0.12509267823E+03 0.  0.
          5    1    3    3  502    0 -0.91296802446E+02  0.13460747368E+02 -0.76869265523E+02  0.12017759458E+03  0.41800000000E+01 0. -1.
         -5    1    3    3    0  502  0.34955224647E+02 -0.78317850233E+01  0.21825672890E+01  0.36130881345E+02  0.41800000000E+01 0. -1.
        -11    1    1    2    0    0  0.27913064427E+02 -0.28100366902E+02 -0.73106072727E+02  0.83146062176E+02  0.00000000000E+00 0. -1.
         11    1    1    2    0    0  0.28428513371E+02  0.22471404557E+02 -0.11473786101E+01  0.36255494382E+02  0.00000000000E+00 0.  1.
</event>
<event>
 7    1  0.7017065E-006  0.7538256E+02  0.7561462E-02  0.1342690E+00
         -2   -1    0    0    0  501 -0.00000000000E+00  0.00000000000E+00  0.23152329602E+02  0.23152329602E+02  0.00000000000E+00 0. -1.
          2   -1    0    0  501    0  0.00000000000E+00 -0.00000000000E+00 -0.60650859768E+03  0.60650859768E+03  0.00000000000E+00 0.  1.
         23    2    1    2    0    0 -0.12702061899E+02  0.25813211755E+01 -0.20642384027E+03  0.24171641012E+03  0.12509202810E+03 0.  0.
          5    1    3    3  502    0  0.22724528436E+02  0.76501625802E+01 -0.20416965938E+03  0.20561529951E+03  0.41800000000E+01 0. -1.
         -5    1    3    3    0  502 -0.35426590335E+02 -0.50688414047E+01 -0.22541808859E+01  0.36101110612E+02  0.41800000000E+01 0. -1.
        -11    1    1    2    0    0 -0.31890913115E+02  0.22690120708E+02 -0.19719003174E+03  0.20103676414E+03  0.00000000000E+00 0. -1.
         11    1    1    2    0    0  0.44592975014E+02 -0.25271441884E+02 -0.17974239608E+03  0.18690775303E+03  0.00000000000E+00 0.  1.
</event>
<event>
 7    1  0.7017065E-006  0.1718984E+03  0.7561462E-02  0.1175882E+00
         -2   -1    0    0    0  501 -0.00000000000E+00  0.00000000000E+00  0.59385246949E+02  0.59385246949E+02  0.00000000000E+00 0.  1.
          2   -1    0    0  501    0  0.00000000000E+00 -0.00000000000E+00 -0.55704789170E+03  0.55704789170E+03  0.00000000000E+00 0. -1.
         23    2    1    2    0    0  0.68673423969E+02  0.12663405840E+03 -0.21569743650E+03  0.28797857837E+03  0.12511616037E+03 0.  0.
          5    1    3    3  502    0  0.10347073707E+03  0.82041603748E+02 -0.16899300078E+03  0.21450670127E+03  0.41800000000E+01 0.  1.
         -5    1    3    3    0  502 -0.34797313096E+02  0.44592454648E+02 -0.46704435717E+02  0.73471877108E+02  0.41800000000E+01 0.  1.
        -11    1    1    2    0    0 -0.78928690932E+02 -0.10920934183E+03 -0.18192422547E+03  0.22639090620E+03  0.00000000000E+00 0.  1.
         11    1    1    2    0    0  0.10255266963E+02 -0.17424716563E+02 -0.10004098279E+03  0.10206365408E+03  0.00000000000E+00 0. -1.
</event>
<event>
 7    1  0.7017065E-006  0.1070645E+03  0.7561462E-02  0.1266105E+00
         -1   -1    0    0    0  501 -0.00000000000E+00  0.00000000000E+00  0.64721312842E+02  0.64721312842E+02  0.00000000000E+00 0.  1.
          1   -1    0    0  501    0  0.00000000000E+00 -0.00000000000E+00 -0.23726652285E+03  0.23726652285E+03  0.00000000000E+00 0. -1.
         23    2    1    2    0    0 -0.30052571806E+00  0.59140604726E+02 -0.81190243469E+02  0.16042759284E+03  0.12508978961E+03 0.  0.
          5    1    3    3  502    0  0.40654299400E+02 -0.16879703563E+02 -0.37713155373E+01  0.44377828619E+02  0.41800000000E+01 0. -1.
         -5    1    3    3    0  502 -0.40954825118E+02  0.76020308289E+02 -0.77418927931E+02  0.11604976422E+03  0.41800000000E+01 0. -1.
        -11    1    1    2    0    0  0.29400765552E+02 -0.24933772651E+02 -0.88532491301E+02  0.96561379701E+02  0.00000000000E+00 0. -1.
         11    1    1    2    0    0 -0.29100239834E+02 -0.34206832075E+02 -0.28224752399E+01  0.44998863158E+02  0.00000000000E+00 0.  1.
</event>
<event>
 7    1  0.7017065E-006  0.1080848E+03  0.7561462E-02  0.1264158E+00
          2   -1    0    0  501    0  0.00000000000E+00  0.00000000000E+00  0.49376379467E+02  0.49376379467E+02  0.00000000000E+00 0. -1.
         -2   -1    0    0    0  501 -0.00000000000E+00 -0.00000000000E+00 -0.33430021202E+03  0.33430021202E+03  0.00000000000E+00 0.  1.
         23    2    1    2    0    0 -0.22977957878E+02  0.15602909384E+02 -0.25005237217E+03  0.28097309352E+03  0.12509297793E+03 0.  0.
          5    1    3    3  502    0 -0.66565215986E+02  0.34677706079E+02 -0.11196891367E+03  0.13486282403E+03  0.41800000000E+01 0. -1.
         -5    1    3    3    0  502  0.43587258108E+02 -0.19074796694E+02 -0.13808345850E+03  0.14611026949E+03  0.41800000000E+01 0. -1.
        -11    1    1    2    0    0  0.48256107596E+02 -0.36445487125E+02 -0.93881723631E+01  0.61196921756E+02  0.00000000000E+00 0. -1.
         11    1    1    2    0    0 -0.25278149718E+02  0.20842577741E+02 -0.25483288015E+02  0.41506576203E+02  0.00000000000E+00 0.  1.
</event>
<event>
 7    1  0.7017065E-006  0.1835775E+03  0.7561462E-02  0.1164385E+00
         -2   -1    0    0    0  501 -0.00000000000E+00  0.00000000000E+00  0.83708003435E+02  0.83708003435E+02  0.00000000000E+00 0.  1.
          2   -1    0    0  501    0  0.00000000000E+00 -0.00000000000E+00 -0.56917772261E+03  0.56917772261E+03  0.00000000000E+00 0. -1.
         23    2    1    2    0    0 -0.15742314112E+03  0.10247116478E+02 -0.97357108494E+02  0.22363810677E+03  0.12509415443E+03 0.  0.
          5    1    3    3  502    0 -0.99794903879E+02  0.66844163833E+02 -0.63824008282E+02  0.13608137827E+03  0.41800000000E+01 0. -1.
         -5    1    3    3    0  502 -0.57628237237E+02 -0.56597047355E+02 -0.33533100212E+02  0.87556728503E+02  0.41800000000E+01 0. -1.
        -11    1    1    2    0    0  0.65980346692E+02 -0.30089316781E+02 -0.83532682005E+02  0.11061863359E+03  0.00000000000E+00 0.  1.
         11    1    1    2    0    0  0.91442794424E+02  0.19842200303E+02 -0.30457992868E+03  0.31862898568E+03  0.00000000000E+00 0. -1.
</event>
<event>
 7    1  0.7017065E-006  0.1761071E+03  0.7561462E-02  0.1171625E+00
          3   -1    0    0  501    0  0.00000000000E+00  0.00000000000E+00  0.38347884566E+03  0.38347884566E+03  0.00000000000E+00 0. -1.
         -3   -1    0    0    0  501 -0.00000000000E+00 -0.00000000000E+00 -0.18672888375E+03  0.18672888375E+03  0.00000000000E+00 0.  1.
         23    2    1    2    0    0 -0.62557857471E+02  0.13027516151E+03 -0.11314579451E+03  0.21570498100E+03  0.11332062819E+03 0.  0.
          5    1    3    3  502    0  0.96382942349E+01 -0.16025062903E+02 -0.46012284301E+01  0.19706421793E+02  0.41800000000E+01 0. -1.
         -5    1    3    3    0  502 -0.72196151706E+02  0.14630022442E+03 -0.10854456607E+03  0.19599855920E+03  0.41800000000E+01 0.  1.
        -11    1    1    2    0    0  0.40554278564E+01  0.13784838568E+02  0.46166280634E+02  0.48350736675E+02  0.00000000000E+00 0.  1.
         11    1    1    2    0    0  0.58502429614E+02 -0.14406000008E+03  0.26372947578E+03  0.30615201174E+03  0.00000000000E+00 0. -1.
</event>
<event>
 7    1  0.7017065E-006  0.1726822E+03  0.7561462E-02  0.1175079E+00
          1   -1    0    0  501    0  0.00000000000E+00  0.00000000000E+00  0.94629075746E+02  0.94629075746E+02  0.00000000000E+00 0. -1.
         -1   -1    0    0    0  501 -0.00000000000E+00 -0.00000000000E+00 -0.34207686152E+03  0.34207686152E+03  0.00000000000E+00 0.  1.
         23    2    1    2    0    0 -0.34588351410E+00  0.13972141637E+03 -0.16544575478E+03  0.25008347510E+03  0.12508897998E+03 0.  0.
          5    1    3    3  502    0 -0.50114434879E+02  0.10909615979E+03 -0.14439199160E+03  0.18782957249E+03  0.41800000000E+01 0.  1.
         -5    1    3    3    0  502  0.49768551365E+02  0.30625256579E+02 -0.21053763186E+02  0.62253902607E+02  0.41800000000E+01 0.  1.
        -11    1    1    2    0    0  0.44104382276E+02 -0.48993373046E+02 -0.42449687814E+02  0.78406142195E+02  0.00000000000E+00 0.  1.
         11    1    1    2    0    0 -0.43758498762E+02 -0.90728043322E+02 -0.39552343181E+02  0.10821631998E+03  0.00000000000E+00 0. -1.
</event>
<event>
 7    1  0.7017065E-006  0.1166477E+03  0.7561462E-02  0.1248732E+00
          2   -1    0    0  501    0  0.00000000000E+00  0.00000000000E+00  0.75388472193E+03  0.75388472193E+03  0.00000000000E+00 0.  1.
         -2   -1    0    0    0  501 -0.00000000000E+00 -0.00000000000E+00 -0.20771929502E+02  0.20771929502E+02  0.00000000000E+00 0. -1.
         23    2    1    2    0    0 -0.46502932984E+02  0.64291193550E+01  0.28739340406E+03  0.31693277592E+03  0.12509020507E+03 0.  0.
          5    1    3    3  502    0 -0.10152319273E+02  0.62774909975E+02  0.17172544508E+03  0.18316893786E+03  0.41800000000E+01 0.  1.
         -5    1    3    3    0  502 -0.36350613711E+02 -0.56345790621E+02  0.11566795898E+03  0.13376383806E+03  0.41800000000E+01 0.  1.
        -11    1    1    2    0    0  0.74185588613E+02 -0.82394554411E+01  0.35891381643E+03  0.36659312297E+03  0.00000000000E+00 0.  1.
         11    1    1    2    0    0 -0.27682655629E+02  0.18103360862E+01  0.86805571945E+02  0.91130752549E+02  0.00000000000E+00 0. -1.
</event>
<event>
 7    1  0.7017065E-006  0.9679719E+02  0.7561462E-02  0.1287179E+00
         -1   -1    0    0    0  501 -0.00000000000E+00  0.00000000000E+00  0.43006011932E+03  0.43006011932E+03  0.00000000000E+00 0.  1.
          1   -1    0    0  501    0  0.00000000000E+00 -0.00000000000E+00 -0.35791797700E+02  0.35791797700E+02  0.00000000000E+00 0. -1.
         23    2    1    2    0    0  0.21055190905E+02 -0.49897495334E+02  0.27083952743E+03  0.30320835790E+03  0.12509267595E+03 0.  0.
          5    1    3    3  502    0  0.30722007661E+02  0.55070003529E+01  0.55315440805E+01  0.31972475468E+02  0.41800000000E+01 0.  1.
         -5    1    3    3    0  502 -0.96668167564E+01 -0.55404495687E+02  0.26530798335E+03  0.27123588243E+03  0.41800000000E+01 0.  1.
        -11    1    1    2    0    0 -0.20081714218E+02 -0.24288423755E+02  0.32224831461E+02  0.45073745541E+02  0.00000000000E+00 0.  1.
         11    1    1    2    0    0 -0.97347668684E+00  0.74185919089E+02  0.91203962725E+02  0.11756981358E+03  0.00000000000E+00 0. -1.
</event>
<event>
 7    1  0.7017065E-006  0.1066569E+03  0.7561462E-02  0.1266889E+00
         -2   -1    0    0    0  501 -0.00000000000E+00  0.00000000000E+00  0.12234306052E+02  0.12234306052E+02  0.00000000000E+00 0. -1.
          2   -1    0    0  501    0  0.00000000000E+00 -0.00000000000E+00 -0.10706760259E+04  0.10706760259E+04  0.00000000000E+00 0.  1.
         23    2    1    2    0    0  0.26162919969E+02  0.29145589640E+02 -0.61596381611E+03  0.62975490069E+03  0.12508336588E+03 0.  0.
          5    1    3    3  502    0  0.20458364282E+02 -0.41396541772E+02 -0.11820983862E+03  0.12697738651E+03  0.41800000000E+01 0. -1.
         -5    1    3    3    0  502  0.57045556870E+01  0.70542131412E+02 -0.49775397749E+03  0.50277751418E+03  0.41800000000E+01 0. -1.
        -11    1    1    2    0    0 -0.49987916483E+02  0.92789450033E+01 -0.19129257973E+03  0.19793367999E+03  0.00000000000E+00 0. -1.
         11    1    1    2    0    0  0.23824996514E+02 -0.38424534643E+02 -0.25118532401E+03  0.25522175127E+03  0.00000000000E+00 0.  1.
</event>
<event>
 7    1  0.7017065E-006  0.1173537E+03  0.7561462E-02  0.1247527E+00
          1   -1    0    0  501    0  0.00000000000E+00  0.00000000000E+00  0.18067660237E+03  0.18067660237E+03  0.00000000000E+00 0. -1.
         -1   -1    0    0    0  501 -0.00000000000E+00 -0.00000000000E+00 -0.95864640314E+02  0.95864640314E+02  0.00000000000E+00 0.  1.
         23    2    1    2    0    0 -0.71660756434E+02 -0.13920890452E+02  0.23178957629E+02  0.14667882793E+03  0.12509340223E+03 0.  0.
          5    1    3    3  502    0 -0.71529955307E+02  0.45696721382E+02  0.16126163175E+02  0.86500002254E+02  0.41800000000E+01 0.  1.
         -5    1    3    3    0  502 -0.13080112754E+00 -0.59617611834E+02  0.70527944537E+01  0.60178825673E+02  0.41800000000E+01 0.  1.
        -11    1    1    2    0    0  0.25216841807E+02 -0.20216004768E+02  0.64507118877E+02  0.72150844384E+02  0.00000000000E+00 0. -1.
         11    1    1    2    0    0  0.46443914628E+02  0.34136895220E+02 -0.28741144487E+01  0.57711570374E+02  0.00000000000E+00 0.  1.
</event>
<event>
 7    1  0.7017065E-006  0.7690600E+02  0.7561462E-02  0.1338068E+00
         -1   -1    0    0    0  501 -0.00000000000E+00  0.00000000000E+00  0.27532167877E+03  0.27532167877E+03  0.00000000000E+00 0.  1.
          1   -1    0    0  501    0  0.00000000000E+00 -0.00000000000E+00 -0.42783708926E+02  0.42783708926E+02  0.00000000000E+00 0. -1.
         23    2    1    2    0    0 -0.88153383745E+00  0.43408804783E+01  0.13905536717E+03  0.18709364644E+03  0.12509203434E+03 0.  0.
          5    1    3    3  502    0  0.26960940500E+02 -0.18922180196E+02 -0.91615454243E+01  0.34443396037E+02  0.41800000000E+01 0. -1.
         -5    1    3    3    0  502 -0.27842474338E+02  0.23263060674E+02  0.14821691259E+03  0.15265025040E+03  0.41800000000E+01 0. -1.
        -11    1    1    2    0    0  0.39282243352E+02 -0.18158930116E+02  0.21636747724E+02  0.48383780731E+02  0.00000000000E+00 0. -1.
         11    1    1    2    0    0 -0.38400709515E+02  0.13818049638E+02  0.71845854957E+02  0.82627960531E+02  0.00000000000E+00 0.  1.
</event>
<event>
 7    1  0.7017065E-006  0.1256868E+03  0.7561462E-02  0.1234000E+00
          1   -1    0    0  501    0  0.00000000000E+00  0.00000000000E+00  0.12896355782E+03  0.12896355782E+03  0.00000000000E+00 0. -1.
         -1   -1    0    0    0  501 -0.00000000000E+00 -0.00000000000E+00 -0.14402011959E+03  0.14402011959E+03  0.00000000000E+00 0.  1.
         23    2    1    2    0    0  0.40186725472E+02  0.65612987320E+02 -0.36192694625E+02  0.15125359783E+03  0.12509077785E+03 0.  0.
          5    1    3    3  502    0  0.66819122111E+02  0.78220658466E+02  0.18206902543E+01  0.10297598654E+03  0.41800000000E+01 0. -1.
         -5    1    3    3    0  502 -0.26632396638E+02 -0.12607671146E+02 -0.38013384879E+02  0.48277611295E+02  0.41800000000E+01 0. -1.
        -11    1    1    2    0    0  0.27756945817E+02 -0.33491709308E+02  0.16188352012E+02  0.46413418042E+02  0.00000000000E+00 0.  1.
         11    1    1    2    0    0 -0.67943671290E+02 -0.32121278012E+02  0.49477808417E+01  0.75316661534E+02  0.00000000000E+00 0. -1.
</event>
<event>
 7    1  0.7017065E-006  0.6594121E+02  0.7561462E-02  0.1374466E+00
          2   -1    0    0  501    0  0.00000000000E+00  0.00000000000E+00  0.18178938658E+03  0.18178938658E+03  0.00000000000E+00 0. -1.
         -2   -1    0    0    0  501 -0.00000000000E+00 -0.00000000000E+00 -0.11020860686E+03  0.11020860686E+03  0.00000000000E+00 0.  1.
         23    2    1    2    0    0  0.18500087500E+02 -0.28730626699E+02 -0.44189135951E+02  0.13696392422E+03  0.12505492655E+03 0.  0.
          5    1    3    3  502    0 -0.12213281744E+02  0.25625091708E+02  0.28916480656E+02  0.40736283944E+02  0.41800000000E+01 0.  1.
         -5    1    3    3    0  502  0.30713369244E+02 -0.54355718406E+02 -0.73105616607E+02  0.96227640277E+02  0.41800000000E+01 0.  1.
        -11    1    1    2    0    0 -0.72492275530E+01  0.28453757937E+02  0.13203193098E+03  0.13525752636E+03  0.00000000000E+00 0. -1.
         11    1    1    2    0    0 -0.11250859947E+02  0.27686876126E+00 -0.16262015304E+02  0.19776542863E+02  0.00000000000E+00 0.  1.
</event>
<event>
 6    1  0.7017065E-006  0.1259543E+03  0.7561462E-02  0.1233585E+00
         -4   -1    0    0    0  501 -0.00000000000E+00  0.00000000000E+00  0.41893526977E+03  0.41893526977E+03  0.00000000000E+00 0.  1.
          4   -1    0    0  501    0  0.00000000000E+00 -0.00000000000E+00 -0.49511905483E+02  0.49511905483E+02  0.00000000000E+00 0. -1.
          5    1    1    2  502    0 -0.74421695188E+02 -0.83248702297E+02  0.94232299987E+02  0.14617159064E+03  0.41800000000E+01 0. -1.
         -5    1    1    2    0  502  0.12998671725E+02  0.12147824719E+02  0.13206043845E+03  0.13331904184E+03  0.41800000000E+01 0.  1.
        -11    1    1    2    0    0  0.43753682828E+00  0.59879148358E+02  0.55795828188E+02  0.81846675496E+02  0.00000000000E+00 0.  1.
         11    1    1    2    0    0  0.60985486635E+02  0.11221729220E+02  0.87334797658E+02  0.10710986728E+03  0.00000000000E+00 0. -1.
</event>
<event>
 7    1  0.8711302E-006  0.3228140E+03  0.7561462E-02  0.1074361E+00
         -2   -1    0    0    0  501 -0.00000000000E+00  0.00000000000E+00  0.39948710226E+03  0.39948710226E+03  0.00000000000E+00 0. -1.
          2   -1    0    0  501    0  0.00000000000E+00 -0.00000000000E+00 -0.26863917448E+03  0.26863917448E+03  0.00000000000E+00 0.  1.
         23    2    1    2    0    0 -0.30614512539E+03  0.91680033722E+00  0.10880766310E+03  0.34815646788E+03  0.12509252677E+03 0.  0.
          5    1    3    3  502    0 -0.74443485873E+02  0.52364721711E+02  0.12429157109E+02  0.91955712249E+02  0.41800000000E+01 0.  1.
         -5    1    3    3    0  502 -0.23170163952E+03 -0.51447921374E+02  0.96378505993E+02  0.25620075563E+03  0.41800000000E+01 0.  1.
        -11    1    1    2    0    0  0.13841457577E+03 -0.41618937927E+02 -0.80846137004E+01  0.14476219036E+03  0.00000000000E+00 0.  1.
         11    1    1    2    0    0  0.16773054962E+03  0.40702137590E+02  0.30124878378E+02  0.17520761849E+03  0.00000000000E+00 0. -1.
</event>
<event>
 7    1  0.7017065E-006  0.8614285E+02  0.7561462E-02  0.1312471E+00
          2   -1    0    0  501    0  0.00000000000E+00  0.00000000000E+00  0.32854574063E+03  0.32854574063E+03  0.00000000000E+00 0. -1.
         -2   -1    0    0    0  501 -0.00000000000E+00 -0.00000000000E+00 -0.45193396981E+02  0.45193396981E+02  0.00000000000E+00 0.  1.
         23    2    1    2    0    0  0.44001516909E+02 -0.37228750554E+02  0.17517704593E+03  0.22284295995E+03  0.12509945652E+03 0.  0.
          5    1    3    3  502    0 -0.18301888029E+02 -0.43675076684E+02  0.13518315651E+02  0.49423564085E+02  0.41800000000E+01 0.  1.
         -5    1    3    3    0  502  0.62303404939E+02  0.64463261302E+01  0.16165873028E+03  0.17341939587E+03  0.41800000000E+01 0.  1.
        -11    1    1    2    0    0 -0.27675470757E+02  0.85408216592E+01 -0.80608290774E+01  0.30064169399E+02  0.00000000000E+00 0.  1.
         11    1    1    2    0    0 -0.16326046152E+02  0.28687928895E+02  0.11623612680E+03  0.12083200826E+03  0.00000000000E+00 0. -1.
</event>
<event>
 6    1  0.7017065E-006  0.1373139E+03  0.7561462E-02  0.1216990E+00
          1   -1    0    0  501    0  0.00000000000E+00  0.00000000000E+00  0.38446571204E+03  0.38446571204E+03  0.00000000000E+00 0. -1.
         -1   -1    0    0    0  501 -0.00000000000E+00 -0.00000000000E+00 -0.50949849292E+02  0.50949849292E+02  0.00000000000E+00 0.  1.
          5    1    1    2  502    0 -0.93976379109E+02  0.22940082866E+02  0.13517129736E+03  0.16627254512E+03  0.41800000000E+01 0. -1.
         -5    1    1    2    0  502  0.36650919450E+02  0.43711860101E+02  0.40649520916E+02  0.70170311106E+02  0.41800000000E+01 0.  1.
        -11    1    1    2    0    0  0.44217374284E+02 -0.86309965928E+02  0.13491210136E+03  0.16615011736E+03  0.00000000000E+00 0.  1.
         11    1    1    2    0    0  0.13108085375E+02  0.19658022961E+02  0.22782943118E+02  0.32822587741E+02  0.00000000000E+00 0. -1.
</event>
<event>
 7    1  0.7017065E-006  0.1779971E+03  0.7561462E-02  0.1169756E+00
         -2   -1    0    0    0  501 -0.00000000000E+00  0.00000000000E+00  0.29815027591E+02  0.29815027591E+02  0.00000000000E+00 0.  1.
          2   -1    0    0  501    0  0.00000000000E+00 -0.00000000000E+00 -0.12477780027E+04  0.12477780027E+04  0.00000000000E+00 0. -1.
         23    2    1    2    0    0  0.13298913252E+03 -0.67008508109E+02 -0.43297759505E+03  0.47464975246E+03  0.12508613099E+03 0.  0.
          5    1    3    3  502    0  0.79341207706E+02  0.25520441082E+02 -0.23826219659E+03  0.25245329642E+03  0.41800000000E+01 0. -1.
         -5    1    3    3    0  502  0.53647924817E+02 -0.92528949191E+02 -0.19471539847E+03  0.22219645604E+03  0.41800000000E+01 0. -1.
        -11    1    1    2    0    0 -0.90467740775E+02  0.80291127607E+02 -0.63762116431E+03  0.64899293253E+03  0.00000000000E+00 0. -1.
         11    1    1    2    0    0 -0.42521391749E+02 -0.13282619498E+02 -0.14736421579E+03  0.15395034534E+03  0.00000000000E+00 0.  1.
</event>
<event>
 7    1  0.7017065E-006  0.7536163E+02  0.7561462E-02  0.1342755E+00
          1   -1    0    0  501    0  0.00000000000E+00  0.00000000000E+00  0.14538524180E+03  0.14538524180E+03  0.00000000000E+00 0. -1.
         -1   -1    0    0    0  501 -0.00000000000E+00 -0.00000000000E+00 -0.99014777727E+02  0.99014777727E+02  0.00000000000E+00 0.  1.
         23    2    1    2    0    0 -0.13025498013E+02 -0.39521376506E+02  0.30556140228E+02  0.13533490972E+03  0.12510098834E+03 0.  0.
          5    1    3    3  502    0 -0.11452861172E+02 -0.32707299376E+02 -0.46335999178E+02  0.58012349386E+02  0.41800000000E+01 0.  1.
         -5    1    3    3    0  502 -0.15726368417E+01 -0.68140771304E+01  0.76892139406E+02  0.77322560331E+02  0.41800000000E+01 0.  1.
        -11    1    1    2    0    0 -0.28050999848E+02 -0.20638013500E+02  0.17104241288E+01  0.34867058155E+02  0.00000000000E+00 0.  1.
         11    1    1    2    0    0  0.41076497862E+02  0.60159390006E+02  0.14103899720E+02  0.74198051658E+02  0.00000000000E+00 0. -1.
</event>
<event>
 7    1  0.7017065E-006  0.1026759E+03  0.7561462E-02  0.1274767E+00
         -1   -1    0    0    0  501 -0.00000000000E+00  0.00000000000E+00  0.75526914123E+02  0.75526914123E+02  0.00000000000E+00 0.  1.
          1   -1    0    0  501    0  0.00000000000E+00 -0.00000000000E+00 -0.29085665961E+03  0.29085665961E+03  0.00000000000E+00 0. -1.
         23    2    1    2    0    0  0.38488507706E+02 -0.39667304535E+02 -0.11950954956E+02  0.13727641336E+03  0.12508848095E+03 0.  0.
          5    1    3    3  502    0  0.58734660864E+02 -0.68713571014E+02 -0.32470403101E+02  0.96141118705E+02  0.41800000000E+01 0. -1.
         -5    1    3    3    0  502 -0.20246153158E+02  0.29046266479E+02  0.20519448146E+02  0.41135294655E+02  0.41800000000E+01 0. -1.
        -11    1    1    2    0    0 -0.21669875983E+02  0.53313699749E+02 -0.19881021766E+03  0.20697206757E+03  0.00000000000E+00 0. -1.
         11    1    1    2    0    0 -0.16818631722E+02 -0.13646395215E+02 -0.45685728657E+01  0.22135092803E+02  0.00000000000E+00 0.  1.
</event>
<event>
 7    1  0.7017065E-006  0.1007444E+03  0.7561462E-02  0.1278738E+00
         -2   -1    0    0    0  501 -0.00000000000E+00  0.00000000000E+00  0.35686019372E+03  0.35686019372E+03  0.00000000000E+00 0. -1.
          2   -1    0    0  501    0  0.00000000000E+00 -0.00000000000E+00 -0.54717818567E+02  0.54717818567E+02  0.00000000000E+00 0.  1.
         23    2    1    2    0    0 -0.52428354162E+02  0.59700498799E+02  0.21881220487E+03  0.26427626219E+03  0.12510107865E+03 0.  0.
          5    1    3    3  502    0 -0.12377856636E+02  0.12590376695E+02  0.19810416763E+03  0.19893331182E+03  0.41800000000E+01 0.  1.
         -5    1    3    3    0  502 -0.40050497526E+02  0.47110122103E+02  0.20708037243E+02  0.65342950371E+02  0.41800000000E+01 0.  1.
        -11    1    1    2    0    0  0.74281044731E+02 -0.21447662348E+02  0.50257976984E+02  0.92214641338E+02  0.00000000000E+00 0.  1.
         11    1    1    2    0    0 -0.21852690569E+02 -0.38252836451E+02  0.33072193297E+02  0.55087108757E+02  0.00000000000E+00 0. -1.
</event>
<event>
 7    1  0.7017065E-006  0.2490658E+03  0.7561462E-02  0.1113897E+00
          1   -1    0    0  501    0  0.00000000000E+00  0.00000000000E+00  0.10174018609E+04  0.10174018609E+04  0.00000000000E+00 0. -1.
         -1   -1    0    0    0  501 -0.00000000000E+00 -0.00000000000E+00 -0.61851475574E+02  0.61851475574E+02  0.00000000000E+00 0.  1.
         23    2    1    2    0    0  0.22521391359E+03 -0.11523894557E+02  0.51125601502E+03  0.57261170671E+03  0.12508935502E+03 0.  0.
          5    1    3    3  502    0  0.17519621793E+03 -0.60981175076E+02  0.39961521695E+03  0.44059302367E+03  0.41800000000E+01 0.  1.
         -5    1    3    3    0  502  0.50017695655E+02  0.49457280519E+02  0.11164079808E+03  0.13201868304E+03  0.41800000000E+01 0.  1.
        -11    1    1    2    0    0 -0.22774845292E+02 -0.27751225646E+02  0.48410271983E+02  0.60269217154E+02  0.00000000000E+00 0.  1.
         11    1    1    2    0    0 -0.20243906830E+03  0.39275120203E+02  0.39588409830E+03  0.44637241260E+03  0.00000000000E+00 0. -1.
</event>
<event>
 7    1  0.7017065E-006  0.6709787E+02  0.7561462E-02  0.1370250E+00
          1   -1    0    0  501    0  0.00000000000E+00  0.00000000000E+00  0.44700825798E+02  0.44700825798E+02  0.00000000000E+00 0. -1.
         -1   -1    0    0    0  501 -0.00000000000E+00 -0.00000000000E+00 -0.36748570929E+03  0.36748570929E+03  0.00000000000E+00 0.  1.
         23    2    1    2    0    0  0.27358571213E+02  0.26333875156E+02 -0.26485062201E+03  0.29535567315E+03  0.12508859773E+03 0.  0.
          5    1    3    3  502    0 -0.21747522838E+02 -0.11981361339E+02 -0.20721446200E+01  0.25264084239E+02  0.41800000000E+01 0. -1.
         -5    1    3    3    0  502  0.49106094051E+02  0.38315236495E+02 -0.26277847739E+03  0.27009158891E+03  0.41800000000E+01 0. -1.
        -11    1    1    2    0    0 -0.24100891913E+02 -0.45020587623E+01  0.22588694886E+02  0.33337226351E+02  0.00000000000E+00 0. -1.
         11    1    1    2    0    0 -0.32576792998E+01 -0.21831816394E+02 -0.80522956365E+02  0.83493635585E+02  0.00000000000E+00 0.  1.
</event>
<event>
 7    1  0.7017065E-006  0.1129556E+03  0.7561462E-02  0.1255192E+00
         -1   -1    0    0    0  501 -0.00000000000E+00  0.00000000000E+00  0.30160837484E+02  0.30160837484E+02  0.00000000000E+00 0.  1.
          1   -1    0    0  501    0  0.00000000000E+00 -0.00000000000E+00 -0.63129718870E+03  0.63129718870E+03  0.00000000000E+00 0. -1.
         23    2    1    2    0    0  0.52291161923E+02  0.56637613689E+02 -0.24408182824E+03  0.28489478629E+03  0.12508763119E+03 0.  0.
          5    1    3    3  502    0  0.92971982364E+02  0.40239437510E+02 -0.18774632187E+03  0.21337562094E+03  0.41800000000E+01 0. -1.
         -5    1    3    3    0  502 -0.40680820440E+02  0.16398176179E+02 -0.56335506368E+02  0.71519165343E+02  0.41800000000E+01 0. -1.
        -11    1    1    2    0    0 -0.16636427136E+02 -0.43926750445E+01 -0.37099529163E+01  0.17601990017E+02  0.00000000000E+00 0.  1.
         11    1    1    2    0    0 -0.35654734787E+02 -0.52244938645E+02 -0.35334457006E+03  0.35896124989E+03  0.00000000000E+00 0. -1.
</event>
<event>
 7    1  0.7017065E-006  0.1925090E+03  0.7561462E-02  0.1156218E+00
          1   -1    0    0  501    0  0.00000000000E+00  0.00000000000E+00  0.56164629172E+03  0.56164629172E+03  0.00000000000E+00 0. -1.
         -1   -1    0    0    0  501 -0.00000000000E+00 -0.00000000000E+00 -0.84707652860E+02  0.84707652860E+02  0.00000000000E+00 0.  1.
         23    2    1    2    0    0  0.12507957053E+03  0.92812140004E+02  0.10067699973E+03  0.22370346235E+03  0.12509351900E+03 0.  0.
          5    1    3    3  502    0  0.13113634877E+03  0.33377771947E+02  0.90785175759E+02  0.16300379801E+03  0.41800000000E+01 0. -1.
         -5    1    3    3    0  502 -0.60567782421E+01  0.59434368057E+02  0.98918239725E+01  0.60699664336E+02  0.41800000000E+01 0. -1.
        -11    1    1    2    0    0  0.13308403145E+02 -0.39098240627E+02  0.11456795647E+03  0.12178506749E+03  0.00000000000E+00 0. -1.
         11    1    1    2    0    0 -0.13838797367E+03 -0.53713899377E+02  0.26169368266E+03  0.30086541475E+03  0.00000000000E+00 0.  1.
</event>
<event>
 7    1  0.7017065E-006  0.1724294E+03  0.7561462E-02  0.1175338E+00
          1   -1    0    0  501    0  0.00000000000E+00  0.00000000000E+00  0.36738454103E+03  0.36738454103E+03  0.00000000000E+00 0. -1.
         -1   -1    0    0    0  501 -0.00000000000E+00 -0.00000000000E+00 -0.89020199655E+02  0.89020199655E+02  0.00000000000E+00 0.  1.
         23    2    1    2    0    0  0.35966470667E+02  0.13966773464E+03  0.13503985014E+03  0.23384356607E+03  0.12508552735E+03 0.  0.
          5    1    3    3  502    0 -0.37311932424E+02  0.10115106555E+03  0.80582955935E+02  0.13466552473E+03  0.41800000000E+01 0.  1.
         -5    1    3    3    0  502  0.73278403091E+02  0.38516669092E+02  0.54456894204E+02  0.99178041339E+02  0.41800000000E+01 0.  1.
        -11    1    1    2    0    0 -0.48440964620E+02 -0.83459686749E+02  0.40373909822E+02  0.10460448824E+03  0.00000000000E+00 0.  1.
         11    1    1    2    0    0  0.12474493954E+02 -0.56208047895E+02  0.10295058141E+03  0.11795668638E+03  0.00000000000E+00 0. -1.
</event>
<event>
 7    1  0.7017065E-006  0.8803619E+02  0.7561462E-02  0.1307678E+00
         -1   -1    0    0    0  501 -0.00000000000E+00  0.00000000000E+00  0.12199071120E+03  0.12199071120E+03  0.00000000000E+00 0.  1.
          1   -1    0    0  501    0  0.00000000000E+00 -0.00000000000E+00 -0.18372042564E+03  0.18372042564E+03  0.00000000000E+00 0. -1.
         23    2    1    2    0    0 -0.56662469182E+01  0.82191034443E+02  0.29742031108E+02  0.15272167031E+03  0.12510734459E+03 0.  0.
          5    1    3    3  502    0 -0.31784632590E+01  0.31857106722E+02  0.77008196570E+02  0.83502770112E+02  0.41800000000E+01 0.  1.
         -5    1    3    3    0  502 -0.24877836592E+01  0.50333927721E+02 -0.47266165463E+02  0.69218900200E+02  0.41800000000E+01 0.  1.
        -11    1    1    2    0    0  0.23766588293E+02 -0.31989034462E+02 -0.91305856114E+02  0.99623834525E+02  0.00000000000E+00 0. -1.
         11    1    1    2    0    0 -0.18100341375E+02 -0.50201999981E+02 -0.16588943456E+00  0.53365632005E+02  0.00000000000E+00 0.  1.
</event>
<event>
 6    1  0.7017065E-006  0.1368255E+03  0.7561462E-02  0.1217665E+00
         -1   -1    0    0    0  501 -0.00000000000E+00  0.00000000000E+00  0.22742562904E+03  0.22742562904E+03  0.00000000000E+00 0.  1.
          1   -1    0    0  501    0  0.00000000000E+00 -0.00000000000E+00 -0.18205319418E+03  0.18205319418E+03  0.00000000000E+00 0. -1.
          5    1    1    2  502    0  0.41069386713E+02 -0.21402819707E+02 -0.12209037328E+02  0.48076066903E+02  0.41800000000E+01 0. -1.
         -5    1    1    2    0  502  0.50721926426E+02  0.71400384064E+02  0.16394565889E+03  0.18592035965E+03  0.41800000000E+01 0.  1.
        -11    1    1    2    0    0  0.10785785397E+02 -0.33977251076E+02 -0.24260319178E+02  0.43120179080E+02  0.00000000000E+00 0.  1.
         11    1    1    2    0    0 -0.10257709854E+03 -0.16020313281E+02 -0.82103867516E+02  0.13236221758E+03  0.00000000000E+00 0. -1.
</event>
<event>
 7    1  0.7017065E-006  0.9358839E+02  0.7561462E-02  0.1294387E+00
          1   -1    0    0  501    0  0.00000000000E+00  0.00000000000E+00  0.90063572590E+02  0.90063572590E+02  0.00000000000E+00 0. -1.
         -1   -1    0    0    0  501 -0.00000000000E+00 -0.00000000000E+00 -0.15443345608E+03  0.15443345608E+03  0.00000000000E+00 0.  1.
         23    2    1    2    0    0 -0.23265783969E+02  0.35892689846E+02 -0.63938192964E+02  0.14685180894E+03  0.12509108434E+03 0.  0.
          5    1    3    3  502    0  0.19285516867E+02 -0.27345347940E+02 -0.61899230726E+02  0.70488909619E+02  0.41800000000E+01 0.  1.
         -5    1    3    3    0  502 -0.42551300836E+02  0.63238037786E+02 -0.20389622380E+01  0.76362899322E+02  0.41800000000E+01 0.  1.
        -11    1    1    2    0    0  0.34408545165E+02 -0.49026016594E+02  0.26644893484E+02  0.65554928360E+02  0.00000000000E+00 0. -1.
         11    1    1    2    0    0 -0.11142761196E+02  0.13133326748E+02 -0.27076584012E+02  0.32090291371E+02  0.00000000000E+00 0.  1.
</event>
<event>
 7    1  0.7017065E-006  0.1086430E+03  0.7561462E-02  0.1263104E+00
          2   -1    0    0  501    0  0.00000000000E+00  0.00000000000E+00  0.42657761665E+03  0.42657761665E+03  0.00000000000E+00 0. -1.
         -2   -1    0    0    0  501 -0.00000000000E+00 -0.00000000000E+00 -0.33875759890E+02  0.33875759890E+02  0.00000000000E+00 0.  1.
         23    2    1    2    0    0  0.46365599527E+02 -0.59121876197E+01  0.18562916426E+03  0.22863728517E+03  0.12502839182E+03 0.  0.
          5    1    3    3  502    0  0.35338041428E+02  0.48253900377E+02  0.15296289922E+03  0.16429344787E+03  0.41800000000E+01 0.  1.
         -5    1    3    3    0  502  0.11027558099E+02 -0.54166087997E+02  0.32666265042E+02  0.64343837299E+02  0.41800000000E+01 0.  1.
        -11    1    1    2    0    0  0.27246158350E+02 -0.42830985548E+01  0.36423900604E+02  0.45688057666E+02  0.00000000000E+00 0.  1.
         11    1    1    2    0    0 -0.73611757877E+02  0.10195286175E+02  0.17064879189E+03  0.18612803371E+03  0.00000000000E+00 0. -1.
</event>
<event>
 7    1  0.7017065E-006  0.1173645E+03  0.7561462E-02  0.1247509E+00
          3   -1    0    0  501    0  0.00000000000E+00  0.00000000000E+00  0.23467281970E+03  0.23467281970E+03  0.00000000000E+00 0. -1.
         -3   -1    0    0    0  501 -0.00000000000E+00 -0.00000000000E+00 -0.68229045737E+02  0.68229045737E+02  0.00000000000E+00 0.  1.
         23    2    1    2    0    0  0.84464210256E+01  0.63271128441E+02  0.65843979067E+02  0.15509792097E+03  0.12508140465E+03 0.  0.
          5    1    3    3  502    0  0.17714434479E+02 -0.33341790925E+02  0.44420232412E+00  0.37988760531E+02  0.41800000000E+01 0. -1.
         -5    1    3    3    0  502 -0.92680134537E+01  0.96612919366E+02  0.65399776743E+02  0.11710916044E+03  0.41800000000E+01 0. -1.
        -11    1    1    2    0    0  0.29744964907E+02 -0.53572033217E+01  0.60616700600E+02  0.67733647151E+02  0.00000000000E+00 0. -1.
         11    1    1    2    0    0 -0.38191385932E+02 -0.57913925119E+02  0.39983094298E+02  0.80070297313E+02  0.00000000000E+00 0.  1.
</event>
<event>
 7    1  0.7017065E-006  0.1189275E+03  0.7561462E-02  0.1244877E+00
         -3   -1    0    0    0  501 -0.00000000000E+00  0.00000000000E+00  0.54396617443E+03  0.54396617443E+03  0.00000000000E+00 0.  1.
          3   -1    0    0  501    0  0.00000000000E+00 -0.00000000000E+00 -0.30534361296E+02  0.30534361296E+02  0.00000000000E+00 0. -1.
         23    2    1    2    0    0 -0.51103472794E+02  0.40783963744E+01  0.38759846956E+03  0.41049724579E+03  0.12508883624E+03 0.  0.
          5    1    3    3  502    0  0.41407122368E+02  0.73715480427E+01  0.10993376696E+03  0.11777858473E+03  0.41800000000E+01 0. -1.
         -5    1    3    3    0  502 -0.92510595162E+02 -0.32931516683E+01  0.27766470260E+03  0.29271866106E+03  0.41800000000E+01 0. -1.
        -11    1    1    2    0    0  0.20403105045E+02  0.42497973555E+02  0.74689487784E+02  0.88322613397E+02  0.00000000000E+00 0.  1.
         11    1    1    2    0    0  0.30700367749E+02 -0.46576369929E+02  0.51143855797E+02  0.75680676540E+02  0.00000000000E+00 0. -1.
</event>
<event>
 7    1  0.7017065E-006  0.1078386E+03  0.7561462E-02  0.1264626E+00
          1   -1    0    0  501    0  0.00000000000E+00  0.00000000000E+00  0.81182294237E+03  0.81182294237E+03  0.00000000000E+00 0. -1.
         -1   -1    0    0    0  501 -0.00000000000E+00 -0.00000000000E+00 -0.15086344571E+02  0.15086344571E+02  0.00000000000E+00 0.  1.
         23    2    1    2    0    0 -0.21386576859E+02  0.16425968329E+02  0.45405467219E+03  0.47174193007E+03  0.12509038788E+03 0.  0.
          5    1    3    3  502    0  0.40937952394E+02  0.39470443889E+02  0.14974219802E+03  0.16023117723E+03  0.41800000000E+01 0.  1.
         -5    1    3    3    0  502 -0.62324529253E+02 -0.23044475560E+02  0.30431247417E+03  0.31151075284E+03  0.41800000000E+01 0.  1.
        -11    1    1    2    0    0 -0.80972216427E+01 -0.48116037196E+02  0.21041204796E+03  0.21599524985E+03  0.00000000000E+00 0. -1.
         11    1    1    2    0    0  0.29483798501E+02  0.31690068867E+02  0.13226987765E+03  0.13917210702E+03  0.00000000000E+00 0.  1.
</event>
<event>
 7    1  0.7017065E-006  0.2611236E+03  0.7561462E-02  0.1106470E+00
          2   -1    0    0  501    0  0.00000000000E+00  0.00000000000E+00  0.22326420125E+03  0.22326420125E+03  0.00000000000E+00 0. -1.
         -2   -1    0    0    0  501 -0.00000000000E+00 -0.00000000000E+00 -0.32903256125E+03  0.32903256125E+03  0.00000000000E+00 0.  1.
         23    2    1    2    0    0 -0.24372930783E+03 -0.29678235785E+02 -0.91067858376E+02  0.29021417580E+03  0.12508453075E+03 0.  0.
          5    1    3    3  502    0 -0.17908155515E+03  0.23326274491E+02 -0.99248621395E+02  0.20611181365E+03  0.41800000000E+01 0.  1.
         -5    1    3    3    0  502 -0.64647752685E+02 -0.53004510276E+02  0.81807630185E+01  0.84102362157E+02  0.41800000000E+01 0.  1.
        -11    1    1    2    0    0  0.16535052647E+03  0.56995806645E+02 -0.30643988241E+02  0.17756230623E+03  0.00000000000E+00 0.  1.
         11    1    1    2    0    0  0.78378781364E+02 -0.27317570860E+02  0.15943486617E+02  0.84520280473E+02  0.00000000000E+00 0. -1.
</event>
<event>
 7    1  0.7017065E-006  0.8599662E+02  0.7561462E-02  0.1312847E+00
          2   -1    0    0  501    0  0.00000000000E+00  0.00000000000E+00  0.52292266982E+03  0.52292266982E+03  0.00000000000E+00 0. -1.
         -2   -1    0    0    0  501 -0.00000000000E+00 -0.00000000000E+00 -0.24354717777E+02  0.24354717777E+02  0.00000000000E+00 0.  1.
         23    2    1    2    0    0  0.25785971635E+02  0.14695109780E+02  0.31790057827E+03  0.34291062569E+03  0.12508419948E+03 0.  0.
          5    1    3    3  502    0  0.32439103788E+02  0.49937700618E+02  0.29307269621E+03  0.29909053322E+03  0.41800000000E+01 0. -1.
         -5    1    3    3    0  502 -0.66531321532E+01 -0.35242590838E+02  0.24827882064E+02  0.43820092471E+02  0.41800000000E+01 0. -1.
        -11    1    1    2    0    0  0.22478097523E+02  0.66142119943E+01  0.12687348873E+03  0.12901897074E+03  0.00000000000E+00 0. -1.
         11    1    1    2    0    0 -0.48264069158E+02 -0.21309321775E+02  0.53793885047E+02  0.75347791173E+02  0.00000000000E+00 0.  1.
</event>
<event>
 7    1  0.7017065E-006  0.9664952E+02  0.7561462E-02  0.1287504E+00
         -2   -1    0    0    0  501 -0.00000000000E+00  0.00000000000E+00  0.17076212358E+02  0.17076212358E+02  0.00000000000E+00 0.  1.
          2   -1    0    0  501    0  0.00000000000E+00 -0.00000000000E+00 -0.78286608673E+03  0.78286608673E+03  0.00000000000E+00 0. -1.
         23    2    1    2    0    0  0.36665298506E+02 -0.30246691166E+01 -0.39843949116E+03  0.41923055884E+03  0.12508693223E+03 0.  0.
          5    1    3    3  502    0 -0.23395055595E+02 -0.21363012746E+02 -0.25131074427E+02  0.40654031064E+02  0.41800000000E+01 0.  1.
         -5    1    3    3    0  502  0.60060354101E+02  0.18338343630E+02 -0.37330841673E+03  0.37857652777E+03  0.41800000000E+01 0.  1.
        -11    1    1    2    0    0  0.68078860448E+01  0.40464741786E+02 -0.12098622193E+03  0.12775526814E+03  0.00000000000E+00 0.  1.
         11    1    1    2    0    0 -0.43473184551E+02 -0.37440072670E+02 -0.24636416128E+03  0.25295647211E+03  0.00000000000E+00 0. -1.
</event>
<event>
 7    1  0.7017065E-006  0.1544281E+03  0.7561462E-02  0.1195135E+00
         -2   -1    0    0    0  501 -0.00000000000E+00  0.00000000000E+00  0.49294950558E+02  0.49294950558E+02  0.00000000000E+00 0.  1.
          2   -1    0    0  501    0  0.00000000000E+00 -0.00000000000E+00 -0.76294993691E+03  0.76294993691E+03  0.00000000000E+00 0. -1.
         23    2    1    2    0    0  0.68025099670E+02 -0.74256625380E+02 -0.12964342188E+03  0.20639688283E+03  0.12510314068E+03 0.  0.
          5    1    3    3  502    0 -0.22133555168E+02  0.13677203916E+02 -0.10750689831E+01  0.26374008885E+02  0.41800000000E+01 0. -1.
         -5    1    3    3    0  502  0.90158654838E+02 -0.87933829296E+02 -0.12856835290E+03  0.18002287395E+03  0.41800000000E+01 0. -1.
        -11    1    1    2    0    0 -0.64045509459E+02 -0.16109765207E+02 -0.17732036831E+03  0.18921909215E+03  0.00000000000E+00 0.  1.
         11    1    1    2    0    0 -0.39795902105E+01  0.90366390587E+02 -0.40669119616E+03  0.41662891249E+03  0.00000000000E+00 0. -1.
</event>
<event>
 7    1  0.7017065E-006  0.1319681E+03  0.7561462E-02  0.1224564E+00
         -2   -1    0    0    0  501 -0.00000000000E+00  0.00000000000E+00  0.66599508256E+03  0.66599508256E+03  0.00000000000E+00 0.  1.
          2   -1    0    0  501    0  0.00000000000E+00 -0.00000000000E+00 -0.29998410428E+02  0.29998410428E+02  0.00000000000E+00 0. -1.
         23    2    1    2    0    0 -0.22812755596E+02 -0.73308190734E+02  0.31614861273E+03  0.34855425396E+03  0.12508241273E+03 0.  0.
          5    1    3    3  502    0  0.48911096611E+01 -0.95060673204E+02  0.14316411981E+03  0.17197061419E+03  0.41800000000E+01 0. -1.
         -5    1    3    3    0  502 -0.27703865257E+02  0.21752482470E+02  0.17298449291E+03  0.17658363977E+03  0.41800000000E+01 0. -1.
        -11    1    1    2    0    0  0.51309564346E+02 -0.33354056564E+01  0.92455396339E+02  0.10579128809E+03  0.00000000000E+00 0.  1.
         11    1    1    2    0    0 -0.28496808750E+02  0.76643596391E+02  0.22739266306E+03  0.24164795093E+03  0.00000000000E+00 0. -1.
</event>
<event>
 7    1  0.7017065E-006  0.2351810E+03  0.7561462E-02  0.1123045E+00
         -2   -1    0    0    0  501 -0.00000000000E+00  0.00000000000E+00  0.15524357043E+03  0.15524357043E+03  0.00000000000E+00 0.  1.
          2   -1    0    0  501    0  0.00000000000E+00 -0.00000000000E+00 -0.45648760429E+03  0.45648760429E+03  0.00000000000E+00 0. -1.
         23    2    1    2    0    0  0.20257763146E+03  0.11150174059E+03 -0.69746969211E+02  0.27199751785E+03  0.12509066743E+03 0.  0.
          5    1    3    3  502    0  0.26042480084E+01 -0.27974389277E+01  0.22977413323E+02  0.23665200089E+02  0.41800000000E+01 0.  1.
         -5    1    3    3    0  502  0.19997338345E+03  0.11429917952E+03 -0.92724382534E+02  0.24833231776E+03  0.41800000000E+01 0.  1.
        -11    1    1    2    0    0 -0.15002522378E+03 -0.62670379967E+02 -0.20850038137E+03  0.26440036559E+03  0.00000000000E+00 0. -1.
         11    1    1    2    0    0 -0.52552407683E+02 -0.48831360625E+02 -0.22996683275E+02  0.75333291282E+02  0.00000000000E+00 0.  1.
</event>
<event>
 7    1  0.7017065E-006  0.1241182E+03  0.7561462E-02  0.1236454E+00
          2   -1    0    0  501    0  0.00000000000E+00  0.00000000000E+00  0.30995675068E+03  0.30995675068E+03  0.00000000000E+00 0. -1.
         -2   -1    0    0    0  501 -0.00000000000E+00 -0.00000000000E+00 -0.10467384121E+03  0.10467384121E+03  0.00000000000E+00 0.  1.
         23    2    1    2    0    0  0.99270947640E+02  0.39392482340E+02 -0.19657618379E+01  0.16449614168E+03  0.12509447509E+03 0.  0.
          5    1    3    3  502    0 -0.39644133582E+01 -0.20860118249E+02 -0.34337042562E+02  0.40587756757E+02  0.41800000000E+01 0.  1.
         -5    1    3    3    0  502  0.10323536100E+03  0.60252600589E+02  0.32371280724E+02  0.12390838492E+03  0.41800000000E+01 0.  1.
        -11    1    1    2    0    0 -0.47774553755E+02 -0.22377315313E+02  0.22085473735E+02  0.57191960774E+02  0.00000000000E+00 0.  1.
         11    1    1    2    0    0 -0.51496393885E+02 -0.17015167027E+02  0.18516319757E+03  0.19294248943E+03  0.00000000000E+00 0. -1.
</event>
<event>
 7    1  0.7017065E-006  0.7635808E+02  0.7561462E-02  0.1339716E+00
          1   -1    0    0  501    0  0.00000000000E+00  0.00000000000E+00  0.20370919463E+03  0.20370919463E+03  0.00000000000E+00 0. -1.
         -1   -1    0    0    0  501 -0.00000000000E+00 -0.00000000000E+00 -0.87232155918E+02  0.87232155918E+02  0.00000000000E+00 0.  1.
         23    2    1    2    0    0 -0.17020119857E+02 -0.67849911493E+01 -0.31276307123E+02  0.11697401147E+03  0.11121596733E+03 0.  0.
          5    1    3    3  502    0  0.45051080610E+02 -0.87045691599E+01  0.25309683948E+01  0.46143770862E+02  0.41800000000E+01 0. -1.
         -5    1    3    3    0  502 -0.62071200467E+02  0.19195780106E+01 -0.33807275518E+02  0.70830240612E+02  0.41800000000E+01 0.  1.
        -11    1    1    2    0    0 -0.13396188755E+02  0.32045752563E+01 -0.75262934596E+01  0.15696250157E+02  0.00000000000E+00 0.  1.
         11    1    1    2    0    0  0.30416308612E+02  0.35804158930E+01  0.15527963930E+03  0.15827108892E+03  0.00000000000E+00 0. -1.
</event>
<event>
 7    1  0.7017065E-006  0.9192323E+02  0.7561462E-02  0.1298260E+00
         -3   -1    0    0    0  501 -0.00000000000E+00  0.00000000000E+00  0.74057040840E+02  0.74057040840E+02  0.00000000000E+00 0.  1.
          3   -1    0    0  501    0  0.00000000000E+00 -0.00000000000E+00 -0.27193251355E+03  0.27193251355E+03  0.00000000000E+00 0. -1.
         23    2    1    2    0    0  0.71176627814E+02 -0.41314807908E+00 -0.38268270333E+02  0.14892689220E+03  0.12509386743E+03 0.  0.
          5    1    3    3  502    0  0.16765693347E+02 -0.10066210991E+02  0.44805053903E+02  0.49065082619E+02  0.41800000000E+01 0.  1.
         -5    1    3    3    0  502  0.54410934467E+02  0.96530629117E+01 -0.83073324236E+02  0.99861809581E+02  0.41800000000E+01 0.  1.
        -11    1    1    2    0    0 -0.72379615067E+02 -0.29741646799E+02 -0.79912866760E+02  0.11184561013E+03  0.00000000000E+00 0. -1.
         11    1    1    2    0    0  0.12029872525E+01  0.30154794878E+02 -0.79694335617E+02  0.85217052061E+02  0.00000000000E+00 0.  1.
</event>
<event>
 7    1  0.7017065E-006  0.8447020E+02  0.7561462E-02  0.1316824E+00
          1   -1    0    0  501    0  0.00000000000E+00  0.00000000000E+00  0.55918181408E+02  0.55918181408E+02  0.00000000000E+00 0. -1.
         -1   -1    0    0    0  501 -0.00000000000E+00 -0.00000000000E+00 -0.37325441748E+03  0.37325441748E+03  0.00000000000E+00 0.  1.
         23    2    1    2    0    0 -0.34721990669E+02 -0.18075529691E+02 -0.30387243802E+03  0.33087511552E+03  0.12493014876E+03 0.  0.
          5    1    3    3  502    0  0.22344757984E+02 -0.26982715387E+02 -0.24769329663E+03  0.25019351857E+03  0.41800000000E+01 0. -1.
         -5    1    3    3    0  502 -0.57066748652E+02  0.89071856965E+01 -0.56179141399E+02  0.80681596955E+02  0.41800000000E+01 0. -1.
        -11    1    1    2    0    0  0.54140941107E+02  0.13510693067E+02  0.20051721427E+02  0.59294619177E+02  0.00000000000E+00 0. -1.
         11    1    1    2    0    0 -0.19418950439E+02  0.45648366237E+01 -0.33515519473E+02  0.39002864191E+02  0.00000000000E+00 0.  1.
</event>
<event>
 6    1  0.7017065E-006  0.1030190E+03  0.7561462E-02  0.1274073E+00
          2   -1    0    0  501    0  0.00000000000E+00  0.00000000000E+00  0.32622824379E+03  0.32622824379E+03  0.00000000000E+00 0. -1.
         -2   -1    0    0    0  501 -0.00000000000E+00 -0.00000000000E+00 -0.88422310370E+02  0.88422310370E+02  0.00000000000E+00 0.  1.
          5    1    1    2  502    0 -0.13320403857E+02 -0.91182518433E+01  0.60109753489E+02  0.62379728599E+02  0.41800000000E+01 0. -1.
         -5    1    1    2    0  502 -0.57363781570E+02  0.71203382061E+02 -0.38978819659E+02  0.99485405136E+02  0.41800000000E+01 0.  1.
        -11    1    1    2    0    0  0.60695042361E+01 -0.19557440418E+02 -0.22456187887E+01  0.20600367985E+02  0.00000000000E+00 0.  1.
         11    1    1    2    0    0  0.64614681191E+02 -0.42527689800E+02  0.21892061838E+03  0.23218505244E+03  0.00000000000E+00 0. -1.
</event>
<event>
 7    1  0.7017065E-006  0.1784097E+03  0.7561462E-02  0.1169351E+00
         -2   -1    0    0    0  501 -0.00000000000E+00  0.00000000000E+00  0.73520894081E+03  0.73520894081E+03  0.00000000000E+00 0.  1.
          2   -1    0    0  501    0  0.00000000000E+00 -0.00000000000E+00 -0.44572348078E+02  0.44572348078E+02  0.00000000000E+00 0. -1.
         23    2    1    2    0    0 -0.11742800637E+03  0.45061301097E+02  0.34964179282E+03  0.39206706808E+03  0.12508934826E+03 0.  0.
          5    1    3    3  502    0 -0.11250346476E+03  0.82238145782E+02  0.26659336039E+03  0.30084819163E+03  0.41800000000E+01 0. -1.
         -5    1    3    3    0  502 -0.49245416104E+01 -0.37176844685E+02  0.83048432435E+02  0.91218876450E+02  0.41800000000E+01 0. -1.
        -11    1    1    2    0    0  0.13454026735E+03 -0.33502766786E+01  0.28962115094E+03  0.31936298934E+03  0.00000000000E+00 0.  1.
         11    1    1    2    0    0 -0.17112260977E+02 -0.41711024418E+02  0.51373648971E+02  0.68351231461E+02  0.00000000000E+00 0. -1.
</event>
<event>
 7    1  0.7017065E-006  0.1253794E+03  0.7561462E-02  0.1234478E+00
         -1   -1    0    0    0  501 -0.00000000000E+00  0.00000000000E+00  0.39746528626E+03  0.39746528626E+03  0.00000000000E+00 0.  1.
          1   -1    0    0  501    0  0.00000000000E+00 -0.00000000000E+00 -0.60854040487E+02  0.60854040487E+02  0.00000000000E+00 0. -1.
         23    2    1    2    0    0 -0.41810956247E+02  0.10401208420E+03  0.20991209731E+03  0.26884459052E+03  0.12509058932E+03 0.  0.
          5    1    3    3  502    0 -0.47739525679E+02  0.84424930896E+02  0.53107408639E+02  0.11065487120E+03  0.41800000000E+01 0.  1.
         -5    1    3    3    0  502  0.59285694316E+01  0.19587153302E+02  0.15680468867E+03  0.15818971932E+03  0.41800000000E+01 0.  1.
        -11    1    1    2    0    0  0.40314747102E+01 -0.93489306435E+02  0.11557884312E+03  0.14871103585E+03  0.00000000000E+00 0. -1.
         11    1    1    2    0    0  0.37779481537E+02 -0.10522777762E+02  0.11120305341E+02  0.40763700371E+02  0.00000000000E+00 0.  1.
</event>
<event>
 7    1  0.7017065E-006  0.1283436E+03  0.7561462E-02  0.1229934E+00
         -1   -1    0    0    0  501 -0.00000000000E+00  0.00000000000E+00  0.92579237590E+02  0.92579237590E+02  0.00000000000E+00 0.  1.
          1   -1    0    0  501    0  0.00000000000E+00 -0.00000000000E+00 -0.21623703191E+03  0.21623703191E+03  0.00000000000E+00 0. -1.
         23    2    1    2    0    0  0.54256215558E+02  0.46634381307E+02 -0.59460981606E+01  0.14422593877E+03  0.12508901983E+03 0.  0.
          5    1    3    3  502    0 -0.39406127515E+02  0.89485399817E+01  0.10229794798E+02  0.41893201778E+02  0.41800000000E+01 0. -1.
         -5    1    3    3    0  502  0.93662343074E+02  0.37685841325E+02 -0.16175892958E+02  0.10233273699E+03  0.41800000000E+01 0. -1.
        -11    1    1    2    0    0 -0.11803651449E+02 -0.66928956807E+02 -0.71164350783E+02  0.98403131399E+02  0.00000000000E+00 0.  1.
         11    1    1    2    0    0 -0.42452564109E+02  0.20294575500E+02 -0.46547345374E+02  0.66187199333E+02  0.00000000000E+00 0. -1.
</event>
<event>
 7    1  0.7017065E-006  0.9295741E+02  0.7561462E-02  0.1295844E+00
         -1   -1    0    0    0  501 -0.00000000000E+00  0.00000000000E+00  0.41828040606E+02  0.41828040606E+02  0.00000000000E+00 0.  1.
          1   -1    0    0  501    0  0.00000000000E+00 -0.00000000000E+00 -0.40550044638E+03  0.40550044638E+03  0.00000000000E+00 0. -1.
         23    2    1    2    0    0 -0.50047887669E+02 -0.51764009632E+02 -0.20290658893E+03  0.24899458316E+03  0.12507163890E+03 0.  0.
          5    1    3    3  502    0 -0.19950386313E+02 -0.52845583271E+01 -0.19105653643E+03  0.19221346723E+03  0.41800000000E+01 0. -1.
         -5    1    3    3    0  502 -0.30097501356E+02 -0.46479451305E+02 -0.11850052497E+02  0.56781115925E+02  0.41800000000E+01 0. -1.
        -11    1    1    2    0    0  0.71373127056E+02  0.26186751664E+02 -0.77074252458E+02  0.10826037881E+03  0.00000000000E+00 0.  1.
         11    1    1    2    0    0 -0.21325239387E+02  0.25577257968E+02 -0.83691564383E+02  0.90073525017E+02  0.00000000000E+00 0. -1.
</event>
<event>
 7    1  0.7017065E-006  0.1099305E+03  0.7561462E-02  0.1260699E+00
          1   -1    0    0  501    0  0.00000000000E+00  0.00000000000E+00  0.12512325725E+03  0.12512325725E+03  0.00000000000E+00 0. -1.
         -1   -1    0    0    0  501 -0.00000000000E+00 -0.00000000000E+00 -0.14152351238E+03  0.14152351238E+03  0.00000000000E+00 0.  1.
         23    2    1    2    0    0  0.14001050957E+02  0.70707758635E+02 -0.46330285522E+02  0.15162160309E+03  0.12508796348E+03 0.  0.
          5    1    3    3  502    0 -0.26059642759E+02  0.87923061582E+02 -0.58614939337E+01  0.91985864402E+02  0.41800000000E+01 0.  1.
         -5    1    3    3    0  502  0.40060693715E+02 -0.17215302947E+02 -0.40468791588E+02  0.59635738690E+02  0.41800000000E+01 0.  1.
        -11    1    1    2    0    0 -0.29803400943E+02 -0.50031873280E+02 -0.17600016922E+02  0.60837419795E+02  0.00000000000E+00 0.  1.
         11    1    1    2    0    0  0.15802349986E+02 -0.20675885355E+02  0.47530047309E+02  0.54187746747E+02  0.00000000000E+00 0. -1.
</event>
<event>
 7    1  0.7017065E-006  0.8599689E+02  0.7561462E-02  0.1312846E+00
         -2   -1    0    0    0  501 -0.00000000000E+00  0.00000000000E+00  0.41130934281E+03  0.41130934281E+03  0.00000000000E+00 0.  1.
          2   -1    0    0  501    0  0.00000000000E+00 -0.00000000000E+00 -0.28662951463E+02  0.28662951463E+02  0.00000000000E+00 0. -1.
         23    2    1    2    0    0  0.84679187970E+01 -0.22119771780E-01  0.21459702576E+03  0.24853688281E+03  0.12508793913E+03 0.  0.
          5    1    3    3  502    0 -0.47763501130E+02  0.21156765359E+02  0.46817402873E+02  0.70273055807E+02  0.41800000000E+01 0.  1.
         -5    1    3    3    0  502  0.56231419927E+02 -0.21178885131E+02  0.16777962289E+03  0.17826382701E+03  0.41800000000E+01 0.  1.
        -11    1    1    2    0    0 -0.68529106486E+01  0.29270300884E+02  0.11527683620E+02  0.32196279099E+02  0.00000000000E+00 0. -1.
         11    1    1    2    0    0 -0.16150081484E+01 -0.29248181112E+02  0.15652168197E+03  0.15923913236E+03  0.00000000000E+00 0.  1.
</event>
<event>
 6    1  0.7017065E-006  0.8244778E+02  0.7561462E-02  0.1322245E+00
          2   -1    0    0  501    0  0.00000000000E+00  0.00000000000E+00  0.77266456063E+02  0.77266456063E+02  0.00000000000E+00 0. -1.
         -2   -1    0    0    0  501 -0.00000000000E+00 -0.00000000000E+00 -0.30422662150E+03  0.30422662150E+03  0.00000000000E+00 0.  1.
          5    1    1    2  502    0  0.35104793788E+02 -0.28189205218E+01  0.36532525747E+02  0.50915525110E+02  0.41800000000E+01 0. -1.
         -5    1    1    2    0  502  0.25825723607E+02 -0.16572082720E+02 -0.21181400016E+03  0.21406598280E+03  0.41800000000E+01 0.  1.
        -11    1    1    2    0    0  0.13224275832E+02 -0.12074350009E+02 -0.26745421263E+02  0.32186782349E+02  0.00000000000E+00 0. -1.
         11    1    1    2    0    0 -0.74154793226E+02  0.31465353252E+02 -0.24933269758E+02  0.84324787308E+02  0.00000000000E+00 0.  1.
</event>
<event>
 7    1  0.7017065E-006  0.1628525E+03  0.7561462E-02  0.1185513E+00
          1   -1    0    0  501    0  0.00000000000E+00  0.00000000000E+00  0.98742037391E+03  0.98742037391E+03  0.00000000000E+00 0. -1.
         -1   -1    0    0    0  501 -0.00000000000E+00 -0.00000000000E+00 -0.35624713766E+02  0.35624713766E+02  0.00000000000E+00 0.  1.
         23    2    1    2    0    0  0.12051093049E+03  0.93426895343E+02  0.48871825463E+03  0.52701467569E+03  0.12508983510E+03 0.  0.
          5    1    3    3  502    0  0.59989389635E+02  0.24912106861E+02  0.37710488812E+03  0.38268121065E+03  0.41800000000E+01 0. -1.
         -5    1    3    3    0  502  0.60521540856E+02  0.68514788482E+02  0.11161336651E+03  0.14433346504E+03  0.41800000000E+01 0. -1.
        -11    1    1    2    0    0 -0.31119025711E+02 -0.70128934156E+02  0.13590119072E+03  0.15606279123E+03  0.00000000000E+00 0.  1.
         11    1    1    2    0    0 -0.89391904780E+02 -0.23297961186E+02  0.32717621480E+03  0.33996762076E+03  0.00000000000E+00 0. -1.
</event>
<event>
 7    1  0.7017065E-006  0.1035920E+03  0.7561462E-02  0.1272919E+00
         -3   -1    0    0    0  501 -0.00000000000E+00  0.00000000000E+00  0.94434961482E+03  0.94434961482E+03  0.00000000000E+00 0.  1.
          3   -1    0    0  501    0  0.00000000000E+00 -0.00000000000E+00 -0.25270166277E+02  0.25270166277E+02  0.00000000000E+00 0. -1.
         23    2    1    2    0    0 -0.36952078250E+01 -0.10210122395E+03  0.62562050098E+03  0.64613371713E+03  0.12509778042E+03 0.  0.
          5    1    3    3  502    0 -0.10706575954E+02 -0.77050764068E+02  0.14340514655E+03  0.16319914052E+03  0.41800000000E+01 0. -1.
         -5    1    3    3    0  502  0.70113681293E+01 -0.25050459885E+02  0.48221535444E+03  0.48293457660E+03  0.41800000000E+01 0. -1.
        -11    1    1    2    0    0 -0.45503244548E+01  0.46890274075E+02  0.34021496090E+02  0.58110803227E+02  0.00000000000E+00 0.  1.
         11    1    1    2    0    0  0.82455322798E+01  0.55210949878E+02  0.25943745147E+03  0.26537526075E+03  0.00000000000E+00 0. -1.
</event>
<event>
 7    1  0.7017065E-006  0.4005395E+03  0.7561462E-02  0.1043593E+00
          2   -1    0    0  501    0  0.00000000000E+00  0.00000000000E+00  0.56218138695E+03  0.56218138695E+03  0.00000000000E+00 0. -1.
         -2   -1    0    0    0  501 -0.00000000000E+00 -0.00000000000E+00 -0.29642622491E+03  0.29642622491E+03  0.00000000000E+00 0.  1.
         23    2    1    2    0    0 -0.30288980192E+03 -0.24667319059E+03  0.87340620041E+02  0.41936247047E+03  0.12508638083E+03 0.  0.
          5    1    3    3  502    0 -0.24248213805E+03 -0.24667733830E+03  0.53628318681E+02  0.35005823154E+03  0.41800000000E+01 0. -1.
         -5    1    3    3    0  502 -0.60407663867E+02  0.41477066090E-02  0.33712301359E+02  0.69304238932E+02  0.41800000000E+01 0. -1.
        -11    1    1    2    0    0  0.88106230964E+02  0.10606534489E+03  0.10163027057E+03  0.17129295729E+03  0.00000000000E+00 0. -1.
         11    1    1    2    0    0  0.21478357095E+03  0.14060784570E+03  0.76784271432E+02  0.26795218410E+03  0.00000000000E+00 0.  1.
</event>
<event>
 7    1  0.7017065E-006  0.1760336E+03  0.7561462E-02  0.1171698E+00
          2   -1    0    0  501    0  0.00000000000E+00  0.00000000000E+00  0.35387741670E+03  0.35387741670E+03  0.00000000000E+00 0. -1.
         -2   -1    0    0    0  501 -0.00000000000E+00 -0.00000000000E+00 -0.10909658124E+03  0.10909658124E+03  0.00000000000E+00 0.  1.
         23    2    1    2    0    0 -0.14428024309E+03  0.61741269570E+02  0.75910927540E+02  0.21455978299E+03  0.12507860986E+03 0.  0.
          5    1    3    3  502    0 -0.41785053305E+02 -0.23599521949E+02 -0.17961312681E+02  0.51410205886E+02  0.41800000000E+01 0. -1.
         -5    1    3    3    0  502 -0.10249518978E+03  0.85340791520E+02  0.93872240221E+02  0.16314957711E+03  0.41800000000E+01 0. -1.
        -11    1    1    2    0    0  0.51783990976E+02  0.10813319033E+02  0.15405821399E+02  0.55098538301E+02  0.00000000000E+00 0.  1.
         11    1    1    2    0    0  0.92496252114E+02 -0.72554588604E+02  0.15346408652E+03  0.19331567664E+03  0.00000000000E+00 0. -1.
</event>
<event>
 7    1  0.7017065E-006  0.1110248E+03  0.7561462E-02  0.1258684E+00
          1   -1    0    0  501    0  0.00000000000E+00  0.00000000000E+00  0.53405652490E+03  0.53405652490E+03  0.00000000000E+00 0. -1.
         -1   -1    0    0    0  501 -0.00000000000E+00 -0.00000000000E+00 -0.30217213890E+02  0.30217213890E+02  0.00000000000E+00 0.  1.
         23    2    1    2    0    0  0.27233105221E+02  0.27569448161E+02  0.16514164495E+03  0.21076077036E+03  0.12508646183E+03 0.  0.
          5    1    3    3  502    0 -0.19586837453E+02  0.65635631987E+02  0.70050728194E+02  0.98062517346E+02  0.41800000000E+01 0.  1.
         -5    1    3    3    0  502  0.46819942674E+02 -0.38066183825E+02  0.95090916757E+02  0.11269825302E+03  0.41800000000E+01 0.  1.
        -11    1    1    2    0    0 -0.55960863714E+02 -0.45839721960E+01  0.13015303301E+03  0.14174781505E+03  0.00000000000E+00 0.  1.
         11    1    1    2    0    0  0.28727758493E+02 -0.22985475965E+02  0.20854463304E+03  0.21176515338E+03  0.00000000000E+00 0. -1.
</event>
<event>
 7    1  0.7017065E-006  0.7045284E+02  0.7561462E-02  0.1358560E+00
          1   -1    0    0  501    0  0.00000000000E+00  0.00000000000E+00  0.41094354730E+03  0.41094354730E+03  0.00000000000E+00 0. -1.
         -1   -1    0    0    0  501 -0.00000000000E+00 -0.00000000000E+00 -0.28467106445E+02  0.28467106445E+02  0.00000000000E+00 0.  1.
         23    2    1    2    0    0  0.66002684991E+01  0.91357916005E+01  0.16803494716E+03  0.20978658713E+03  0.12509053697E+03 0.  0.
          5    1    3    3  502    0 -0.27747387639E+02 -0.63461452017E+01  0.16942902592E+03  0.17185417744E+03  0.41800000000E+01 0. -1.
         -5    1    3    3    0  502  0.34347656138E+02  0.15481936802E+02 -0.13940787578E+01  0.37932409690E+02  0.41800000000E+01 0. -1.
        -11    1    1    2    0    0  0.20627116412E+02  0.23801427391E+02  0.14257139669E+03  0.14600886628E+03  0.00000000000E+00 0. -1.
         11    1    1    2    0    0 -0.27227384911E+02 -0.32937218992E+02  0.71870096998E+02  0.83615200331E+02  0.00000000000E+00 0.  1.
</event>
<event>
 7    1  0.7017065E-006  0.1048864E+03  0.7561462E-02  0.1270344E+00
         -3   -1    0    0    0  501 -0.00000000000E+00  0.00000000000E+00  0.54853257742E+03  0.54853257742E+03  0.00000000000E+00 0.  1.
          3   -1    0    0  501    0  0.00000000000E+00 -0.00000000000E+00 -0.43064775695E+02  0.43064775695E+02  0.00000000000E+00 0. -1.
         23    2    1    2    0    0 -0.86785774162E+02  0.85982732084E+01  0.37514340885E+03  0.40495061960E+03  0.12508687464E+03 0.  0.
          5    1    3    3  502    0 -0.26469182919E+02 -0.20676287285E+02  0.30841143826E+03  0.31026313695E+03  0.41800000000E+01 0.  1.
         -5    1    3    3    0  502 -0.60316591243E+02  0.29274560494E+02  0.66731970598E+02  0.94687482653E+02  0.41800000000E+01 0.  1.
        -11    1    1    2    0    0  0.66249984015E+02  0.23797268012E+02  0.13051667013E+03  0.14829015992E+03  0.00000000000E+00 0.  1.
         11    1    1    2    0    0  0.20535790147E+02 -0.32395541221E+02 -0.19227725375E+00  0.38356573602E+02  0.00000000000E+00 0. -1.
</event>
<event>
 7    1  0.7017065E-006  0.1207533E+03  0.7561462E-02  0.1241859E+00
         -2   -1    0    0    0  501 -0.00000000000E+00  0.00000000000E+00  0.20896374817E+02  0.20896374817E+02  0.00000000000E+00 0.  1.
          2   -1    0    0  501    0  0.00000000000E+00 -0.00000000000E+00 -0.10229085709E+04  0.10229085709E+04  0.00000000000E+00 0. -1.
         23    2    1    2    0    0 -0.74688735292E+02 -0.52700387985E+02 -0.42285141789E+03  0.45034077731E+03  0.12509099098E+03 0.  0.
          5    1    3    3  502    0 -0.16716326889E+02  0.20377914938E+02 -0.26936244257E+03  0.27068116460E+03  0.41800000000E+01 0. -1.
         -5    1    3    3    0  502 -0.57972408403E+02 -0.73078302923E+02 -0.15348897532E+03  0.17965961271E+03  0.41800000000E+01 0. -1.
        -11    1    1    2    0    0  0.80305883173E+02  0.67949201467E+02 -0.55099125890E+03  0.56094339843E+03  0.00000000000E+00 0. -1.
         11    1    1    2    0    0 -0.56171478808E+01 -0.15248813482E+02 -0.28169519271E+02  0.32520769962E+02  0.00000000000E+00 0.  1.
</event>
<event>
 7    1  0.7017065E-006  0.8384050E+02  0.7561462E-02  0.1318493E+00
         -2   -1    0    0    0  501 -0.00000000000E+00  0.00000000000E+00  0.16968191313E+03  0.16968191313E+03  0.00000000000E+00 0. -1.
          2   -1    0    0  501    0  0.00000000000E+00 -0.00000000000E+00 -0.69246712254E+02  0.69246712254E+02  0.00000000000E+00 0.  1.
         23    2    1    2    0    0 -0.97172506281E+01 -0.69760590364E+02  0.88763701400E+02  0.16183874287E+03  0.11555007174E+03 0.  0.
          5    1    3    3  502    0 -0.31497114728E+02 -0.16845578143E+02  0.97391495634E+02  0.10381915797E+03  0.41800000000E+01 0. -1.
         -5    1    3    3    0  502  0.21779864100E+02 -0.52915012221E+02 -0.86277942347E+01  0.58019584899E+02  0.41800000000E+01 0.  1.
        -11    1    1    2    0    0  0.13883646854E+02  0.19647541340E+02 -0.40655487033E+01  0.24398979834E+02  0.00000000000E+00 0.  1.
         11    1    1    2    0    0 -0.41663962256E+01  0.50113049023E+02  0.15737048177E+02  0.52690902680E+02  0.00000000000E+00 0. -1.
</event>
<event>
 7    1  0.7017065E-006  0.1412842E+03  0.7561462E-02  0.1211611E+00
          2   -1    0    0  501    0  0.00000000000E+00  0.00000000000E+00  0.42300658609E+02  0.42300658609E+02  0.00000000000E+00 0. -1.
         -2   -1    0    0    0  501 -0.00000000000E+00 -0.00000000000E+00 -0.49642912010E+03  0.49642912010E+03  0.00000000000E+00 0.  1.
         23    2    1    2    0    0 -0.87657817306E+02  0.27961632317E+02 -0.29571975416E+03  0.33401157476E+03  0.12509121973E+03 0.  0.
          5    1    3    3  502    0 -0.58891478011E+02 -0.45080120978E+02 -0.17297263678E+03  0.18824831729E+03  0.41800000000E+01 0.  1.
         -5    1    3    3    0  502 -0.28766339295E+02  0.73041753295E+02 -0.12274711738E+03  0.14576325747E+03  0.41800000000E+01 0.  1.
        -11    1    1    2    0    0 -0.18727814010E+02  0.27827598712E+01 -0.22499780581E+02  0.29406035032E+02  0.00000000000E+00 0.  1.
         11    1    1    2    0    0  0.10638563132E+03 -0.30744392189E+02 -0.13590892675E+03  0.17531216892E+03  0.00000000000E+00 0. -1.
</event>
<event>
 7    1  0.7017065E-006  0.1311687E+03  0.7561462E-02  0.1225732E+00
          3   -1    0    0  501    0  0.00000000000E+00  0.00000000000E+00  0.31614569765E+03  0.31614569765E+03  0.00000000000E+00 0. -1.
         -3   -1    0    0    0  501 -0.00000000000E+00 -0.00000000000E+00 -0.71814669937E+02  0.71814669937E+02  0.00000000000E+00 0.  1.
         23    2    1    2    0    0  0.61744411263E+02  0.67603440814E+02  0.66613271438E+02  0.16872195141E+03  0.12508865426E+03 0.  0.
          5    1    3    3  502    0 -0.37690598614E+02  0.17693363713E+02  0.30113827084E+02  0.51555322955E+02  0.41800000000E+01 0.  1.
         -5    1    3    3    0  502  0.99435009877E+02  0.49910077101E+02  0.36499444353E+02  0.11716662846E+03  0.41800000000E+01 0.  1.
        -11    1    1    2    0    0 -0.74024233702E+01  0.11203438388E+02 -0.38606443072E+01  0.13972024833E+02  0.00000000000E+00 0.  1.
         11    1    1    2    0    0 -0.54341987893E+02 -0.78806879201E+02  0.18157840058E+03  0.20526639134E+03  0.00000000000E+00 0. -1.
</event>
<event>
 7    1  0.7017065E-006  0.1498000E+03  0.7561462E-02  0.1200719E+00
         -1   -1    0    0    0  501 -0.00000000000E+00  0.00000000000E+00  0.43813714565E+03  0.43813714565E+03  0.00000000000E+00 0.  1.
          1   -1    0    0  501    0  0.00000000000E+00 -0.00000000000E+00 -0.58009282763E+02  0.58009282763E+02  0.00000000000E+00 0. -1.
         23    2    1    2    0    0  0.82904208113E+01 -0.11627650381E+03  0.21064177420E+03  0.27130541102E+03  0.12509081740E+03 0.  0.
          5    1    3    3  502    0 -0.28006073087E+02 -0.11986149978E+03  0.19661649401E+03  0.23200568393E+03  0.41800000000E+01 0. -1.
         -5    1    3    3    0  502  0.36296493899E+02  0.35849959626E+01  0.14025280185E+02  0.39299727094E+02  0.41800000000E+01 0. -1.
        -11    1    1    2    0    0  0.34512647563E+02  0.47378690517E+02  0.36440297547E+02  0.69019985817E+02  0.00000000000E+00 0. -1.
         11    1    1    2    0    0 -0.42803068375E+02  0.68897813297E+02  0.13304579114E+03  0.15582103157E+03  0.00000000000E+00 0.  1.
</event>
<event>
 7    1  0.7017065E-006  0.1342373E+03  0.7561462E-02  0.1221300E+00
          1   -1    0    0  501    0  0.00000000000E+00  0.00000000000E+00  0.29207598397E+03  0.29207598397E+03  0.00000000000E+00 0. -1.
         -1   -1    0    0    0  501 -0.00000000000E+00 -0.00000000000E+00 -0.72471833624E+02  0.72471833624E+02  0.00000000000E+00 0.  1.
         23    2    1    2    0    0 -0.68820946066E+02 -0.49632446147E+02  0.64082098031E+02  0.16542788562E+03  0.12672871705E+03 0.  0.
          5    1    3    3  502    0 -0.49856915669E+02 -0.88064633601E+02  0.18935969950E+02  0.10303948316E+03  0.41800000000E+01 0. -1.
         -5    1    3    3    0  502 -0.18964030397E+02  0.38432187454E+02  0.45146128081E+02  0.62388402465E+02  0.41800000000E+01 0. -1.
        -11    1    1    2    0    0  0.86151872796E+02  0.17927118723E+02  0.11545305056E+03  0.14516519437E+03  0.00000000000E+00 0. -1.
         11    1    1    2    0    0 -0.17330926730E+02  0.31705327424E+02  0.40069001751E+02  0.53954737602E+02  0.00000000000E+00 0.  1.
</event>
<event>
 7    1  0.7017065E-006  0.2418061E+03  0.7561462E-02  0.1118595E+00
          2   -1    0    0  501    0  0.00000000000E+00  0.00000000000E+00  0.30335384633E+03  0.30335384633E+03  0.00000000000E+00 0. -1.
         -2   -1    0    0    0  501 -0.00000000000E+00 -0.00000000000E+00 -0.22025569399E+03  0.22025569399E+03  0.00000000000E+00 0.  1.
         23    2    1    2    0    0 -0.12329163280E+03 -0.19961106787E+03  0.47230214049E+02  0.27004453844E+03  0.12509178426E+03 0.  0.
          5    1    3    3  502    0 -0.11885142397E+03 -0.12171185877E+03 -0.14045630169E+02  0.17074597996E+03  0.41800000000E+01 0. -1.
         -5    1    3    3    0  502 -0.44402088329E+01 -0.77899209093E+02  0.61275844219E+02  0.99298558481E+02  0.41800000000E+01 0. -1.
        -11    1    1    2    0    0  0.11739922402E+03  0.18060111797E+03  0.33393747581E+01  0.21543094726E+03  0.00000000000E+00 0. -1.
         11    1    1    2    0    0  0.58924087747E+01  0.19009949892E+02  0.32528563529E+02  0.38134054615E+02  0.00000000000E+00 0.  1.
</event>
<event>
 7    1  0.7017065E-006  0.1359241E+03  0.7561462E-02  0.1218921E+00
          1   -1    0    0  501    0  0.00000000000E+00  0.00000000000E+00  0.17929570346E+03  0.17929570346E+03  0.00000000000E+00 0. -1.
         -1   -1    0    0    0  501 -0.00000000000E+00 -0.00000000000E+00 -0.14775491200E+03  0.14775491200E+03  0.00000000000E+00 0.  1.
         23    2    1    2    0    0  0.92270446150E+02 -0.22926117617E+02 -0.60069204251E+02  0.16820921337E+03  0.12508632244E+03 0.  0.
          5    1    3    3  502    0  0.54990309786E+02  0.50231678473E+02 -0.33823270225E+02  0.81906298300E+02  0.41800000000E+01 0.  1.
         -5    1    3    3    0  502  0.37280136364E+02 -0.73157796090E+02 -0.26245934026E+02  0.86302915066E+02  0.41800000000E+01 0.  1.
        -11    1    1    2    0    0 -0.59630914618E+02  0.45791703380E+02  0.92220722542E+02  0.11898482148E+03  0.00000000000E+00 0.  1.
         11    1    1    2    0    0 -0.32639531532E+02 -0.22865585763E+02 -0.61072682866E+00  0.39856580613E+02  0.00000000000E+00 0. -1.
</event>
<event>
 7    1  0.7017065E-006  0.9580232E+02  0.7561462E-02  0.1289379E+00
          3   -1    0    0  501    0  0.00000000000E+00  0.00000000000E+00  0.12897887777E+03  0.12897887777E+03  0.00000000000E+00 0. -1.
         -3   -1    0    0    0  501 -0.00000000000E+00 -0.00000000000E+00 -0.12596810712E+03  0.12596810712E+03  0.00000000000E+00 0.  1.
         23    2    1    2    0    0 -0.48021824272E+02  0.33618978723E+02 -0.27544692592E+02  0.14086239467E+03  0.12508865978E+03 0.  0.
          5    1    3    3  502    0 -0.25600160722E+02  0.73975819059E+02  0.12773958716E+02  0.79425666228E+02  0.41800000000E+01 0. -1.
         -5    1    3    3    0  502 -0.22421663550E+02 -0.40356840335E+02 -0.40318651308E+02  0.61436728441E+02  0.41800000000E+01 0. -1.
        -11    1    1    2    0    0  0.49186158788E+02 -0.19852816127E+02 -0.23701590063E+02  0.58096281258E+02  0.00000000000E+00 0.  1.
         11    1    1    2    0    0 -0.11643345166E+01 -0.13766162596E+02  0.54257053306E+02  0.55988308967E+02  0.00000000000E+00 0. -1.
</event>
<event>
 7    1  0.7017065E-006  0.7079892E+02  0.7561462E-02  0.1357397E+00
         -1   -1    0    0    0  501 -0.00000000000E+00  0.00000000000E+00  0.30515768018E+03  0.30515768018E+03  0.00000000000E+00 0.  1.
          1   -1    0    0  501    0  0.00000000000E+00 -0.00000000000E+00 -0.50898950271E+02  0.50898950271E+02  0.00000000000E+00 0. -1.
         23    2    1    2    0    0  0.10769922285E+02 -0.49680377118E+02  0.20265062483E+03  0.24081114582E+03  0.11974389800E+03 0.  0.
          5    1    3    3  502    0 -0.31222677627E+01 -0.37829753367E+02  0.90586593927E+00  0.38198583598E+02  0.41800000000E+01 0. -1.
         -5    1    3    3    0  502  0.13892190048E+02 -0.11850623751E+02  0.20174475890E+03  0.20261256222E+03  0.41800000000E+01 0.  1.
        -11    1    1    2    0    0 -0.38274670757E+02  0.40394361778E+02 -0.43956721179E+00  0.55649331571E+02  0.00000000000E+00 0. -1.
         11    1    1    2    0    0  0.27504748472E+02  0.92860153402E+01  0.52047672289E+02  0.59596153065E+02  0.00000000000E+00 0.  1.
</event>
<event>
 7    1  0.7017065E-006  0.8562886E+02  0.7561462E-02  0.1313796E+00
          1   -1    0    0  501    0  0.00000000000E+00  0.00000000000E+00  0.46926716747E+03  0.46926716747E+03  0.00000000000E+00 0. -1.
         -1   -1    0    0    0  501 -0.00000000000E+00 -0.00000000000E+00 -0.34447014114E+02  0.34447014114E+02  0.00000000000E+00 0.  1.
         23    2    1    2    0    0 -0.81614564464E+01 -0.63683371431E+02  0.21884052872E+03  0.26011448725E+03  0.12508472448E+03 0.  0.
          5    1    3    3  502    0  0.24165275756E+02 -0.65646740912E+02  0.45110157504E+02  0.83341789366E+02  0.41800000000E+01 0. -1.
         -5    1    3    3    0  502 -0.32326732202E+02  0.19633694809E+01  0.17373037121E+03  0.17677269788E+03  0.41800000000E+01 0. -1.
        -11    1    1    2    0    0 -0.77508095452E+01  0.33708953362E+02  0.11690101732E+02  0.36510643159E+02  0.00000000000E+00 0.  1.
         11    1    1    2    0    0  0.15912265992E+02  0.29974418070E+02  0.20428952290E+03  0.20708905117E+03  0.00000000000E+00 0. -1.
</event>
<event>
 7    1  0.7017065E-006  0.1177687E+03  0.7561462E-02  0.1246824E+00
          1   -1    0    0  501    0  0.00000000000E+00  0.00000000000E+00  0.15409732339E+03  0.15409732339E+03  0.00000000000E+00 0. -1.
         -1   -1    0    0    0  501 -0.00000000000E+00 -0.00000000000E+00 -0.10236579883E+03  0.10236579883E+03  0.00000000000E+00 0.  1.
         23    2    1    2    0    0  0.90624357794E+01  0.50842730633E+02  0.76553491452E+01  0.13555066024E+03  0.12509302987E+03 0.  0.
          5    1    3    3  502    0  0.32617789505E+02  0.79998785607E+02  0.30196108959E+02  0.91613335749E+02  0.41800000000E+01 0.  1.
         -5    1    3    3    0  502 -0.23555353726E+02 -0.29156054974E+02 -0.22540759814E+02  0.43937324495E+02  0.41800000000E+01 0.  1.
        -11    1    1    2    0    0 -0.37759051023E+02  0.14117867576E+02  0.74048342362E+01  0.40986481785E+02  0.00000000000E+00 0. -1.
         11    1    1    2    0    0  0.28696615243E+02 -0.64960598210E+02  0.36671341174E+02  0.79925980192E+02  0.00000000000E+00 0.  1.
</event>
<event>
 7    1  0.7017065E-006  0.7982363E+02  0.7561462E-02  0.1329553E+00
         -1   -1    0    0    0  501 -0.00000000000E+00  0.00000000000E+00  0.28830563021E+03  0.28830563021E+03  0.00000000000E+00 0.  1.
          1   -1    0    0  501    0  0.00000000000E+00 -0.00000000000E+00 -0.42630103954E+02  0.42630103954E+02  0.00000000000E+00 0. -1.
         23    2    1    2    0    0 -0.16299850556E+02  0.13792888968E+02  0.15942901605E+03  0.20376292328E+03  0.12508312768E+03 0.  0.
          5    1    3    3  502    0  0.12933764619E+02 -0.25295521781E+02 -0.75941862972E+01  0.29703362687E+02  0.41800000000E+01 0.  1.
         -5    1    3    3    0  502 -0.29233615175E+02  0.39088410749E+02  0.16702320234E+03  0.17405956059E+03  0.41800000000E+01 0.  1.
        -11    1    1    2    0    0 -0.30541170033E+02  0.59403848541E+01  0.52564249274E+01  0.31554417158E+02  0.00000000000E+00 0. -1.
         11    1    1    2    0    0  0.46841020589E+02 -0.19733273822E+02  0.80990085281E+02  0.95618393729E+02  0.00000000000E+00 0.  1.
</event>
<event>
 7    1  0.7017065E-006  0.9280588E+02  0.7561462E-02  0.1296196E+00
          1   -1    0    0  501    0  0.00000000000E+00  0.00000000000E+00  0.11075603677E+03  0.11075603677E+03  0.00000000000E+00 0. -1.
         -1   -1    0    0    0  501 -0.00000000000E+00 -0.00000000000E+00 -0.22476246143E+03  0.22476246143E+03  0.00000000000E+00 0.  1.
         23    2    1    2    0    0 -0.34293264767E+02 -0.21237773235E+02 -0.17662280047E+03  0.22015817110E+03  0.12508771176E+03 0.  0.
          5    1    3    3  502    0 -0.14293516310E+02  0.43391626019E+02 -0.13008616171E+03  0.13793846340E+03  0.41800000000E+01 0. -1.
         -5    1    3    3    0  502 -0.19999748457E+02 -0.64629399254E+02 -0.46536638761E+02  0.82219707695E+02  0.41800000000E+01 0. -1.
        -11    1    1    2    0    0 -0.25493052220E+00  0.34827664670E+02  0.69373471660E+02  0.77625445480E+02  0.00000000000E+00 0. -1.
         11    1    1    2    0    0  0.34548195290E+02 -0.13589891434E+02 -0.67570958483E+01  0.37734881625E+02  0.00000000000E+00 0.  1.
</event>
<event>
 7    1  0.7017065E-006  0.1079557E+03  0.7561462E-02  0.1264403E+00
         -1   -1    0    0    0  501 -0.00000000000E+00  0.00000000000E+00  0.33537451542E+03  0.33537451542E+03  0.00000000000E+00 0.  1.
          1   -1    0    0  501    0  0.00000000000E+00 -0.00000000000E+00 -0.69299530877E+02  0.69299530877E+02  0.00000000000E+00 0. -1.
         23    2    1    2    0    0  0.51640505650E+02  0.29910671633E+02  0.26075899706E+03  0.29530475943E+03  0.12509299059E+03 0.  0.
          5    1    3    3  502    0  0.69508303516E+02  0.60472731213E+02  0.23147288669E+03  0.24916967141E+03  0.41800000000E+01 0.  1.
         -5    1    3    3    0  502 -0.17867797866E+02 -0.30562059580E+02  0.29286110371E+02  0.46135088024E+02  0.41800000000E+01 0.  1.
        -11    1    1    2    0    0 -0.44602602813E+02  0.11476364400E+02  0.35091470572E+02  0.57900867216E+02  0.00000000000E+00 0.  1.
         11    1    1    2    0    0 -0.70379028373E+01 -0.41387036033E+02 -0.29775483087E+02  0.51468419648E+02  0.00000000000E+00 0. -1.
</event>
<event>
 6    1  0.7017065E-006  0.1373913E+03  0.7561462E-02  0.1216883E+00
          1   -1    0    0  501    0  0.00000000000E+00  0.00000000000E+00  0.22727857543E+03  0.22727857543E+03  0.00000000000E+00 0. -1.
         -1   -1    0    0    0  501 -0.00000000000E+00 -0.00000000000E+00 -0.17355264557E+03  0.17355264557E+03  0.00000000000E+00 0.  1.
          5    1    1    2  502    0 -0.30808403337E+02 -0.24279692053E+02 -0.51859257809E+02  0.65157625670E+02  0.41800000000E+01 0. -1.
         -5    1    1    2    0  502  0.11740760545E+03 -0.40754948129E+02 -0.40884065697E+02  0.13089878090E+03  0.41800000000E+01 0.  1.
        -11    1    1    2    0    0 -0.67121858453E+02  0.36408486738E+02  0.15162630044E+03  0.16976883334E+03  0.00000000000E+00 0. -1.
         11    1    1    2    0    0 -0.19477343660E+02  0.28626153444E+02 -0.51570470745E+01  0.35005981083E+02  0.00000000000E+00 0.  1.
</event>
<event>
 7    1  0.7017065E-006  0.1033562E+03  0.7561462E-02  0.1273393E+00
          1   -1    0    0  501    0  0.00000000000E+00  0.00000000000E+00  0.57643626643E+03  0.57643626643E+03  0.00000000000E+00 0. -1.
         -1   -1    0    0    0  501 -0.00000000000E+00 -0.00000000000E+00 -0.28046346580E+02  0.28046346580E+02  0.00000000000E+00 0.  1.
         23    2    1    2    0    0  0.32043001098E+02 -0.58587758005E+02  0.29430024059E+03  0.32668203020E+03  0.12509691416E+03 0.  0.
          5    1    3    3  502    0  0.11366138342E+02  0.35730394402E+02  0.13666930236E+03  0.14178089008E+03  0.41800000000E+01 0.  1.
         -5    1    3    3    0  502  0.20676862755E+02 -0.94318152407E+02  0.15763093824E+03  0.18490114012E+03  0.41800000000E+01 0.  1.
        -11    1    1    2    0    0 -0.25224609383E+02  0.17531886157E+02  0.13357413635E+02  0.33497290185E+02  0.00000000000E+00 0.  1.
         11    1    1    2    0    0 -0.68183917149E+01  0.41055871848E+02  0.24073226562E+03  0.24430329263E+03  0.00000000000E+00 0. -1.
</event>
<event>
 6    1  0.7017065E-006  0.1330838E+03  0.7561462E-02  0.1222950E+00
         -3   -1    0    0    0  501 -0.00000000000E+00  0.00000000000E+00  0.16399860384E+03  0.16399860384E+03  0.00000000000E+00 0.  1.
          3   -1    0    0  501    0  0.00000000000E+00 -0.00000000000E+00 -0.14321620622E+03  0.14321620622E+03  0.00000000000E+00 0. -1.
          5    1    1    2  502    0 -0.41076276041E+02  0.45308578720E+02 -0.47384210041E+02  0.77478148663E+02  0.41800000000E+01 0. -1.
         -5    1    1    2    0  502 -0.62554785840E+02 -0.33594364216E+02  0.56548762786E+02  0.90867582290E+02  0.41800000000E+01 0.  1.
        -11    1    1    2    0    0  0.33624453903E+02  0.35813869606E+02 -0.12867079038E+02  0.50781875501E+02  0.00000000000E+00 0. -1.
         11    1    1    2    0    0  0.70006607978E+02 -0.47528084109E+02  0.24484923914E+02  0.88087203604E+02  0.00000000000E+00 0.  1.
</event>
<event>
 7    1  0.7017065E-006  0.3503485E+03  0.7561462E-02  0.1062472E+00
          1   -1    0    0  501    0  0.00000000000E+00  0.00000000000E+00  0.12816163920E+04  0.12816163920E+04  0.00000000000E+00 0. -1.
         -1   -1    0    0    0  501 -0.00000000000E+00 -0.00000000000E+00 -0.10066910953E+03  0.10066910953E+03  0.00000000000E+00 0.  1.
         23    2    1    2    0    0  0.18285244866E+03  0.28541732832E+03  0.49170590499E+03  0.60892538000E+03  0.11881646401E+03 0.  0.
          5    1    3    3  502    0 -0.93991314547E+01  0.68567060269E+02  0.92310051830E+02  0.11544870504E+03  0.41800000000E+01 0. -1.
         -5    1    3    3    0  502  0.19225158011E+03  0.21685026805E+03  0.39939585316E+03  0.49347667496E+03  0.41800000000E+01 0.  1.
        -11    1    1    2    0    0 -0.89977139884E+02 -0.10252617723E+03  0.19247984165E+03  0.23591522240E+03  0.00000000000E+00 0.  1.
         11    1    1    2    0    0 -0.92875308774E+02 -0.18289115108E+03  0.49676153587E+03  0.53744489917E+03  0.00000000000E+00 0. -1.
</event>
<event>
 7    1  0.7017065E-006  0.1402996E+03  0.7561462E-02  0.1212926E+00
          2   -1    0    0  501    0  0.00000000000E+00  0.00000000000E+00  0.59767249555E+02  0.59767249555E+02  0.00000000000E+00 0. -1.
         -2   -1    0    0    0  501 -0.00000000000E+00 -0.00000000000E+00 -0.37978613745E+03  0.37978613745E+03  0.00000000000E+00 0.  1.
         23    2    1    2    0    0  0.39824016329E+02 -0.88462924293E+02 -0.23045235835E+03  0.27958472119E+03  0.12509070949E+03 0.  0.
          5    1    3    3  502    0 -0.44830795571E+02 -0.22212994062E+02 -0.84125968388E+02  0.97968710791E+02  0.41800000000E+01 0. -1.
         -5    1    3    3    0  502  0.84654811900E+02 -0.66249930231E+02 -0.14632638996E+03  0.18161601040E+03  0.41800000000E+01 0. -1.
        -11    1    1    2    0    0  0.22283238849E+02  0.31182590703E+02 -0.21361171625E+01  0.38385670413E+02  0.00000000000E+00 0. -1.
         11    1    1    2    0    0 -0.62107255178E+02  0.57280333590E+02 -0.87430412379E+02  0.12158299540E+03  0.00000000000E+00 0.  1.
</event>
<event>
 7    1  0.7017065E-006  0.2052966E+03  0.7561462E-02  0.1145346E+00
         -2   -1    0    0    0  501 -0.00000000000E+00  0.00000000000E+00  0.14497177753E+03  0.14497177753E+03  0.00000000000E+00 0. -1.
          2   -1    0    0  501    0  0.00000000000E+00 -0.00000000000E+00 -0.29673871459E+03  0.29673871459E+03  0.00000000000E+00 0.  1.
         23    2    1    2    0    0  0.14898554914E+03  0.88543240491E+02 -0.53533369312E+02  0.22033985222E+03  0.12508888663E+03 0.  0.
          5    1    3    3  502    0 -0.20215094564E+02  0.23534341322E+02 -0.37834613374E-01  0.31304777609E+02  0.41800000000E+01 0. -1.
         -5    1    3    3    0  502  0.16920064370E+03  0.65008899170E+02 -0.53495534699E+02  0.18903507461E+03  0.41800000000E+01 0. -1.
        -11    1    1    2    0    0 -0.73811280778E+02 -0.97485613793E+02 -0.53791308189E+02  0.13358538432E+03  0.00000000000E+00 0. -1.
         11    1    1    2    0    0 -0.75174268361E+02  0.89423733014E+01 -0.44442259558E+02  0.87785255587E+02  0.00000000000E+00 0.  1.
</event>
<event>
 7    1  0.7017065E-006  0.1095011E+03  0.7561462E-02  0.1261497E+00
          2   -1    0    0  501    0  0.00000000000E+00  0.00000000000E+00  0.30907436285E+02  0.30907436285E+02  0.00000000000E+00 0.  1.
         -2   -1    0    0    0  501 -0.00000000000E+00 -0.00000000000E+00 -0.62474300394E+03  0.62474300394E+03  0.00000000000E+00 0. -1.
         23    2    1    2    0    0  0.81426500309E+01 -0.83105235830E+02 -0.38040224549E+03  0.40906905804E+03  0.12513529836E+03 0.  0.
          5    1    3    3  502    0 -0.26634310202E+02 -0.51511082957E+02 -0.54236773225E+02  0.79510239071E+02  0.41800000000E+01 0. -1.
         -5    1    3    3    0  502  0.34776960233E+02 -0.31594152873E+02 -0.32616547227E+03  0.32955881897E+03  0.41800000000E+01 0. -1.
        -11    1    1    2    0    0 -0.37008531871E+02  0.15391249111E+02 -0.12635170208E+03  0.13255668448E+03  0.00000000000E+00 0. -1.
         11    1    1    2    0    0  0.28865881840E+02  0.67713986720E+02 -0.87081620077E+02  0.11402469771E+03  0.00000000000E+00 0.  1.
</event>
<event>
 7    1  0.7017065E-006  0.1055169E+03  0.7561462E-02  0.1269105E+00
          1   -1    0    0  501    0  0.00000000000E+00  0.00000000000E+00  0.20305933936E+03  0.20305933936E+03  0.00000000000E+00 0. -1.
         -1   -1    0    0    0  501 -0.00000000000E+00 -0.00000000000E+00 -0.69585490093E+02  0.69585490093E+02  0.00000000000E+00 0.  1.
         23    2    1    2    0    0 -0.14795611549E+01 -0.46533981503E+02  0.69348665543E+02  0.15041207064E+03  0.12508778136E+03 0.  0.
          5    1    3    3  502    0 -0.47809352983E+02 -0.34258612644E+02  0.81686450191E+02  0.10074490219E+03  0.41800000000E+01 0.  1.
         -5    1    3    3    0  502  0.46329791829E+02 -0.12275368859E+02 -0.12337784648E+02  0.49667168447E+02  0.41800000000E+01 0.  1.
        -11    1    1    2    0    0 -0.21319031099E+01  0.75117523423E+02  0.48759605914E+02  0.89580614561E+02  0.00000000000E+00 0.  1.
         11    1    1    2    0    0  0.36114642647E+01 -0.28583541920E+02  0.15365577808E+02  0.32652144251E+02  0.00000000000E+00 0. -1.
</event>
<event>
 7    1  0.7017065E-006  0.1239739E+03  0.7561462E-02  0.1236682E+00
          1   -1    0    0  501    0  0.00000000000E+00  0.00000000000E+00  0.49786460036E+03  0.49786460036E+03  0.00000000000E+00 0. -1.
         -1   -1    0    0    0  501 -0.00000000000E+00 -0.00000000000E+00 -0.43719529143E+02  0.43719529143E+02  0.00000000000E+00 0.  1.
         23    2    1    2    0    0  0.66434514859E+02  0.19859380363E+02  0.11564070510E+03  0.18392478784E+03  0.12509042791E+03 0.  0.
          5    1    3    3  502    0 -0.13453736251E+02  0.53285004736E+02  0.33531420907E+02  0.64514520357E+02  0.41800000000E+01 0.  1.
         -5    1    3    3    0  502  0.79888251110E+02 -0.33425624373E+02  0.82109284196E+02  0.11941026749E+03  0.41800000000E+01 0.  1.
        -11    1    1    2    0    0 -0.28569717335E+01 -0.39489700413E+02  0.20148297473E+03  0.20533627988E+03  0.00000000000E+00 0.  1.
         11    1    1    2    0    0 -0.63577543125E+02  0.19630320050E+02  0.13702139138E+03  0.15232306179E+03  0.00000000000E+00 0. -1.
</event>
<event>
 7    1  0.7017065E-006  0.9680437E+02  0.7561462E-02  0.1287163E+00
          1   -1    0    0  501    0  0.00000000000E+00  0.00000000000E+00  0.49460424289E+03  0.49460424289E+03  0.00000000000E+00 0. -1.
         -1   -1    0    0    0  501 -0.00000000000E+00 -0.00000000000E+00 -0.33413346217E+02  0.33413346217E+02  0.00000000000E+00 0.  1.
         23    2    1    2    0    0  0.28573731308E+02  0.62286088518E+02  0.26161443012E+03  0.29797248937E+03  0.12509787942E+03 0.  0.
          5    1    3    3  502    0  0.40242989228E+02  0.86749259284E+02  0.11887596273E+03  0.15262338970E+03  0.41800000000E+01 0. -1.
         -5    1    3    3    0  502 -0.11669257920E+02 -0.24463170765E+02  0.14273846738E+03  0.14534909967E+03  0.41800000000E+01 0. -1.
        -11    1    1    2    0    0 -0.70273667116E+01 -0.34989967669E+02  0.96625969696E+01  0.36973605458E+02  0.00000000000E+00 0.  1.
         11    1    1    2    0    0 -0.21546364597E+02 -0.27296120849E+02  0.18991386959E+03  0.19307149428E+03  0.00000000000E+00 0. -1.
</event>
<event>
 7    1  0.1215946E-005  0.3432395E+03  0.7561462E-02  0.1065425E+00
         -2   -1    0    0    0  501 -0.00000000000E+00  0.00000000000E+00  0.22883698807E+03  0.22883698807E+03  0.00000000000E+00 0.  1.
          2   -1    0    0  501    0  0.00000000000E+00 -0.00000000000E+00 -0.59216008210E+03  0.59216008210E+03  0.00000000000E+00 0. -1.
         23    2    1    2    0    0  0.14102281971E+02 -0.33236917592E+03 -0.77699533614E+02  0.36380328524E+03  0.12508984518E+03 0.  0.
          5    1    3    3  502    0  0.98285676386E+01 -0.32825530882E+03 -0.46420340432E+02  0.33169333565E+03  0.41800000000E+01 0. -1.
         -5    1    3    3    0  502  0.42737143325E+01 -0.41138671085E+01 -0.31279193181E+02  0.32109949593E+02  0.41800000000E+01 0. -1.
        -11    1    1    2    0    0  0.47254820166E+02  0.18955518243E+03 -0.11634549999E+03  0.22737735283E+03  0.00000000000E+00 0.  1.
         11    1    1    2    0    0 -0.61357102137E+02  0.14281399350E+03 -0.16927806043E+03  0.22981643210E+03  0.00000000000E+00 0. -1.
</event>
<event>
 7    1  0.7017065E-006  0.1369876E+03  0.7561462E-02  0.1217441E+00
          2   -1    0    0  501    0  0.00000000000E+00  0.00000000000E+00  0.87417767396E+02  0.87417767396E+02  0.00000000000E+00 0. -1.
         -2   -1    0    0    0  501 -0.00000000000E+00 -0.00000000000E+00 -0.27720841550E+03  0.27720841550E+03  0.00000000000E+00 0.  1.
         23    2    1    2    0    0  0.87458602283E+02  0.37798243963E+02 -0.17082575245E+03  0.23217669874E+03  0.12508743893E+03 0.  0.
          5    1    3    3  502    0  0.30394427802E+02  0.78742283165E+02 -0.11300056753E+03  0.14110552456E+03  0.41800000000E+01 0. -1.
         -5    1    3    3    0  502  0.57064174481E+02 -0.40944039201E+02 -0.57825184921E+02  0.91071174180E+02  0.41800000000E+01 0. -1.
        -11    1    1    2    0    0  0.12642821069E+02 -0.20044406732E+01 -0.22716478304E+02  0.26074836404E+02  0.00000000000E+00 0.  1.
         11    1    1    2    0    0 -0.10010142335E+03 -0.35793803290E+02  0.37515826535E+01  0.10637464775E+03  0.00000000000E+00 0. -1.
</event>
<event>
 7    1  0.7017065E-006  0.1212925E+03  0.7561462E-02  0.1240980E+00
          1   -1    0    0  501    0  0.00000000000E+00  0.00000000000E+00  0.19996893410E+03  0.19996893410E+03  0.00000000000E+00 0. -1.
         -1   -1    0    0    0  501 -0.00000000000E+00 -0.00000000000E+00 -0.76820884662E+02  0.76820884662E+02  0.00000000000E+00 0.  1.
         23    2    1    2    0    0 -0.52515125465E+02  0.32239864232E+02  0.89308400078E+02  0.16559043831E+03  0.12508779192E+03 0.  0.
          5    1    3    3  502    0  0.40825174676E+01 -0.43789201492E+02  0.34233688250E+02  0.55888987532E+02  0.41800000000E+01 0.  1.
         -5    1    3    3    0  502 -0.56597642933E+02  0.76029065725E+02  0.55074711828E+02  0.10970145078E+03  0.41800000000E+01 0.  1.
        -11    1    1    2    0    0  0.48744798900E+01  0.27043640777E+02 -0.11052416828E+01  0.27501647584E+02  0.00000000000E+00 0.  1.
         11    1    1    2    0    0  0.47640645575E+02 -0.59283505009E+02  0.34944891045E+02  0.83697732867E+02  0.00000000000E+00 0. -1.
</event>
<event>
 7    1  0.7017065E-006  0.1215663E+03  0.7561462E-02  0.1240535E+00
          1   -1    0    0  501    0  0.00000000000E+00  0.00000000000E+00  0.90819203505E+02  0.90819203505E+02  0.00000000000E+00 0. -1.
         -1   -1    0    0    0  501 -0.00000000000E+00 -0.00000000000E+00 -0.25579431179E+03  0.25579431179E+03  0.00000000000E+00 0.  1.
         23    2    1    2    0    0  0.52006886480E+02  0.45038529758E+02 -0.18348682253E+03  0.23248253113E+03  0.12509007888E+03 0.  0.
          5    1    3    3  502    0  0.57089172217E+02 -0.28477515759E+02 -0.55149183802E+02  0.84433686182E+02  0.41800000000E+01 0.  1.
         -5    1    3    3    0  502 -0.50822857364E+01  0.73516045517E+02 -0.12833763873E+03  0.14804884495E+03  0.41800000000E+01 0.  1.
        -11    1    1    2    0    0 -0.72876244217E+02 -0.26722081721E+02 -0.49503387483E+01  0.77778676232E+02  0.00000000000E+00 0.  1.
         11    1    1    2    0    0  0.20869357737E+02 -0.18316448037E+02  0.23462052995E+02  0.36352307929E+02  0.00000000000E+00 0. -1.
</event>
<event>
 7    1  0.7017065E-006  0.1300718E+03  0.7561462E-02  0.1227349E+00
          1   -1    0    0  501    0  0.00000000000E+00  0.00000000000E+00  0.11876680577E+03  0.11876680577E+03  0.00000000000E+00 0. -1.
         -1   -1    0    0    0  501 -0.00000000000E+00 -0.00000000000E+00 -0.17347658094E+03  0.17347658094E+03  0.00000000000E+00 0.  1.
         23    2    1    2    0    0  0.80821537210E+02  0.45793375147E+02 -0.18900441014E+02  0.15695490297E+03  0.12509380804E+03 0.  0.
          5    1    3    3  502    0  0.51916903178E+02  0.75149202419E+02  0.26803315459E+02  0.95281989796E+02  0.41800000000E+01 0. -1.
         -5    1    3    3    0  502  0.28904634031E+02 -0.29355827272E+02 -0.45703756473E+02  0.61672913171E+02  0.41800000000E+01 0. -1.
        -11    1    1    2    0    0  0.61306101959E+01  0.18286430993E+02  0.48309358552E+01  0.19882552177E+02  0.00000000000E+00 0. -1.
         11    1    1    2    0    0 -0.86952147406E+02 -0.64079806140E+02 -0.40640270018E+02  0.11540593157E+03  0.00000000000E+00 0.  1.
</event>
<event>
 7    1  0.7017065E-006  0.1127444E+03  0.7561462E-02  0.1255570E+00
          1   -1    0    0  501    0  0.00000000000E+00  0.00000000000E+00  0.32141119283E+03  0.32141119283E+03  0.00000000000E+00 0. -1.
         -1   -1    0    0    0  501 -0.00000000000E+00 -0.00000000000E+00 -0.74116227231E+02  0.74116227231E+02  0.00000000000E+00 0.  1.
         23    2    1    2    0    0  0.69317754440E+02  0.33398176546E+02  0.33375838324E+02  0.15060235568E+03  0.12508690449E+03 0.  0.
          5    1    3    3  502    0 -0.22588098621E+02  0.47516674710E+02  0.20581922173E+02  0.56649311515E+02  0.41800000000E+01 0.  1.
         -5    1    3    3    0  502  0.91905853060E+02 -0.14118498163E+02  0.12793916150E+02  0.93953044164E+02  0.41800000000E+01 0.  1.
        -11    1    1    2    0    0 -0.49673942569E+02 -0.33630665612E+02  0.21691121924E+03  0.22505332540E+03  0.00000000000E+00 0. -1.
         11    1    1    2    0    0 -0.19643811870E+02  0.23248906580E+00 -0.29920919648E+01  0.19871738985E+02  0.00000000000E+00 0.  1.
</event>
<event>
 7    1  0.7017065E-006  0.8953894E+02  0.7561462E-02  0.1303972E+00
         -2   -1    0    0    0  501 -0.00000000000E+00  0.00000000000E+00  0.21422012455E+03  0.21422012455E+03  0.00000000000E+00 0.  1.
          2   -1    0    0  501    0  0.00000000000E+00 -0.00000000000E+00 -0.71290147834E+02  0.71290147834E+02  0.00000000000E+00 0. -1.
         23    2    1    2    0    0  0.56737156146E+02  0.12412026751E+02  0.85738852306E+02  0.16239567824E+03  0.12509213493E+03 0.  0.
          5    1    3    3  502    0  0.63928014569E+02 -0.39950211065E+01 -0.99493042218E+01  0.64955463934E+02  0.41800000000E+01 0.  1.
         -5    1    3    3    0  502 -0.71908584235E+01  0.16407047858E+02  0.95688156528E+02  0.97440214306E+02  0.41800000000E+01 0.  1.
        -11    1    1    2    0    0 -0.67437189624E+02  0.13217784478E+02  0.11545684844E+02  0.69683478740E+02  0.00000000000E+00 0. -1.
         11    1    1    2    0    0  0.10700033478E+02 -0.25629811229E+02  0.45645439565E+02  0.53431115402E+02  0.00000000000E+00 0.  1.
</event>
<event>
 7    1  0.7017065E-006  0.1066342E+03  0.7561462E-02  0.1266933E+00
          2   -1    0    0  501    0  0.00000000000E+00  0.00000000000E+00  0.29234416856E+02  0.29234416856E+02  0.00000000000E+00 0. -1.
         -2   -1    0    0    0  501 -0.00000000000E+00 -0.00000000000E+00 -0.84127886223E+03  0.84127886223E+03  0.00000000000E+00 0.  1.
         23    2    1    2    0    0  0.19092829894E+02  0.74057430528E+02 -0.66607729118E+03  0.68202354220E+03  0.12509242633E+03 0.  0.
          5    1    3    3  502    0 -0.35018290162E+02  0.21676785702E+02 -0.71011932852E+02  0.82196901959E+02  0.41800000000E+01 0.  1.
         -5    1    3    3    0  502  0.54111120056E+02  0.52380644826E+02 -0.59506535833E+03  0.59982664024E+03  0.41800000000E+01 0.  1.
        -11    1    1    2    0    0  0.20415981623E+02 -0.37095356120E+02 -0.12232597609E+03  0.12944698598E+03  0.00000000000E+00 0.  1.
         11    1    1    2    0    0 -0.39508811518E+02 -0.36962074408E+02 -0.23641178097E+02  0.59042750901E+02  0.00000000000E+00 0. -1.
</event>
<event>
 7    1  0.7017065E-006  0.1343045E+03  0.7561462E-02  0.1221205E+00
         -1   -1    0    0    0  501 -0.00000000000E+00  0.00000000000E+00  0.90914429485E+03  0.90914429485E+03  0.00000000000E+00 0.  1.
          1   -1    0    0  501    0  0.00000000000E+00 -0.00000000000E+00 -0.20820211191E+02  0.20820211191E+02  0.00000000000E+00 0. -1.
         23    2    1    2    0    0 -0.20129287582E+02 -0.82400843746E+02  0.57908891798E+03  0.59848639711E+03  0.12508759066E+03 0.  0.
          5    1    3    3  502    0  0.52926080267E+02 -0.34444498673E+02  0.22288714737E+03  0.23169753197E+03  0.41800000000E+01 0.  1.
         -5    1    3    3    0  502 -0.73055367849E+02 -0.47956345073E+02  0.35620177061E+03  0.36678886514E+03  0.41800000000E+01 0.  1.
        -11    1    1    2    0    0 -0.14229178337E+02 -0.11211724540E+02  0.69692422989E+02  0.72008375245E+02  0.00000000000E+00 0.  1.
         11    1    1    2    0    0  0.34358465919E+02  0.93612568286E+02  0.23954274269E+03  0.25946973368E+03  0.00000000000E+00 0. -1.
</event>
<event>
 7    1  0.7017065E-006  0.7578451E+02  0.7561462E-02  0.1341459E+00
         -2   -1    0    0    0  501 -0.00000000000E+00  0.00000000000E+00  0.16572936601E+03  0.16572936601E+03  0.00000000000E+00 0.  1.
          2   -1    0    0  501    0  0.00000000000E+00 -0.00000000000E+00 -0.12431649441E+03  0.12431649441E+03  0.00000000000E+00 0. -1.
         23    2    1    2    0    0 -0.36148412607E+02 -0.61597926228E+02  0.83118385050E+02  0.16630252974E+03  0.12508738232E+03 0.  0.
          5    1    3    3  502    0 -0.39374342048E+02 -0.51690092014E+02 -0.15593729466E+02  0.66954023201E+02  0.41800000000E+01 0. -1.
         -5    1    3    3    0  502  0.32259294409E+01 -0.99078342138E+01  0.98712114516E+02  0.99348506540E+02  0.41800000000E+01 0. -1.
        -11    1    1    2    0    0  0.20082810898E+02  0.53689605963E+02  0.19048969041E+02  0.60404936086E+02  0.00000000000E+00 0.  1.
         11    1    1    2    0    0  0.16065601709E+02  0.79083202653E+01 -0.60754482484E+02  0.63338394592E+02  0.00000000000E+00 0. -1.
</event>
<event>
 7    1  0.7017065E-006  0.7616657E+02  0.7561462E-02  0.1340296E+00
          1   -1    0    0  501    0  0.00000000000E+00  0.00000000000E+00  0.15113898024E+03  0.15113898024E+03  0.00000000000E+00 0. -1.
         -1   -1    0    0    0  501 -0.00000000000E+00 -0.00000000000E+00 -0.12618440826E+03  0.12618440826E+03  0.00000000000E+00 0.  1.
         23    2    1    2    0    0 -0.16553224681E+01  0.48405072728E+02 -0.56499949216E+02  0.14555190540E+03  0.12508925512E+03 0.  0.
          5    1    3    3  502    0 -0.15329179670E+02  0.26704230652E+02  0.37109902617E+02  0.48401621422E+02  0.41800000000E+01 0. -1.
         -5    1    3    3    0  502  0.13673857202E+02  0.21700842076E+02 -0.93609851833E+02  0.97150283982E+02  0.41800000000E+01 0. -1.
        -11    1    1    2    0    0 -0.12931900859E+02 -0.68906866515E+02  0.80276934500E+02  0.10658225239E+03  0.00000000000E+00 0. -1.
         11    1    1    2    0    0  0.14587223327E+02  0.20501793787E+02  0.11775866992E+01  0.25189230701E+02  0.00000000000E+00 0.  1.
</event>
<event>
 7    1  0.7017065E-006  0.2306969E+03  0.7561462E-02  0.1126150E+00
          2   -1    0    0  501    0  0.00000000000E+00  0.00000000000E+00  0.41045256009E+03  0.41045256009E+03  0.00000000000E+00 0. -1.
         -2   -1    0    0    0  501 -0.00000000000E+00 -0.00000000000E+00 -0.20481701384E+03  0.20481701384E+03  0.00000000000E+00 0.  1.
         23    2    1    2    0    0 -0.74149198497E+02  0.20013139775E+03 -0.68057449882E+02  0.25657650213E+03  0.12509598299E+03 0.  0.
          5    1    3    3  502    0  0.23315554794E+02  0.11622917521E+03 -0.36208912111E+02  0.12402174802E+03  0.41800000000E+01 0. -1.
         -5    1    3    3    0  502 -0.97464753292E+02  0.83902222538E+02 -0.31848537772E+02  0.13255475412E+03  0.41800000000E+01 0. -1.
        -11    1    1    2    0    0  0.26343550964E+02 -0.95530678409E+02  0.19682100887E+03  0.22036016593E+03  0.00000000000E+00 0. -1.
         11    1    1    2    0    0  0.47805647533E+02 -0.10460071934E+03  0.76871987251E+02  0.13833290587E+03  0.00000000000E+00 0.  1.
</event>
<event>
 7    1  0.7017065E-006  0.1286808E+03  0.7561462E-02  0.1229426E+00
          1   -1    0    0  501    0  0.00000000000E+00  0.00000000000E+00  0.13454344820E+03  0.13454344820E+03  0.00000000000E+00 0. -1.
         -1   -1    0    0    0  501 -0.00000000000E+00 -0.00000000000E+00 -0.17168714980E+03  0.17168714980E+03  0.00000000000E+00 0.  1.
         23    2    1    2    0    0 -0.52195160091E+02  0.58128601526E+02 -0.10089174712E+03  0.17173740775E+03  0.11494052172E+03 0.  0.
          5    1    3    3  502    0 -0.16896888617E+02 -0.35112507210E+02 -0.28280877435E+02  0.48328805448E+02  0.41800000000E+01 0. -1.
         -5    1    3    3    0  502 -0.35298271474E+02  0.93241108736E+02 -0.72610869682E+02  0.12340860231E+03  0.41800000000E+01 0.  1.
        -11    1    1    2    0    0 -0.16755250179E+02 -0.45236282898E+02  0.27709660207E+02  0.55631690319E+02  0.00000000000E+00 0.  1.
         11    1    1    2    0    0  0.68950410270E+02 -0.12892318627E+02  0.36038385305E+02  0.78861499931E+02  0.00000000000E+00 0. -1.
</event>
<event>
 7    1  0.7017065E-006  0.1555382E+03  0.7561462E-02  0.1193828E+00
          2   -1    0    0  501    0  0.00000000000E+00  0.00000000000E+00  0.51033682404E+03  0.51033682404E+03  0.00000000000E+00 0. -1.
         -2   -1    0    0    0  501 -0.00000000000E+00 -0.00000000000E+00 -0.70223964223E+02  0.70223964223E+02  0.00000000000E+00 0.  1.
         23    2    1    2    0    0 -0.13530758592E+03  0.14206414973E+02  0.12382404104E+03  0.22249497761E+03  0.12514654165E+03 0.  0.
          5    1    3    3  502    0 -0.22641736947E+02 -0.17572893401E+02 -0.21331162913E+02  0.35971457375E+02  0.41800000000E+01 0.  1.
         -5    1    3    3    0  502 -0.11266584897E+03  0.31779308374E+02  0.14515520395E+03  0.18652352023E+03  0.41800000000E+01 0.  1.
        -11    1    1    2    0    0  0.18960935470E+02  0.34085838449E+02  0.49405461873E+02  0.62946494101E+02  0.00000000000E+00 0.  1.
         11    1    1    2    0    0  0.11634665045E+03 -0.48292253422E+02  0.26688335690E+03  0.29511931655E+03  0.00000000000E+00 0. -1.
</event>
<event>
 7    1  0.7017065E-006  0.1354710E+03  0.7561462E-02  0.1219556E+00
          2   -1    0    0  501    0  0.00000000000E+00  0.00000000000E+00  0.13263993700E+03  0.13263993700E+03  0.00000000000E+00 0. -1.
         -2   -1    0    0    0  501 -0.00000000000E+00 -0.00000000000E+00 -0.54347386627E+03  0.54347386627E+03  0.00000000000E+00 0.  1.
         23    2    1    2    0    0 -0.24221058937E+01 -0.99527929523E+02 -0.49371933781E+03  0.51725912188E+03  0.11784116125E+03 0.  0.
          5    1    3    3  502    0  0.28051712743E+02 -0.11270186651E+03 -0.32250037444E+03  0.34280106945E+03  0.41800000000E+01 0. -1.
         -5    1    3    3    0  502 -0.30473818636E+02  0.13173936990E+02 -0.17121896337E+03  0.17445805243E+03  0.41800000000E+01 0.  1.
        -11    1    1    2    0    0 -0.16907572146E+02 -0.27906028068E+01  0.44824307487E+02  0.47988248578E+02  0.00000000000E+00 0.  1.
         11    1    1    2    0    0  0.19329678040E+02  0.10231853233E+03  0.38061101048E+02  0.11086643281E+03  0.00000000000E+00 0. -1.
</event>
<event>
 7    1  0.7017065E-006  0.1799914E+03  0.7561462E-02  0.1167811E+00
         -2   -1    0    0    0  501 -0.00000000000E+00  0.00000000000E+00  0.47564642800E+02  0.47564642800E+02  0.00000000000E+00 0.  1.
          2   -1    0    0  501    0  0.00000000000E+00 -0.00000000000E+00 -0.81065420882E+03  0.81065420882E+03  0.00000000000E+00 0. -1.
         23    2    1    2    0    0  0.13446741012E+03  0.91191586163E+02 -0.36922194315E+03  0.42233929128E+03  0.12509294100E+03 0.  0.
          5    1    3    3  502    0  0.12625369721E+03  0.10056652526E+03 -0.37476776354E+03  0.40807103678E+03  0.41800000000E+01 0. -1.
         -5    1    3    3    0  502  0.82137129090E+01 -0.93749391010E+01  0.55458203935E+01  0.14268254509E+02  0.41800000000E+01 0. -1.
        -11    1    1    2    0    0  0.39420569288E+01 -0.36237077291E+02 -0.58382555509E+02  0.68827235678E+02  0.00000000000E+00 0. -1.
         11    1    1    2    0    0 -0.13840946705E+03 -0.54954508872E+02 -0.33548506737E+03  0.36705232466E+03  0.00000000000E+00 0.  1.
</event>
<event>
 7    1  0.7017065E-006  0.1189141E+03  0.7561462E-02  0.1244899E+00
          1   -1    0    0  501    0  0.00000000000E+00  0.00000000000E+00  0.41141509950E+03  0.41141509950E+03  0.00000000000E+00 0. -1.
         -1   -1    0    0    0  501 -0.00000000000E+00 -0.00000000000E+00 -0.39591305546E+02  0.39591305546E+02  0.00000000000E+00 0.  1.
         23    2    1    2    0    0 -0.12489410357E+02  0.65387843805E+02  0.19884371447E+03  0.24416858028E+03  0.12509163571E+03 0.  0.
          5    1    3    3  502    0 -0.56057464991E+02  0.10384853118E+02  0.14425696405E+03  0.15517032137E+03  0.41800000000E+01 0. -1.
         -5    1    3    3    0  502  0.43568054634E+02  0.55002990686E+02  0.54586750417E+02  0.88998258916E+02  0.41800000000E+01 0. -1.
        -11    1    1    2    0    0 -0.93392931946E+00  0.21969449796E+02  0.56453498108E+02  0.60584869373E+02  0.00000000000E+00 0.  1.
         11    1    1    2    0    0  0.13423339676E+02 -0.87357293601E+02  0.11652658138E+03  0.14625295539E+03  0.00000000000E+00 0. -1.
</event>
<event>
 7    1  0.7017065E-006  0.2072305E+03  0.7561462E-02  0.1143778E+00
         -1   -1    0    0    0  501 -0.00000000000E+00  0.00000000000E+00  0.35117886289E+03  0.35117886289E+03  0.00000000000E+00 0.  1.
          1   -1    0    0  501    0  0.00000000000E+00 -0.00000000000E+00 -0.14384330163E+03  0.14384330163E+03  0.00000000000E+00 0. -1.
         23    2    1    2    0    0  0.16593720768E+03 -0.67075472457E+02  0.19689368530E+03  0.29402257503E+03  0.12509146820E+03 0.  0.
          5    1    3    3  502    0  0.16094742449E+03 -0.10743935459E+02  0.15228406916E+03  0.22187252133E+03  0.41800000000E+01 0.  1.
         -5    1    3    3    0  502  0.49897831858E+01 -0.56331536997E+02  0.44609616139E+02  0.72150053699E+02  0.41800000000E+01 0.  1.
        -11    1    1    2    0    0 -0.90652838883E+02  0.78909778183E+02 -0.13924885795E+02  0.12099005221E+03  0.00000000000E+00 0. -1.
         11    1    1    2    0    0 -0.75284368797E+02 -0.11834305726E+02  0.24366761753E+02  0.80009537278E+02  0.00000000000E+00 0.  1.
</event>
<event>
 7    1  0.7017065E-006  0.9205106E+02  0.7561462E-02  0.1297959E+00
          2   -1    0    0  501    0  0.00000000000E+00  0.00000000000E+00  0.54822228795E+02  0.54822228795E+02  0.00000000000E+00 0. -1.
         -2   -1    0    0    0  501 -0.00000000000E+00 -0.00000000000E+00 -0.23935779846E+03  0.23935779846E+03  0.00000000000E+00 0.  1.
         23    2    1    2    0    0  0.29546360667E+01  0.35325896149E+02 -0.95874240577E+02  0.16154182771E+03  0.12508894147E+03 0.  0.
          5    1    3    3  502    0  0.55116589556E+02  0.51147155949E+02 -0.57474541452E+02  0.94734710223E+02  0.41800000000E+01 0. -1.
         -5    1    3    3    0  502 -0.52161953489E+02 -0.15821259800E+02 -0.38399699125E+02  0.66807117483E+02  0.41800000000E+01 0. -1.
        -11    1    1    2    0    0  0.17943465656E+02 -0.78010633883E+01 -0.95436080837E+02  0.97421096664E+02  0.00000000000E+00 0.  1.
         11    1    1    2    0    0 -0.20898101723E+02 -0.27524832760E+02  0.67747517518E+01  0.35217102882E+02  0.00000000000E+00 0. -1.
</event>
<event>
 7    1  0.7017065E-006  0.9804915E+02  0.7561462E-02  0.1284453E+00
          3   -1    0    0  501    0  0.00000000000E+00  0.00000000000E+00  0.16430750144E+03  0.16430750144E+03  0.00000000000E+00 0. -1.
         -3   -1    0    0    0  501 -0.00000000000E+00 -0.00000000000E+00 -0.11800713767E+03  0.11800713767E+03  0.00000000000E+00 0.  1.
         23    2    1    2    0    0 -0.35286429661E+02 -0.60776341067E+02 -0.26339124329E+02  0.14588373902E+03  0.12509764222E+03 0.  0.
          5    1    3    3  502    0  0.77935918917E+01 -0.23186620077E+02 -0.69712501668E+02  0.73997734519E+02  0.41800000000E+01 0.  1.
         -5    1    3    3    0  502 -0.43080021552E+02 -0.37589720989E+02  0.43373377339E+02  0.71886004499E+02  0.41800000000E+01 0.  1.
        -11    1    1    2    0    0 -0.19709082490E+02 -0.11742518452E+02  0.24134670385E+02  0.33298903688E+02  0.00000000000E+00 0. -1.
         11    1    1    2    0    0  0.54995512151E+02  0.72518859519E+02  0.48504817713E+02  0.10313199641E+03  0.00000000000E+00 0.  1.
</event>
<event>
 6    1  0.7017065E-006  0.8816537E+02  0.7561462E-02  0.1307356E+00
          2   -1    0    0  501    0  0.00000000000E+00  0.00000000000E+00  0.43422520424E+03  0.43422520424E+03  0.00000000000E+00 0. -1.
         -2   -1    0    0    0  501 -0.00000000000E+00 -0.00000000000E+00 -0.10533100357E+03  0.10533100357E+03  0.00000000000E+00 0.  1.
          5    1    1    2  502    0 -0.17856185702E+02 -0.14984950828E+02  0.65246749641E+02  0.69411835143E+02  0.41800000000E+01 0. -1.
         -5    1    1    2    0  502  0.44738362442E+02  0.32543613896E+02 -0.88641725883E+02  0.10457263431E+03  0.41800000000E+01 0.  1.
        -11    1    1    2    0    0  0.27367320554E+02  0.17584612642E+02  0.10141905709E+03  0.10650828126E+03  0.00000000000E+00 0.  1.
         11    1    1    2    0    0 -0.54249497295E+02 -0.35143275710E+02  0.25087011982E+03  0.25906345710E+03  0.00000000000E+00 0. -1.
</event>
<event>
 7    1  0.7017065E-006  0.1266365E+03  0.7561462E-02  0.1232534E+00
          1   -1    0    0  501    0  0.00000000000E+00  0.00000000000E+00  0.31712284486E+03  0.31712284486E+03  0.00000000000E+00 0. -1.
         -1   -1    0    0    0  501 -0.00000000000E+00 -0.00000000000E+00 -0.74549428453E+02  0.74549428453E+02  0.00000000000E+00 0.  1.
         23    2    1    2    0    0  0.91540924620E+02  0.57092890769E+02  0.13253946730E+03  0.21178847153E+03  0.12509319416E+03 0.  0.
          5    1    3    3  502    0  0.86653057483E+02  0.43080475223E+02  0.20901644682E+02  0.99091023140E+02  0.41800000000E+01 0.  1.
         -5    1    3    3    0  502  0.48878671371E+01  0.14012415546E+02  0.11163782262E+03  0.11269744839E+03  0.41800000000E+01 0.  1.
        -11    1    1    2    0    0 -0.53330383148E+02  0.18372122086E+02  0.56163479311E+02  0.79599001532E+02  0.00000000000E+00 0. -1.
         11    1    1    2    0    0 -0.38210541472E+02 -0.75465012855E+02  0.53870469788E+02  0.10028480024E+03  0.00000000000E+00 0.  1.
</event>
<event>
 7    1  0.7017065E-006  0.6265402E+02  0.7561462E-02  0.1387020E+00
          2   -1    0    0  501    0  0.00000000000E+00  0.00000000000E+00  0.24453495077E+03  0.24453495077E+03  0.00000000000E+00 0. -1.
         -2   -1    0    0    0  501 -0.00000000000E+00 -0.00000000000E+00 -0.57497545775E+02  0.57497545775E+02  0.00000000000E+00 0.  1.
         23    2    1    2    0    0 -0.28076927887E+01  0.46281523605E+02  0.87446084883E+02  0.15951087461E+03  0.12508812411E+03 0.  0.
          5    1    3    3  502    0 -0.10911728975E+01  0.50520159598E+02  0.11794863574E+03  0.12838547526E+03  0.41800000000E+01 0.  1.
         -5    1    3    3    0  502 -0.17165198911E+01 -0.42386359929E+01 -0.30502550862E+02  0.31125399350E+02  0.41800000000E+01 0.  1.
        -11    1    1    2    0    0 -0.23668248755E+02 -0.25124206299E+02 -0.28358215476E+01  0.34633129012E+02  0.00000000000E+00 0.  1.
         11    1    1    2    0    0  0.26475941544E+02 -0.21157317306E+02  0.10242714166E+03  0.10788849292E+03  0.00000000000E+00 0. -1.
</event>
<event>
 7    1  0.7017065E-006  0.1793038E+03  0.7561462E-02  0.1168479E+00
          2   -1    0    0  501    0  0.00000000000E+00  0.00000000000E+00  0.12888642058E+04  0.12888642058E+04  0.00000000000E+00 0.  1.
         -2   -1    0    0    0  501 -0.00000000000E+00 -0.00000000000E+00 -0.35930128735E+02  0.35930128735E+02  0.00000000000E+00 0. -1.
         23    2    1    2    0    0  0.61825302963E+02  0.15653761017E+03  0.41091011701E+03  0.46132719153E+03  0.12509700994E+03 0.  0.
          5    1    3    3  502    0  0.63241150177E+02  0.76913097028E+02  0.10326299176E+03  0.14351231807E+03  0.41800000000E+01 0.  1.
         -5    1    3    3    0  502 -0.14158472143E+01  0.79624513144E+02  0.30764712525E+03  0.31781487346E+03  0.41800000000E+01 0.  1.
        -11    1    1    2    0    0  0.80461157683E+01 -0.57118960378E+02  0.14722081349E+03  0.15811794186E+03  0.00000000000E+00 0. -1.
         11    1    1    2    0    0 -0.69871418731E+02 -0.99418649794E+02  0.69480314660E+03  0.70534920118E+03  0.00000000000E+00 0.  1.
</event>
<event>
 7    1  0.7017065E-006  0.2351384E+03  0.7561462E-02  0.1123075E+00
          1   -1    0    0  501    0  0.00000000000E+00  0.00000000000E+00  0.10219202638E+04  0.10219202638E+04  0.00000000000E+00 0. -1.
         -1   -1    0    0    0  501 -0.00000000000E+00 -0.00000000000E+00 -0.64032161938E+02  0.64032161938E+02  0.00000000000E+00 0.  1.
         23    2    1    2    0    0 -0.20263995578E+02  0.22584325866E+03  0.58584236247E+03  0.64052670918E+03  0.12508950596E+03 0.  0.
          5    1    3    3  502    0 -0.11029778172E+02  0.18617576017E+02  0.21057390815E+03  0.21172414444E+03  0.41800000000E+01 0.  1.
         -5    1    3    3    0  502 -0.92342174058E+01  0.20722568265E+03  0.37526845432E+03  0.42880256474E+03  0.41800000000E+01 0.  1.
        -11    1    1    2    0    0 -0.31563225800E+02 -0.89483509508E+02  0.18791440637E+03  0.21051213699E+03  0.00000000000E+00 0. -1.
         11    1    1    2    0    0  0.51827221378E+02 -0.13635974916E+03  0.18413133298E+03  0.23491357954E+03  0.00000000000E+00 0.  1.
</event>
<event>
 7    1  0.7017065E-006  0.3115713E+03  0.7561462E-02  0.1079595E+00
         -2   -1    0    0    0  501 -0.00000000000E+00  0.00000000000E+00  0.10923422100E+03  0.10923422100E+03  0.00000000000E+00 0.  1.
          2   -1    0    0  501    0  0.00000000000E+00 -0.00000000000E+00 -0.94615359935E+03  0.94615359935E+03  0.00000000000E+00 0. -1.
         23    2    1    2    0    0 -0.29225655048E+03 -0.67519382115E+02 -0.38056972233E+03  0.50047140853E+03  0.12516213062E+03 0.  0.
          5    1    3    3  502    0 -0.24973256124E+03 -0.90747833280E+01 -0.32027311932E+03  0.40625244270E+03  0.41800000000E+01 0.  1.
         -5    1    3    3    0  502 -0.42523989241E+02 -0.58444598787E+02 -0.60296603010E+02  0.94218965835E+02  0.41800000000E+01 0.  1.
        -11    1    1    2    0    0  0.19296723459E+03  0.33482187797E+02 -0.37143949796E+03  0.41991036087E+03  0.00000000000E+00 0. -1.
         11    1    1    2    0    0  0.99289315894E+02  0.34037194318E+02 -0.84910158063E+02  0.13500605094E+03  0.00000000000E+00 0.  1.
</event>
<event>
 7    1  0.7017065E-006  0.1154573E+03  0.7561462E-02  0.1250785E+00
         -2   -1    0    0    0  501 -0.00000000000E+00  0.00000000000E+00  0.65747804467E+03  0.65747804467E+03  0.00000000000E+00 0.  1.
          2   -1    0    0  501    0  0.00000000000E+00 -0.00000000000E+00 -0.21329391603E+02  0.21329391603E+02  0.00000000000E+00 0. -1.
         23    2    1    2    0    0 -0.62563357605E+01 -0.42486057283E+02  0.42694757060E+03  0.44696239432E+03  0.12508775755E+03 0.  0.
          5    1    3    3  502    0  0.54185338507E+02  0.53142350382E+01  0.19585492114E+03  0.20332465305E+03  0.41800000000E+01 0.  1.
         -5    1    3    3    0  502 -0.60441674267E+02 -0.47800292321E+02  0.23109264946E+03  0.24363774127E+03  0.41800000000E+01 0.  1.
        -11    1    1    2    0    0  0.11946396745E+02  0.70014559628E+02  0.13595539758E+03  0.15339043349E+03  0.00000000000E+00 0.  1.
         11    1    1    2    0    0 -0.56900609843E+01 -0.27528502345E+02  0.73245684884E+02  0.78454608465E+02  0.00000000000E+00 0. -1.
</event>
<event>
 7    1  0.7017065E-006  0.1138043E+03  0.7561462E-02  0.1253683E+00
         -3   -1    0    0    0  501 -0.00000000000E+00  0.00000000000E+00  0.28975068729E+03  0.28975068729E+03  0.00000000000E+00 0.  1.
          3   -1    0    0  501    0  0.00000000000E+00 -0.00000000000E+00 -0.56938612023E+02  0.56938612023E+02  0.00000000000E+00 0. -1.
         23    2    1    2    0    0 -0.27135735279E+01 -0.81599195989E+02  0.15256280566E+03  0.21351125317E+03  0.12508338535E+03 0.  0.
          5    1    3    3  502    0  0.33248401488E+02 -0.52196913845E+00 -0.37662974896E+01  0.33725154559E+02  0.41800000000E+01 0. -1.
         -5    1    3    3    0  502 -0.35961975016E+02 -0.81077226851E+02  0.15632910315E+03  0.17978609861E+03  0.41800000000E+01 0. -1.
        -11    1    1    2    0    0 -0.25234976814E+02  0.78406217920E+01  0.28367524461E+02  0.38768490413E+02  0.00000000000E+00 0.  1.
         11    1    1    2    0    0  0.27948550342E+02  0.73758574197E+02  0.51881745138E+02  0.94409555726E+02  0.00000000000E+00 0. -1.
</event>
<event>
 7    1  0.7017065E-006  0.1404383E+03  0.7561462E-02  0.1212740E+00
          2   -1    0    0  501    0  0.00000000000E+00  0.00000000000E+00  0.40346918221E+03  0.40346918221E+03  0.00000000000E+00 0. -1.
         -2   -1    0    0    0  501 -0.00000000000E+00 -0.00000000000E+00 -0.55316669096E+02  0.55316669096E+02  0.00000000000E+00 0.  1.
         23    2    1    2    0    0 -0.77310597384E+02  0.46398091820E+02  0.11316581125E+03  0.19126869223E+03  0.12508996922E+03 0.  0.
          5    1    3    3  502    0 -0.11383089832E+02  0.78616150893E+02  0.47111178201E+02  0.92450037462E+02  0.41800000000E+01 0. -1.
         -5    1    3    3    0  502 -0.65927507552E+02 -0.32218059072E+02  0.66054633050E+02  0.98818654767E+02  0.41800000000E+01 0. -1.
        -11    1    1    2    0    0  0.77123773353E+02 -0.70045566721E+02  0.18959972130E+03  0.21633888266E+03  0.00000000000E+00 0.  1.
         11    1    1    2    0    0  0.18682403108E+00  0.23647474901E+02  0.45386980557E+02  0.51178276412E+02  0.00000000000E+00 0. -1.
</event>
<event>
 7    1  0.7017065E-006  0.1420991E+03  0.7561462E-02  0.1210532E+00
         -2   -1    0    0    0  501 -0.00000000000E+00  0.00000000000E+00  0.88894627419E+02  0.88894627419E+02  0.00000000000E+00 0.  1.
          2   -1    0    0  501    0  0.00000000000E+00 -0.00000000000E+00 -0.28342282823E+03  0.28342282823E+03  0.00000000000E+00 0. -1.
         23    2    1    2    0    0 -0.76059627485E+02 -0.80940123762E+02 -0.67264029248E+02  0.18030026460E+03  0.12508942888E+03 0.  0.
          5    1    3    3  502    0  0.17278897733E+02 -0.41664678569E+00 -0.53277189500E+02  0.56166406529E+02  0.41800000000E+01 0.  1.
         -5    1    3    3    0  502 -0.93338525218E+02 -0.80523476976E+02 -0.13986839749E+02  0.12413385807E+03  0.41800000000E+01 0.  1.
        -11    1    1    2    0    0  0.13228427758E+02  0.79116744894E+02 -0.61793388944E+02  0.10125647407E+03  0.00000000000E+00 0.  1.
         11    1    1    2    0    0  0.62831199727E+02  0.18233788681E+01 -0.65470782621E+02  0.90760716979E+02  0.00000000000E+00 0. -1.
</event>
<event>
 7    1  0.7017065E-006  0.1432522E+03  0.7561462E-02  0.1209019E+00
          2   -1    0    0  501    0  0.00000000000E+00  0.00000000000E+00  0.83369234361E+03  0.83369234361E+03  0.00000000000E+00 0.  1.
         -2   -1    0    0    0  501 -0.00000000000E+00 -0.00000000000E+00 -0.29299544441E+02  0.29299544441E+02  0.00000000000E+00 0. -1.
         23    2    1    2    0    0 -0.55407809424E+02  0.86083717345E+02  0.30960899390E+03  0.34926154745E+03  0.12508184396E+03 0.  0.
          5    1    3    3  502    0  0.37598778813E+02  0.42462574182E+02  0.85392709779E+02  0.10259690862E+03  0.41800000000E+01 0.  1.
         -5    1    3    3    0  502 -0.93006588237E+02  0.43621143163E+02  0.22421628412E+03  0.24666463884E+03  0.41800000000E+01 0.  1.
        -11    1    1    2    0    0 -0.10265082963E+02 -0.51666709104E+02  0.11119277058E+03  0.12303923353E+03  0.00000000000E+00 0. -1.
         11    1    1    2    0    0  0.65672892386E+02 -0.34417008241E+02  0.38359103469E+03  0.39069110707E+03  0.00000000000E+00 0.  1.
</event>
<event>
 7    1  0.7017065E-006  0.1096554E+03  0.7561462E-02  0.1261209E+00
         -1   -1    0    0    0  501 -0.00000000000E+00  0.00000000000E+00  0.41752434346E+02  0.41752434346E+02  0.00000000000E+00 0.  1.
          1   -1    0    0  501    0  0.00000000000E+00 -0.00000000000E+00 -0.53079378538E+03  0.53079378538E+03  0.00000000000E+00 0. -1.
         23    2    1    2    0    0  0.22778772858E+02  0.19075877057E+02 -0.77739417946E+02  0.15022801813E+03  0.12506909591E+03 0.  0.
          5    1    3    3  502    0 -0.41288258486E+02  0.43163091299E+02 -0.39196001561E+02  0.71565156869E+02  0.41800000000E+01 0.  1.
         -5    1    3    3    0  502  0.64067031345E+02 -0.24087214242E+02 -0.38543416385E+02  0.78662861262E+02  0.41800000000E+01 0.  1.
        -11    1    1    2    0    0 -0.25141128077E+02  0.31458999111E+02 -0.11793178420E+03  0.12461801904E+03  0.00000000000E+00 0. -1.
         11    1    1    2    0    0  0.23623552190E+01 -0.50534876168E+02 -0.29337014889E+03  0.29770018255E+03  0.00000000000E+00 0.  1.
</event>
<event>
 7    1  0.7017065E-006  0.1129509E+03  0.7561462E-02  0.1255201E+00
          2   -1    0    0  501    0  0.00000000000E+00  0.00000000000E+00  0.77643376425E+03  0.77643376425E+03  0.00000000000E+00 0.  1.
         -2   -1    0    0    0  501 -0.00000000000E+00 -0.00000000000E+00 -0.21557192309E+02  0.21557192309E+02  0.00000000000E+00 0. -1.
         23    2    1    2    0    0 -0.85618591580E+02 -0.19122876054E+02  0.43262865618E+03  0.45881533912E+03  0.12509090156E+03 0.  0.
          5    1    3    3  502    0 -0.88827662671E+01 -0.51385531335E+02  0.28063391818E+03  0.28546846551E+03  0.41800000000E+01 0. -1.
         -5    1    3    3    0  502 -0.76735825313E+02  0.32262655281E+02  0.15199473800E+03  0.17334687362E+03  0.41800000000E+01 0. -1.
        -11    1    1    2    0    0  0.65745070728E+02  0.23628154389E+02  0.30366268232E+03  0.31159545670E+03  0.00000000000E+00 0.  1.
         11    1    1    2    0    0  0.19873520852E+02 -0.45052783346E+01  0.18585233441E+02  0.27580160732E+02  0.00000000000E+00 0. -1.
</event>
<event>
 7    1  0.7017065E-006  0.1041250E+03  0.7561462E-02  0.1271853E+00
         -4   -1    0    0    0  501 -0.00000000000E+00  0.00000000000E+00  0.93679049437E+02  0.93679049437E+02  0.00000000000E+00 0.  1.
          4   -1    0    0  501    0  0.00000000000E+00 -0.00000000000E+00 -0.21727564460E+03  0.21727564460E+03  0.00000000000E+00 0. -1.
         23    2    1    2    0    0  0.15723867000E+02  0.60441118925E+02 -0.50742622734E+02  0.14873719436E+03  0.12509024892E+03 0.  0.
          5    1    3    3  502    0 -0.42049553321E+02 -0.13984846630E+02 -0.24664594282E+02  0.50887675137E+02  0.41800000000E+01 0.  1.
         -5    1    3    3    0  502  0.57773420321E+02  0.74425965555E+02 -0.26078028452E+02  0.97849519223E+02  0.41800000000E+01 0.  1.
        -11    1    1    2    0    0  0.91569840176E+01 -0.19014418857E+02 -0.10308041202E+03  0.10521867621E+03  0.00000000000E+00 0. -1.
         11    1    1    2    0    0 -0.24880851018E+02 -0.41426700068E+02  0.30226439594E+02  0.56998823465E+02  0.00000000000E+00 0.  1.
</event>
<event>
 7    1  0.7017065E-006  0.1425511E+03  0.7561462E-02  0.1209937E+00
         -2   -1    0    0    0  501 -0.00000000000E+00  0.00000000000E+00  0.69997588111E+02  0.69997588111E+02  0.00000000000E+00 0.  1.
          2   -1    0    0  501    0  0.00000000000E+00 -0.00000000000E+00 -0.36981297449E+03  0.36981297449E+03  0.00000000000E+00 0. -1.
         23    2    1    2    0    0 -0.91944988197E+02  0.66750558888E+02 -0.11321871601E+03  0.20340930490E+03  0.12508936684E+03 0.  0.
          5    1    3    3  502    0  0.24743401018E+02  0.32637585146E+02 -0.54588884985E+02  0.68372996293E+02  0.41800000000E+01 0. -1.
         -5    1    3    3    0  502 -0.11668838922E+03  0.34112973742E+02 -0.58629831029E+02  0.13503630861E+03  0.41800000000E+01 0. -1.
        -11    1    1    2    0    0  0.41106721600E+02 -0.36677350543E+01 -0.10535832350E+02  0.42593645118E+02  0.00000000000E+00 0.  1.
         11    1    1    2    0    0  0.50838266597E+02 -0.63082823834E+02 -0.17606083801E+03  0.19380761258E+03  0.00000000000E+00 0. -1.
</event>
<event>
 7    1  0.7017065E-006  0.1048323E+03  0.7561462E-02  0.1270450E+00
         -1   -1    0    0    0  501 -0.00000000000E+00  0.00000000000E+00  0.65711701629E+02  0.65711701629E+02  0.00000000000E+00 0.  1.
          1   -1    0    0  501    0  0.00000000000E+00 -0.00000000000E+00 -0.20767401509E+03  0.20767401509E+03  0.00000000000E+00 0. -1.
         23    2    1    2    0    0  0.32104537527E+02 -0.10789016632E+02 -0.50652189857E+02  0.13914035607E+03  0.12508912878E+03 0.  0.
          5    1    3    3  502    0  0.70878127023E+02  0.88405837919E+01 -0.61280678405E+02  0.94205407265E+02  0.41800000000E+01 0. -1.
         -5    1    3    3    0  502 -0.38773589496E+02 -0.19629600424E+02  0.10628488548E+02  0.44934948804E+02  0.41800000000E+01 0. -1.
        -11    1    1    2    0    0 -0.52765369941E+02 -0.20793767914E+02 -0.72585228976E+02  0.92115039568E+02  0.00000000000E+00 0. -1.
         11    1    1    2    0    0  0.20660832414E+02  0.31582784546E+02 -0.18724894628E+02  0.42130321082E+02  0.00000000000E+00 0.  1.
</event>
<event>
 7    1  0.7017065E-006  0.7946387E+02  0.7561462E-02  0.1330580E+00
         -3   -1    0    0    0  501 -0.00000000000E+00  0.00000000000E+00  0.48120887253E+03  0.48120887253E+03  0.00000000000E+00 0.  1.
          3   -1    0    0  501    0  0.00000000000E+00 -0.00000000000E+00 -0.32049216899E+02  0.32049216899E+02  0.00000000000E+00 0. -1.
         23    2    1    2    0    0  0.53254258743E+02  0.24705438794E+02  0.22663111268E+03  0.26543508574E+03  0.12509096182E+03 0.  0.
          5    1    3    3  502    0  0.25206391703E+02  0.25940678245E+02  0.23342590509E+03  0.23624861172E+03  0.41800000000E+01 0. -1.
         -5    1    3    3    0  502  0.28047867041E+02 -0.12352394515E+01 -0.67947924153E+01  0.29186474025E+02  0.41800000000E+01 0. -1.
        -11    1    1    2    0    0 -0.44589962764E+02  0.19802144723E+02  0.51730374297E+02  0.71108518054E+02  0.00000000000E+00 0. -1.
         11    1    1    2    0    0 -0.86642959791E+01 -0.44507583517E+02  0.17079816865E+03  0.17671448563E+03  0.00000000000E+00 0.  1.
</event>
<event>
 7    1  0.7017065E-006  0.1130864E+03  0.7561462E-02  0.1254959E+00
         -2   -1    0    0    0  501 -0.00000000000E+00  0.00000000000E+00  0.12205799851E+03  0.12205799851E+03  0.00000000000E+00 0.  1.
          2   -1    0    0  501    0  0.00000000000E+00 -0.00000000000E+00 -0.13572911213E+03  0.13572911213E+03  0.00000000000E+00 0. -1.
         23    2    1    2    0    0  0.17439777121E+01 -0.35046857019E+02  0.50338868046E+02  0.13931321729E+03  0.12507136855E+03 0.  0.
          5    1    3    3  502    0 -0.59785358904E+02 -0.10433199224E+02  0.38140580724E+02  0.71800536790E+02  0.41800000000E+01 0.  1.
         -5    1    3    3    0  502  0.61529336616E+02 -0.24613657795E+02  0.12198287322E+02  0.67512680498E+02  0.41800000000E+01 0.  1.
        -11    1    1    2    0    0 -0.39014972379E+02 -0.10191705253E+02 -0.19025440892E+02  0.44587064568E+02  0.00000000000E+00 0. -1.
         11    1    1    2    0    0  0.37270994667E+02  0.45238562272E+02 -0.44984540767E+02  0.73886828785E+02  0.00000000000E+00 0.  1.
</event>
<event>
 7    1  0.7017065E-006  0.9280235E+02  0.7561462E-02  0.1296204E+00
         -2   -1    0    0    0  501 -0.00000000000E+00  0.00000000000E+00  0.62186167028E+02  0.62186167028E+02  0.00000000000E+00 0.  1.
          2   -1    0    0  501    0  0.00000000000E+00 -0.00000000000E+00 -0.22708027240E+03  0.22708027240E+03  0.00000000000E+00 0. -1.
         23    2    1    2    0    0 -0.11804502333E+02  0.46501225867E+02 -0.93955694090E+02  0.16363692080E+03  0.12509060363E+03 0.  0.
          5    1    3    3  502    0  0.44719360817E+01  0.60321636916E+02 -0.11710339490E+03  0.13186878171E+03  0.41800000000E+01 0.  1.
         -5    1    3    3    0  502 -0.16276438415E+02 -0.13820411050E+02  0.23147700807E+02  0.31768139097E+02  0.41800000000E+01 0.  1.
        -11    1    1    2    0    0  0.50238583142E+02 -0.40038930197E+02 -0.49862884984E+02  0.81322435197E+02  0.00000000000E+00 0.  1.
         11    1    1    2    0    0 -0.38434080809E+02 -0.64622956693E+01 -0.21075526296E+02  0.44307083425E+02  0.00000000000E+00 0. -1.
</event>
<event>
 7    1  0.7017065E-006  0.1073428E+03  0.7561462E-02  0.1265571E+00
         -2   -1    0    0    0  501 -0.00000000000E+00  0.00000000000E+00  0.10361801722E+03  0.10361801722E+03  0.00000000000E+00 0. -1.
          2   -1    0    0  501    0  0.00000000000E+00 -0.00000000000E+00 -0.16436391834E+03  0.16436391834E+03  0.00000000000E+00 0.  1.
         23    2    1    2    0    0 -0.91293627946E+01  0.71738192750E+02 -0.37254595549E+02  0.14921430898E+03  0.12508913442E+03 0.  0.
          5    1    3    3  502    0  0.45906772554E+02  0.60756607654E+02  0.84299875660E+01  0.76728966045E+02  0.41800000000E+01 0. -1.
         -5    1    3    3    0  502 -0.55036135349E+02  0.10981585095E+02 -0.45684583115E+02  0.72485342930E+02  0.41800000000E+01 0. -1.
        -11    1    1    2    0    0  0.21605755552E+02 -0.21881836813E+02 -0.51690460220E+02  0.60145882095E+02  0.00000000000E+00 0.  1.
         11    1    1    2    0    0 -0.12476392757E+02 -0.49856355936E+02  0.28199154648E+02  0.58621744484E+02  0.00000000000E+00 0. -1.
</event>
<event>
 7    1  0.7017065E-006  0.1391501E+03  0.7561462E-02  0.1214477E+00
          1   -1    0    0  501    0  0.00000000000E+00  0.00000000000E+00  0.99777153211E+03  0.99777153211E+03  0.00000000000E+00 0. -1.
         -1   -1    0    0    0  501 -0.00000000000E+00 -0.00000000000E+00 -0.30568192579E+02  0.30568192579E+02  0.00000000000E+00 0.  1.
         23    2    1    2    0    0 -0.10344426385E+03 -0.71245837904E+02  0.35829169174E+03  0.39974785013E+03  0.12509485271E+03 0.  0.
          5    1    3    3  502    0 -0.81860838346E+02 -0.60139481574E+02  0.10828087121E+03  0.14852667629E+03  0.41800000000E+01 0. -1.
         -5    1    3    3    0  502 -0.21583425505E+02 -0.11106356330E+02  0.25001082053E+03  0.25122117384E+03  0.41800000000E+01 0. -1.
        -11    1    1    2    0    0  0.69569993693E+02 -0.37956295627E+01  0.35132555293E+03  0.35816760737E+03  0.00000000000E+00 0. -1.
         11    1    1    2    0    0  0.33874270158E+02  0.75041467466E+02  0.25758609487E+03  0.27042426719E+03  0.00000000000E+00 0.  1.
</event>
<event>
 7    1  0.7017065E-006  0.1750094E+03  0.7561462E-02  0.1172722E+00
         -1   -1    0    0    0  501 -0.00000000000E+00  0.00000000000E+00  0.48184527827E+02  0.48184527827E+02  0.00000000000E+00 0.  1.
          1   -1    0    0  501    0  0.00000000000E+00 -0.00000000000E+00 -0.75401612761E+03  0.75401612761E+03  0.00000000000E+00 0. -1.
         23    2    1    2    0    0 -0.14210753653E+03  0.26394379621E+02 -0.24559145414E+03  0.31119598296E+03  0.12504624044E+03 0.  0.
          5    1    3    3  502    0  0.17465819222E+02  0.14993166694E+02 -0.79832831175E+01  0.24719528676E+02  0.41800000000E+01 0.  1.
         -5    1    3    3    0  502 -0.15957335576E+03  0.11401212927E+02 -0.23760817102E+03  0.28647645429E+03  0.41800000000E+01 0.  1.
        -11    1    1    2    0    0  0.11056431841E+03  0.18112324462E+02 -0.25285626570E+03  0.27656611490E+03  0.00000000000E+00 0.  1.
         11    1    1    2    0    0  0.31543218121E+02 -0.44506704083E+02 -0.20738387994E+03  0.21443855758E+03  0.00000000000E+00 0. -1.
</event>
<event>
 7    1  0.7017065E-006  0.1039530E+03  0.7561462E-02  0.1272196E+00
          2   -1    0    0  501    0  0.00000000000E+00  0.00000000000E+00  0.32196542637E+03  0.32196542637E+03  0.00000000000E+00 0. -1.
         -2   -1    0    0    0  501 -0.00000000000E+00 -0.00000000000E+00 -0.64350266672E+02  0.64350266672E+02  0.00000000000E+00 0.  1.
         23    2    1    2    0    0  0.45398926060E+02  0.74968317874E+02  0.12820374076E+03  0.19941403237E+03  0.12509374880E+03 0.  0.
          5    1    3    3  502    0 -0.14623542023E+02  0.54443365834E+02  0.23942223306E+00  0.56528380374E+02  0.41800000000E+01 0.  1.
         -5    1    3    3    0  502  0.60022468083E+02  0.20524952040E+02  0.12796431853E+03  0.14288565200E+03  0.41800000000E+01 0.  1.
        -11    1    1    2    0    0 -0.10724320165E+02 -0.22349872102E+02 -0.15254154064E+02  0.29106993012E+02  0.00000000000E+00 0.  1.
         11    1    1    2    0    0 -0.34674605895E+02 -0.52618445772E+02  0.14466557301E+03  0.15779466766E+03  0.00000000000E+00 0. -1.
</event>
<event>
 7    1  0.7017065E-006  0.8246878E+02  0.7561462E-02  0.1322188E+00
          1   -1    0    0  501    0  0.00000000000E+00  0.00000000000E+00  0.39706361683E+03  0.39706361683E+03  0.00000000000E+00 0. -1.
         -1   -1    0    0    0  501 -0.00000000000E+00 -0.00000000000E+00 -0.28499190218E+02  0.28499190218E+02  0.00000000000E+00 0.  1.
         23    2    1    2    0    0  0.12115654399E+02 -0.35467090590E+01  0.17863964899E+03  0.21844437326E+03  0.12508577773E+03 0.  0.
          5    1    3    3  502    0 -0.30122221714E+02 -0.24818981382E+02  0.16419103229E+03  0.16881794207E+03  0.41800000000E+01 0.  1.
         -5    1    3    3    0  502  0.42237876114E+02  0.21272272323E+02  0.14448616697E+02  0.49626431192E+02  0.41800000000E+01 0.  1.
        -11    1    1    2    0    0 -0.38890347467E+02  0.22936044977E+02  0.75076339282E+02  0.87606951809E+02  0.00000000000E+00 0.  1.
         11    1    1    2    0    0  0.26774693068E+02 -0.19389335918E+02  0.11484843834E+03  0.11951148198E+03  0.00000000000E+00 0. -1.
</event>
<event>
 7    1  0.7017065E-006  0.1186145E+03  0.7561462E-02  0.1245400E+00
         -2   -1    0    0    0  501 -0.00000000000E+00  0.00000000000E+00  0.79124689177E+02  0.79124689177E+02  0.00000000000E+00 0.  1.
          2   -1    0    0  501    0  0.00000000000E+00 -0.00000000000E+00 -0.31833735503E+03  0.31833735503E+03  0.00000000000E+00 0. -1.
         23    2    1    2    0    0 -0.31336641183E+02 -0.97684282573E+02 -0.61609496553E+02  0.17311495895E+03  0.12509538282E+03 0.  0.
          5    1    3    3  502    0 -0.21992069684E+02 -0.30169422844E+02 -0.91244161104E+02  0.98675298526E+02  0.41800000000E+01 0. -1.
         -5    1    3    3    0  502 -0.93445714993E+01 -0.67514859729E+02  0.29634664551E+02  0.74439660422E+02  0.41800000000E+01 0. -1.
        -11    1    1    2    0    0  0.59591179278E+02  0.65876093533E+02 -0.14766429732E+03  0.17232386094E+03  0.00000000000E+00 0. -1.
         11    1    1    2    0    0 -0.28254538095E+02  0.31808189040E+02 -0.29938871984E+02  0.52023224320E+02  0.00000000000E+00 0.  1.
</event>
<event>
 7    1  0.7017065E-006  0.1678330E+03  0.7561462E-02  0.1180127E+00
         -2   -1    0    0    0  501 -0.00000000000E+00  0.00000000000E+00  0.55693824380E+02  0.55693824380E+02  0.00000000000E+00 0.  1.
          2   -1    0    0  501    0  0.00000000000E+00 -0.00000000000E+00 -0.58637168668E+03  0.58637168668E+03  0.00000000000E+00 0. -1.
         23    2    1    2    0    0  0.97859475237E+02  0.90937303353E+02 -0.18304893435E+03  0.25884401778E+03  0.12508894091E+03 0.  0.
          5    1    3    3  502    0  0.10654962832E+03  0.11222469027E+03 -0.13495037357E+03  0.20536864446E+03  0.41800000000E+01 0. -1.
         -5    1    3    3    0  502 -0.86901530849E+01 -0.21287386915E+02 -0.48098560784E+02  0.53475373321E+02  0.41800000000E+01 0. -1.
        -11    1    1    2    0    0 -0.89057185681E+02 -0.27156466273E+02 -0.16338226599E+03  0.18804898517E+03  0.00000000000E+00 0.  1.
         11    1    1    2    0    0 -0.88022895562E+01 -0.63780837080E+02 -0.18424666196E+03  0.19517250811E+03  0.00000000000E+00 0. -1.
</event>
<event>
 7    1  0.7017065E-006  0.1586445E+03  0.7561462E-02  0.1190236E+00
         -2   -1    0    0    0  501 -0.00000000000E+00  0.00000000000E+00  0.26616206193E+02  0.26616206193E+02  0.00000000000E+00 0. -1.
          2   -1    0    0  501    0  0.00000000000E+00 -0.00000000000E+00 -0.10906176595E+04  0.10906176595E+04  0.00000000000E+00 0.  1.
         23    2    1    2    0    0 -0.84579856421E+02  0.10019524405E+03 -0.56514830805E+03  0.59349234593E+03  0.12509082918E+03 0.  0.
          5    1    3    3  502    0 -0.15429120211E+02  0.90238250496E+02 -0.17946029791E+03  0.20150550993E+03  0.41800000000E+01 0.  1.
         -5    1    3    3    0  502 -0.69150736210E+02  0.99569935581E+01 -0.38568801014E+03  0.39198683601E+03  0.41800000000E+01 0.  1.
        -11    1    1    2    0    0 -0.13236103945E+02 -0.36764809950E+02 -0.18133632190E+03  0.18549853730E+03  0.00000000000E+00 0.  1.
         11    1    1    2    0    0  0.97815960366E+02 -0.63430434104E+02 -0.31751682334E+03  0.33824298245E+03  0.00000000000E+00 0. -1.
</event>
<event>
 7    1  0.7017065E-006  0.7866374E+02  0.7561462E-02  0.1332887E+00
         -2   -1    0    0    0  501 -0.00000000000E+00  0.00000000000E+00  0.21891606526E+02  0.21891606526E+02  0.00000000000E+00 0.  1.
          2   -1    0    0  501    0  0.00000000000E+00 -0.00000000000E+00 -0.78576686302E+03  0.78576686302E+03  0.00000000000E+00 0. -1.
         23    2    1    2    0    0 -0.14894001982E+02  0.47203021320E+02 -0.25822361838E+03  0.29165165319E+03  0.12621922675E+03 0.  0.
          5    1    3    3  502    0 -0.19702837720E+02  0.41631247302E+02 -0.27177077603E+03  0.27567769164E+03  0.41800000000E+01 0. -1.
         -5    1    3    3    0  502  0.48088357374E+01  0.55717740187E+01  0.13547157653E+02  0.15973961542E+02  0.41800000000E+01 0.  1.
        -11    1    1    2    0    0 -0.32832633546E+02 -0.43838916664E+02 -0.25220915474E+03  0.25808775673E+03  0.00000000000E+00 0. -1.
         11    1    1    2    0    0  0.47726635529E+02 -0.33641046562E+01 -0.25344248338E+03  0.25791905963E+03  0.00000000000E+00 0.  1.
</event>
<event>
 7    1  0.7017065E-006  0.1235048E+03  0.7561462E-02  0.1237425E+00
          1   -1    0    0  501    0  0.00000000000E+00  0.00000000000E+00  0.10321859126E+03  0.10321859126E+03  0.00000000000E+00 0. -1.
         -1   -1    0    0    0  501 -0.00000000000E+00 -0.00000000000E+00 -0.22399698522E+03  0.22399698522E+03  0.00000000000E+00 0.  1.
         23    2    1    2    0    0 -0.79431830626E+02  0.47180090672E+02 -0.12170475231E+03  0.19746957101E+03  0.12508720186E+03 0.  0.
          5    1    3    3  502    0 -0.91617207047E+02  0.15319496621E+02 -0.27154125074E+02  0.96867014573E+02  0.41800000000E+01 0.  1.
         -5    1    3    3    0  502  0.12185376420E+02  0.31860594051E+02 -0.94550627237E+02  0.10060255644E+03  0.41800000000E+01 0.  1.
        -11    1    1    2    0    0  0.44954335448E+02  0.15973659558E+02 -0.24248800626E+02  0.53516860960E+02  0.00000000000E+00 0.  1.
         11    1    1    2    0    0  0.34477495179E+02 -0.63153750230E+02  0.25175158986E+02  0.76229144505E+02  0.00000000000E+00 0. -1.
</event>
<event>
 7    1  0.7017065E-006  0.7634930E+02  0.7561462E-02  0.1339743E+00
         -3   -1    0    0    0  501 -0.00000000000E+00  0.00000000000E+00  0.94696565410E+02  0.94696565410E+02  0.00000000000E+00 0. -1.
          3   -1    0    0  501    0  0.00000000000E+00 -0.00000000000E+00 -0.14336834987E+03  0.14336834987E+03  0.00000000000E+00 0.  1.
         23    2    1    2    0    0  0.11757176931E+02 -0.40077110561E+02 -0.12741999166E+02  0.13249234262E+03  0.12508979299E+03 0.  0.
          5    1    3    3  502    0 -0.27556320582E+02 -0.88989444695E+00  0.44583998668E+02  0.52586576741E+02  0.41800000000E+01 0.  1.
         -5    1    3    3    0  502  0.39313497512E+02 -0.39187216114E+02 -0.57325997834E+02  0.79905765882E+02  0.41800000000E+01 0.  1.
        -11    1    1    2    0    0 -0.21838029711E+02 -0.54578532603E+01 -0.51662135906E+02  0.56353030000E+02  0.00000000000E+00 0.  1.
         11    1    1    2    0    0  0.10080852780E+02  0.45534963822E+02  0.15732350616E+02  0.49219542653E+02  0.00000000000E+00 0. -1.
</event>
<event>
 7    1  0.7017065E-006  0.1098440E+03  0.7561462E-02  0.1260859E+00
         -3   -1    0    0    0  501 -0.00000000000E+00  0.00000000000E+00  0.10941603967E+03  0.10941603967E+03  0.00000000000E+00 0.  1.
          3   -1    0    0  501    0  0.00000000000E+00 -0.00000000000E+00 -0.24560767024E+03  0.24560767024E+03  0.00000000000E+00 0. -1.
         23    2    1    2    0    0 -0.85562780653E+02  0.10169919509E+02  0.22669476756E+02  0.15357875962E+03  0.12509241997E+03 0.  0.
          5    1    3    3  502    0 -0.34369194357E+02  0.24617233224E+02  0.70244808410E+02  0.82091748677E+02  0.41800000000E+01 0.  1.
         -5    1    3    3    0  502 -0.51193586297E+02 -0.14447313715E+02 -0.47575331654E+02  0.71487010942E+02  0.41800000000E+01 0.  1.
        -11    1    1    2    0    0  0.75448206534E+02  0.30915640183E+02 -0.10624938274E+03  0.13392960841E+03  0.00000000000E+00 0.  1.
         11    1    1    2    0    0  0.10114574120E+02 -0.41085559692E+02 -0.52611724587E+02  0.67515341877E+02  0.00000000000E+00 0. -1.
</event>
<event>
 7    1  0.7017065E-006  0.2226638E+03  0.7561462E-02  0.1131913E+00
          2   -1    0    0  501    0  0.00000000000E+00  0.00000000000E+00  0.14649465811E+04  0.14649465811E+04  0.00000000000E+00 0.  1.
         -2   -1    0    0    0  501 -0.00000000000E+00 -0.00000000000E+00 -0.38292399616E+02  0.38292399616E+02  0.00000000000E+00 0. -1.
         23    2    1    2    0    0  0.15359322802E+03  0.14149716744E+03  0.69615703270E+03  0.73749234517E+03  0.12509203380E+03 0.  0.
          5    1    3    3  502    0  0.14314306606E+03  0.15212188374E+03  0.68982679060E+03  0.72077005924E+03  0.41800000000E+01 0.  1.
         -5    1    3    3    0  502  0.10450161965E+02 -0.10624716303E+02  0.63302421035E+01  0.16722285929E+02  0.41800000000E+01 0.  1.
        -11    1    1    2    0    0 -0.41729926178E+02 -0.15392526719E+01  0.23878550023E+03  0.24240930501E+03  0.00000000000E+00 0.  1.
         11    1    1    2    0    0 -0.11186330184E+03 -0.13995791477E+03  0.49171164855E+03  0.52333733053E+03  0.00000000000E+00 0. -1.
</event>
<event>
 7    1  0.7017065E-006  0.1265335E+03  0.7561462E-02  0.1232692E+00
          1   -1    0    0  501    0  0.00000000000E+00  0.00000000000E+00  0.79522233493E+03  0.79522233493E+03  0.00000000000E+00 0. -1.
         -1   -1    0    0    0  501 -0.00000000000E+00 -0.00000000000E+00 -0.25262382666E+02  0.25262382666E+02  0.00000000000E+00 0.  1.
         23    2    1    2    0    0 -0.20617771095E+02  0.86943663903E+02  0.36824728636E+03  0.39904300197E+03  0.12507981583E+03 0.  0.
          5    1    3    3  502    0  0.29410689657E+02 -0.10885731006E+02  0.30886819220E+02  0.44214882192E+02  0.41800000000E+01 0.  1.
         -5    1    3    3    0  502 -0.50028460752E+02  0.97829394910E+02  0.33736046714E+03  0.35482811977E+03  0.41800000000E+01 0.  1.
        -11    1    1    2    0    0 -0.20750034093E+02 -0.56262087573E+02  0.31442162786E+03  0.32008896651E+03  0.00000000000E+00 0.  1.
         11    1    1    2    0    0  0.41367805188E+02 -0.30681576331E+02  0.87291038040E+02  0.10135274912E+03  0.00000000000E+00 0. -1.
</event>
<event>
 7    1  0.7017065E-006  0.7623901E+02  0.7561462E-02  0.1340077E+00
         -1   -1    0    0    0  501 -0.00000000000E+00  0.00000000000E+00  0.21290625126E+03  0.21290625126E+03  0.00000000000E+00 0.  1.
          1   -1    0    0  501    0  0.00000000000E+00 -0.00000000000E+00 -0.81835232834E+02  0.81835232834E+02  0.00000000000E+00 0. -1.
         23    2    1    2    0    0 -0.71159610434E+02 -0.10733135357E+02  0.94191267752E+02  0.17233387703E+03  0.12509228553E+03 0.  0.
          5    1    3    3  502    0 -0.42671080789E+01  0.77026020193E+01  0.10192743509E+03  0.10239244461E+03  0.41800000000E+01 0. -1.
         -5    1    3    3    0  502 -0.66892502356E+02 -0.18435737377E+02 -0.77361673334E+01  0.69941432420E+02  0.41800000000E+01 0. -1.
        -11    1    1    2    0    0  0.51073561327E+02  0.13786569307E+02  0.67438206239E+02  0.85711666771E+02  0.00000000000E+00 0.  1.
         11    1    1    2    0    0  0.20086049107E+02 -0.30534339491E+01 -0.30558455566E+02  0.36695940296E+02  0.00000000000E+00 0. -1.
</event>
<event>
 7    1  0.7017065E-006  0.1506765E+03  0.7561462E-02  0.1199644E+00
         -1   -1    0    0    0  501 -0.00000000000E+00  0.00000000000E+00  0.23926382549E+02  0.23926382549E+02  0.00000000000E+00 0.  1.
          1   -1    0    0  501    0  0.00000000000E+00 -0.00000000000E+00 -0.12189101606E+04  0.12189101606E+04  0.00000000000E+00 0. -1.
         23    2    1    2    0    0  0.11884522221E+03 -0.28708839678E+02 -0.46344901447E+03  0.49535905148E+03  0.12508883466E+03 0.  0.
          5    1    3    3  502    0  0.11960562547E+03 -0.42762567424E+00 -0.44617756957E+03  0.46194976404E+03  0.41800000000E+01 0.  1.
         -5    1    3    3    0  502 -0.76040325638E+00 -0.28281214004E+02 -0.17271444894E+02  0.33409287442E+02  0.41800000000E+01 0.  1.
        -11    1    1    2    0    0 -0.11289919301E+03 -0.10529155535E+02 -0.51484361663E+03  0.52718217012E+03  0.00000000000E+00 0.  1.
         11    1    1    2    0    0 -0.59460292019E+01  0.39237995213E+02 -0.21669114698E+03  0.22029532158E+03  0.00000000000E+00 0. -1.
</event>
<event>
 7    1  0.7017065E-006  0.1636451E+03  0.7561462E-02  0.1184642E+00
         -4   -1    0    0    0  501 -0.00000000000E+00  0.00000000000E+00  0.63967630987E+03  0.63967630987E+03  0.00000000000E+00 0. -1.
          4   -1    0    0  501    0  0.00000000000E+00 -0.00000000000E+00 -0.63975863613E+02  0.63975863613E+02  0.00000000000E+00 0.  1.
         23    2    1    2    0    0  0.59480001398E+02 -0.11356061925E+03  0.49597463976E+03  0.52732522825E+03  0.12508864156E+03 0.  0.
          5    1    3    3  502    0  0.95580580696E+02 -0.58303624296E+02  0.28516432347E+03  0.30638394833E+03  0.41800000000E+01 0. -1.
         -5    1    3    3    0  502 -0.36100579298E+02 -0.55256994954E+02  0.21081031630E+03  0.22094127992E+03  0.41800000000E+01 0. -1.
        -11    1    1    2    0    0 -0.43275813787E+02  0.10158982169E+02 -0.49720905795E+00  0.44455013153E+02  0.00000000000E+00 0.  1.
         11    1    1    2    0    0 -0.16204187611E+02  0.10340163708E+03  0.80223015555E+02  0.13187193209E+03  0.00000000000E+00 0. -1.
</event>
<event>
 7    1  0.7017065E-006  0.9947796E+02  0.7561462E-02  0.1281398E+00
         -2   -1    0    0    0  501 -0.00000000000E+00  0.00000000000E+00  0.34595759630E+03  0.34595759630E+03  0.00000000000E+00 0.  1.
          2   -1    0    0  501    0  0.00000000000E+00 -0.00000000000E+00 -0.31927518612E+02  0.31927518612E+02  0.00000000000E+00 0. -1.
         23    2    1    2    0    0 -0.15787837777E+02 -0.68679473183E+00  0.15935097492E+03  0.20319914640E+03  0.12508969735E+03 0.  0.
          5    1    3    3  502    0 -0.22766217701E+02  0.56924100938E+02  0.11370717029E+03  0.12924955284E+03  0.41800000000E+01 0. -1.
         -5    1    3    3    0  502  0.69783799240E+01 -0.57610895670E+02  0.45643804633E+02  0.73949593560E+02  0.41800000000E+01 0. -1.
        -11    1    1    2    0    0 -0.20864032140E+02  0.27059769411E+02  0.85496378986E+02  0.92071547057E+02  0.00000000000E+00 0. -1.
         11    1    1    2    0    0  0.36651869917E+02 -0.26372974679E+02  0.69182723785E+02  0.82614421454E+02  0.00000000000E+00 0.  1.
</event>
<event>
 7    1  0.7017065E-006  0.6997006E+02  0.7561462E-02  0.1360195E+00
         -2   -1    0    0    0  501 -0.00000000000E+00  0.00000000000E+00  0.54581790503E+03  0.54581790503E+03  0.00000000000E+00 0.  1.
          2   -1    0    0  501    0  0.00000000000E+00 -0.00000000000E+00 -0.10343844765E+02  0.10343844765E+02  0.00000000000E+00 0. -1.
         23    2    1    2    0    0 -0.14983942977E+02  0.25876814250E+02  0.46398651663E+03  0.47826172896E+03  0.11205652911E+03 0.  0.
          5    1    3    3  502    0 -0.59394756067E+02  0.24452094583E+02  0.18857928737E+03  0.19926179263E+03  0.41800000000E+01 0. -1.
         -5    1    3    3    0  502  0.44410813090E+02  0.14247196672E+01  0.27540722926E+03  0.27899993633E+03  0.41800000000E+01 0.  1.
        -11    1    1    2    0    0  0.26401361452E+01 -0.12357485269E+02  0.28357700811E+02  0.31045723640E+02  0.00000000000E+00 0.  1.
         11    1    1    2    0    0  0.12343806832E+02 -0.13519328981E+02  0.43129842826E+02  0.46854297192E+02  0.00000000000E+00 0. -1.
</event>
<event>
 7    1  0.7017065E-006  0.1020197E+03  0.7561462E-02  0.1276105E+00
         -3   -1    0    0    0  501 -0.00000000000E+00  0.00000000000E+00  0.58343186733E+02  0.58343186733E+02  0.00000000000E+00 0.  1.
          3   -1    0    0  501    0  0.00000000000E+00 -0.00000000000E+00 -0.22634678700E+03  0.22634678700E+03  0.00000000000E+00 0. -1.
         23    2    1    2    0    0 -0.21089301001E+02 -0.24623582851E+02 -0.96514629358E+02  0.16128691866E+03  0.12508923616E+03 0.  0.
          5    1    3    3  502    0 -0.56829374353E+02  0.13058094744E+02 -0.91981511911E+02  0.10898698345E+03  0.41800000000E+01 0. -1.
         -5    1    3    3    0  502  0.35740073352E+02 -0.37681677595E+02 -0.45331174472E+01  0.52299935214E+02  0.41800000000E+01 0. -1.
        -11    1    1    2    0    0 -0.28564219873E+02  0.32426639166E+02 -0.10686575515E+02  0.44515216284E+02  0.00000000000E+00 0.  1.
         11    1    1    2    0    0  0.49653520874E+02 -0.78030563158E+01 -0.60802395399E+02  0.78887838792E+02  0.00000000000E+00 0. -1.
</event>
<event>
 7    1  0.7017065E-006  0.1182340E+03  0.7561462E-02  0.1246039E+00
         -1   -1    0    0    0  501 -0.00000000000E+00  0.00000000000E+00  0.15656859812E+03  0.15656859812E+03  0.00000000000E+00 0.  1.
          1   -1    0    0  501    0  0.00000000000E+00 -0.00000000000E+00 -0.22690004448E+03  0.22690004448E+03  0.00000000000E+00 0. -1.
         23    2    1    2    0    0 -0.78157690048E+02 -0.20994319646E+01  0.97643209823E+02  0.17691995065E+03  0.12511370983E+03 0.  0.
          5    1    3    3  502    0 -0.22624287846E+02 -0.49277368407E+02 -0.77719556838E+00  0.54389280843E+02  0.41800000000E+01 0. -1.
         -5    1    3    3    0  502 -0.55533402202E+02  0.47177936442E+02  0.98420405391E+02  0.12253066981E+03  0.41800000000E+01 0. -1.
        -11    1    1    2    0    0  0.41600761054E+02 -0.36924699608E+02 -0.12868961128E+03  0.14019655065E+03  0.00000000000E+00 0. -1.
         11    1    1    2    0    0  0.36556928995E+02  0.39024131573E+02 -0.39285044891E+02  0.66352141297E+02  0.00000000000E+00 0.  1.
</event>
<event>
 7    1  0.7017065E-006  0.2143221E+03  0.7561462E-02  0.1138188E+00
          1   -1    0    0  501    0  0.00000000000E+00  0.00000000000E+00  0.11951894898E+04  0.11951894898E+04  0.00000000000E+00 0. -1.
         -1   -1    0    0    0  501 -0.00000000000E+00 -0.00000000000E+00 -0.42159269046E+02  0.42159269046E+02  0.00000000000E+00 0.  1.
         23    2    1    2    0    0 -0.17702765730E+02 -0.18595768360E+03  0.43768931668E+03  0.49204943699E+03  0.12508821888E+03 0.  0.
          5    1    3    3  502    0 -0.23009947637E+02 -0.20132514148E+03  0.36550175824E+03  0.41793573424E+03  0.41800000000E+01 0. -1.
         -5    1    3    3    0  502  0.53071819065E+01  0.15367457877E+02  0.72187558441E+02  0.74113702748E+02  0.41800000000E+01 0. -1.
        -11    1    1    2    0    0 -0.34873823480E+02  0.11923452179E+03  0.42189674789E+03  0.43980668552E+03  0.00000000000E+00 0. -1.
         11    1    1    2    0    0  0.52576589210E+02  0.66723161804E+02  0.29344415619E+03  0.30549263633E+03  0.00000000000E+00 0.  1.
</event>
<event>
 7    1  0.7017065E-006  0.2594917E+03  0.7561462E-02  0.1107449E+00
          1   -1    0    0  501    0  0.00000000000E+00  0.00000000000E+00  0.27816721576E+03  0.27816721576E+03  0.00000000000E+00 0. -1.
         -1   -1    0    0    0  501 -0.00000000000E+00 -0.00000000000E+00 -0.31591274751E+03  0.31591274751E+03  0.00000000000E+00 0.  1.
         23    2    1    2    0    0  0.26392990823E+02 -0.23530985010E+03 -0.16017445052E+03  0.31204295431E+03  0.12509050809E+03 0.  0.
          5    1    3    3  502    0 -0.18873509396E+02  0.53113507942E+01 -0.11909217009E+01  0.20082591931E+02  0.41800000000E+01 0. -1.
         -5    1    3    3    0  502  0.45266500218E+02 -0.24062120090E+03 -0.15898352882E+03  0.29196036238E+03  0.41800000000E+01 0. -1.
        -11    1    1    2    0    0 -0.48725898379E+02  0.59820817325E+02  0.38827009157E+02  0.86372912411E+02  0.00000000000E+00 0.  1.
         11    1    1    2    0    0  0.22332907556E+02  0.17548903278E+03  0.83601909619E+02  0.19566409655E+03  0.00000000000E+00 0. -1.
</event>
<event>
 7    1  0.7017065E-006  0.9821400E+02  0.7561462E-02  0.1284097E+00
         -1   -1    0    0    0  501 -0.00000000000E+00  0.00000000000E+00  0.29430051429E+03  0.29430051429E+03  0.00000000000E+00 0.  1.
          1   -1    0    0  501    0  0.00000000000E+00 -0.00000000000E+00 -0.61746452573E+02  0.61746452573E+02  0.00000000000E+00 0. -1.
         23    2    1    2    0    0 -0.56072086056E+02  0.60790218799E+02  0.12098946746E+03  0.19266873015E+03  0.12507301391E+03 0.  0.
          5    1    3    3  502    0  0.15589872692E+02  0.11597050297E+02  0.10158277352E+03  0.10350878215E+03  0.41800000000E+01 0. -1.
         -5    1    3    3    0  502 -0.71661958748E+02  0.49193168502E+02  0.19406693939E+02  0.89159948006E+02  0.41800000000E+01 0. -1.
        -11    1    1    2    0    0  0.15367156884E+02  0.11530385563E+01  0.82233837606E+02  0.83665303776E+02  0.00000000000E+00 0.  1.
         11    1    1    2    0    0  0.40704929171E+02 -0.61943257355E+02  0.29330756652E+02  0.79712932930E+02  0.00000000000E+00 0. -1.
</event>
<event>
 7    1  0.7017065E-006  0.6273034E+02  0.7561462E-02  0.1386718E+00
          1   -1    0    0  501    0  0.00000000000E+00  0.00000000000E+00  0.23389809908E+03  0.23389809908E+03  0.00000000000E+00 0.  1.
         -1   -1    0    0    0  501 -0.00000000000E+00 -0.00000000000E+00 -0.51834232493E+02  0.51834232493E+02  0.00000000000E+00 0. -1.
         23    2    1    2    0    0  0.23980285641E+02  0.12801562238E+01  0.10532508123E+03  0.16527965991E+03  0.12508916957E+03 0.  0.
          5    1    3    3  502    0  0.19560261089E+02  0.22346959383E+02  0.12933316003E+03  0.13276493924E+03  0.41800000000E+01 0. -1.
         -5    1    3    3    0  502  0.44200245516E+01 -0.21066803160E+02 -0.24008078802E+02  0.32514720669E+02  0.41800000000E+01 0. -1.
        -11    1    1    2    0    0 -0.48452647404E+02 -0.53002389474E+01  0.81724719110E+02  0.95156089069E+02  0.00000000000E+00 0.  1.
         11    1    1    2    0    0  0.24472361764E+02  0.40200827235E+01 -0.49859337563E+01  0.25296582592E+02  0.00000000000E+00 0. -1.
</event>
<event>
 7    1  0.7017065E-006  0.1087966E+03  0.7561462E-02  0.1262815E+00
         -2   -1    0    0    0  501 -0.00000000000E+00  0.00000000000E+00  0.35748776764E+03  0.35748776764E+03  0.00000000000E+00 0.  1.
          2   -1    0    0  501    0  0.00000000000E+00 -0.00000000000E+00 -0.99945486043E+02  0.99945486043E+02  0.00000000000E+00 0. -1.
         23    2    1    2    0    0 -0.33578806337E+02 -0.77140172917E+02  0.29173100308E+03  0.32837875643E+03  0.12508991569E+03 0.  0.
          5    1    3    3  502    0  0.22104764893E+01  0.31235271745E+01 -0.11403906704E+02  0.12734367532E+02  0.41800000000E+01 0.  1.
         -5    1    3    3    0  502 -0.35789282826E+02 -0.80263700092E+02  0.30313490978E+03  0.31564438890E+03  0.41800000000E+01 0.  1.
        -11    1    1    2    0    0  0.61225850777E+02  0.74115037518E+02 -0.31262090906E+02  0.10108888128E+03  0.00000000000E+00 0. -1.
         11    1    1    2    0    0 -0.27647044440E+02  0.30251353993E+01 -0.29266305716E+01  0.27965615976E+02  0.00000000000E+00 0.  1.
</event>
<event>
 7    1  0.7017065E-006  0.5527188E+02  0.7561462E-02  0.1418818E+00
          1   -1    0    0  501    0  0.00000000000E+00  0.00000000000E+00  0.66328977231E+02  0.66328977231E+02  0.00000000000E+00 0. -1.
         -1   -1    0    0    0  501 -0.00000000000E+00 -0.00000000000E+00 -0.11631907021E+03  0.11631907021E+03  0.00000000000E+00 0.  1.
         23    2    1    2    0    0  0.50913257773E+01 -0.32424306795E+02 -0.50487905018E+02  0.12828940582E+03  0.11327791410E+03 0.  0.
          5    1    3    3  502    0  0.70922701331E+01  0.14545045129E+02  0.30369745044E+02  0.34664858971E+02  0.41800000000E+01 0. -1.
         -5    1    3    3    0  502 -0.20009443559E+01 -0.46969351924E+02 -0.80857650063E+02  0.93624546846E+02  0.41800000000E+01 0.  1.
        -11    1    1    2    0    0  0.13580162881E+02  0.20112224237E+02 -0.13699572996E+02  0.27867556189E+02  0.00000000000E+00 0. -1.
         11    1    1    2    0    0 -0.18671488658E+02  0.12312082558E+02  0.14197385037E+02  0.26491085435E+02  0.00000000000E+00 0.  1.
</event>
<event>
 7    1  0.7017065E-006  0.5869179E+02  0.7561462E-02  0.1403405E+00
          1   -1    0    0  501    0  0.00000000000E+00  0.00000000000E+00  0.22203943159E+03  0.22203943159E+03  0.00000000000E+00 0. -1.
         -1   -1    0    0    0  501 -0.00000000000E+00 -0.00000000000E+00 -0.85617902553E+02  0.85617902553E+02  0.00000000000E+00 0.  1.
         23    2    1    2    0    0 -0.17729095396E+02  0.21870038607E+02 -0.20260936857E+02  0.12305039353E+03  0.11806046914E+03 0.  0.
          5    1    3    3  502    0 -0.40760305286E+02  0.12324476758E+02  0.39456462930E+02  0.58202921587E+02  0.41800000000E+01 0. -1.
         -5    1    3    3    0  502  0.23031209890E+02  0.95455618492E+01 -0.59717399787E+02  0.64847471943E+02  0.41800000000E+01 0.  1.
        -11    1    1    2    0    0  0.21872186170E+02  0.47454835874E+01 -0.30779204154E+01  0.22591718315E+02  0.00000000000E+00 0.  1.
         11    1    1    2    0    0 -0.41430907738E+01 -0.26615522195E+02  0.15976038631E+03  0.16201522230E+03  0.00000000000E+00 0. -1.
</event>
<event>
 7    1  0.7017065E-006  0.1100887E+03  0.7561462E-02  0.1260406E+00
         -2   -1    0    0    0  501 -0.00000000000E+00  0.00000000000E+00  0.13493646176E+03  0.13493646176E+03  0.00000000000E+00 0.  1.
          2   -1    0    0  501    0  0.00000000000E+00 -0.00000000000E+00 -0.13510919714E+03  0.13510919714E+03  0.00000000000E+00 0. -1.
         23    2    1    2    0    0 -0.31302365112E+02  0.53686940420E+02  0.50887962264E+02  0.14865528082E+03  0.12508669865E+03 0.  0.
          5    1    3    3  502    0 -0.64573323837E+02 -0.31282675112E+01 -0.89004087900E+00  0.64790159606E+02  0.41800000000E+01 0. -1.
         -5    1    3    3    0  502  0.33270958726E+02  0.56815207931E+02  0.51778003143E+02  0.83865121214E+02  0.41800000000E+01 0. -1.
        -11    1    1    2    0    0  0.23313061861E+02 -0.68626929759E+02 -0.66577767114E+02  0.98416225366E+02  0.00000000000E+00 0. -1.
         11    1    1    2    0    0  0.79893032504E+01  0.14939989339E+02  0.15517069476E+02  0.22974152716E+02  0.00000000000E+00 0.  1.
</event>
<event>
 7    1  0.7017065E-006  0.1357819E+03  0.7561462E-02  0.1219120E+00
          2   -1    0    0  501    0  0.00000000000E+00  0.00000000000E+00  0.36113868670E+03  0.36113868670E+03  0.00000000000E+00 0. -1.
         -2   -1    0    0    0  501 -0.00000000000E+00 -0.00000000000E+00 -0.74566689794E+02  0.74566689794E+02  0.00000000000E+00 0.  1.
         23    2    1    2    0    0 -0.50752043055E+02  0.89371690094E+02  0.58113319509E+02  0.17201153508E+03  0.12509093265E+03 0.  0.
          5    1    3    3  502    0 -0.88856264080E+02  0.35502623745E+02  0.34995880775E+02  0.10197085873E+03  0.41800000000E+01 0.  1.
         -5    1    3    3    0  502  0.38104221026E+02  0.53869066349E+02  0.23117438734E+02  0.70040676345E+02  0.41800000000E+01 0.  1.
        -11    1    1    2    0    0  0.19645592880E+02 -0.70726206710E+02  0.71037963019E+02  0.10214958554E+03  0.00000000000E+00 0.  1.
         11    1    1    2    0    0  0.31106450175E+02 -0.18645483385E+02  0.15742071438E+03  0.16154425588E+03  0.00000000000E+00 0. -1.
</event>
<event>
 7    1  0.7017065E-006  0.1097808E+03  0.7561462E-02  0.1260976E+00
          2   -1    0    0  501    0  0.00000000000E+00  0.00000000000E+00  0.12104287299E+03  0.12104287299E+03  0.00000000000E+00 0. -1.
         -2   -1    0    0    0  501 -0.00000000000E+00 -0.00000000000E+00 -0.14759163049E+03  0.14759163049E+03  0.00000000000E+00 0.  1.
         23    2    1    2    0    0 -0.62750945601E+02  0.72910312094E+01 -0.60420299040E+02  0.15260271282E+03  0.12508451189E+03 0.  0.
          5    1    3    3  502    0  0.21807430383E+01 -0.44659682345E+02 -0.52317238405E+02  0.68947869450E+02  0.41800000000E+01 0. -1.
         -5    1    3    3    0  502 -0.64931688639E+02  0.51950713555E+02 -0.81030606347E+01  0.83654843375E+02  0.41800000000E+01 0. -1.
        -11    1    1    2    0    0 -0.42345076967E+01 -0.22339552938E+02 -0.18797367164E+02  0.29501316805E+02  0.00000000000E+00 0.  1.
         11    1    1    2    0    0  0.66985453298E+02  0.15048521729E+02  0.52668908712E+02  0.86530473850E+02  0.00000000000E+00 0. -1.
</event>
<event>
 7    1  0.7017065E-006  0.9105900E+02  0.7561462E-02  0.1300307E+00
          1   -1    0    0  501    0  0.00000000000E+00  0.00000000000E+00  0.42805234249E+02  0.42805234249E+02  0.00000000000E+00 0. -1.
         -1   -1    0    0    0  501 -0.00000000000E+00 -0.00000000000E+00 -0.37764834659E+03  0.37764834659E+03  0.00000000000E+00 0.  1.
         23    2    1    2    0    0  0.26070825051E+02 -0.60624576819E+02 -0.20653696067E+03  0.24958413846E+03  0.12361107886E+03 0.  0.
          5    1    3    3  502    0 -0.88986060480E+00 -0.21573268555E+02  0.12588333782E+02  0.25340408747E+02  0.41800000000E+01 0. -1.
         -5    1    3    3    0  502  0.26960685656E+02 -0.39051308264E+02 -0.21912529445E+03  0.22424372972E+03  0.41800000000E+01 0.  1.
        -11    1    1    2    0    0 -0.30642755878E+01 -0.24304902067E+02 -0.33783070928E+02  0.41730251984E+02  0.00000000000E+00 0.  1.
         11    1    1    2    0    0 -0.23006549463E+02  0.84929478886E+02 -0.94523080744E+02  0.12913919039E+03  0.00000000000E+00 0. -1.
</event>
<event>
 7    1  0.7017065E-006  0.2269384E+03  0.7561462E-02  0.1128813E+00
         -1   -1    0    0    0  501 -0.00000000000E+00  0.00000000000E+00  0.23205646306E+03  0.23205646306E+03  0.00000000000E+00 0.  1.
          1   -1    0    0  501    0  0.00000000000E+00 -0.00000000000E+00 -0.26670173451E+03  0.26670173451E+03  0.00000000000E+00 0. -1.
         23    2    1    2    0    0  0.13235837637E+03 -0.17912601642E+03  0.67028840631E+01  0.25553040263E+03  0.12508392566E+03 0.  0.
          5    1    3    3  502    0  0.92854428277E+02 -0.15891344052E+03  0.52686358330E+02  0.19149086449E+03  0.41800000000E+01 0. -1.
         -5    1    3    3    0  502  0.39503948096E+02 -0.20212575903E+02 -0.45983474267E+02  0.64039538142E+02  0.41800000000E+01 0. -1.
        -11    1    1    2    0    0 -0.54844509743E+02  0.48004071164E+02 -0.53515814258E+02  0.90422638056E+02  0.00000000000E+00 0.  1.
         11    1    1    2    0    0 -0.77513866630E+02  0.13112194526E+03  0.12167658745E+02  0.15280515688E+03  0.00000000000E+00 0. -1.
</event>
<event>
 7    1  0.7017065E-006  0.1147893E+03  0.7561462E-02  0.1251949E+00
         -2   -1    0    0    0  501 -0.00000000000E+00  0.00000000000E+00  0.50296002301E+02  0.50296002301E+02  0.00000000000E+00 0. -1.
          2   -1    0    0  501    0  0.00000000000E+00 -0.00000000000E+00 -0.29616413309E+03  0.29616413309E+03  0.00000000000E+00 0.  1.
         23    2    1    2    0    0 -0.15758730954E+02 -0.42624846927E+02 -0.93606123332E+02  0.16271038968E+03  0.12508936569E+03 0.  0.
          5    1    3    3  502    0 -0.54179753972E+02 -0.63104716785E+02 -0.83270452858E+02  0.11776710806E+03  0.41800000000E+01 0.  1.
         -5    1    3    3    0  502  0.38421023019E+02  0.20479869858E+02 -0.10335670473E+02  0.44943281626E+02  0.41800000000E+01 0.  1.
        -11    1    1    2    0    0 -0.38265718345E+02  0.10386470934E+02 -0.52158610726E+02  0.65518429864E+02  0.00000000000E+00 0.  1.
         11    1    1    2    0    0  0.54024449298E+02  0.32238375992E+02 -0.10010339673E+03  0.11823131584E+03  0.00000000000E+00 0. -1.
</event>
<event>
 7    1  0.7017065E-006  0.1025372E+03  0.7561462E-02  0.1275049E+00
         -1   -1    0    0    0  501 -0.00000000000E+00  0.00000000000E+00  0.13131572919E+03  0.13131572919E+03  0.00000000000E+00 0.  1.
          1   -1    0    0  501    0  0.00000000000E+00 -0.00000000000E+00 -0.13421750597E+03  0.13421750597E+03  0.00000000000E+00 0. -1.
         23    2    1    2    0    0 -0.17330714170E+01 -0.49019127020E+02  0.54138914070E+02  0.14485407808E+03  0.12508318660E+03 0.  0.
          5    1    3    3  502    0 -0.30020624092E+02 -0.60810405467E+02 -0.14582382482E+02  0.69492888577E+02  0.41800000000E+01 0. -1.
         -5    1    3    3    0  502  0.28287552675E+02  0.11791278447E+02  0.68721296552E+02  0.75361189504E+02  0.41800000000E+01 0. -1.
        -11    1    1    2    0    0 -0.38287855687E+02  0.53649089516E+02 -0.38484683966E+02  0.76323362078E+02  0.00000000000E+00 0. -1.
         11    1    1    2    0    0  0.40020927104E+02 -0.46299624958E+01 -0.18556006886E+02  0.44355795005E+02  0.00000000000E+00 0.  1.
</event>
<event>
 7    1  0.7017065E-006  0.1027392E+03  0.7561462E-02  0.1274639E+00
          2   -1    0    0  501    0  0.00000000000E+00  0.00000000000E+00  0.37417946266E+02  0.37417946266E+02  0.00000000000E+00 0. -1.
         -2   -1    0    0    0  501 -0.00000000000E+00 -0.00000000000E+00 -0.40503847718E+03  0.40503847718E+03  0.00000000000E+00 0.  1.
         23    2    1    2    0    0 -0.15414818567E+02  0.28584468061E+02 -0.29383047473E+03  0.32099843805E+03  0.12509580688E+03 0.  0.
          5    1    3    3  502    0 -0.49667102812E+02 -0.20501921922E+02 -0.21657091414E+03  0.22317612586E+03  0.41800000000E+01 0.  1.
         -5    1    3    3    0  502  0.34252284246E+02  0.49086389983E+02 -0.77259560597E+02  0.97822312185E+02  0.41800000000E+01 0.  1.
        -11    1    1    2    0    0 -0.22932246335E+02 -0.44501909069E+02 -0.59012319841E+02  0.77387090175E+02  0.00000000000E+00 0.  1.
         11    1    1    2    0    0  0.38347064902E+02  0.15917441008E+02 -0.14777736344E+02  0.44070895230E+02  0.00000000000E+00 0. -1.
</event>
<event>
 7    1  0.7017065E-006  0.9335512E+02  0.7561462E-02  0.1294924E+00
         -1   -1    0    0    0  501 -0.00000000000E+00  0.00000000000E+00  0.14718965292E+03  0.14718965292E+03  0.00000000000E+00 0.  1.
          1   -1    0    0  501    0  0.00000000000E+00 -0.00000000000E+00 -0.10797144470E+03  0.10797144470E+03  0.00000000000E+00 0. -1.
         23    2    1    2    0    0  0.37313891782E+01 -0.45945815418E+02  0.14984498788E+02  0.13415284381E+03  0.12509000391E+03 0.  0.
          5    1    3    3  502    0 -0.24039231204E+02 -0.37985135662E+02  0.63272412464E+02  0.77727895553E+02  0.41800000000E+01 0. -1.
         -5    1    3    3    0  502  0.27770620382E+02 -0.79606797563E+01 -0.48287913676E+02  0.56424948257E+02  0.41800000000E+01 0. -1.
        -11    1    1    2    0    0 -0.31090183719E+02 -0.22687720284E+02  0.27092700859E+02  0.47067468757E+02  0.00000000000E+00 0.  1.
         11    1    1    2    0    0  0.27358794541E+02  0.68633535702E+02 -0.28589914322E+01  0.73940785049E+02  0.00000000000E+00 0. -1.
</event>
<event>
 7    1  0.7017065E-006  0.1145634E+03  0.7561462E-02  0.1252345E+00
         -2   -1    0    0    0  501 -0.00000000000E+00  0.00000000000E+00  0.31304825726E+02  0.31304825726E+02  0.00000000000E+00 0.  1.
          2   -1    0    0  501    0  0.00000000000E+00 -0.00000000000E+00 -0.63038120580E+03  0.63038120580E+03  0.00000000000E+00 0. -1.
         23    2    1    2    0    0  0.35843917371E+02  0.47867533664E+02 -0.17026573976E+03  0.21957217877E+03  0.12508170276E+03 0.  0.
          5    1    3    3  502    0  0.10175134163E+02 -0.33959672603E+02 -0.89063332210E+01  0.36791138743E+02  0.41800000000E+01 0. -1.
         -5    1    3    3    0  502  0.25668783208E+02  0.81827206267E+02 -0.16135940654E+03  0.18278104003E+03  0.41800000000E+01 0. -1.
        -11    1    1    2    0    0  0.23943223846E+02  0.84928853461E+01 -0.10816208715E+03  0.11110555416E+03  0.00000000000E+00 0.  1.
         11    1    1    2    0    0 -0.59787141217E+02 -0.56360419010E+02 -0.32064855317E+03  0.33100829859E+03  0.00000000000E+00 0. -1.
</event>
<event>
 7    1  0.7017065E-006  0.1144553E+03  0.7561462E-02  0.1252535E+00
         -2   -1    0    0    0  501 -0.00000000000E+00  0.00000000000E+00  0.34653288286E+03  0.34653288286E+03  0.00000000000E+00 0.  1.
          2   -1    0    0  501    0  0.00000000000E+00 -0.00000000000E+00 -0.58456404452E+02  0.58456404452E+02  0.00000000000E+00 0. -1.
         23    2    1    2    0    0 -0.79356320817E+02  0.38977524352E+02  0.19473746202E+03  0.24776589921E+03  0.12509431897E+03 0.  0.
          5    1    3    3  502    0  0.13889663017E+02  0.11857256853E+02  0.12916353317E+03  0.13051516379E+03  0.41800000000E+01 0. -1.
         -5    1    3    3    0  502 -0.93245983834E+02  0.27120267499E+02  0.65573928847E+02  0.11725073541E+03  0.41800000000E+01 0. -1.
        -11    1    1    2    0    0  0.80528059239E+02 -0.68408059769E+01  0.95361810903E+02  0.12500175971E+03  0.00000000000E+00 0.  1.
         11    1    1    2    0    0 -0.11717384215E+01 -0.32136718375E+02 -0.20227945152E+01  0.32221628396E+02  0.00000000000E+00 0. -1.
</event>
<event>
 7    1  0.7017065E-006  0.1238843E+03  0.7561462E-02  0.1236823E+00
         -4   -1    0    0    0  501 -0.00000000000E+00  0.00000000000E+00  0.16634784919E+03  0.16634784919E+03  0.00000000000E+00 0.  1.
          4   -1    0    0  501    0  0.00000000000E+00 -0.00000000000E+00 -0.12095204446E+03  0.12095204446E+03  0.00000000000E+00 0. -1.
         23    2    1    2    0    0  0.55772807430E+02  0.54544791991E+02  0.69688776257E+02  0.16303066930E+03  0.12504692404E+03 0.  0.
          5    1    3    3  502    0 -0.36021748958E+02  0.39870314513E+02  0.31656491718E+02  0.62504513799E+02  0.41800000000E+01 0. -1.
         -5    1    3    3    0  502  0.91794556388E+02  0.14674477479E+02  0.38032284538E+02  0.10052615550E+03  0.41800000000E+01 0. -1.
        -11    1    1    2    0    0  0.12710037514E+02 -0.21037097194E+02  0.23729902435E+02  0.34164495921E+02  0.00000000000E+00 0.  1.
         11    1    1    2    0    0 -0.68482844944E+02 -0.33507694797E+02 -0.48022873968E+02  0.90104728435E+02  0.00000000000E+00 0. -1.
</event>
<event>
 6    1  0.7017065E-006  0.1240881E+03  0.7561462E-02  0.1236501E+00
         -1   -1    0    0    0  501 -0.00000000000E+00  0.00000000000E+00  0.16773255128E+03  0.16773255128E+03  0.00000000000E+00 0.  1.
          1   -1    0    0  501    0  0.00000000000E+00 -0.00000000000E+00 -0.20164315168E+03  0.20164315168E+03  0.00000000000E+00 0. -1.
          5    1    1    2  502    0 -0.40658406578E+02 -0.20850482164E+02 -0.41471234042E+01  0.46070811415E+02  0.41800000000E+01 0. -1.
         -5    1    1    2    0  502  0.38030163665E+02  0.87991639411E+02  0.10968106673E+03  0.14572656160E+03  0.41800000000E+01 0.  1.
        -11    1    1    2    0    0  0.29759098898E+02 -0.72782867475E+02 -0.80957698485E+02  0.11285875557E+03  0.00000000000E+00 0.  1.
         11    1    1    2    0    0 -0.27130855985E+02  0.56417102277E+01 -0.58486845250E+02  0.64719574381E+02  0.00000000000E+00 0. -1.
</event>
<event>
 7    1  0.7017065E-006  0.1175719E+03  0.7561462E-02  0.1247157E+00
          2   -1    0    0  501    0  0.00000000000E+00  0.00000000000E+00  0.40706922687E+03  0.40706922687E+03  0.00000000000E+00 0. -1.
         -2   -1    0    0    0  501 -0.00000000000E+00 -0.00000000000E+00 -0.38244976709E+02  0.38244976709E+02  0.00000000000E+00 0.  1.
         23    2    1    2    0    0 -0.97651950784E+01 -0.55279942327E+02  0.15750095038E+03  0.20881922038E+03  0.12509071256E+03 0.  0.
          5    1    3    3  502    0  0.11833944370E+02 -0.91142071379E+02  0.86448286541E+02  0.12624459616E+03  0.41800000000E+01 0.  1.
         -5    1    3    3    0  502 -0.21599139449E+02  0.35862129052E+02  0.71052663839E+02  0.82574624212E+02  0.41800000000E+01 0.  1.
        -11    1    1    2    0    0 -0.19794252707E+02 -0.14993694114E+02  0.25274039743E+02  0.35431629773E+02  0.00000000000E+00 0.  1.
         11    1    1    2    0    0  0.29559447786E+02  0.70273636442E+02  0.18604926004E+03  0.20106335343E+03  0.00000000000E+00 0. -1.
</event>
<event>
 7    1  0.7017065E-006  0.1314410E+03  0.7561462E-02  0.1225333E+00
         -2   -1    0    0    0  501 -0.00000000000E+00  0.00000000000E+00  0.45654884265E+02  0.45654884265E+02  0.00000000000E+00 0.  1.
          2   -1    0    0  501    0  0.00000000000E+00 -0.00000000000E+00 -0.49502999494E+03  0.49502999494E+03  0.00000000000E+00 0. -1.
         23    2    1    2    0    0  0.95425421451E+02  0.35951179475E+02 -0.26587362775E+03  0.31102344064E+03  0.12509315062E+03 0.  0.
          5    1    3    3  502    0  0.97146725944E+02 -0.21125535784E+02 -0.13104791140E+03  0.16454422538E+03  0.41800000000E+01 0. -1.
         -5    1    3    3    0  502 -0.17213044929E+01  0.57076715260E+02 -0.13482571636E+03  0.14647921527E+03  0.41800000000E+01 0. -1.
        -11    1    1    2    0    0 -0.16819388417E+02 -0.19609994230E+02  0.35782483012E+01  0.26081555961E+02  0.00000000000E+00 0.  1.
         11    1    1    2    0    0 -0.78606033035E+02 -0.16341185245E+02 -0.18707973123E+03  0.20357988260E+03  0.00000000000E+00 0. -1.
</event>
<event>
 7    1  0.7017065E-006  0.1189292E+03  0.7561462E-02  0.1244874E+00
         -4   -1    0    0    0  501 -0.00000000000E+00  0.00000000000E+00  0.27137377522E+02  0.27137377522E+02  0.00000000000E+00 0.  1.
          4   -1    0    0  501    0  0.00000000000E+00 -0.00000000000E+00 -0.54589920634E+03  0.54589920634E+03  0.00000000000E+00 0. -1.
         23    2    1    2    0    0 -0.36736705446E+01  0.54167293311E+02 -0.30054516916E+03  0.33003526541E+03  0.12509311008E+03 0.  0.
          5    1    3    3  502    0  0.56681287565E+02  0.14652742975E+02 -0.90114417106E+02  0.10754325552E+03  0.41800000000E+01 0. -1.
         -5    1    3    3    0  502 -0.60354958109E+02  0.39514550336E+02 -0.21043075205E+03  0.22249200989E+03  0.41800000000E+01 0. -1.
        -11    1    1    2    0    0 -0.42235112917E+02 -0.10447256810E+02 -0.86998427180E+02  0.97271148188E+02  0.00000000000E+00 0. -1.
         11    1    1    2    0    0  0.45908783461E+02 -0.43720036501E+02 -0.13121823248E+03  0.14573017026E+03  0.00000000000E+00 0.  1.
</event>
<event>
 7    1  0.7017065E-006  0.1299869E+03  0.7561462E-02  0.1227475E+00
         -3   -1    0    0    0  501 -0.00000000000E+00  0.00000000000E+00  0.16100743984E+03  0.16100743984E+03  0.00000000000E+00 0.  1.
          3   -1    0    0  501    0  0.00000000000E+00 -0.00000000000E+00 -0.13145843361E+03  0.13145843361E+03  0.00000000000E+00 0. -1.
         23    2    1    2    0    0 -0.73642181221E+02  0.63035625793E+02  0.21620326796E+02  0.15972125274E+03  0.12508708596E+03 0.  0.
          5    1    3    3  502    0 -0.18693422452E+02  0.69409293615E+02 -0.35341407476E+02  0.80209610182E+02  0.41800000000E+01 0.  1.
         -5    1    3    3    0  502 -0.54948758769E+02 -0.63736678225E+01  0.56961734271E+02  0.79511642563E+02  0.41800000000E+01 0.  1.
        -11    1    1    2    0    0 -0.10675938420E+02 -0.45026860079E+02  0.36416460289E+01  0.46418265538E+02  0.00000000000E+00 0.  1.
         11    1    1    2    0    0  0.84318119641E+02 -0.18008765713E+02  0.42870334038E+01  0.86326355174E+02  0.00000000000E+00 0. -1.
</event>
<event>
 7    1  0.7017065E-006  0.1368159E+03  0.7561462E-02  0.1217679E+00
         -1   -1    0    0    0  501 -0.00000000000E+00  0.00000000000E+00  0.42685944513E+02  0.42685944513E+02  0.00000000000E+00 0.  1.
          1   -1    0    0  501    0  0.00000000000E+00 -0.00000000000E+00 -0.45832224201E+03  0.45832224201E+03  0.00000000000E+00 0. -1.
         23    2    1    2    0    0 -0.84723917522E+02 -0.45746126437E+01 -0.18286555674E+03  0.23724679499E+03  0.12508861103E+03 0.  0.
          5    1    3    3  502    0 -0.62131118467E+02 -0.61994976007E+02 -0.12307853007E+03  0.15122648543E+03  0.41800000000E+01 0. -1.
         -5    1    3    3    0  502 -0.22592799055E+02  0.57420363363E+02 -0.59787026679E+02  0.86020309561E+02  0.41800000000E+01 0. -1.
        -11    1    1    2    0    0  0.11215872639E+02  0.40552516763E+02 -0.73344269770E+02  0.84555805969E+02  0.00000000000E+00 0.  1.
         11    1    1    2    0    0  0.73508044883E+02 -0.35977904120E+02 -0.15942647098E+03  0.17920558556E+03  0.00000000000E+00 0. -1.
</event>
<event>
 7    1  0.7017065E-006  0.1101005E+03  0.7561462E-02  0.1260384E+00
          2   -1    0    0  501    0  0.00000000000E+00  0.00000000000E+00  0.45750451012E+03  0.45750451012E+03  0.00000000000E+00 0.  1.
         -2   -1    0    0    0  501 -0.00000000000E+00 -0.00000000000E+00 -0.44157591024E+02  0.44157591024E+02  0.00000000000E+00 0. -1.
         23    2    1    2    0    0  0.90975161450E+02  0.37501787307E+01  0.22806251480E+03  0.27559379165E+03  0.12509549750E+03 0.  0.
          5    1    3    3  502    0  0.93538458669E+02  0.29052179023E+02  0.22972353048E+03  0.24976758239E+03  0.41800000000E+01 0. -1.
         -5    1    3    3    0  502 -0.25632972186E+01 -0.25302000292E+02 -0.16610156795E+01  0.25826209256E+02  0.41800000000E+01 0. -1.
        -11    1    1    2    0    0 -0.73146067356E+02  0.10068180875E+02  0.50605170447E+02  0.89513120333E+02  0.00000000000E+00 0. -1.
         11    1    1    2    0    0 -0.17829094094E+02 -0.13818359606E+02  0.13467923385E+03  0.13655518917E+03  0.00000000000E+00 0.  1.
</event>
<event>
 7    1  0.7017065E-006  0.1067322E+03  0.7561462E-02  0.1266744E+00
         -1   -1    0    0    0  501 -0.00000000000E+00  0.00000000000E+00  0.23235898192E+03  0.23235898192E+03  0.00000000000E+00 0.  1.
          1   -1    0    0  501    0  0.00000000000E+00 -0.00000000000E+00 -0.82656003438E+02  0.82656003438E+02  0.00000000000E+00 0. -1.
         23    2    1    2    0    0 -0.54471961155E+02 -0.51029795439E+02  0.14748495590E+03  0.20729324909E+03  0.12508974510E+03 0.  0.
          5    1    3    3  502    0 -0.30740208669E+02  0.15866822760E+02 -0.84995925194E+01  0.35866864465E+02  0.41800000000E+01 0.  1.
         -5    1    3    3    0  502 -0.23731752486E+02 -0.66896618199E+02  0.15598454842E+03  0.17142638463E+03  0.41800000000E+01 0.  1.
        -11    1    1    2    0    0  0.20377698708E+02 -0.20108260230E+02  0.33766120122E+01  0.28826970753E+02  0.00000000000E+00 0.  1.
         11    1    1    2    0    0  0.34094262447E+02  0.71138055669E+02 -0.11585894248E+01  0.78894765514E+02  0.00000000000E+00 0. -1.
</event>
<event>
 7    1  0.7017065E-006  0.1142464E+03  0.7561462E-02  0.1252902E+00
         -2   -1    0    0    0  501 -0.00000000000E+00  0.00000000000E+00  0.81219572132E+02  0.81219572132E+02  0.00000000000E+00 0.  1.
          2   -1    0    0  501    0  0.00000000000E+00 -0.00000000000E+00 -0.26057097173E+03  0.26057097173E+03  0.00000000000E+00 0. -1.
         23    2    1    2    0    0  0.79343709247E+02 -0.45558893992E+02 -0.60314039795E+02  0.16630536691E+03  0.12509458280E+03 0.  0.
          5    1    3    3  502    0  0.18006076022E+01 -0.39410336911E+02 -0.77018571518E+02  0.86635729360E+02  0.41800000000E+01 0. -1.
         -5    1    3    3    0  502  0.77543101645E+02 -0.61485570815E+01  0.16704531723E+02  0.79669637548E+02  0.41800000000E+01 0. -1.
        -11    1    1    2    0    0 -0.12313083231E+02  0.42032052554E+02 -0.62595523762E+01  0.44243501856E+02  0.00000000000E+00 0.  1.
         11    1    1    2    0    0 -0.67030626016E+02  0.35268414385E+01 -0.11277780742E+03  0.13124167510E+03  0.00000000000E+00 0. -1.
</event>
<event>
 7    1  0.7017065E-006  0.9666342E+02  0.7561462E-02  0.1287473E+00
          1   -1    0    0  501    0  0.00000000000E+00  0.00000000000E+00  0.18069132689E+03  0.18069132689E+03  0.00000000000E+00 0. -1.
         -1   -1    0    0    0  501 -0.00000000000E+00 -0.00000000000E+00 -0.10948672295E+03  0.10948672295E+03  0.00000000000E+00 0.  1.
         23    2    1    2    0    0  0.55538018563E+02  0.26682449117E+02 -0.27506223822E+02  0.14212777176E+03  0.12508911448E+03 0.  0.
          5    1    3    3  502    0  0.47862871236E+02 -0.34790415726E+02 -0.48459620845E+02  0.76596571215E+02  0.41800000000E+01 0. -1.
         -5    1    3    3    0  502  0.76751473263E+01  0.61472864843E+02  0.20953397023E+02  0.65531200548E+02  0.41800000000E+01 0. -1.
        -11    1    1    2    0    0 -0.12980090426E+02 -0.26332475967E+02  0.10124500869E+03  0.10541552932E+03  0.00000000000E+00 0. -1.
         11    1    1    2    0    0 -0.42557928137E+02 -0.34997314982E+00 -0.25341809257E+01  0.42634748756E+02  0.00000000000E+00 0.  1.
</event>
<event>
 7    1  0.7017065E-006  0.1295983E+03  0.7561462E-02  0.1228053E+00
          2   -1    0    0  501    0  0.00000000000E+00  0.00000000000E+00  0.30934619396E+03  0.30934619396E+03  0.00000000000E+00 0. -1.
         -2   -1    0    0    0  501 -0.00000000000E+00 -0.00000000000E+00 -0.60753044083E+02  0.60753044083E+02  0.00000000000E+00 0.  1.
         23    2    1    2    0    0  0.67694097536E+02  0.22932666086E+02  0.80168293896E+02  0.16486980868E+03  0.12508677170E+03 0.  0.
          5    1    3    3  502    0 -0.36347856030E+02  0.80643804371E+01  0.11242944669E+02  0.39116199645E+02  0.41800000000E+01 0. -1.
         -5    1    3    3    0  502  0.10404195357E+03  0.14868285649E+02  0.68925349228E+02  0.12575360904E+03  0.41800000000E+01 0. -1.
        -11    1    1    2    0    0 -0.38664107483E+02  0.34742217168E+02  0.86521778563E+02  0.10093539036E+03  0.00000000000E+00 0.  1.
         11    1    1    2    0    0 -0.29029990053E+02 -0.57674883254E+02  0.81903077421E+02  0.10429403900E+03  0.00000000000E+00 0. -1.
</event>
<event>
 7    1  0.7017065E-006  0.1585327E+03  0.7561462E-02  0.1190363E+00
         -1   -1    0    0    0  501 -0.00000000000E+00  0.00000000000E+00  0.58410950881E+03  0.58410950881E+03  0.00000000000E+00 0.  1.
          1   -1    0    0  501    0  0.00000000000E+00 -0.00000000000E+00 -0.61322898670E+02  0.61322898670E+02  0.00000000000E+00 0. -1.
         23    2    1    2    0    0 -0.11200499145E+03  0.69816952696E+02  0.40837998456E+03  0.44703619125E+03  0.12509044530E+03 0.  0.
          5    1    3    3  502    0 -0.47273413910E+02 -0.18839802223E+02  0.47252522212E+02  0.69570015566E+02  0.41800000000E+01 0.  1.
         -5    1    3    3    0  502 -0.64731577537E+02  0.88656754919E+02  0.36112746235E+03  0.37746617568E+03  0.41800000000E+01 0.  1.
        -11    1    1    2    0    0  0.17231617792E+01 -0.42502867632E+02  0.91334396108E+01  0.43507272525E+02  0.00000000000E+00 0. -1.
         11    1    1    2    0    0  0.11028182967E+03 -0.27314085065E+02  0.10527318597E+03  0.15488894371E+03  0.00000000000E+00 0.  1.
</event>
<event>
 7    1  0.7017065E-006  0.1209413E+03  0.7561462E-02  0.1241552E+00
         -4   -1    0    0    0  501 -0.00000000000E+00  0.00000000000E+00  0.25446541314E+03  0.25446541314E+03  0.00000000000E+00 0.  1.
          4   -1    0    0  501    0  0.00000000000E+00 -0.00000000000E+00 -0.72143605567E+02  0.72143605567E+02  0.00000000000E+00 0. -1.
         23    2    1    2    0    0  0.55805359836E+02  0.41199956624E+02  0.15320252253E+03  0.20959685031E+03  0.12509257427E+03 0.  0.
          5    1    3    3  502    0  0.90055897620E+02  0.36961144995E+02  0.71649611807E+02  0.12094350006E+03  0.41800000000E+01 0.  1.
         -5    1    3    3    0  502 -0.34250537784E+02  0.42388116288E+01  0.81552910725E+02  0.88653350248E+02  0.41800000000E+01 0.  1.
        -11    1    1    2    0    0 -0.54458748400E+02  0.12574645325E+02  0.29542685913E+02  0.63219042015E+02  0.00000000000E+00 0.  1.
         11    1    1    2    0    0 -0.13466114362E+01 -0.53774601949E+02 -0.42340087511E+00  0.53793126377E+02  0.00000000000E+00 0. -1.
</event>
<event>
 7    1  0.7017065E-006  0.3509100E+03  0.7561462E-02  0.1062242E+00
         -2   -1    0    0    0  501 -0.00000000000E+00  0.00000000000E+00  0.20433432619E+03  0.20433432619E+03  0.00000000000E+00 0.  1.
          2   -1    0    0  501    0  0.00000000000E+00 -0.00000000000E+00 -0.99512391346E+03  0.99512391346E+03  0.00000000000E+00 0. -1.
         23    2    1    2    0    0 -0.17362520941E+03  0.29783635992E+03 -0.40496009025E+02  0.36897117032E+03  0.12509031596E+03 0.  0.
          5    1    3    3  502    0 -0.95675699086E+02  0.19849001154E+03 -0.83254152942E+02  0.23558618478E+03  0.41800000000E+01 0.  1.
         -5    1    3    3    0  502 -0.77949510324E+02  0.99346348377E+02  0.42758143918E+02  0.13338498554E+03  0.41800000000E+01 0.  1.
        -11    1    1    2    0    0  0.42056261371E+02 -0.17766750740E+02 -0.77534717194E+02  0.89977880186E+02  0.00000000000E+00 0.  1.
         11    1    1    2    0    0  0.13156894804E+03 -0.28006960918E+03 -0.67275886105E+03  0.74050918914E+03  0.00000000000E+00 0. -1.
</event>
<event>
 7    1  0.7017065E-006  0.1146980E+03  0.7561462E-02  0.1252109E+00
         -2   -1    0    0    0  501 -0.00000000000E+00  0.00000000000E+00  0.55352025088E+02  0.55352025088E+02  0.00000000000E+00 0.  1.
          2   -1    0    0  501    0  0.00000000000E+00 -0.00000000000E+00 -0.24499644188E+03  0.24499644188E+03  0.00000000000E+00 0. -1.
         23    2    1    2    0    0 -0.24382521959E+02  0.32662303559E+02 -0.97161428494E+02  0.16355158450E+03  0.12508974441E+03 0.  0.
          5    1    3    3  502    0 -0.50109007660E+02 -0.33214856171E+02 -0.37919184562E+02  0.71200254754E+02  0.41800000000E+01 0.  1.
         -5    1    3    3    0  502  0.25726485701E+02  0.65877159730E+02 -0.59242243932E+02  0.92351329751E+02  0.41800000000E+01 0.  1.
        -11    1    1    2    0    0  0.50440367507E+02  0.69045817733E+01 -0.62984254145E+02  0.80987160673E+02  0.00000000000E+00 0.  1.
         11    1    1    2    0    0 -0.26057845548E+02 -0.39566885333E+02 -0.29498734149E+02  0.55809721787E+02  0.00000000000E+00 0. -1.
</event>
<event>
 7    1  0.7017065E-006  0.1254877E+03  0.7561462E-02  0.1234309E+00
          1   -1    0    0  501    0  0.00000000000E+00  0.00000000000E+00  0.83417125106E+02  0.83417125106E+02  0.00000000000E+00 0. -1.
         -1   -1    0    0    0  501 -0.00000000000E+00 -0.00000000000E+00 -0.26315229294E+03  0.26315229294E+03  0.00000000000E+00 0.  1.
         23    2    1    2    0    0  0.80564590416E+02 -0.59597537338E+02 -0.93877895158E+02  0.18576504823E+03  0.12511224664E+03 0.  0.
          5    1    3    3  502    0 -0.22439790627E+02 -0.39603121863E+02 -0.12303512329E+01  0.45726771467E+02  0.41800000000E+01 0. -1.
         -5    1    3    3    0  502  0.10300438104E+03 -0.19994415476E+02 -0.92647543925E+02  0.14003827677E+03  0.41800000000E+01 0. -1.
        -11    1    1    2    0    0 -0.23526353100E+02  0.15767508010E+02 -0.84217591282E+02  0.88852159684E+02  0.00000000000E+00 0.  1.
         11    1    1    2    0    0 -0.57038237315E+02  0.43830029329E+02 -0.16396813913E+01  0.71952210126E+02  0.00000000000E+00 0. -1.
</event>
<event>
 6    1  0.7017065E-006  0.8631163E+02  0.7561462E-02  0.1312038E+00
          2   -1    0    0  501    0  0.00000000000E+00  0.00000000000E+00  0.37819064380E+03  0.37819064380E+03  0.00000000000E+00 0. -1.
         -2   -1    0    0    0  501 -0.00000000000E+00 -0.00000000000E+00 -0.54290472908E+02  0.54290472908E+02  0.00000000000E+00 0.  1.
          5    1    1    2  502    0  0.20430880149E+01 -0.29262098153E+02  0.15276455433E+03  0.15561145863E+03  0.41800000000E+01 0. -1.
         -5    1    1    2    0  502  0.11345219878E+01  0.47163754900E+02 -0.26388643982E+02  0.54217523437E+02  0.41800000000E+01 0.  1.
        -11    1    1    2    0    0 -0.28593377928E+02 -0.48225542766E+02  0.73326287297E+02  0.92304001241E+02  0.00000000000E+00 0. -1.
         11    1    1    2    0    0  0.25415767925E+02  0.30323886019E+02  0.12419797324E+03  0.13034813339E+03  0.00000000000E+00 0.  1.
</event>
<event>
 7    1  0.7017065E-006  0.1239508E+03  0.7561462E-02  0.1236718E+00
          1   -1    0    0  501    0  0.00000000000E+00  0.00000000000E+00  0.16262765420E+03  0.16262765420E+03  0.00000000000E+00 0. -1.
         -1   -1    0    0    0  501 -0.00000000000E+00 -0.00000000000E+00 -0.17206877831E+03  0.17206877831E+03  0.00000000000E+00 0.  1.
         23    2    1    2    0    0  0.38550921176E+02 -0.59404989752E+02 -0.10906013981E+03  0.18043450344E+03  0.12508944642E+03 0.  0.
          5    1    3    3  502    0 -0.14240870332E+02 -0.76456603742E+02 -0.29353121335E+02  0.83231561176E+02  0.41800000000E+01 0.  1.
         -5    1    3    3    0  502  0.52791791508E+02  0.17051613991E+02 -0.79707018473E+02  0.97202942260E+02  0.41800000000E+01 0.  1.
        -11    1    1    2    0    0  0.29331101517E+02  0.23540554113E+02  0.51075651611E+02  0.63428648036E+02  0.00000000000E+00 0. -1.
         11    1    1    2    0    0 -0.67882022692E+02  0.35864435638E+02  0.48543364089E+02  0.90833281046E+02  0.00000000000E+00 0.  1.
</event>
<event>
 7    1  0.7017065E-006  0.1933576E+03  0.7561462E-02  0.1155467E+00
         -2   -1    0    0    0  501 -0.00000000000E+00  0.00000000000E+00  0.13998995318E+03  0.13998995318E+03  0.00000000000E+00 0.  1.
          2   -1    0    0  501    0  0.00000000000E+00 -0.00000000000E+00 -0.28720422386E+03  0.28720422386E+03  0.00000000000E+00 0. -1.
         23    2    1    2    0    0 -0.26926062065E+02 -0.16541824872E+03 -0.47604100766E+02  0.21447356382E+03  0.12507817292E+03 0.  0.
          5    1    3    3  502    0  0.37713545504E+02 -0.98850238806E+02 -0.58476873997E+02  0.12095742399E+03  0.41800000000E+01 0.  1.
         -5    1    3    3    0  502 -0.64639607569E+02 -0.66568009917E+02  0.10872773231E+02  0.93516139831E+02  0.41800000000E+01 0.  1.
        -11    1    1    2    0    0  0.52715081808E+02  0.14725776965E+03 -0.83556788017E+02  0.17732869874E+03  0.00000000000E+00 0. -1.
         11    1    1    2    0    0 -0.25789019743E+02  0.18160479069E+02 -0.16053381897E+02  0.35391914467E+02  0.00000000000E+00 0.  1.
</event>
<event>
 7    1  0.7017065E-006  0.1102874E+03  0.7561462E-02  0.1260039E+00
         -1   -1    0    0    0  501 -0.00000000000E+00  0.00000000000E+00  0.24143771584E+03  0.24143771584E+03  0.00000000000E+00 0.  1.
          1   -1    0    0  501    0  0.00000000000E+00 -0.00000000000E+00 -0.96436143115E+02  0.96436143115E+02  0.00000000000E+00 0. -1.
         23    2    1    2    0    0  0.76293402742E+02  0.58994609572E+02  0.12941312892E+03  0.20419653176E+03  0.12508964140E+03 0.  0.
          5    1    3    3  502    0  0.82682884507E+02  0.53230087462E+02  0.27995277444E+02  0.10232843965E+03  0.41800000000E+01 0.  1.
         -5    1    3    3    0  502 -0.63894817648E+01  0.57645221099E+01  0.10141785147E+03  0.10186809211E+03  0.41800000000E+01 0.  1.
        -11    1    1    2    0    0 -0.15732777853E+02 -0.48669028843E+02 -0.28036934818E+02  0.58328932628E+02  0.00000000000E+00 0. -1.
         11    1    1    2    0    0 -0.60560624890E+02 -0.10325580729E+02  0.43625378630E+02  0.75348394575E+02  0.00000000000E+00 0.  1.
</event>
<event>
 7    1  0.7017065E-006  0.2286676E+03  0.7561462E-02  0.1127581E+00
         -2   -1    0    0    0  501 -0.00000000000E+00  0.00000000000E+00  0.16262347532E+03  0.16262347532E+03  0.00000000000E+00 0.  1.
          2   -1    0    0  501    0  0.00000000000E+00 -0.00000000000E+00 -0.41992446931E+03  0.41992446931E+03  0.00000000000E+00 0. -1.
         23    2    1    2    0    0  0.10110886166E+03 -0.18025069527E+03 -0.19577373441E+01  0.24161442337E+03  0.12514144715E+03 0.  0.
          5    1    3    3  502    0  0.12288497645E+03 -0.15603303088E+03  0.23533177532E+02  0.20004576228E+03  0.41800000000E+01 0.  1.
         -5    1    3    3    0  502 -0.21776114786E+02 -0.24217664386E+02 -0.25490914876E+02  0.41568661089E+02  0.41800000000E+01 0.  1.
        -11    1    1    2    0    0  0.10169496172E+02  0.64430150348E+02 -0.77551247353E+02  0.10133537829E+03  0.00000000000E+00 0.  1.
         11    1    1    2    0    0 -0.11127835784E+03  0.11582054492E+03 -0.17779200929E+03  0.23959814297E+03  0.00000000000E+00 0. -1.
</event>
<event>
 6    1  0.7017065E-006  0.1516710E+03  0.7561462E-02  0.1198435E+00
          2   -1    0    0  501    0  0.00000000000E+00  0.00000000000E+00  0.44511797859E+03  0.44511797859E+03  0.00000000000E+00 0. -1.
         -2   -1    0    0    0  501 -0.00000000000E+00 -0.00000000000E+00 -0.46191915240E+03  0.46191915240E+03  0.00000000000E+00 0.  1.
          5    1    1    2  502    0  0.12853975379E+02  0.67390840902E+02 -0.12265518022E+03  0.14060055390E+03  0.41800000000E+01 0. -1.
         -5    1    1    2    0  502 -0.92401861858E+02  0.15350422098E+01 -0.31147018379E+03  0.32491784841E+03  0.41800000000E+01 0.  1.
        -11    1    1    2    0    0 -0.22313188248E+02 -0.10338972558E+02  0.47711553334E+02  0.53676485027E+02  0.00000000000E+00 0.  1.
         11    1    1    2    0    0  0.10186107473E+03 -0.58586910554E+02  0.36961263687E+03  0.38784224366E+03  0.00000000000E+00 0. -1.
</event>
<event>
 7    1  0.7017065E-006  0.1094874E+03  0.7561462E-02  0.1261522E+00
         -2   -1    0    0    0  501 -0.00000000000E+00  0.00000000000E+00  0.63111742748E+02  0.63111742748E+02  0.00000000000E+00 0.  1.
          2   -1    0    0  501    0  0.00000000000E+00 -0.00000000000E+00 -0.21190763576E+03  0.21190763576E+03  0.00000000000E+00 0. -1.
         23    2    1    2    0    0 -0.33978170742E+02  0.29230207448E+02 -0.54516781619E+02  0.13510053587E+03  0.11520049566E+03 0.  0.
          5    1    3    3  502    0 -0.67976712303E+02  0.40932420477E+02 -0.58517792835E+02  0.98681816663E+02  0.41800000000E+01 0. -1.
         -5    1    3    3    0  502  0.33998541561E+02 -0.11702213029E+02  0.40010112163E+01  0.36418719209E+02  0.41800000000E+01 0.  1.
        -11    1    1    2    0    0  0.50321967678E+02  0.17917874596E+02 -0.46186863993E+02  0.70615699859E+02  0.00000000000E+00 0.  1.
         11    1    1    2    0    0 -0.16343796937E+02 -0.47148082044E+02 -0.48092247400E+02  0.69303142776E+02  0.00000000000E+00 0. -1.
</event>
<event>
 7    1  0.7017065E-006  0.1079741E+03  0.7561462E-02  0.1264368E+00
         -2   -1    0    0    0  501 -0.00000000000E+00  0.00000000000E+00  0.69270685125E+02  0.69270685125E+02  0.00000000000E+00 0.  1.
          2   -1    0    0  501    0  0.00000000000E+00 -0.00000000000E+00 -0.22024120114E+03  0.22024120114E+03  0.00000000000E+00 0. -1.
         23    2    1    2    0    0  0.42981484464E+02 -0.29290142727E+02 -0.51944433944E+02  0.14509089629E+03  0.12509126069E+03 0.  0.
          5    1    3    3  502    0 -0.28832589197E+02  0.26440834133E+02 -0.34728730748E+02  0.52478500825E+02  0.41800000000E+01 0.  1.
         -5    1    3    3    0  502  0.71814073661E+02 -0.55730976860E+02 -0.17215703195E+02  0.92612395466E+02  0.41800000000E+01 0.  1.
        -11    1    1    2    0    0 -0.60505341976E+02  0.13444806443E+02 -0.10324591878E+03  0.12042167152E+03  0.00000000000E+00 0. -1.
         11    1    1    2    0    0  0.17523857512E+02  0.15845336284E+02  0.42198367112E+01  0.23999318447E+02  0.00000000000E+00 0.  1.
</event>
<event>
 7    1  0.7017065E-006  0.2537637E+03  0.7561462E-02  0.1110949E+00
          1   -1    0    0  501    0  0.00000000000E+00  0.00000000000E+00  0.23140014137E+03  0.23140014137E+03  0.00000000000E+00 0. -1.
         -1   -1    0    0    0  501 -0.00000000000E+00 -0.00000000000E+00 -0.33340977616E+03  0.33340977616E+03  0.00000000000E+00 0.  1.
         23    2    1    2    0    0 -0.21755271550E+03  0.11914416905E+03 -0.11211710570E+03  0.29957075215E+03  0.12509145899E+03 0.  0.
          5    1    3    3  502    0 -0.94960002137E+02  0.92994895511E+02 -0.25025536160E+01  0.13300070591E+03  0.41800000000E+01 0. -1.
         -5    1    3    3    0  502 -0.12259271337E+03  0.26149273543E+02 -0.10961455208E+03  0.16657004624E+03  0.41800000000E+01 0. -1.
        -11    1    1    2    0    0  0.90078491820E+02 -0.36397937787E+02 -0.40215351110E+02  0.10514855695E+03  0.00000000000E+00 0.  1.
         11    1    1    2    0    0  0.12747422368E+03 -0.82746231267E+02  0.50322822021E+02  0.16009060843E+03  0.00000000000E+00 0. -1.
</event>
<event>
 7    1  0.7017065E-006  0.7358926E+02  0.7561462E-02  0.1348296E+00
         -3   -1    0    0    0  501 -0.00000000000E+00  0.00000000000E+00  0.65569719081E+03  0.65569719081E+03  0.00000000000E+00 0.  1.
          3   -1    0    0  501    0  0.00000000000E+00 -0.00000000000E+00 -0.20741228404E+02  0.20741228404E+02  0.00000000000E+00 0. -1.
         23    2    1    2    0    0  0.17860698578E+02  0.20889168720E+02  0.44891031025E+03  0.46682239094E+03  0.12508923259E+03 0.  0.
          5    1    3    3  502    0 -0.27899713315E+02  0.22657121354E+02  0.34917981767E+02  0.50283963665E+02  0.41800000000E+01 0. -1.
         -5    1    3    3    0  502  0.45760411893E+02 -0.17679526342E+01  0.41399232848E+03  0.41653842727E+03  0.41800000000E+01 0. -1.
        -11    1    1    2    0    0 -0.32013917899E+02  0.78615186453E+01  0.16120438540E+02  0.36695544053E+02  0.00000000000E+00 0. -1.
         11    1    1    2    0    0  0.14153219321E+02 -0.28750687365E+02  0.16992521362E+03  0.17292048422E+03  0.00000000000E+00 0.  1.
</event>
<event>
 6    1  0.7017065E-006  0.8861309E+02  0.7561462E-02  0.1306245E+00
          2   -1    0    0  501    0  0.00000000000E+00  0.00000000000E+00  0.26788248202E+03  0.26788248202E+03  0.00000000000E+00 0. -1.
         -2   -1    0    0    0  501 -0.00000000000E+00 -0.00000000000E+00 -0.66759355995E+02  0.66759355995E+02  0.00000000000E+00 0.  1.
          5    1    1    2  502    0  0.51290437123E+02  0.30422422860E+02  0.12194053589E+03  0.13580574158E+03  0.41800000000E+01 0. -1.
         -5    1    1    2    0  502 -0.48880394996E+01 -0.14046208368E+02 -0.38831002222E+02  0.41791243499E+02  0.41800000000E+01 0.  1.
        -11    1    1    2    0    0 -0.44981066941E+02  0.30981356161E+02  0.76849806735E+02  0.94281671644E+02  0.00000000000E+00 0.  1.
         11    1    1    2    0    0 -0.14213306822E+01 -0.47357570654E+02  0.41163785618E+02  0.62763181289E+02  0.00000000000E+00 0. -1.
</event>
<event>
 7    1  0.7017065E-006  0.1019095E+03  0.7561462E-02  0.1276331E+00
         -2   -1    0    0    0  501 -0.00000000000E+00  0.00000000000E+00  0.60539035213E+02  0.60539035213E+02  0.00000000000E+00 0.  1.
          2   -1    0    0  501    0  0.00000000000E+00 -0.00000000000E+00 -0.28593992137E+03  0.28593992137E+03  0.00000000000E+00 0. -1.
         23    2    1    2    0    0  0.16469323523E+02 -0.73559890155E+02 -0.11830971328E+03  0.18794018561E+03  0.12506809766E+03 0.  0.
          5    1    3    3  502    0 -0.38222303227E+02 -0.10596375110E+02 -0.92187079591E+02  0.10044479913E+03  0.41800000000E+01 0.  1.
         -5    1    3    3    0  502  0.54691626750E+02 -0.62963515045E+02 -0.26122633685E+02  0.87495386473E+02  0.41800000000E+01 0.  1.
        -11    1    1    2    0    0 -0.21229331141E+02  0.30805304469E+02  0.56803447183E+01  0.37840687100E+02  0.00000000000E+00 0.  1.
         11    1    1    2    0    0  0.47600076177E+01  0.42754585686E+02 -0.11277151760E+03  0.12069808388E+03  0.00000000000E+00 0. -1.
</event>
<event>
 6    1  0.7017065E-006  0.8107527E+02  0.7561462E-02  0.1326027E+00
          2   -1    0    0  501    0  0.00000000000E+00  0.00000000000E+00  0.27306677586E+03  0.27306677586E+03  0.00000000000E+00 0. -1.
         -2   -1    0    0    0  501 -0.00000000000E+00 -0.00000000000E+00 -0.50126100032E+02  0.50126100032E+02  0.00000000000E+00 0.  1.
          5    1    1    2  502    0 -0.19682606028E+02  0.25380646091E+02  0.10416654965E+03  0.10908585904E+03  0.41800000000E+01 0. -1.
         -5    1    1    2    0  502  0.17815683921E+02 -0.34875043130E+02 -0.22868108264E+02  0.45542178280E+02  0.41800000000E+01 0.  1.
        -11    1    1    2    0    0 -0.32708696410E+02  0.34626425027E+02  0.87045593926E+02  0.99225921779E+02  0.00000000000E+00 0.  1.
         11    1    1    2    0    0  0.34575618517E+02 -0.25132027988E+02  0.54596640509E+02  0.69338916790E+02  0.00000000000E+00 0. -1.
</event>
<event>
 7    1  0.7017065E-006  0.8643301E+02  0.7561462E-02  0.1311727E+00
         -3   -1    0    0    0  501 -0.00000000000E+00  0.00000000000E+00  0.33526448259E+03  0.33526448259E+03  0.00000000000E+00 0.  1.
          3   -1    0    0  501    0  0.00000000000E+00 -0.00000000000E+00 -0.46005256125E+02  0.46005256125E+02  0.00000000000E+00 0. -1.
         23    2    1    2    0    0  0.59382696495E+00  0.13692505764E+02  0.25250608789E+03  0.28212542471E+03  0.12509034136E+03 0.  0.
          5    1    3    3  502    0 -0.18737543294E+02  0.46461560989E+02  0.34947420797E+02  0.61225540411E+02  0.41800000000E+01 0.  1.
         -5    1    3    3    0  502  0.19331370259E+02 -0.32769055225E+02  0.21755866709E+03  0.22089988430E+03  0.41800000000E+01 0.  1.
        -11    1    1    2    0    0 -0.41536087179E+02 -0.12435332460E+02  0.38727481154E+02  0.58135203002E+02  0.00000000000E+00 0.  1.
         11    1    1    2    0    0  0.40942260214E+02 -0.12571733039E+01 -0.19743425836E+01  0.41009110997E+02  0.00000000000E+00 0. -1.
</event>
<event>
 7    1  0.7017065E-006  0.1271554E+03  0.7561462E-02  0.1231739E+00
         -2   -1    0    0    0  501 -0.00000000000E+00  0.00000000000E+00  0.10281889083E+03  0.10281889083E+03  0.00000000000E+00 0.  1.
          2   -1    0    0  501    0  0.00000000000E+00 -0.00000000000E+00 -0.19237550198E+03  0.19237550198E+03  0.00000000000E+00 0. -1.
         23    2    1    2    0    0 -0.50675135265E+02 -0.45562243626E+02  0.12466078067E+02  0.13461423524E+03  0.11541967704E+03 0.  0.
          5    1    3    3  502    0 -0.87398951662E+02 -0.35292258617E+02  0.22911297230E+00  0.94348530262E+02  0.41800000000E+01 0. -1.
         -5    1    3    3    0  502  0.36723816397E+02 -0.10269985009E+02  0.12236965094E+02  0.40265704980E+02  0.41800000000E+01 0.  1.
        -11    1    1    2    0    0 -0.54358301501E+01 -0.28314494509E+02 -0.38700471736E+02  0.48259562382E+02  0.00000000000E+00 0.  1.
         11    1    1    2    0    0  0.56110965415E+02  0.73876738134E+02 -0.63322217473E+02  0.11232059519E+03  0.00000000000E+00 0. -1.
</event>
<event>
 7    1  0.7017065E-006  0.1262772E+03  0.7561462E-02  0.1233087E+00
         -2   -1    0    0    0  501 -0.00000000000E+00  0.00000000000E+00  0.85924213315E+03  0.85924213315E+03  0.00000000000E+00 0. -1.
          2   -1    0    0  501    0  0.00000000000E+00 -0.00000000000E+00 -0.24457825516E+02  0.24457825516E+02  0.00000000000E+00 0.  1.
         23    2    1    2    0    0  0.22613615076E+02  0.83368716056E+02  0.58792428320E+03  0.60725956700E+03  0.12508996975E+03 0.  0.
          5    1    3    3  502    0  0.64583189544E+02  0.76517218380E+02  0.30285229890E+03  0.31900291602E+03  0.41800000000E+01 0.  1.
         -5    1    3    3    0  502 -0.41969574468E+02  0.68514976759E+01  0.28507198430E+03  0.28825665098E+03  0.41800000000E+01 0.  1.
        -11    1    1    2    0    0 -0.46658311721E+02 -0.48976047430E+02  0.81881455357E+02  0.10620839894E+03  0.00000000000E+00 0.  1.
         11    1    1    2    0    0  0.24044696645E+02 -0.34392668625E+02  0.16497856908E+03  0.17023199273E+03  0.00000000000E+00 0. -1.
</event>
<event>
 7    1  0.7017065E-006  0.1157493E+03  0.7561462E-02  0.1250279E+00
          1   -1    0    0  501    0  0.00000000000E+00  0.00000000000E+00  0.46354805335E+03  0.46354805335E+03  0.00000000000E+00 0. -1.
         -1   -1    0    0    0  501 -0.00000000000E+00 -0.00000000000E+00 -0.52465294855E+02  0.52465294855E+02  0.00000000000E+00 0.  1.
         23    2    1    2    0    0 -0.36524387626E+02  0.61571840362E+02  0.76979885572E+02  0.16339854133E+03  0.12509219843E+03 0.  0.
          5    1    3    3  502    0 -0.76163082819E+02  0.68665927622E+02  0.63691214485E+02  0.12078852596E+03  0.41800000000E+01 0.  1.
         -5    1    3    3    0  502  0.39638695193E+02 -0.70940872602E+01  0.13288671087E+02  0.42610015371E+02  0.41800000000E+01 0.  1.
        -11    1    1    2    0    0 -0.86499763814E+01 -0.34824754954E+02  0.39476791942E+02  0.53347940458E+02  0.00000000000E+00 0.  1.
         11    1    1    2    0    0  0.45174364007E+02 -0.26747085408E+02  0.29462608098E+03  0.29926686641E+03  0.00000000000E+00 0. -1.
</event>
<event>
 7    1  0.7017065E-006  0.1015950E+03  0.7561462E-02  0.1276977E+00
         -1   -1    0    0    0  501 -0.00000000000E+00  0.00000000000E+00  0.40132508185E+03  0.40132508185E+03  0.00000000000E+00 0.  1.
          1   -1    0    0  501    0  0.00000000000E+00 -0.00000000000E+00 -0.35548196928E+02  0.35548196928E+02  0.00000000000E+00 0. -1.
         23    2    1    2    0    0  0.20391611051E+02  0.11005131924E+01  0.28595826518E+03  0.31278700796E+03  0.12508618627E+03 0.  0.
          5    1    3    3  502    0  0.70424799991E+02 -0.12520972126E+02  0.19837881504E+03  0.21092191411E+03  0.41800000000E+01 0.  1.
         -5    1    3    3    0  502 -0.50033188940E+02  0.13621485318E+02  0.87579450138E+02  0.10186509385E+03  0.41800000000E+01 0.  1.
        -11    1    1    2    0    0 -0.43840192383E+02 -0.21140323282E+02  0.79528334431E+02  0.93239646686E+02  0.00000000000E+00 0.  1.
         11    1    1    2    0    0  0.23448581332E+02  0.20039810090E+02  0.29028531409E+00  0.30846624134E+02  0.00000000000E+00 0. -1.
</event>
<event>
 7    1  0.7017065E-006  0.1998851E+03  0.7561462E-02  0.1149836E+00
         -4   -1    0    0    0  501 -0.00000000000E+00  0.00000000000E+00  0.18927242214E+03  0.18927242214E+03  0.00000000000E+00 0.  1.
          4   -1    0    0  501    0  0.00000000000E+00 -0.00000000000E+00 -0.27239641000E+03  0.27239641000E+03  0.00000000000E+00 0. -1.
         23    2    1    2    0    0 -0.11091328784E+03  0.16434275239E+03 -0.57371938521E+02  0.24134830285E+03  0.12508863368E+03 0.  0.
          5    1    3    3  502    0 -0.80604118418E+02  0.13441411227E+03 -0.95876662077E+02  0.18377699588E+03  0.41800000000E+01 0.  1.
         -5    1    3    3    0  502 -0.30309169424E+02  0.29928640121E+02  0.38504723555E+02  0.57571306974E+02  0.41800000000E+01 0.  1.
        -11    1    1    2    0    0  0.54188333064E+02 -0.56209507262E+02  0.33059737733E+02  0.84786970731E+02  0.00000000000E+00 0. -1.
         11    1    1    2    0    0  0.56724954779E+02 -0.10813324513E+03 -0.58811787079E+02  0.13553355856E+03  0.00000000000E+00 0.  1.
</event>
<event>
 7    1  0.7017065E-006  0.1409685E+03  0.7561462E-02  0.1212032E+00
          2   -1    0    0  501    0  0.00000000000E+00  0.00000000000E+00  0.19595143507E+03  0.19595143507E+03  0.00000000000E+00 0. -1.
         -2   -1    0    0    0  501 -0.00000000000E+00 -0.00000000000E+00 -0.16120912941E+03  0.16120912941E+03  0.00000000000E+00 0.  1.
         23    2    1    2    0    0  0.82088497293E+02  0.42493201425E+02 -0.87742294436E+02  0.17858076279E+03  0.12509270582E+03 0.  0.
          5    1    3    3  502    0 -0.31968405634E+02 -0.23081825812E+01 -0.12100494061E+02  0.34513780177E+02  0.41800000000E+01 0. -1.
         -5    1    3    3    0  502  0.11405690293E+03  0.44801384006E+02 -0.75641800375E+02  0.14406698261E+03  0.41800000000E+01 0. -1.
        -11    1    1    2    0    0 -0.38148943099E+02 -0.66697816668E+02  0.55003800513E+02  0.94495283897E+02  0.00000000000E+00 0. -1.
         11    1    1    2    0    0 -0.43939554195E+02  0.24204615243E+02  0.67480799577E+02  0.84084517799E+02  0.00000000000E+00 0.  1.
</event>
<event>
 7    1  0.7017065E-006  0.1493790E+03  0.7561462E-02  0.1201238E+00
         -3   -1    0    0    0  501 -0.00000000000E+00  0.00000000000E+00  0.91081161981E+02  0.91081161981E+02  0.00000000000E+00 0.  1.
          3   -1    0    0  501    0  0.00000000000E+00 -0.00000000000E+00 -0.25391619347E+03  0.25391619347E+03  0.00000000000E+00 0. -1.
         23    2    1    2    0    0  0.10197492132E+03 -0.22004169345E+02 -0.66881938967E+02  0.17607799453E+03  0.12508876190E+03 0.  0.
          5    1    3    3  502    0  0.96011158597E+02 -0.65626025197E+02 -0.34874295504E+02  0.12148500585E+03  0.41800000000E+01 0. -1.
         -5    1    3    3    0  502  0.59637627193E+01  0.43621855853E+02 -0.32007643463E+02  0.54592988688E+02  0.41800000000E+01 0. -1.
        -11    1    1    2    0    0 -0.57879886523E+02  0.57475646933E+02 -0.47315687188E+02  0.94299021778E+02  0.00000000000E+00 0. -1.
         11    1    1    2    0    0 -0.44095034793E+02 -0.35471477589E+02 -0.48637405337E+02  0.74620339142E+02  0.00000000000E+00 0.  1.
</event>
<event>
 7    1  0.7017065E-006  0.1233802E+03  0.7561462E-02  0.1237623E+00
          3   -1    0    0  501    0  0.00000000000E+00  0.00000000000E+00  0.11799394336E+03  0.11799394336E+03  0.00000000000E+00 0. -1.
         -3   -1    0    0    0  501 -0.00000000000E+00 -0.00000000000E+00 -0.20928780280E+03  0.20928780280E+03  0.00000000000E+00 0.  1.
         23    2    1    2    0    0  0.54878676817E+02 -0.91488001360E+02 -0.91588894223E+02  0.18819684502E+03  0.12509118021E+03 0.  0.
          5    1    3    3  502    0  0.48187385075E+02 -0.70756367735E+02 -0.12289394380E+03  0.14982950804E+03  0.41800000000E+01 0. -1.
         -5    1    3    3    0  502  0.66912917417E+01 -0.20731633625E+02  0.31305049578E+02  0.38367336981E+02  0.41800000000E+01 0. -1.
        -11    1    1    2    0    0 -0.75670225280E+02  0.90621231199E+02  0.30129399259E+01  0.11809855353E+03  0.00000000000E+00 0. -1.
         11    1    1    2    0    0  0.20791548463E+02  0.86677016092E+00 -0.27179051428E+01  0.20986347619E+02  0.00000000000E+00 0.  1.
</event>
<event>
 7    1  0.7017065E-006  0.1801665E+03  0.7561462E-02  0.1167642E+00
         -2   -1    0    0    0  501 -0.00000000000E+00  0.00000000000E+00  0.84941609042E+03  0.84941609042E+03  0.00000000000E+00 0.  1.
          2   -1    0    0  501    0  0.00000000000E+00 -0.00000000000E+00 -0.53450074033E+02  0.53450074033E+02  0.00000000000E+00 0. -1.
         23    2    1    2    0    0  0.17905344875E+03  0.74880170337E+01  0.48785000892E+03  0.53456567039E+03  0.12508643753E+03 0.  0.
          5    1    3    3  502    0  0.79178452104E+02  0.96396316749E+01  0.74256257886E+02  0.10905784709E+03  0.41800000000E+01 0. -1.
         -5    1    3    3    0  502  0.99874996645E+02 -0.21516146411E+01  0.41359375103E+03  0.42550782330E+03  0.41800000000E+01 0. -1.
        -11    1    1    2    0    0 -0.11725587818E+03 -0.15044297585E+02  0.27138394026E+03  0.29601438291E+03  0.00000000000E+00 0.  1.
         11    1    1    2    0    0 -0.61797570564E+02  0.75562805510E+01  0.36732067204E+02  0.72286111145E+02  0.00000000000E+00 0. -1.
</event>
<event>
 7    1  0.7017065E-006  0.1128908E+03  0.7561462E-02  0.1255308E+00
         -4   -1    0    0    0  501 -0.00000000000E+00  0.00000000000E+00  0.77353745269E+02  0.77353745269E+02  0.00000000000E+00 0.  1.
          4   -1    0    0  501    0  0.00000000000E+00 -0.00000000000E+00 -0.20902716769E+03  0.20902716769E+03  0.00000000000E+00 0. -1.
         23    2    1    2    0    0 -0.55146398959E+02  0.13280093965E+02 -0.24218766551E+02  0.13946789558E+03  0.12508900444E+03 0.  0.
          5    1    3    3  502    0  0.37241796745E+02 -0.11391123142E+02  0.47688914570E+01  0.39457874207E+02  0.41800000000E+01 0.  1.
         -5    1    3    3    0  502 -0.92388195704E+02  0.24671217106E+02 -0.28987658008E+02  0.10001002138E+03  0.41800000000E+01 0.  1.
        -11    1    1    2    0    0  0.55938829255E+02  0.18642696208E+02 -0.96623193493E+02  0.11319339319E+03  0.00000000000E+00 0. -1.
         11    1    1    2    0    0 -0.79243029663E+00 -0.31922790173E+02 -0.10831462378E+02  0.33719624189E+02  0.00000000000E+00 0.  1.
</event>
<event>
 7    1  0.7017065E-006  0.1043791E+03  0.7561462E-02  0.1271348E+00
         -2   -1    0    0    0  501 -0.00000000000E+00  0.00000000000E+00  0.26996671118E+02  0.26996671118E+02  0.00000000000E+00 0.  1.
          2   -1    0    0  501    0  0.00000000000E+00 -0.00000000000E+00 -0.44005477890E+03  0.44005477890E+03  0.00000000000E+00 0. -1.
         23    2    1    2    0    0 -0.16143115839E+02 -0.56623352658E+01 -0.20204611592E+03  0.23824940288E+03  0.12508989881E+03 0.  0.
          5    1    3    3  502    0  0.21070558638E+02 -0.56391208153E+02 -0.12409553843E+03  0.13798953532E+03  0.41800000000E+01 0. -1.
         -5    1    3    3    0  502 -0.37213674477E+02  0.50728872887E+02 -0.77950577484E+02  0.10025986756E+03  0.41800000000E+01 0. -1.
        -11    1    1    2    0    0  0.45943733249E+02  0.22472849291E+02 -0.95552316959E+02  0.10837943004E+03  0.00000000000E+00 0.  1.
         11    1    1    2    0    0 -0.29800617410E+02 -0.16810514025E+02 -0.11545967490E+03  0.12042261710E+03  0.00000000000E+00 0. -1.
</event>
<event>
 7    1  0.7017065E-006  0.1346206E+03  0.7561462E-02  0.1220756E+00
          2   -1    0    0  501    0  0.00000000000E+00  0.00000000000E+00  0.37141858040E+03  0.37141858040E+03  0.00000000000E+00 0.  1.
         -2   -1    0    0    0  501 -0.00000000000E+00 -0.00000000000E+00 -0.63628174695E+02  0.63628174695E+02  0.00000000000E+00 0. -1.
         23    2    1    2    0    0  0.93745157769E+02 -0.42721692785E+02  0.86625543627E+02  0.18374975771E+03  0.12508673395E+03 0.  0.
          5    1    3    3  502    0  0.39414805222E+02  0.44199123500E+02  0.28777548728E+02  0.65975064226E+02  0.41800000000E+01 0. -1.
         -5    1    3    3    0  502  0.54330352547E+02 -0.86920816286E+02  0.57847994899E+02  0.11777469349E+03  0.41800000000E+01 0. -1.
        -11    1    1    2    0    0 -0.56377058927E+02  0.41305371749E+02  0.84753704969E+02  0.10985307012E+03  0.00000000000E+00 0. -1.
         11    1    1    2    0    0 -0.37368098842E+02  0.14163210361E+01  0.13641115711E+03  0.14144392726E+03  0.00000000000E+00 0.  1.
</event>
<event>
 7    1  0.7017065E-006  0.1311096E+03  0.7561462E-02  0.1225818E+00
         -3   -1    0    0    0  501 -0.00000000000E+00  0.00000000000E+00  0.20481946578E+03  0.20481946578E+03  0.00000000000E+00 0. -1.
          3   -1    0    0  501    0  0.00000000000E+00 -0.00000000000E+00 -0.97744789393E+02  0.97744789393E+02  0.00000000000E+00 0.  1.
         23    2    1    2    0    0  0.64742820152E+02 -0.48339187692E+02  0.10361383672E+03  0.18141221944E+03  0.12508499660E+03 0.  0.
          5    1    3    3  502    0 -0.44638064565E+01 -0.74448841964E+02  0.55745281323E+02  0.93207105027E+02  0.41800000000E+01 0.  1.
         -5    1    3    3    0  502  0.69206626609E+02  0.26109654271E+02  0.47868555399E+02  0.88205114414E+02  0.41800000000E+01 0.  1.
        -11    1    1    2    0    0 -0.85145688143E+01 -0.21878723718E+02 -0.16891067690E+02  0.28922043519E+02  0.00000000000E+00 0.  1.
         11    1    1    2    0    0 -0.56228251338E+02  0.70217911410E+02  0.20351907359E+02  0.92229992218E+02  0.00000000000E+00 0. -1.
</event>
<event>
 7    1  0.7017065E-006  0.1215461E+03  0.7561462E-02  0.1240568E+00
         -4   -1    0    0    0  501 -0.00000000000E+00  0.00000000000E+00  0.89710166471E+03  0.89710166471E+03  0.00000000000E+00 0.  1.
          4   -1    0    0  501    0  0.00000000000E+00 -0.00000000000E+00 -0.30414415081E+02  0.30414415081E+02  0.00000000000E+00 0. -1.
         23    2    1    2    0    0  0.26934727543E+02 -0.90945497074E+02  0.72245280086E+03  0.73931114182E+03  0.12508537868E+03 0.  0.
          5    1    3    3  502    0  0.31487717105E+02  0.45920095713E+01  0.45837901519E+02  0.55956666234E+02  0.41800000000E+01 0.  1.
         -5    1    3    3    0  502 -0.45529895621E+01 -0.95537506646E+02  0.67661489935E+03  0.68335447559E+03  0.41800000000E+01 0.  1.
        -11    1    1    2    0    0  0.12902063478E+02  0.68155252626E+02  0.11333459574E+03  0.13287713232E+03  0.00000000000E+00 0.  1.
         11    1    1    2    0    0 -0.39836791021E+02  0.22790244448E+02  0.30899853029E+02  0.55327805650E+02  0.00000000000E+00 0. -1.
</event>
<event>
 7    1  0.7017065E-006  0.1425022E+03  0.7561462E-02  0.1210001E+00
          1   -1    0    0  501    0  0.00000000000E+00  0.00000000000E+00  0.15770204734E+03  0.15770204734E+03  0.00000000000E+00 0. -1.
         -1   -1    0    0    0  501 -0.00000000000E+00 -0.00000000000E+00 -0.13555778242E+03  0.13555778242E+03  0.00000000000E+00 0.  1.
         23    2    1    2    0    0 -0.17424141184E+02 -0.95913088819E+02  0.95966571042E+01  0.15887807812E+03  0.12508887472E+03 0.  0.
          5    1    3    3  502    0 -0.66218619343E+02 -0.41689546243E+02 -0.18638458388E+02  0.80546808408E+02  0.41800000000E+01 0.  1.
         -5    1    3    3    0  502  0.48794478159E+02 -0.54223542576E+02  0.28235115492E+02  0.78331269715E+02  0.41800000000E+01 0.  1.
        -11    1    1    2    0    0  0.29039445383E+02 -0.71142727720E+01  0.60064408054E+01  0.30495566831E+02  0.00000000000E+00 0.  1.
         11    1    1    2    0    0 -0.11615304199E+02  0.10302736159E+03  0.65411670167E+01  0.10388618481E+03  0.00000000000E+00 0. -1.
</event>
<event>
 7    1  0.7017065E-006  0.1159247E+03  0.7561462E-02  0.1249975E+00
          2   -1    0    0  501    0  0.00000000000E+00  0.00000000000E+00  0.15995935601E+03  0.15995935601E+03  0.00000000000E+00 0.  1.
         -2   -1    0    0    0  501 -0.00000000000E+00 -0.00000000000E+00 -0.10995486403E+03  0.10995486403E+03  0.00000000000E+00 0. -1.
         23    2    1    2    0    0 -0.10412789637E+02  0.71129748929E+02  0.35707978105E+01  0.14433412183E+03  0.12510683737E+03 0.  0.
          5    1    3    3  502    0 -0.41394557447E+02  0.95316415455E+02 -0.40498500327E+01  0.10407978731E+03  0.41800000000E+01 0.  1.
         -5    1    3    3    0  502  0.30981767810E+02 -0.24186666526E+02  0.76206478432E+01  0.40254334522E+02  0.41800000000E+01 0.  1.
        -11    1    1    2    0    0  0.30049061738E+02 -0.28626264561E+02  0.63404135710E+02  0.75779242271E+02  0.00000000000E+00 0.  1.
         11    1    1    2    0    0 -0.19636272101E+02 -0.42503484369E+02 -0.16970441537E+02  0.49800855931E+02  0.00000000000E+00 0. -1.
</event>
<event>
 7    1  0.7017065E-006  0.1194268E+03  0.7561462E-02  0.1244046E+00
         -1   -1    0    0    0  501 -0.00000000000E+00  0.00000000000E+00  0.34215702738E+02  0.34215702738E+02  0.00000000000E+00 0.  1.
          1   -1    0    0  501    0  0.00000000000E+00 -0.00000000000E+00 -0.59312530165E+03  0.59312530165E+03  0.00000000000E+00 0. -1.
         23    2    1    2    0    0 -0.75002161654E+02  0.83048971588E+01 -0.18935174154E+03  0.23915666006E+03  0.12509008937E+03 0.  0.
          5    1    3    3  502    0 -0.69013640081E+01  0.43762136391E+02 -0.14210342793E+03  0.14890805900E+03  0.41800000000E+01 0.  1.
         -5    1    3    3    0  502 -0.68100797646E+02 -0.35457239233E+02 -0.47248313612E+02  0.90248601059E+02  0.41800000000E+01 0.  1.
        -11    1    1    2    0    0  0.96048830009E+02 -0.83928995209E+01 -0.32315791123E+03  0.33723412357E+03  0.00000000000E+00 0.  1.
         11    1    1    2    0    0 -0.21046668356E+02  0.88002362172E-01 -0.46399946138E+02  0.50950220754E+02  0.00000000000E+00 0. -1.
</event>
<event>
 7    1  0.7017065E-006  0.8263963E+02  0.7561462E-02  0.1321723E+00
         -2   -1    0    0    0  501 -0.00000000000E+00  0.00000000000E+00  0.15874119139E+02  0.15874119139E+02  0.00000000000E+00 0.  1.
          2   -1    0    0  501    0  0.00000000000E+00 -0.00000000000E+00 -0.85951752130E+03  0.85951752130E+03  0.00000000000E+00 0. -1.
         23    2    1    2    0    0 -0.15133030479E+01 -0.12961429535E+02 -0.38528532253E+03  0.40530044828E+03  0.12511348797E+03 0.  0.
          5    1    3    3  502    0  0.57205107292E+01  0.23395059989E+02 -0.35860518009E+03  0.35943733900E+03  0.41800000000E+01 0.  1.
         -5    1    3    3    0  502 -0.72338137770E+01 -0.36356489524E+02 -0.26680142440E+02  0.45863109281E+02  0.41800000000E+01 0.  1.
        -11    1    1    2    0    0 -0.40879577461E+02 -0.23899816438E+02 -0.23964102097E+03  0.24427476335E+03  0.00000000000E+00 0. -1.
         11    1    1    2    0    0  0.42392880508E+02  0.36861245973E+02 -0.21871705865E+03  0.22581642880E+03  0.00000000000E+00 0.  1.
</event>
<event>
 7    1  0.7017065E-006  0.2360229E+03  0.7561462E-02  0.1122471E+00
         -4   -1    0    0    0  501 -0.00000000000E+00  0.00000000000E+00  0.24188297617E+03  0.24188297617E+03  0.00000000000E+00 0.  1.
          4   -1    0    0  501    0  0.00000000000E+00 -0.00000000000E+00 -0.25037265215E+03  0.25037265215E+03  0.00000000000E+00 0. -1.
         23    2    1    2    0    0 -0.18808058297E+03 -0.93197534147E+02  0.57857865996E+02  0.25110724959E+03  0.12508889671E+03 0.  0.
          5    1    3    3  502    0 -0.39181297628E+02  0.27860001627E+02 -0.64227621952E+01  0.48683447379E+02  0.41800000000E+01 0.  1.
         -5    1    3    3    0  502 -0.14889928534E+03 -0.12105753577E+03  0.64280628191E+02  0.20242380222E+03  0.41800000000E+01 0.  1.
        -11    1    1    2    0    0  0.12969616763E+03  0.98369232531E+01 -0.37269503629E+02  0.13530290780E+03  0.00000000000E+00 0. -1.
         11    1    1    2    0    0  0.58384415337E+02  0.83360610894E+02 -0.29078038344E+02  0.10584547093E+03  0.00000000000E+00 0.  1.
</event>
<event>
 7    1  0.7017065E-006  0.1702334E+03  0.7561462E-02  0.1177605E+00
          1   -1    0    0  501    0  0.00000000000E+00  0.00000000000E+00  0.32335547312E+03  0.32335547312E+03  0.00000000000E+00 0. -1.
         -1   -1    0    0    0  501 -0.00000000000E+00 -0.00000000000E+00 -0.12803981230E+03  0.12803981230E+03  0.00000000000E+00 0.  1.
         23    2    1    2    0    0 -0.11733056101E+03 -0.10762909015E+03  0.29174211171E+02  0.20457348863E+03  0.12509474834E+03 0.  0.
          5    1    3    3  502    0 -0.11401294951E+03 -0.85895180156E+02 -0.25888533236E+02  0.14513656735E+03  0.41800000000E+01 0. -1.
         -5    1    3    3    0  502 -0.33176114937E+01 -0.21733909991E+02  0.55062744407E+02  0.59436921279E+02  0.41800000000E+01 0. -1.
        -11    1    1    2    0    0  0.24892043846E+02  0.72050639713E+02  0.10727297378E+03  0.13159938994E+03  0.00000000000E+00 0. -1.
         11    1    1    2    0    0  0.92438517159E+02  0.35578450433E+02  0.58868475871E+02  0.11522240685E+03  0.00000000000E+00 0.  1.
</event>
<event>
 7    1  0.7017065E-006  0.7711829E+02  0.7561462E-02  0.1337434E+00
          4   -1    0    0  501    0  0.00000000000E+00  0.00000000000E+00  0.19290045924E+03  0.19290045924E+03  0.00000000000E+00 0. -1.
         -4   -1    0    0    0  501 -0.00000000000E+00 -0.00000000000E+00 -0.79168540336E+02  0.79168540336E+02  0.00000000000E+00 0.  1.
         23    2    1    2    0    0  0.21638518092E+02 -0.47597906338E+02  0.65417498022E+02  0.15053196140E+03  0.12508651487E+03 0.  0.
          5    1    3    3  502    0  0.17279786141E+02 -0.17172561387E+01 -0.35372465089E+02  0.39626047799E+02  0.41800000000E+01 0.  1.
         -5    1    3    3    0  502  0.43587319514E+01 -0.45880650199E+02  0.10078996311E+03  0.11090591360E+03  0.41800000000E+01 0.  1.
        -11    1    1    2    0    0  0.50098738131E+01  0.60349501046E+02 -0.48133259433E+01  0.60748079959E+02  0.00000000000E+00 0.  1.
         11    1    1    2    0    0 -0.26648391906E+02 -0.12751594708E+02  0.53127746825E+02  0.60788958220E+02  0.00000000000E+00 0. -1.
</event>
